/*--------------------------------*- C++ -*----------------------------------*\
  =========                 |
  \\      /  F ield         | OpenFOAM: The Open Source CFD Toolbox
   \\    /   O peration     | Website:  https://openfoam.org
    \\  /    A nd           | Version:  12
     \\/     M anipulation  |
\*---------------------------------------------------------------------------*/
/*   Windows 32 and 64 bit porting by blueCAPE: http://www.bluecape.com.pt   *\
|  Based on Windows porting (2.0.x v4) by Symscape: http://www.symscape.com   |
\*---------------------------------------------------------------------------*/
FoamFile
{
    format      ascii;
    class       surfaceScalarField;
    location    "300";
    object      phi;
}
// * * * * * * * * * * * * * * * * * * * * * * * * * * * * * * * * * * * * * //

dimensions      [0 3 -1 0 0 0 0];

internalField   nonuniform List<scalar> 
28828
(
2.19489909395102e-06
9.22422809280783e-07
-9.76807080383074e-07
2.24765775896942e-06
8.92665040979308e-07
-9.45434880690974e-07
1.877664897419e-06
1.64172943063982e-06
-7.16794188561738e-07
1.73444828668554e-06
9.94778501181364e-07
-1.95642441202822e-06
2.30928468851202e-06
8.72637401602751e-07
-9.34269636259804e-07
1.88472141681636e-06
1.59485528904324e-06
-7.09269178451293e-07
1.72788056213436e-06
9.76969216802835e-07
-1.91587039624184e-06
1.8878853584016e-06
2.28293270520683e-06
-6.49322905812214e-07
1.61500264066042e-06
1.70024820826584e-06
-1.39904695639462e-06
1.54978491300644e-06
1.0430012048089e-06
-2.98040136893745e-06
2.38455144671637e-06
8.50993554435526e-07
-9.26271665666109e-07
1.90445610016719e-06
1.57253397830277e-06
-7.19647276583979e-07
1.73207235770309e-06
9.68945438225494e-07
-1.90744519302235e-06
1.90959938723467e-06
2.2297474817474e-06
-6.56611058931132e-07
1.60656400373227e-06
1.68870465647808e-06
-1.41259148765617e-06
1.54319329744428e-06
1.03475001793047e-06
-2.94405368619463e-06
1.98284083078184e-06
2.96159876004231e-06
-7.06306076581096e-07
1.63155126059096e-06
2.10769518313955e-06
-1.06391188062386e-06
1.29341586507099e-06
1.4854532417171e-06
-1.83474382145702e-06
1.57008551302338e-06
1.06604562091931e-06
-4.04053503850529e-06
2.47242876847724e-06
8.3001621807602e-07
-9.17891185094697e-07
1.93312280465573e-06
1.5424061112667e-06
-7.20088894648237e-07
1.74925727280014e-06
9.52735552495096e-07
-1.89621237866143e-06
1.94374695106098e-06
2.2071006390107e-06
-6.68726194691052e-07
1.6093661023051e-06
1.69067191822139e-06
-1.44419656165208e-06
1.54492593417501e-06
1.034969377337e-06
-2.94417965235155e-06
2.02199768004716e-06
2.91054860319327e-06
-7.19955787519478e-07
1.6491207654471e-06
2.10548815085448e-06
-1.09097729124809e-06
1.29368409470567e-06
1.49124041522153e-06
-1.86938646792986e-06
1.5725357291419e-06
1.06305978632674e-06
-4.0095936391961e-06
2.07167140765227e-06
3.61625359399854e-06
-7.0185695935695e-07
1.46074571191673e-06
2.28857626895522e-06
-8.93418447331926e-07
9.14763343436882e-07
1.53464393656141e-06
-1.08184133031768e-06
1.07341912887603e-06
1.38402431794932e-06
-2.14001873068952e-06
1.60283879773686e-06
1.08444742043876e-06
-5.1321402076806e-06
2.57416183938307e-06
8.10812457055552e-07
-9.12545878645597e-07
1.97216125088309e-06
1.50931196332342e-06
-7.1833344983115e-07
1.78206215736901e-06
9.33770811541516e-07
-1.88448584304648e-06
1.98430238446539e-06
2.17395557857896e-06
-6.72109847876576e-07
1.62390646067383e-06
1.67990514755497e-06
-1.46182149035912e-06
1.56018664082521e-06
1.02708798686019e-06
-2.93858906226342e-06
2.07289416305008e-06
2.88716078170664e-06
-7.30963359223119e-07
1.67911564679444e-06
2.11494852841206e-06
-1.12302400916206e-06
1.3020427703965e-06
1.50376284140333e-06
-1.92137265392041e-06
1.58144793779757e-06
1.06540392799179e-06
-4.01850985986777e-06
2.12909915868863e-06
3.57010539567228e-06
-7.16993623541179e-07
1.47421148236116e-06
2.28939129510715e-06
-9.17345702439101e-07
8.87015493952629e-07
1.54245508043577e-06
-1.11444694730357e-06
1.06233477086993e-06
1.38856094957339e-06
-2.18382674274749e-06
1.61444629270091e-06
1.0836932501802e-06
-5.10491400905361e-06
2.13366830137246e-06
4.20671806104469e-06
-6.55525106992194e-07
1.323819428269e-06
2.37965377444888e-06
-7.97987375851992e-07
7.57799715010177e-07
1.54663085080215e-06
-8.60871660287509e-07
6.46242565978301e-07
1.46703808653803e-06
-1.11065335833918e-06
9.49284712028462e-07
1.41061985739805e-06
-2.44262498905882e-06
1.55657191810273e-06
1.1615162314368e-06
-6.30607954608839e-06
2.69168708722489e-06
7.93224406178672e-07
-9.10765103672872e-07
2.02538091214688e-06
1.47647797122401e-06
-7.18890772964973e-07
1.83387796657803e-06
9.13894633084045e-07
-1.87826509711564e-06
2.03138937691193e-06
2.13404234124129e-06
-6.71828598538535e-07
1.65294053593169e-06
1.66307080930694e-06
-1.4766838547835e-06
1.59402368859312e-06
1.01443901322097e-06
-2.93277490246355e-06
2.13018218328482e-06
2.8517163554466e-06
-7.35055549071562e-07
1.7220523214474e-06
2.11302986409981e-06
-1.14818457933363e-06
1.32498083310842e-06
1.507683858054e-06
-1.96537119060575e-06
1.60368323627353e-06
1.06098422146919e-06
-4.0218320988368e-06
2.19616472364741e-06
3.54628490421001e-06
-7.26196007865917e-07
1.50008765726825e-06
2.29956341238559e-06
-9.41464442970193e-07
8.68877124572601e-07
1.55508760594265e-06
-1.15621448214043e-06
1.05832105894061e-06
1.39685341486184e-06
-2.24884397936056e-06
1.62974869314095e-06
1.08499417719812e-06
-5.11883555766292e-06
2.20601996902516e-06
4.16649954126048e-06
-6.68756297609221e-07
1.3345051784421e-06
2.37911268639383e-06
-8.17401646484059e-07
7.17384436191419e-07
1.55082467769435e-06
-8.85304599625588e-07
5.93785472632416e-07
1.46873172703048e-06
-1.14217716053416e-06
9.2818146555341e-07
1.40938772258709e-06
-2.48844275191976e-06
1.57078767676935e-06
1.1592805238658e-06
-6.27843644937113e-06
2.16240759504773e-06
4.7318961825721e-06
-6.015215069511e-07
1.24182151950298e-06
2.45472263489581e-06
-7.37179470587433e-07
7.2581107088573e-07
1.59737928168606e-06
-8.06336969823553e-07
5.65671361926392e-07
1.55195393738029e-06
-8.82451193834483e-07
5.63265613195924e-07
1.5978991415161e-06
-1.23433007424353e-06
8.37017570636491e-07
1.52204281553809e-06
-2.77150060750807e-06
1.42059127348387e-06
1.25319852017025e-06
-7.57143021467845e-06
2.82580765659575e-06
7.77070010197382e-07
-9.11202878936884e-07
2.09552248162919e-06
1.44422740244436e-06
-7.21155821953004e-07
1.90741824565151e-06
8.92794483794732e-07
-1.87710580297677e-06
2.08682128201947e-06
2.09094954269211e-06
-6.69900862739717e-07
1.69800954526014e-06
1.64196911982507e-06
-1.49205933811331e-06
1.64931251322719e-06
9.98681555431748e-07
-2.93224759752237e-06
2.19145326020562e-06
2.80776820461003e-06
-7.35009003361998e-07
1.77736591734348e-06
2.10606591976773e-06
-1.1701419708065e-06
1.36478875009874e-06
1.50450075451777e-06
-2.0065723198049e-06
1.64409224596457e-06
1.05111689662191e-06
-4.02432884538501e-06
2.26885880848469e-06
3.50861895589749e-06
-7.29603028957688e-07
1.53825921524465e-06
2.30185508906123e-06
-9.62056784424295e-07
8.64476461813809e-07
1.56017798596929e-06
-1.19628296344074e-06
1.06788785339367e-06
1.3979741603934e-06
-2.31194703317209e-06
1.65701837906406e-06
1.07997566613495e-06
-5.12909080006257e-06
2.28488095050976e-06
4.14265897297019e-06
-6.75236915074072e-07
1.35490238138294e-06
2.38726259549828e-06
-8.34292362435224e-07
6.8571310377317e-07
1.55871930623617e-06
-9.13427490154617e-07
5.49175733285137e-07
1.47194985520335e-06
-1.18671020051749e-06
9.1417072642165e-07
1.40920702455207e-06
-2.55906995461959e-06
1.58779393520401e-06
1.157271696448e-06
-6.29312622196079e-06
2.24568908522608e-06
4.69614465879906e-06
-6.12936050598608e-07
1.25217241838591e-06
2.45149739868004e-06
-7.51494581841877e-07
6.85829116933385e-07
1.59713874047475e-06
-8.23743338622923e-07
5.04237979186304e-07
1.54864240815001e-06
-9.03790590878962e-07
5.01860421997417e-07
1.59179993279503e-06
-1.26319497208399e-06
8.07938965930374e-07
1.51554437565374e-06
-2.81563868264807e-06
1.43324755452815e-06
1.24766912611066e-06
-7.53877310478395e-06
2.17251568320748e-06
5.19637096534146e-06
-5.45724631503734e-07
1.192475622917e-06
2.53167378663441e-06
-6.87838512236832e-07
7.3564911801208e-07
1.6771717247036e-06
-7.80998517295666e-07
5.81299670300235e-07
1.64728515779366e-06
-8.42760995562619e-07
5.13927644091335e-07
1.75319372958684e-06
-9.67718947588688e-07
5.17684923209197e-07
1.78655345437681e-06
-1.43241481365121e-06
7.16522997159544e-07
1.6919499142956e-06
-3.17382206568333e-06
1.23332473757205e-06
1.4077775789571e-06
-8.98905075785161e-06
2.9752448095895e-06
7.62508667696825e-07
-9.11945736909521e-07
2.18289971736465e-06
1.41274026434087e-06
-7.23056806386736e-07
2.00424552582831e-06
8.70123676322873e-07
-1.87816196830347e-06
2.15198704114425e-06
2.04547781354238e-06
-6.66420427139888e-07
1.75910175627705e-06
1.6169204721214e-06
-1.506375822785e-06
1.72861806484697e-06
9.79778798113148e-07
-2.9361956002329e-06
2.25675087445514e-06
2.75779329342899e-06
-7.32141181507129e-07
1.84506895062414e-06
2.09323936251448e-06
-1.18887505640035e-06
1.42180651113462e-06
1.49551088116448e-06
-2.04592669241433e-06
1.70663321479248e-06
1.03601099802932e-06
-4.03081170470594e-06
2.34592826741315e-06
3.4609766329841e-06
-7.30275443788235e-07
1.58834271602686e-06
2.29957493236539e-06
-9.7858612404091e-07
8.74435757868897e-07
1.55819741364413e-06
-1.23380903759116e-06
1.09372313950829e-06
1.3911007363166e-06
-2.37240391275978e-06
1.70265001500748e-06
1.06803772624006e-06
-5.1380083038178e-06
2.36806158422591e-06
4.10337715933044e-06
-6.77936539547631e-07
1.38582653694876e-06
2.3893941510081e-06
-8.48067443989557e-07
6.6428561746931e-07
1.55983956163889e-06
-9.40289692055154e-07
5.15225942616461e-07
1.46846078293721e-06
-1.23283123625013e-06
9.1225916831304e-07
1.40248035660974e-06
-2.63255241626961e-06
1.61601745671858e-06
1.14905146488678e-06
-6.30638102650864e-06
2.3327119326318e-06
4.67278301625803e-06
-6.17158989005781e-07
1.27061115590526e-06
2.45590500016181e-06
-7.62331008101177e-07
6.52872788778484e-07
1.59900364648713e-06
-8.4162402325648e-07
4.4930067516219e-07
1.54513491968347e-06
-9.3168401204516e-07
4.47260866966511e-07
1.58431660413507e-06
-1.30722839007678e-06
7.8579977622602e-07
1.50761278058675e-06
-2.88728271302248e-06
1.44863598710288e-06
1.24303333425978e-06
-7.55154278258499e-06
2.26020965416225e-06
5.16269950184604e-06
-5.54246539123783e-07
1.20464436560333e-06
2.52500348430563e-06
-6.98610893708766e-07
7.01615413371371e-07
1.67216910200148e-06
-7.92498469794642e-07
5.24257634169425e-07
1.63914193992169e-06
-8.57205133228152e-07
4.46335627734319e-07
1.74220779211038e-06
-9.86615288096589e-07
4.53465055479679e-07
1.77392847614517e-06
-1.45736563298529e-06
6.81920642338453e-07
1.68118092049775e-06
-3.21454556640335e-06
1.24341332377977e-06
1.39866720485106e-06
-8.94752105059968e-06
2.17612657718486e-06
5.60252026999201e-06
-4.89462966027225e-07
1.16198570927117e-06
2.61296116283194e-06
-6.39139747280328e-07
7.60037462153942e-07
1.77105737001668e-06
-7.53465485468396e-07
6.21569796081849e-07
1.74741882716702e-06
-8.30814715624654e-07
5.41484366820208e-07
1.88134698089013e-06
-9.0650763833556e-07
4.91752953276286e-07
1.99198275433391e-06
-1.10270119574682e-06
4.76279281644918e-07
2.01593226390535e-06
-1.69070311363234e-06
6.03431777475587e-07
1.94506825118786e-06
-3.67252684746351e-06
1.02965866811438e-06
1.65168492489437e-06
-1.06472791548097e-05
3.1370261649393e-06
-9.10591945533651e-07
7.48821524172252e-07
2.28813512338657e-06
1.38216253068697e-06
-7.24885515531163e-07
2.12475635237495e-06
8.45864851608928e-07
-1.87833810690453e-06
2.22764001092496e-06
1.99759119668835e-06
-6.60494954488118e-07
1.83526951682626e-06
1.58708897246994e-06
-1.51620427406578e-06
1.83357474688451e-06
9.5639900281571e-07
-2.93952941126362e-06
2.32605015273968e-06
2.70207396709159e-06
-7.25888520844018e-07
1.92498367878095e-06
2.07404356264833e-06
-1.20346598895291e-06
1.49567443975907e-06
1.4801024305308e-06
-2.08058159811879e-06
1.79387149452161e-06
1.01531120615129e-06
-4.03875582131083e-06
2.42608501873905e-06
3.40520921545264e-06
-7.27560923978889e-07
1.65030214522532e-06
2.29037805972909e-06
-9.91236137559873e-07
8.98829456999129e-07
1.55041599729357e-06
-1.26817439635585e-06
1.13678455012368e-06
1.3763850946324e-06
-2.42937690394569e-06
1.77151533456346e-06
1.04918283583677e-06
-5.14887537806177e-06
2.45434745699827e-06
4.05256956720317e-06
-6.77871769309332e-07
1.42767039965633e-06
2.38555046402388e-06
-8.58096720112732e-07
6.53601989843219e-07
1.55378143453457e-06
-9.63490162217643e-07
4.93236227725954e-07
1.45579162677285e-06
-1.2765177053092e-06
9.25424167697076e-07
1.38738830121321e-06
-2.70493780947235e-06
1.6623995232027e-06
1.13378831974644e-06
-6.31818297960426e-06
2.4216203699724e-06
4.63268911117366e-06
-6.18223405019192e-07
1.29780869883147e-06
2.4545574617289e-06
-7.7029891133941e-07
6.27850170517612e-07
1.5947881929949e-06
-8.57996802533589e-07
4.02713073162373e-07
1.53491483244565e-06
-9.60158783377518e-07
4.01503654181111e-07
1.57020267025236e-06
-1.35480556457772e-06
7.75170532383564e-07
1.49281721771348e-06
-2.96569541626152e-06
1.47486288943195e-06
1.23239909226561e-06
-7.56500607139651e-06
2.35100285072484e-06
5.13870538339706e-06
-5.56720243483986e-07
1.22320306575981e-06
2.5250097992595e-06
-7.04823340065277e-07
6.7300259034962e-07
1.66822104023338e-06
-8.02941928243151e-07
4.72387541695727e-07
1.62924642745299e-06
-8.73871439103866e-07
3.83830763334489e-07
1.72802767760741e-06
-1.01289345971592e-06
3.94942095450051e-07
1.75783118820136e-06
-1.49892496636593e-06
6.53938822206854e-07
1.6685475716821e-06
-3.28481289156217e-06
1.25705441346226e-06
1.39037614126971e-06
-8.95555189174782e-06
2.26507280143868e-06
5.56971030062978e-06
-4.95956390989985e-07
1.17647809972474e-06
2.60290541386939e-06
-6.46643678111724e-07
7.33165729503454e-07
1.76153054611372e-06
-7.61103747363077e-07
5.7298490461294e-07
1.73514870094619e-06
-8.39926267675951e-07
4.79330425532193e-07
1.86604359298381e-06
-9.18893220721117e-07
4.23617662487907e-07
1.97451356872567e-06
-1.119069125212e-06
4.12207467246156e-07
1.99824806340092e-06
-1.71036620975603e-06
5.66234665373811e-07
1.92911743438935e-06
-3.70778341840204e-06
1.03783908455602e-06
1.63742543974751e-06
-1.05931020199743e-05
2.17824705878922e-06
5.95317084987708e-06
-4.34328315748879e-07
1.14364732637811e-06
2.69705820325663e-06
-5.88091891183742e-07
7.88267905717475e-07
1.87016026974815e-06
-7.17457007304102e-07
6.67337434050887e-07
1.84781726122837e-06
-8.12992861969279e-07
5.87999295370594e-07
1.99097386165095e-06
-8.85335223368921e-07
5.25856617114065e-07
2.14385628200045e-06
-9.94273735145331e-07
4.74373565684529e-07
2.25382278765935e-06
-1.27284565274853e-06
4.36185322658731e-07
2.30572506724546e-06
-1.98854117683319e-06
5.01025994812056e-07
2.2769729625539e-06
-4.25948282355199e-06
8.2744066761867e-07
2.07175982038522e-06
-1.27218598186572e-05
3.30678647292148e-06
-9.05374548162923e-07
7.35609493625457e-07
2.26804399850791e-06
-1.87304775656903e-06
8.19166205925655e-07
2.41035973903179e-06
-7.25349978180203e-07
1.35194035287618e-06
2.31232614611914e-06
1.94739210742169e-06
-6.49915641024536e-07
1.92544416640423e-06
1.55015959033952e-06
-1.51936623921979e-06
1.96351463729742e-06
9.28046626212033e-07
-2.93633291602994e-06
2.39875785104856e-06
2.63996167697606e-06
-7.15069941542676e-07
2.01676298801659e-06
2.04647926974799e-06
-1.21166063357354e-06
1.58534135804406e-06
1.4563275620568e-06
-2.10580882154035e-06
1.9084467361984e-06
9.87479365398593e-07
-4.04158349166569e-06
2.50757001982769e-06
3.3408189646485e-06
-7.20227546952326e-07
1.72336153509379e-06
2.27438266786012e-06
-9.99295940969691e-07
9.37348263524542e-07
1.53494876092592e-06
-1.29682824221769e-06
1.19718703116042e-06
1.35391768662603e-06
-2.47960746843253e-06
1.86611165025794e-06
1.02321251681766e-06
-5.15658195564389e-06
2.54202860660274e-06
3.99178848982725e-06
-6.74243795623203e-07
1.47955307966043e-06
2.37490663431556e-06
-8.63963415849999e-07
6.53985112559404e-07
1.5409551736999e-06
-9.82159158755052e-07
4.83911155498836e-07
1.4338040812483e-06
-1.31627496903851e-06
9.560294730371e-07
1.36304534155086e-06
-2.77385324859899e-06
1.73234928444729e-06
1.11112413265009e-06
-6.32995285617141e-06
2.51190961762069e-06
4.57984020796222e-06
-6.1755551567721e-07
1.33343819692987e-06
2.44695616040784e-06
-7.74901090284145e-07
6.11029393082314e-07
1.58282826497243e-06
-8.70324451703039e-07
3.65342463144526e-07
1.51512217942947e-06
-9.85451839394286e-07
3.66084959374085e-07
1.54697500000484e-06
-1.40069184347159e-06
7.7940379785862e-07
1.46983532189771e-06
-3.04522186099509e-06
1.51960785928883e-06
1.21475070741654e-06
-7.57767912358246e-06
2.44286154802645e-06
5.097394167237e-06
-5.56557179994187e-07
1.24862742274791e-06
2.51915717093873e-06
-7.08240185819119e-07
6.50643639227598e-07
1.65797849413062e-06
-8.11133151706983e-07
4.26842852544041e-07
1.61213791041475e-06
-8.89678920007478e-07
3.27822950731417e-07
1.70654030032416e-06
-1.04049540652836e-06
3.44287417830006e-07
1.73416402812005e-06
-1.54550137862787e-06
6.37122064276066e-07
1.64850896674823e-06
-3.3649782187394e-06
1.28213442859927e-06
1.37639405997536e-06
-8.9664638473254e-06
2.35578838472814e-06
5.54463695318942e-06
-4.96641444400171e-07
1.19599633621927e-06
2.59852940271625e-06
-6.49759143978342e-07
7.10609862158462e-07
1.75238059661809e-06
-7.66427950067027e-07
5.28371879798786e-07
1.7199778575267e-06
-8.49066119406858e-07
4.21199109764083e-07
1.84627577060691e-06
-9.33992996893598e-07
3.59748214651776e-07
1.95200563055554e-06
-1.14320145579844e-06
3.53078456025884e-07
1.97633240714125e-06
-1.74758108820125e-06
5.34823211623966e-07
1.91168258999139e-06
-3.7746934519633e-06
1.04948489805831e-06
1.6249218010274e-06
-1.05920928073393e-05
2.2665717646042e-06
5.92058425438809e-06
-4.39215962009541e-07
1.16009853951974e-06
2.68357321651407e-06
-5.93077557384444e-07
7.68469242694887e-07
1.85678456253545e-06
-7.22101884306507e-07
6.27780166507006e-07
1.83192383898017e-06
-8.18330281383524e-07
5.34778279381358e-07
1.97212406778159e-06
-8.92789083675879e-07
4.6385985134906e-07
2.12261899034761e-06
-1.00500413495852e-06
4.08367477381564e-07
2.23127543766533e-06
-1.28609381410222e-06
3.7426358937656e-07
2.28334762516376e-06
-2.00267792118225e-06
4.63781418743506e-07
2.25628973296037e-06
-4.28938118765176e-06
8.37832948602312e-07
2.05350976507035e-06
-1.26569752435013e-05
2.17951571218706e-06
6.25179021213388e-06
-3.81457273959257e-07
1.13280873127618e-06
2.78095044999461e-06
-5.35058580031663e-07
8.15842819323473e-07
1.96923522429614e-06
-6.73204102515046e-07
7.11841997126318e-07
1.94588838892562e-06
-7.83409472396836e-07
6.38503227521097e-07
2.08838453961028e-06
-8.64863221454871e-07
5.73991487648021e-07
2.2587164787145e-06
-9.45248386465836e-07
5.15579643064436e-07
2.41649491803664e-06
-1.09584902839093e-06
4.56559090780797e-07
2.55395010720674e-06
-1.45763528034147e-06
3.97998701835527e-07
2.67418292334718e-06
-2.32759412520744e-06
4.16373718932676e-07
2.79190534054117e-06
-4.94401296912708e-06
6.35444630318703e-07
2.96653938725546e-06
-1.56911603906157e-05
3.47685699568831e-06
-8.93388151840963e-07
7.23320444334811e-07
2.42922196708104e-06
-1.85749316860754e-06
7.90937995835374e-07
2.54686030428024e-06
-7.22344515251236e-07
1.32145147198044e-06
2.1160188217506e-06
-2.92017556382057e-06
8.94613264958987e-07
2.02827851855061e-06
-1.5136453572143e-06
1.50463145810677e-06
2.4028039473427e-06
-6.33264336953611e-07
1.89473323022949e-06
2.47326596364233e-06
2.57044703290894e-06
-6.97561959860882e-07
2.11715319738995e-06
2.00908956245826e-06
-1.2092321392246e-06
1.68916758423299e-06
1.42195727437196e-06
-2.11711884820352e-06
2.04917914239667e-06
9.52748008279466e-07
-4.02982718912863e-06
2.58780510047451e-06
3.26680013098184e-06
-7.07067118738842e-07
1.80625466367647e-06
2.24926481446154e-06
-1.00074072607498e-06
9.88625192048388e-07
1.50997685305752e-06
-1.31659209965147e-06
1.27442989543103e-06
1.32227919564831e-06
-2.51786525084075e-06
1.98848805874655e-06
9.89943965871003e-07
-5.15391565593612e-06
2.628925209651e-06
3.92045825639956e-06
-6.66528279027469e-07
1.54050897805854e-06
2.35759113599579e-06
-8.64381665677555e-07
6.65122703477751e-07
1.51956332795638e-06
-9.95048506023263e-07
4.87911705131387e-07
1.4023446124151e-06
-1.34926175583709e-06
1.00557539759054e-06
1.32923176652899e-06
-2.83517925315847e-06
1.83024108452901e-06
1.07939331025583e-06
-6.33386779427804e-06
2.60206985072016e-06
4.51563753079895e-06
-6.13996802877006e-07
1.37659297652457e-06
2.43283682382209e-06
-7.75322050482285e-07
6.02536474228091e-07
1.56274010133447e-06
-8.77259795146112e-07
3.37168240741215e-07
1.48534542560819e-06
-1.0055316328328e-06
3.42369996645633e-07
1.51290407542583e-06
-1.44242759153197e-06
8.01593321321745e-07
1.43793724729153e-06
-3.12286136817692e-06
1.58940725272492e-06
1.18984110973336e-06
-7.58958115355622e-06
2.53453383143153e-06
5.04276052050731e-06
-5.54595462250472e-07
1.28026466974666e-06
2.50659487759936e-06
-7.08829614581644e-07
6.34459106235933e-07
1.63952994453379e-06
-8.15427122331274e-07
3.87989176448091e-07
1.58554401786453e-06
-9.01894442589711e-07
2.79599231393371e-07
1.67528379946865e-06
-1.06554214729268e-06
3.03324296875763e-07
1.7013560023586e-06
-1.59125082715312e-06
6.35353154048235e-07
1.6199258948844e-06
-3.44862058640002e-06
1.3273189226592e-06
1.35575203260573e-06
-8.97859639672064e-06
2.44664531269609e-06
5.50174076706318e-06
-4.95210627265798e-07
1.22068040943093e-06
2.58825096950571e-06
-6.50330855922564e-07
6.92874657361914e-07
1.73658541494945e-06
-7.69113688344412e-07
4.88515593184392e-07
1.69708371508864e-06
-8.56225832978446e-07
3.68210906269964e-07
1.81825845025671e-06
-9.48414385837434e-07
3.01464130293445e-07
1.92105297973105e-06
-1.16910350148826e-06
3.0104375710103e-07
1.94618565801135e-06
-1.7911445573553e-06
5.13645438843555e-07
1.88674588129784e-06
-3.85413573028518e-06
1.07214511978646e-06
1.60636225507589e-06
-1.05954586146727e-05
2.35542900368582e-06
5.89450131829299e-06
-4.38720997770723e-07
1.18058203238255e-06
2.67515925501858e-06
-5.9376040034709e-07
7.52053996248814e-07
1.84307861740459e-06
-7.24044980850223e-07
5.91277430640134e-07
1.81251064642991e-06
-8.22462682544065e-07
4.84665270111781e-07
1.94796810594211e-06
-9.00650946607941e-07
4.05103561445116e-07
2.09532715202424e-06
-1.01856112747645e-06
3.4591388625827e-07
2.20286827622029e-06
-1.30728460997817e-06
3.1669108686366e-07
2.25672748219647e-06
-2.03505292551827e-06
4.31946920810063e-07
2.23531610862918e-06
-4.35322726637327e-06
8.48646907273938e-07
2.0389660602926e-06
-1.26418275240519e-05
2.2662094767011e-06
6.21905091837108e-06
-3.8516282699716e-07
1.15102208509344e-06
2.76442319141551e-06
-5.38285793530449e-07
8.0246190003647e-07
1.95266662641451e-06
-6.75578611651018e-07
6.80787381152994e-07
1.92671851200461e-06
-7.85844812163962e-07
5.94472661662805e-07
2.06640101097355e-06
-8.68582476763967e-07
5.20819774439425e-07
2.23432909954215e-06
-9.51330702018894e-07
4.56134439182124e-07
2.39043008337368e-06
-1.10471502019627e-06
3.94210915948815e-07
2.52709151075593e-06
-1.4674911887667e-06
3.40005846492565e-07
2.64769641204209e-06
-2.33608876703582e-06
3.82766479022571e-07
2.7671599287102e-06
-4.96940083033746e-06
6.53420329141744e-07
2.94774658350514e-06
-1.5622660427046e-05
2.17791810991644e-06
6.50470212137325e-06
-3.33935843278213e-07
1.12694974148785e-06
2.86283062787773e-06
-4.82138376759941e-07
8.41102148881474e-07
2.06558702117086e-06
-6.23429937445688e-07
7.52643857220264e-07
2.04016260341672e-06
-7.4323481712189e-07
6.87305248649007e-07
2.17662652218359e-06
-8.35078329135913e-07
6.24678161313706e-07
2.34961825526405e-06
-9.10097340490009e-07
5.65180113374302e-07
2.52825045783306e-06
-1.00473000646604e-06
5.05819013663718e-07
2.70992776681071e-06
-1.19509697776372e-06
4.3852297662619e-07
2.90458292450898e-06
-1.63020405152381e-06
3.67285266357383e-07
3.15499854344385e-06
-2.63875737382242e-06
3.68507696506786e-07
3.67194891270545e-06
-5.61924240054833e-06
3.92328695649639e-07
5.57230050746315e-06
3.63674212947154e-06
-8.70856500326905e-07
7.10963990941152e-07
2.60029299447583e-06
-1.82576234496024e-06
7.61290755198817e-07
2.69337001853838e-06
-7.13720164802685e-07
1.29052195910548e-06
2.28590641552064e-06
-2.88301468728737e-06
8.55631639893732e-07
2.13779651503756e-06
-1.49383673776733e-06
1.45290449099864e-06
2.49548464330412e-06
-6.10508341913207e-07
1.83927741918332e-06
2.21288734786204e-06
-3.99406812095943e-06
9.10168103973237e-07
1.80409861490965e-06
-2.11002207506711e-06
1.37605140649252e-06
2.22047072424389e-06
-1.1930804141685e-06
1.96114119197805e-06
2.54703111725701e-06
-6.72387667426145e-07
2.49336201055044e-06
2.66332825319595e-06
3.18224783204097e-06
-6.873073318361e-07
1.8957607702432e-06
2.21393336828704e-06
-9.91902171782908e-07
1.05096682280597e-06
1.47420111064047e-06
-1.3238218558258e-06
1.36770969456333e-06
1.27950508138091e-06
-2.53716845367111e-06
2.14025003930701e-06
9.47593768642815e-07
-5.12918080757772e-06
2.71176517609756e-06
3.8375825578016e-06
-6.53616651999934e-07
1.60875096552401e-06
2.33185102291926e-06
-8.57885974186944e-07
6.86157405732783e-07
1.48844036874378e-06
-1.00023540613586e-06
5.04753578412136e-07
1.36160358191277e-06
-1.37276611326166e-06
1.07506718753089e-06
1.28602462437193e-06
-2.88345332730697e-06
1.96129352794288e-06
1.03817155584699e-06
-6.32313971958768e-06
2.6896443470731e-06
4.4395342629793e-06
-6.06634654012827e-07
1.42637492872525e-06
2.41163915152217e-06
-7.70349935174329e-07
6.01835943587892e-07
1.53377099985922e-06
-8.77892819148411e-07
3.18239001525317e-07
1.44485791180734e-06
-1.0186337362957e-06
3.31420290443774e-07
1.4679187592543e-06
-1.47700434718698e-06
8.44452958090155e-07
1.39531324781885e-06
-3.19396027917289e-06
1.69074571735765e-06
1.15487816104041e-06
-7.59007905485773e-06
2.62401899070137e-06
4.97616118338887e-06
-5.50000170242975e-07
1.31729522661557e-06
2.48738511882398e-06
-7.05585118166461e-07
6.24110344624947e-07
1.6125613978917e-06
-8.14793126909106e-07
3.55883091662668e-07
1.54890716929683e-06
-9.08721088738524e-07
2.40098454072823e-07
1.63273049292633e-06
-1.08586121317395e-06
2.7371429077204e-07
1.65870790106347e-06
-1.6335892814858e-06
6.52783294301863e-07
1.58229837516218e-06
-3.53274483358796e-06
1.39918994323627e-06
1.32772859468182e-06
-8.98917444240769e-06
2.53642541697231e-06
5.44535700248841e-06
-4.92374012552107e-07
1.24978585122248e-06
2.57105076682496e-06
-6.48152189087817e-07
6.79588260987109e-07
1.71212578042612e-06
-7.68141237046268e-07
4.535807185386e-07
1.6645013825772e-06
-8.59453227079568e-07
3.21034229624496e-07
1.7800527914176e-06
-9.59489660556025e-07
2.50009903951832e-07
1.88005228429482e-06
-1.19278823493755e-06
2.581121724149e-07
1.90645443557326e-06
-1.83484748681736e-06
5.0720072843335e-07
1.85309549831063e-06
-3.93950100333793e-06
1.11577982263131e-06
1.58093350859282e-06
-1.06031380489832e-05
2.4433284420447e-06
5.85035258780358e-06
-4.36510053152289e-07
1.20505785179991e-06
2.66077021682193e-06
-5.92205659508262e-07
7.39207441446058e-07
1.82238943241027e-06
-7.23292277633893e-07
5.58356053809502e-07
1.78492486505058e-06
-8.24039805108145e-07
4.38360030256743e-07
1.9149565510218e-06
-9.06622573733003e-07
3.50490863802407e-07
2.05889611776182e-06
-1.03164588492705e-06
2.8837495769625e-07
2.1654447622376e-06
-1.33082584825416e-06
2.65566148346081e-07
2.22177836276827e-06
-2.07505019921338e-06
4.09594778040137e-07
2.20703563898827e-06
-4.43243283491744e-06
8.69106477126565e-07
2.01625604022597e-06
-1.26321337416024e-05
2.35240138550569e-06
6.19230624398301e-06
-3.83995606325366e-07
1.1723386483258e-06
2.75250809893534e-06
-5.37379472717223e-07
7.91656055581209e-07
1.93525784538361e-06
-6.75137026911641e-07
6.5210179816388e-07
1.90369740397014e-06
-7.86548806857299e-07
5.52869514742992e-07
2.03865207414894e-06
-8.71546066930864e-07
4.70185991414149e-07
2.20334419586333e-06
-9.58037495980382e-07
3.99371062971681e-07
2.35763059485471e-06
-1.11656363577625e-06
3.3485770017531e-07
2.49419035493436e-06
-1.48539655721777e-06
2.85882408857566e-07
2.61758546051382e-06
-2.36319587641475e-06
3.53531090769831e-07
2.74351421870385e-06
-5.0285068042118e-06
6.62881098694674e-07
2.93196521657888e-06
-1.55832100618292e-05
2.26201980778724e-06
6.47163276024794e-06
-3.36686181591305e-07
1.1467066667171e-06
2.84363843802943e-06
-4.84137468897613e-07
8.33466767480951e-07
2.04612489523531e-06
-6.24109898702907e-07
7.29127092599007e-07
2.01813613104143e-06
-7.43483225433241e-07
6.51833730992564e-07
2.15203816377557e-06
-8.36013175816749e-07
5.80371140330833e-07
2.32271206489628e-06
-9.12659830481357e-07
5.14340258202578e-07
2.49948912790173e-06
-1.00955205353537e-06
4.50228849894181e-07
2.67987059419771e-06
-1.20190648811804e-06
3.81039593731561e-07
2.87408095675292e-06
-1.63639410779653e-06
3.14907061613874e-07
3.12493801560627e-06
-2.64148441529091e-06
3.45860371652557e-07
3.64005952824855e-06
-5.63904164412408e-06
4.20927595333611e-07
5.52641378930152e-06
-2.11776609029747e-05
2.17380726409428e-06
6.71762097893673e-06
-2.91659089590352e-07
1.12330453450278e-06
2.93980329493757e-06
-4.313708191399e-07
8.63237846714447e-07
2.15726499415291e-06
-5.709446326645e-07
7.88854933112346e-07
2.12936865401947e-06
-6.95445622181499e-07
7.31966474321151e-07
2.2571049727751e-06
-7.95275765938388e-07
6.73437603850451e-07
2.42458344714386e-06
-8.73027860789754e-07
6.15413436033701e-07
2.6081837490656e-06
-9.46547120242872e-07
5.57925972907549e-07
2.80711520346512e-06
-1.05357477882376e-06
4.95742173516582e-07
3.03051537249867e-06
-1.26965765687865e-06
4.23330372555114e-07
3.30949534373267e-06
-1.73371424832636e-06
3.52339893212162e-07
3.76148417965205e-06
-2.683187112101e-06
4.02523752162132e-07
4.90659795063658e-06
3.77532832695331e-06
-8.3589147639059e-07
6.9730691339761e-07
2.77220988747147e-06
-1.77231104023381e-06
7.29517010274953e-07
2.84257738305744e-06
-6.97399918096461e-07
1.25914891250155e-06
2.46435182083178e-06
-2.81553556165247e-06