/*--------------------------------*- C++ -*----------------------------------*\
  =========                 |
  \\      /  F ield         | OpenFOAM: The Open Source CFD Toolbox
   \\    /   O peration     | Website:  https://openfoam.org
    \\  /    A nd           | Version:  12
     \\/     M anipulation  |
\*---------------------------------------------------------------------------*/
/*   Windows 32 and 64 bit porting by blueCAPE: http://www.bluecape.com.pt   *\
|  Based on Windows porting (2.0.x v4) by Symscape: http://www.symscape.com   |
\*---------------------------------------------------------------------------*/
FoamFile
{
    format      ascii;
    class       volVectorField;
    location    "300";
    object      U;
}
// * * * * * * * * * * * * * * * * * * * * * * * * * * * * * * * * * * * * * //

dimensions      [0 1 -1 0 0 0 0];

internalField   nonuniform List<vector> 
10103
(
(-4.52617463069474e-05 -2.10314273343591e-05 -0.000272322064715881)
(-4.5142672191767e-05 -2.07844604875874e-05 -0.000323135905928277)
(-9.27874553116278e-05 -9.06245238145158e-05 -0.000329978922545136)
(-7.08347528329596e-05 2.59489559863158e-05 -0.000437492183674582)
(-3.9385637948488e-05 -1.83123072122516e-05 -0.000373037827215967)
(-8.62403115225116e-05 -8.72810197422218e-05 -0.00040142434973292)
(-6.12349360357853e-05 3.00272086036535e-05 -0.000511307387440888)
(-9.32184816977787e-05 -0.000232568848715763 -0.000236380184279625)
(-0.000170615343241184 1.69268240502377e-05 -0.00038609657545625)
(-8.30100353837884e-05 6.47045747963095e-05 -0.000452546362174403)
(-3.30607112526421e-05 -1.61605712602472e-05 -0.000414774031054324)
(-7.3419303262746e-05 -7.71104930404464e-05 -0.000466933152400584)
(-4.12708783165607e-05 3.73086921631174e-05 -0.000581047498598975)
(-8.26535690914997e-05 -0.000226557031830295 -0.000304100991439872)
(-0.00015127757921482 2.66268321064392e-05 -0.000469863731977754)
(-6.53805518790323e-05 7.09694610493969e-05 -0.000525489078076749)
(-2.54453980086181e-05 -0.000356703737362379 -0.000142732267352773)
(-0.000161191189472722 -3.98648846014823e-05 -0.000185227913110194)
(-0.000196800103304444 0.000121983717802969 -0.000290741670077967)
(-0.000143786789566079 0.000100373014006282 -0.000391845829004733)
(-2.77955724804178e-05 -1.43363069483074e-05 -0.000450603179253511)
(-6.5139914632042e-05 -7.04516076180009e-05 -0.000525995944165486)
(-2.37295739899947e-05 4.13879891785462e-05 -0.000643406504879904)
(-7.12881445020556e-05 -0.000209625988424341 -0.00036568220181749)
(-0.000124795273568716 4.11182073843744e-05 -0.000547790048572467)
(-3.57806903378398e-05 7.9428149987454e-05 -0.000597398659184356)
(-1.49593686241424e-05 -0.000352362495580733 -0.000204548446077739)
(-0.000145366750564723 -2.84705883872479e-05 -0.000255844483385841)
(-0.000177080490440665 0.000130402888305665 -0.000363245859151252)
(-0.000126590321128222 0.00010910929547928 -0.000460641817600745)
(2.15684696751344e-05 -0.000389845895844216 -6.61887161102965e-05)
(-6.97055473401201e-05 -9.8593005044071e-05 -7.62456457332626e-05)
(-0.000145521675487132 0.000116222959020597 -0.000115923386442365)
(-0.000208860155430223 0.000201993346816446 -0.000188370216582301)
(-0.00021425456994505 0.000139817537042213 -0.000326963645996437)
(-2.21921769427097e-05 -1.30520880610704e-05 -0.000481193830889395)
(-5.80779048410271e-05 -6.55624826835773e-05 -0.000578847744800121)
(-8.85185349843831e-06 4.30889933255873e-05 -0.000698528494579592)
(-6.40873770076198e-05 -0.000198313694202204 -0.000420856196733622)
(-0.0001066381299591 4.97371666120624e-05 -0.000618283454418258)
(-1.05919458301732e-05 8.44905727216051e-05 -0.000663223545482077)
(-5.86310669690013e-06 -0.000336510580452317 -0.000259719492189616)
(-0.000127923491891138 -1.15731469926999e-05 -0.00032019294282978)
(-0.000148588409311592 0.000141647261110891 -0.000432766968649888)
(-9.63517210538045e-05 0.00011752468055516 -0.000531047020333558)
(3.02147626393505e-05 -0.000386883803730779 -0.00011812498815263)
(-5.79988344947786e-05 -8.93908895368634e-05 -0.000137926958867758)
(-0.000133424490114474 0.000122898781253831 -0.000178787816250023)
(-0.000192314507568829 0.000208198342395089 -0.000253390685252853)
(-0.000199810008161227 0.000149233049732994 -0.000390467639533326)
(4.91059943597619e-05 -0.000349284260661148 -8.53072411243438e-09)
(9.68861739432857e-06 -8.99325206438089e-05 -3.39809500405026e-06)
(-5.93992253747477e-05 0.000102160129368297 -2.06544039127005e-05)
(-0.00012200338580835 0.000237239737364564 -4.80976936259398e-05)
(-0.000214420057632438 0.000274906786158416 -0.000120554779781526)
(-0.000254456819727703 0.000184636553809465 -0.000275178025286036)
(-1.59859448506695e-05 -1.25167685306827e-05 -0.000505794023860264)
(-5.00590357493267e-05 -6.15705859785155e-05 -0.000627622026799137)
(5.86624376679318e-06 4.28404200162768e-05 -0.000746409196343805)
(-5.84254487843457e-05 -0.000190263989968319 -0.000472611580193481)
(-9.08960441303865e-05 5.47649327679122e-05 -0.000682090158345863)
(1.18569267863801e-05 8.66225211940819e-05 -0.000721039465608406)
(1.71369802414418e-07 -0.000325975233112073 -0.000307862309968687)
(-0.000115782828114905 -1.42800905410901e-06 -0.000378008413696929)
(-0.000125232284550413 0.000148627322697635 -0.00049661515140705)
(-6.95661220232538e-05 0.000123135955531895 -0.000595639536589664)
(3.71349839326155e-05 -0.00037211432296983 -0.000164048615235895)
(-4.67631360265264e-05 -7.65440210157106e-05 -0.000192745598635552)
(-0.000116417776181613 0.000131741935867341 -0.000237932064030008)
(-0.000166783497054637 0.000214802038097404 -0.000316475791449562)
(-0.000170993503024052 0.000156933915386528 -0.000457836995108452)
(5.49595619750449e-05 -0.000347057382649695 -4.1579903984714e-05)
(1.76056870816739e-05 -8.45001089257663e-05 -5.49743579948363e-05)
(-5.11861573273896e-05 0.00010590708156732 -7.48163002939791e-05)
(-0.000112359348136642 0.000239790829640791 -0.000105246376186069)
(-0.00020041943623832 0.000277864089743427 -0.000180119614951333)
(-0.000245419553017808 0.000191486573994858 -0.000335279082338611)
(6.32163529967891e-05 -0.00027278978586249 5.44834248763814e-05)
(6.48425260937795e-05 -5.26882844114002e-05 5.4229454922689e-05)
(2.26408215174037e-05 0.000132568006926903 4.72001187126991e-05)
(-3.04827221574292e-05 0.000265519623904604 3.00779232966147e-05)
(-9.667566075342e-05 0.000344515748905301 -3.82971796379687e-06)
(-0.000197688541993694 0.00034641708087394 -7.97899434011075e-05)
(-0.000233502709016317 0.000246391461319524 -0.000237048842999308)
(-9.34969435368784e-06 -1.24689977221128e-05 -0.000523439024088925)
(-4.17511072175909e-05 -5.85381486910087e-05 -0.000667409714316553)
(2.06443699522365e-05 4.0730115331799e-05 -0.000786329631799125)
(-5.33965370869291e-05 -0.000183550559130128 -0.000520883545656531)
(-7.52359697835836e-05 5.6740317010588e-05 -0.00073892924773172)
(3.39309892361879e-05 8.58089323440525e-05 -0.000771337175461669)
(4.82341244525941e-06 -0.000318264569586267 -0.000353947548297811)
(-0.000105844273750327 4.59908084766449e-06 -0.000432250076504637)
(-0.000104261220334671 0.000151595168171809 -0.000555139250849417)
(-4.41742658974102e-05 0.000126312724197028 -0.000654019631353959)
(4.1690732926988e-05 -0.000363260791868623 -0.000204294300519539)
(-3.88285973496989e-05 -7.00471053228448e-05 -0.000241756038508907)
(-0.000101365224447933 0.000136610885480452 -0.000292251587676127)
(-0.000143333190878881 0.000217852417633295 -0.000375340958614944)
(-0.000144232059159729 0.000161986261537522 -0.000521702320096506)
(5.93671047634455e-05 -0.000335941534539378 -7.87228278949326e-05)
(2.49343156098197e-05 -7.4158816235133e-05 -0.000101444267449765)
(-4.13674535175002e-05 0.000111027474042629 -0.000124919999289545)
(-9.76254154692464e-05 0.000242408804928333 -0.000159269614092004)
(-0.000177290349637988 0.000279763264675826 -0.00023847964815344)
(-0.000221008590403323 0.000196985938075172 -0.000400206845355107)
(6.74820519126182e-05 -0.000271887754791456 2.21411448658736e-05)
(7.01539095074996e-05 -4.99372324293054e-05 1.14895023664393e-05)
(2.84434394535465e-05 0.000133494819789499 1.11465483413083e-06)
(-2.46238421072898e-05 0.000264423349321899 -1.86619165563249e-05)
(-8.89543936757908e-05 0.000343612571189602 -5.60441985756421e-05)
(-0.000187943031963228 0.000346477948918043 -0.000135339703380366)
(-0.000232790488206051 0.00025019935433409 -0.000294090456533749)
(6.96179334753885e-05 -0.000178974241183503 0.000100349602720635)
(9.86403336638354e-05 2.53279303665644e-07 0.000100584083702269)
(8.47811912101243e-05 0.000181013255526722 9.92689358921321e-05)
(5.05036322868778e-05 0.000312720531314274 8.56014883187668e-05)
(2.34315486542491e-06 0.000403028177209909 6.27089418861219e-05)
(-5.62361894241764e-05 0.00044678471603567 2.46138741687477e-05)
(-0.000142305564234577 0.000418891071445706 -5.48719670784489e-05)
(-0.000155580724858964 0.000322634932124358 -0.000207722286710236)
(-2.66072882548311e-06 -1.24635758434302e-05 -0.000533286647264764)
(-3.40439735154809e-05 -5.59732173804345e-05 -0.000699922468368331)
(3.50271007957443e-05 3.73602467570005e-05 -0.000818221799622347)
(-4.88348427636135e-05 -0.000177580510686171 -0.000564205327828546)
(-5.97348605774761e-05 5.54000869351439e-05 -0.00078825702478312)
(5.61720813317352e-05 8.23204630192466e-05 -0.000813841203222997)
(8.89142236577485e-06 -0.000311674584583874 -0.000398389671173713)
(-9.6804247706527e-05 7.32977052254454e-06 -0.000482794038120434)
(-8.43475610064446e-05 0.000150916796105504 -0.00060786191391221)
(-1.81676672321417e-05 0.000126423786134947 -0.000705951819412628)
(4.5074752490931e-05 -0.000357724218979814 -0.00024229861463201)
(-3.33524619786727e-05 -6.53419751736727e-05 -0.000288588670586409)
(-8.82971944422875e-05 0.000137519227836336 -0.000343244925863825)
(-0.000121772377540963 0.00021711961158366 -0.000430042109767204)
(-0.000118344634141246 0.000164093162992042 -0.000580441265156476)
(6.23306083613723e-05 -0.000330568408806831 -0.000111207883233078)
(3.00597813827967e-05 -6.82761374917587e-05 -0.00014325921536291)
(-3.2764245191917e-05 0.000111432743697023 -0.000171243571829182)
(-8.31330342775255e-05 0.000241452942666113 -0.000209618779514052)
(-0.000154600448271056 0.000278476405900486 -0.000293870241289739)
(-0.000197091083560762 0.000200108597825956 -0.000463587076171688)
(6.98984808656183e-05 -0.000263197910738472 -6.47889910935283e-06)
(7.46436901720903e-05 -4.32856787200611e-05 -2.71558152758701e-05)
(3.40786949094033e-05 0.000135456612072321 -4.14707510009943e-05)
(-1.63426055907788e-05 0.000263495642202282 -6.46321006917562e-05)
(-7.61069637457928e-05 0.000341653663103211 -0.000105936858262741)
(-0.000168823847431612 0.000344731395149465 -0.00019058253859532)
(-0.000215872463187095 0.000253266606405604 -0.000356875576570262)
(7.25846409327645e-05 -0.000179534579450916 7.47636249014778e-05)
(0.000102520151985125 4.65774277642764e-07 6.57000507570623e-05)
(8.81897712453732e-05 0.000179583085393393 6.10230692791712e-05)
(5.42086732287946e-05 0.000309528956530749 4.45218433274295e-05)
(7.00330932844285e-06 0.000399015648925268 1.83384296138637e-05)
(-5.11984314785213e-05 0.00044295991032812 -2.35884473450887e-05)
(-0.000138146286255789 0.000416230554510317 -0.000106775368082472)
(-0.000164911888237842 0.00032364614634669 -0.000261061997107738)
(7.11132619323335e-05 -7.9118701533588e-05 0.000138982603274021)
(0.000115659281991558 6.08743400467014e-05 0.000138375613877396)
(0.000124484680139012 0.000236863089137109 0.0001411739476279)
(0.000111466467087808 0.000366727051118719 0.000129767337279553)
(8.15422947981283e-05 0.000463719404124363 0.000110522135298538)
(4.50855157898595e-05 0.000527468284976775 8.48499577444415e-05)
(3.85603601210096e-06 0.000548752379686153 4.24895318726029e-05)
(-5.63428512416543e-05 0.000502051866631039 -3.95703281018852e-05)
(-2.57561230083503e-05 0.000416321637193332 -0.000185220956831056)
(4.13210918885076e-06 -1.25420716846169e-05 -0.000534859962477992)
(-2.54953806974418e-05 -5.35956316163728e-05 -0.000723485805264326)
(4.94442309211067e-05 3.27200439826085e-05 -0.000841090146233937)
(-4.4883238385756e-05 -0.000172305598609318 -0.000601419090388767)
(-4.50272280265802e-05 5.09235946381361e-05 -0.000830182503561444)
(7.80980103704846e-05 7.63495815104091e-05 -0.000848016158870424)
(1.19474342271557e-05 -0.000305762637931384 -0.000440050186645095)
(-8.81583028834055e-05 7.62255651630417e-06 -0.000528817289229049)
(-6.55154433208687e-05 0.000146635915759908 -0.000654331255895044)
(8.5271385889785e-06 0.00012261879880599 -0.000751025158983642)
(4.75300463760153e-05 -0.000353764071294326 -0.000278560809294461)
(-2.91326531649744e-05 -6.35089676444107e-05 -0.000332413358435415)
(-7.69868385099355e-05 0.000135057480716283 -0.000390315546474198)
(-0.000101513955263865 0.000212440069990828 -0.000480137378857726)
(-9.12844465641355e-05 0.000162866711183065 -0.000633795678965009)
(6.40636831480874e-05 -0.00032873870614922 -0.000141778981023039)
(3.33139476591924e-05 -6.64620301199945e-05 -0.000182648752021189)
(-2.62336494979536e-05 0.000108130063850504 -0.000215375355601213)
(-7.03837472435905e-05 0.000236533068711467 -0.000257251550711705)
(-0.000133505926704948 0.00027358357451981 -0.000346345508677592)
(-0.00017320035742403 0.000200502638919114 -0.000523365148735607)
(7.11821814728573e-05 -0.000260745763532435 -3.17903407738287e-05)
(7.75190945751397e-05 -4.07592300770083e-05 -6.19157188575569e-05)
(3.86291932961013e-05 0.000133987528475873 -8.08465053783234e-05)
(-8.32674100174873e-06 0.000259463336459591 -0.000107674308773596)
(-6.28427521027731e-05 0.000336421774562666 -0.00015309164518066)
(-0.000148873362901936 0.000339863335202232 -0.000243747948044515)
(-0.000198552692600404 0.000253987715049363 -0.00041986270647406)
(7.40893343538661e-05 -0.000173407907798864 5.26255855368771e-05)
(0.000104934070996078 3.85239267932074e-06 3.4106621141796e-05)
(9.11700444122266e-05 0.000178585358103722 2.55520825919517e-05)
(5.85727129130361e-05 0.000305603168894245 5.78720694689857e-06)
(1.39175105876494e-05 0.00039356348732695 -2.41129048371008e-05)
(-4.09916191068069e-05 0.000437262133791324 -7.04161032988806e-05)
(-0.000124284737375504 0.000412053543774289 -0.000159482758672717)
(-0.000157351508947746 0.000323982134352991 -0.000321393475791222)
(7.31010927651869e-05 -8.13538860708765e-05 0.000118938630512988)
(0.000118259676987813 5.88161702238945e-05 0.00011006306829003)
(0.00012652721607016 0.000233342652010781 0.000109692816119616)
(0.000113533050537873 0.000361684695832816 9.54096725540926e-05)
(8.4198710498529e-05 0.000457537200591718 7.30154444708369e-05)
(4.82345295282652e-05 0.000520840394201499 4.40055721520803e-05)
(5.40643592836317e-06 0.000542419027977501 -2.28289547238608e-06)
(-5.80292942198402e-05 0.000496332866377515 -8.78344043313355e-05)
(-4.65371089478471e-05 0.000414002881250354 -0.000234129917342959)
(6.90858381862813e-05 1.98355065975788e-05 0.000171590001947821)
(0.000121400577872648 0.00012404558999829 0.000169686804217371)
(0.000146053113451508 0.000294045590637636 0.000175339954441403)
(0.000151654695136513 0.000421245908848309 0.000165960933320667)
(0.00013943873726303 0.000521401365031837 0.000149116246613628)
(0.000118504567449074 0.000599166231275398 0.000128104309668227)
(9.81395498020373e-05 0.000647350870440589 9.94903986664177e-05)
(7.86446857327279e-05 0.000662394378688447 5.36454130282723e-05)
(4.70604802660228e-05 0.000612426760675368 -3.0307493835721e-05)
(0.000148551749170716 0.000566971507248502 -0.000170326081006044)
(1.13232509211099e-05 -1.27125594339989e-05 -0.000527271936582891)
(6.33489327692741e-05 2.69673968313318e-05 -0.000853203485771174)
(-1.67304861828542e-05 -5.12063480851035e-05 -0.00073674799538511)
(-4.16122617458378e-05 -0.000167438337181491 -0.000631840182551503)
(-3.09045485018349e-05 4.42036149188754e-05 -0.00086494507915725)
(9.93223359747341e-05 6.84411889074076e-05 -0.000873186722719807)
(1.36752950629282e-05 -0.000300528381600011 -0.000478544629083941)
(-8.01600476179488e-05 5.26723760721967e-06 -0.000569174648162995)
(-4.8217072120142e-05 0.000138297387901842 -0.000694504868603045)
(3.51317851051123e-05 0.000114841956147235 -0.000789555965483893)
(4.87801155092548e-05 -0.000350825963573608 -0.000312924101962256)
(-2.56634453370765e-05 -6.46550103633391e-05 -0.000372710649960841)
(-6.76180457094807e-05 0.000129095310572832 -0.000432901995314909)
(-8.27907400961253e-05 0.000204211926664697 -0.00052566763932732)
(-6.2943205584187e-05 0.000157958993401555 -0.000681112412675156)
(6.49102338018056e-05 -0.000328932425825244 -0.000171026014394178)
(3.49506878186902e-05 -6.85776985759326e-05 -0.000219477041661803)
(-2.16011228051486e-05 0.000102478023314731 -0.00025678257322513)
(-5.94054188562168e-05 0.000227839497220368 -0.000301717623187976)
(-0.00011381951954494 0.000264759353580858 -0.000395435270201449)
(-0.000147953090414202 0.000197633022152157 -0.000579446502052255)
(7.19182842587478e-05 -0.000262414585077672 -5.56148605093462e-05)
(7.87719593535821e-05 -4.22608256812896e-05 -9.46918407909939e-05)
(4.13426778856802e-05 0.000128608759513948 -0.000118310774567034)
(-2.0332757099849e-06 0.000250909817519166 -0.000148372321462183)
(-5.10571912549976e-05 0.000327267544960433 -0.000198151133203832)
(-0.000130017289153736 0.00033162208216222 -0.000294732910032106)
(-0.000181167065677121 0.000252186420970118 -0.000480637991154892)
(7.46644320479623e-05 -0.000173754622822769 3.37547177933428e-05)
(0.000105924796018111 3.0901003072713e-06 5.69395328246859e-06)
(9.30468420777433e-05 0.000174220266529854 -7.24990069498297e-06)
(6.23143502675192e-05 0.000298449486962133 -3.05910014951087e-05)
(2.08154646259311e-05 0.000385135775293397 -6.44908632411715e-05)
(-2.99968014621374e-05 0.000428225300022668 -0.000115262175046335)
(-0.00010868720466808 0.000404711793957502 -0.000210877236324403)
(-0.000149421256647553 0.000321988676630836 -0.000383019635269537)
(7.37587957316477e-05 -7.76790717439264e-05 0.000101963866353191)
(0.000119488135499747 5.92868483676174e-05 8.45699201582353e-05)
(0.000127779892907406 0.000229815541301748 8.05545992323125e-05)
(0.000115454953252021 0.000355430200022435 6.30453292543336e-05)
(8.75240223560992e-05 0.000449454718813557 3.71389317017672e-05)
(5.35524379431001e-05 0.000511902850549112 4.4114540276528e-06)
(1.2440037009424e-05 0.000533985146009026 -4.63709766556668e-05)
(-4.95342774482977e-05 0.000489539344176284 -0.000137645949432226)
(-4.96566627115096e-05 0.000412683061492991 -0.000290960727085343)
(7.03590095458612e-05 1.60186547904416e-05 0.000156134806080998)
(0.000122965086386995 0.000119932298202792 0.000146841774160918)
(0.000147091375806867 0.000288691988389147 0.0001496863973123)
(0.000152593903093861 0.000414697780331323 0.000137486364869926)
(0.000140625179858947 0.000513634539898721 0.000117623739182898)
(0.00012018097906032 0.000590480974012422 9.35999181470979e-05)
(9.93892631947143e-05 0.000638323489903132 6.17562409575058e-05)
(7.65588117462377e-05 0.000653346767459675 1.21924047278815e-05)
(3.96946972538097e-05 0.000603244926780603 -7.4916052286444e-05)
(0.000112080633321984 0.000560599994906582 -0.000214414907073206)
(6.45711800681316e-05 0.000112822372621568 0.000199123475995974)
(0.000119492021795975 0.000186818381600883 0.000195737326783437)
(0.000154647212026245 0.000349844275571219 0.000203535036574205)
(0.000174432341245651 0.000473033910385809 0.000195977649161404)
(0.000177525474776008 0.000573997087331048 0.000181239912985254)
(0.000169904866616507 0.000659681510348141 0.000163072600977943)
(0.000160121706045808 0.000726828563298196 0.000140160880346391)
(0.000157764568075833 0.000772171066407457 0.000108760418064542)
(0.000161816998935976 0.000799068092768451 6.04764869967609e-05)
(0.000158299420389134 0.000758024846083344 -2.48783088273203e-05)
(0.000364754174395852 0.00086273112743851 -0.000161270200293745)
(1.77905467890069e-05 -1.26187783195715e-05 -0.000510311672428679)
(7.62897790747369e-05 2.06275525277459e-05 -0.000853461615891751)
(-7.98695791031238e-06 -4.87487831412715e-05 -0.000738662390476301)
(0.0001194130320012 5.85707315719675e-05 -0.000888539978943027)
(-1.66259134066647e-05 3.52399940308394e-05 -0.000889623088267318)
(-3.93491967094567e-05 -0.000163082497214137 -0.000654325615460926)
(1.38846563594227e-05 -0.00029582417674497 -0.000512877337366566)
(-7.49432170872124e-05 -9.37764551138255e-07 -0.000602714537306305)
(-3.23648205011758e-05 0.000126062463239148 -0.00072827666715379)
(6.07386473467782e-05 0.000104335129675368 -0.000818695827678973)
(4.8709281916182e-05 -0.000348793411436502 -0.000345276430424216)
(-2.34480329955586e-05 -6.96213351053571e-05 -0.000409188931062485)
(-6.05070194290396e-05 0.000119303838736286 -0.000470943952076445)
(-6.60909823308278e-05 0.000191879806369676 -0.000566787138534962)
(-3.41909749412644e-05 0.000149346566692305 -0.000723815626390991)
(6.4810920358224e-05 -0.000330758004787258 -0.000198939120998286)
(3.49154157629037e-05 -7.3142560571046e-05 -0.00025389175125814)
(-1.88249369204194e-05 9.3452201577011e-05 -0.000295030356092573)
(-5.08128155044663e-05 0.000215386252110469 -0.00034276316883087)
(-9.57315887986521e-05 0.000252045267687611 -0.000440749146877009)
(-0.000121703746526758 0.000190925584512043 -0.000631371278624173)
(7.1986284923072e-05 -0.000266799601593374 -7.84983085692723e-05)
(7.84726618118982e-05 -4.72486327757675e-05 -0.000125561002325213)
(4.20945089608476e-05 0.000119397956726341 -0.000153631215046887)
(2.06809196438096e-06 0.000237891435272603 -0.000186734252732414)
(-4.11933628100313e-05 0.000313805043366236 -0.000240737355082991)
(-0.000112595092368265 0.000319698189208424 -0.00034332259835811)
(-0.000162958915521597 0.000247520518499491 -0.000539100432704703)
(7.46190160429714e-05 -0.000178707918241192 1.622136723551e-05)
(0.000105737864038617 -1.78934671794093e-06 -2.10379377609586e-05)
(9.32575439058095e-05 0.00016578622223364 -3.84771132569686e-05)
(6.43621603301691e-05 0.000287216181250288 -6.53008827385822e-05)
(2.62113876419659e-05 0.000372631532820305 -0.000103197858244521)
(-2.02899145088619e-05 0.000415413132797845 -0.000158442857325685)
(-9.39117555675822e-05 0.000393982902374107 -0.000260664944967421)
(-0.000141974735728366 0.000317749800538769 -0.000443720193301326)
(7.36767769261228e-05 -8.07294183364217e-05 8.78720789404281e-05)
(0.000119563016693993 5.56582895169286e-05 6.17690571777345e-05)
(0.000127951344594366 0.000222823101091978 5.3617481502224e-05)
(0.000116476864027981 0.000345759271494723 3.25885665666732e-05)
(9.02944452371058e-05 0.000437881263267579 2.99711695508886e-06)
(5.88704781206248e-05 0.000499338962482956 -3.36039148910544e-05)
(2.07087086443153e-05 0.00052197278920179 -8.9022080790621e-05)
(-3.86243869047729e-05 0.000479679988687672 -0.000186703468105742)
(-5.27683351818689e-05 0.000409480534945213 -0.000349285184456231)
(7.04161970717871e-05 1.76033722287092e-05 0.000143401471750498)
(0.000123238094490138 0.000117878800659002 0.000126464375333991)
(0.000147243541563923 0.000283011897294406 0.000126046607640432)
(0.000152946624749163 0.000406580060710464 0.000110707194725976)
(0.000141693793411365 0.000503632420303195 8.75267375152771e-05)
(0.000122451537130999 0.000579198357661535 6.01786909952744e-05)
(0.000102862602773353 0.000626646685672181 2.47746714997511e-05)
(8.01919440585003e-05 0.000642306199794848 -2.90735096790092e-05)
(4.27168457454051e-05 0.000593677975384357 -0.000121296065285323)
(9.82700163025504e-05 0.000558962396422833 -0.000266532193868868)
(6.54013479775448e-05 0.000107603534821526 0.000187483957400152)
(0.000120306055086163 0.000180885109674357 0.000177545411579756)
(0.000154936451172483 0.000342884524154402 0.000182863398842331)
(0.000174525618046946 0.000465177111274356 0.000172631279321432)
(0.000177664607926729 0.000565025986729321 0.000155004791219151)
(0.000170355026604251 0.000649609119578093 0.000134051222445078)
(0.000160721856356401 0.000715943288153525 0.00010840244310854)
(0.000157006999076461 0.000760782015173818 7.40904142106824e-05)
(0.000156324361187893 0.000787079512072829 2.25148580458744e-05)
(0.00014489018280827 0.000745197540991008 -6.58742282080412e-05)
(0.00031792399876455 0.000858254914208193 -0.000197338697779593)
(5.91026871621307e-05 0.000199534976583073 0.000222237313791668)
(0.000113176163262291 0.000247284617073305 0.000217265145716141)
(0.000154511501814278 0.00040314580446492 0.000226855622172187)
(0.000184153221745218 0.000521107354494163 0.000221052201919589)
(0.000199323667947043 0.000620891823319431 0.000208287515269671)
(0.00020288726299404 0.00071023937477761 0.000192337461044624)
(0.000201227343203154 0.00078825698087383 0.000172840806159249)
(0.00020342104967345 0.000854129041043381 0.000147975449773619)
(0.000218051167414752 0.000909447166677519 0.000114460343694092)
(0.000241482555011974 0.000964793487010923 6.48758595258512e-05)
(0.000269947559117923 0.000953999217502382 -1.9404383423409e-05)
(0.000714145947501333 0.00168319446858754 -0.000144315490007855)
(2.23394068538846e-05 -1.22222388248304e-05 -0.000485368117952349)
(8.67944379946968e-05 1.41521515435254e-05 -0.000841896088405734)
(7.35154031847016e-07 -4.60354194126552e-05 -0.000728624565388153)
(0.000136812611954652 4.66489783881687e-05 -0.000892621277936483)
(-3.16358045978158e-06 2.55552271408267e-05 -0.000903554700746066)
(-3.81558055373017e-05 -0.000158862523847733 -0.000669565044217266)
(8.44519725240509e-05 9.12867084658077e-05 -0.000840567771486624)
(-1.78943269004714e-05 0.000110671241407854 -0.000754662249362663)
(-7.27902273721112e-05 -1.11103799761812e-05 -0.000630106105261953)
(1.24991311377524e-05 -0.00029150833508595 -0.00054158211986782)
(4.7189336287386e-05 -0.0003476785815847 -0.000375498913342985)
(-2.40686765796965e-05 -7.78291659237064e-05 -0.000441621186601294)
(-5.56089816255434e-05 0.000105401171804785 -0.000504425368891461)
(-5.19406961366158e-05 0.000175353492821725 -0.000603110322283338)
(-6.46230223387846e-06 0.000137146749286279 -0.0007604195690104)
(6.36304967009881e-05 -0.000334152690766968 -0.000225700037221598)
(3.29486759905719e-05 -8.07945262324151e-05 -0.000285667868131286)
(-1.82516459593594e-05 8.05728974695212e-05 -0.000330050891521492)
(-4.4697096203593e-05 0.00019902701468947 -0.000380179706796334)
(-7.99929219879563e-05 0.000235774747202252 -0.000482497899485218)
(-9.46979241693255e-05 0.000180533000817302 -0.000679150789583852)
(7.12216009727274e-05 -0.00027355321323612 -0.000100594727590641)
(7.65205978751746e-05 -5.55306539652774e-05 -0.00015459484527227)
(4.07274332957145e-05 0.000106345670221993 -0.000186709131599021)
(3.68308648915746e-06 0.00022070899063425 -0.000222671108328549)
(-3.37689263342211e-05 0.000296174861355568 -0.000280529569329428)
(-9.71786719043691e-05 0.000303344575025305 -0.000389029063539582)
(-0.000144686937380307 0.000238772531025852 -0.000595057313952639)
(7.38822091100612e-05 -0.000187019736922461 -9.72951391883423e-07)
(0.00010423649357247 -1.0293012370573e-05 -4.64027955873374e-05)
(9.16174180672735e-05 0.000153398287817334 -6.81341208691953e-05)
(6.42648667182368e-05 0.000271886328968906 -9.8276842707541e-05)
(2.95296606686084e-05 0.000355296538608563 -0.000139856386211069)
(-1.25042538333681e-05 0.000398558471087741 -0.000199707747587343)
(-8.06994135703939e-05 0.000379653681768102 -0.000308626004433542)
(-0.000134640845712676 0.000310762731325438 -0.000502739779258287)
(7.3052324295396e-05 -8.88232333426797e-05 7.49511815773979e-05)
(0.000118510548660266 4.7653396201913e-05 4.03060327453398e-05)
(0.000126636632728803 0.000211611819481773 2.7937837618952e-05)
(0.000115832308524403 0.000331935615616446 3.43300181728709e-06)
(9.14691413158751e-05 0.000422143293272749 -2.97845723689101e-05)
(6.27842386626248e-05 0.000482673865363426 -7.02809939944458e-05)
(2.78856653501263e-05 0.000506028742931126 -0.000130384276606623)
(-2.83865642235877e-05 0.000466527686215521 -0.000234660668206334)
(-5.71883926176796e-05 0.000404365329486564 -0.000407861267682509)
(6.98639926178982e-05 1.20862671991078e-05 0.000133180258128874)
(0.000122574126521122 0.0001116657543771 0.000108393026971467)
(0.000146387128652453 0.000273738855230915 0.000104228250569384)
(0.000152259863380345 0.000394884160253351 8.54897007704124e-05)
(0.000141872878280626 0.000489962835395125 5.88361096562331e-05)
(0.00012414722773317 0.000564116081438355 2.80361306743442e-05)
(0.000106450462947085 0.000611076081803504 -1.10421421154281e-05)
(8.54291740432944e-05 0.000627661586396841 -6.93126031798157e-05)
(4.85602646580674e-05 0.000580984201229868 -0.000167237356453929)
(8.3717178332536e-05 0.000555701712504599 -0.000320392088290456)
(6.51424611242891e-05 0.000107431737653821 0.000178277419261919)
(0.000119968810257067 0.000176718860645595 0.000161498811368534)
(0.000154332017034 0.000335368479096055 0.000163944292795916)
(0.00017386182784357 0.000455525133049412 0.000150734736046602)
(0.000177289226818539 0.000553590207600011 0.000129968366970111)
(0.000170677336271975 0.000636732084467728 0.00010598763896209)
(0.000161911771234534 0.000702109336313205 7.73257436877231e-05)
(0.000158522946336718 0.000746652397033787 3.97967674581462e-05)
(0.000156638148040749 0.000773463109244924 -1.54899918761393e-05)
(0.000142543746480129 0.00073254676214306 -0.00010763705828823)
(0.000292552091490254 0.000856589475646754 -0.000247079079759701)
(5.97214793416749e-05 0.000192976827175219 0.000213733493081695)
(0.000113517539224888 0.000239772730821096 0.000203035700587588)
(0.000154268358883865 0.000394820688869568 0.000210473908197552)
(0.000183606079246629 0.000512115173361588 0.000202164683850248)
(0.000198700037546301 0.000610957819273362 0.00018666511435434)
(0.000202423162985002 0.000699210135725791 0.000168096899426806)
(0.000200994411977408 0.000776207079630935 0.000146160544823136)
(0.000202927926647775 0.000841227441984393 0.000118949014143584)
(0.000215420055809018 0.000895736656056229 8.30401098929385e-05)
(0.000232718897732868 0.000949602839180577 3.06444676466543e-05)