/*--------------------------------*- C++ -*----------------------------------*\
  =========                 |
  \\      /  F ield         | OpenFOAM: The Open Source CFD Toolbox
   \\    /   O peration     | Website:  https://openfoam.org
    \\  /    A nd           | Version:  12
     \\/     M anipulation  |
\*---------------------------------------------------------------------------*/
/*   Windows 32 and 64 bit porting by blueCAPE: http://www.bluecape.com.pt   *\
|  Based on Windows porting (2.0.x v4) by Symscape: http://www.symscape.com   |
\*---------------------------------------------------------------------------*/
FoamFile
{
    format      ascii;
    class       volScalarField;
    location    "200";
    object      k;
}
// * * * * * * * * * * * * * * * * * * * * * * * * * * * * * * * * * * * * * //

dimensions      [0 2 -2 0 0 0 0];

internalField   nonuniform List<scalar> 
10244
(
0.000239672782178633
0.000239569951477314
0.000678103983359155
0.000240381902911763
0.000239422695851573
0.000677818283142841
0.000240282614507169
0.000994657688527658
0.000678294177834137
0.000241367637249154
0.000239216565792647
0.000677393301596936
0.000240136239424491
0.000994215156835712
0.000678023025792262
0.000241269598604825
0.00124952215263823
0.000993915538821867
0.000677131613001744
0.000239863131844838
0.000238938077568568
0.000676803193593377
0.000239928786260538
0.000993541915133803
0.000677603512318078
0.000241122699373417
0.00124893760192865
0.000993494933465048
0.000676867658122338
0.000239766705850286
0.00146961706283471
0.00124802741283173
0.000989055965025381
0.000671201776638636
0.000235049050399194
0.000238575038701951
0.000676011206247847
0.000239648710163376
0.000992629279155688
0.000677015205118925
0.000240913532794217
0.00124805460893062
0.000992829758530905
0.000676453478071361
0.000239619530031736
0.00146890317681597
0.00124747159232998
0.000988650760085065
0.000670941768667596
0.000234954121660187
0.0016660310341677
0.00146709700852563
0.00124022871057675
0.000977873604118519
0.000658477251397274
0.000227786079362155
0.000238111660425323
0.000674986406575045
0.000239283071786189
0.000991436048521802
0.000676225273662564
0.000240630734566782
0.00124687252676429
0.000991920624477522
0.000675867393932012
0.000239410438657654
0.00146783442680921
0.00124659841906986
0.000987994612701817
0.000670533777094104
0.000234809503766232
0.00166519857101099
0.00146641770685258
0.00123969494663278
0.00097747773433415
0.000658221238628552
0.000227693699366066
0.00184427369152303
0.00166227197836383
0.00145662015130819
0.00122444672152005
0.000958851385081641
0.000639593724889164
0.000219124085430242
0.000237527852452732
0.000673682172234765
0.000238816069291799
0.000989904493002388
0.000675199115935114
0.000240261144530693
0.00124534153489322
0.000990727695607183
0.000675077185706269
0.000239127162117323
0.00146641534086511
0.0012454203692737
0.000987090053753773
0.000669952865576697
0.000234603696546391
0.00166396230170078
0.00146536114532911
0.00123883456032582
0.000976831416321928
0.000657822862992893
0.000227553563778762
0.00184333174536381
0.00166147931653799
0.00145596830842601
0.00122392666489373
0.000958464337983776
0.000639344786392204
0.000219035681643428
0.00200762896812589
0.00183945705086801
0.00164919683657496
0.00143671175756817
0.00119984973634755
0.000932348214673909
0.000616182743729418
0.000209482152761089
0.00023680370752294
0.000672045904269279
0.00023822831271873
0.000987973551621875
0.000673893186911024
0.000239789490791537
0.00124339622202357
0.000989197657803191
0.000674048332524103
0.000238756548915877
0.00146459087678289
0.00124389188986389
0.000985898967293955
0.000669166236231505
0.000234324131359346
0.00166233074749011
0.00146394774778775
0.00123766359499142
0.000975935080996772
0.000657253389485367
0.000227353536933881
0.0018419429913541
0.00166025772554899
0.00145492819906197
0.00122308019567949
0.000957830827476578
0.000638959543521485
0.00021890145425062
0.00200658601097554
0.00183855967540689
0.00164843640460384
0.0014360772817393
0.00119934161682873
0.000931972734752338
0.000615944561912575
0.000209399023053746
0.00215833573256745
0.00200210761873794
0.00182416743291538
0.00162555534883155
0.00140706018322136
0.00116695436290724
0.000899583247408297
0.000589271628522814
0.000198852628460406
0.000235914012550253
0.000670020077955291
0.000237499102894955
0.000985570423337591
0.000672255869337169
0.000239194328577022
0.00124095815031708
0.00098726812004876
0.000672738343762243
0.000238283470120651
0.001462286113906
0.00124194877930391
0.000984370054342721
0.000668139821261183
0.000233957666165777
0.00166024431585579
0.00146212742034665
0.00123613976621781
0.000974751130136066
0.000656478753354456
0.000227080991289117
0.00184011905206272
0.00165863376057448
0.0014535246923442
0.00122192112283358
0.000956949054265205
0.000638406679352591
0.000218708943560275
0.0020050575617845
0.00183718778271373
0.00164723474549426
0.00143505500896193
0.0011985119178124
0.000931356843620888
0.000615576655338436
0.000209273935857575
0.00215719931831861
0.00200111323573532
0.0018233065433972
0.00162481559820998
0.0014064403551977
0.00116646091446065
0.000899223026869562
0.000589048954403189
0.000198779263142264
0.002297911114516
0.0021523821556535
0.00198514940736093
0.0017973789681154
0.00159140435828368
0.00136845652985541
0.0011267683320286
0.000861434214463026
0.000559179958294159
0.000187586698275618
0.000234829905898814
0.000667534709167963
0.000236603449308183
0.000982605839265439
0.000670227788464989
0.000238457079226972
0.00123793455427896
0.000984865102886543
0.000671095743917051
0.000237686595838427
0.00145940992416479
0.00123951304607612
0.000982441176223039
0.000666831817665737
0.000233489055345495
0.00165761948883764
0.00145982672251245
0.00123420060705047
0.000973229378289714
0.000655465011879428
0.000226723322322409
0.00183779554252845
0.0016565532512528
0.00145171175987268
0.00122040839326032
0.000955781355841942
0.00063765137925052
0.000218445395811205
0.00200305789397728
0.00183537286730827
0.00164562346391875
0.00143366711873238
0.00119737167616346
0.000930497052096517
0.000615045415783662
0.000209093584480641
0.00215554240981804
0.00199960340699581
0.00182195756430129
0.00162363535272477
0.00140543865608569
0.00116565301275257
0.000898630148747486
0.000588705173914706
0.000198677710879789
0.00229668818865794
0.00215129778052018
0.00198419513319935
0.00179654175440508
0.00159068182031415
0.00136785405976584
0.00112629362501894
0.000861093608932293
0.000558984668807367
0.000187529186369511
0.00242730523009218
0.00229166777830753
0.00213419840392997
0.00195585562538525
0.00175938699267802
0.00154774806637685
0.00132186567921339
0.00107998570333851
0.000818273041089673
0.000526166071235391
0.000184091252899091
0.000233520327600409
0.00066451092425086
0.000235512368339351
0.000978980316292119
0.000667739772481793
0.00023755182941891
0.00123421723748829
0.000981901180070655
0.0006690610772994
0.000236947265577051
0.00145585426524894
0.00123649216083119
0.000980038350760113
0.000665191201994141
0.000232899714046785
0.00165435437517078
0.00145695512091195
0.0012317689736218
0.00097130848227596
0.000654171717215493
0.000226265948686333
0.00183488182458069
0.00165393465024223
0.00144941798573453
0.00121848093287009
0.000954278360077599
0.000636661205605417
0.000218099380039481
0.0020005182593076
0.00183305680855217
0.00164355304211608
0.00143186916756242
0.00119588012049426
0.000929355770167523
0.000614315726486433
0.000208840918340943
0.00215338110596258
0.00199761372927236
0.00182015757586514
0.00162204310835805
0.00140407385215973
0.00116453982694188
0.000897799634073084
0.000588201189817477
0.000198530809212042
0.00229491264957729
0.00214966079832163
0.00198271057738331
0.00179521722281389
0.00158952561209875
0.00136687808511614
0.00112551350106383
0.000860529975026701
0.000558676977539485
0.000187476947900966
0.00242600234293707
0.00229049987255888
0.00213315718814567
0.00195492759427874
0.00175856933631385
0.00154704538192443
0.00132128500826568
0.00107953412138372
0.0008179591984106
0.00052601330759583
0.000183946969203247
0.00254706912439765
0.00242083037799574
0.00227253125793559
0.00210290813401904
0.00191465931053479
0.0017113393383343
0.0014955613932228
0.00126788285579893
0.00102694229702724
0.000770257047679467
0.000491137129693545
0.000174127525858133
0.000231951863507237
0.00066086207660317
0.00023419474169717
0.000974581273373068
0.000664713189491836
0.000236449702506062
0.00122968209476028
0.000978276595672366
0.000666565533814106
0.000236039591655016
0.00145149295887775
0.00123277804423345
0.00097707504050975
0.000663159028469917
0.000232168475526415
0.00165032799882303
0.00145340488585323
0.00122875294654931
0.000968915172425989
0.000652549213543625
0.000225690461758646
0.00183126654449135
0.00165067676930719
0.00144655400792027
0.00121606279255755
0.000952379923231601
0.000635397168379815
0.000217657547944352
0.00199734126892659
0.00183015097371324
0.00164094435421804
0.00142959143775891
0.00119397732275806
0.000927884848076048
0.000613357592082178
0.000208508348091613
0.00215064283139766
0.00199508238175419
0.001817853733998
0.00161999118922446
0.00140230185659161
0.00116308094442804
0.000896694407951415
0.000587502123020189
0.000198292016355752
0.00229260217665542
0.00214751018618549
0.00198073738604448
0.00179343902312274
0.00158796027701931
0.00136554511227102
0.00112443582626057
0.000859735251937516
0.000558193479456992
0.000187404334211513
0.00242411710255707
0.00228874535748884
0.00213154730501103
0.00195346991000954
0.00175727181502369
0.00154591845800048
0.001320341179176
0.00107878812729161
0.000817430307279015
0.00052573520476563
0.000183572633475358
0.00254569187614566
0.00241958494765724
0.00227140909525077
0.00210189530503762
0.00191375285004094
0.00171054379003408
0.00149488327048495
0.00126732863999013
0.0010265190011464
0.000769976256893417
0.000491011373772309
0.000174047602916616
0.00265752055686458
0.00254038404148317
0.00240089189577034
0.00223958709381429
0.00205901623405375
0.00186281993026809
0.00165425517265496
0.00143539754549545
0.00120681089211436
0.000967815412484498
0.000717454956564596
0.000451068575883804
0.000150473071970115
0.000230088106119362
0.000656493360431898
0.000232616678709208
0.000969283239071712
0.000661061597257645
0.000235119220035605
0.0012241894695232
0.000973878752934666
0.000663530829309294
0.000234934899874886
0.00144618238820496
0.00122824690509113
0.000973452009272009
0.000660667035452571
0.000231270871036702
0.00164539900246414
0.0014490503332394
0.00122504520702591
0.000965963949594024
0.00065053905019018
0.000224976486363878
0.0018268168146481
0.00164665892292744
0.00144301300059165
0.00121306321816991
0.000950014162895655
0.000633810466219883
0.00021710142339636
0.00199340716509311
0.00182654480220319
0.00163769761250897
0.00142674609891577
0.0011915888066374
0.000926025838884489
0.000612134404349984
0.000208085064785293
0.00214722426329322
0.0019919142575497
0.00181496009584174
0.00161740245936911
0.00140005431908983
0.00116121776254254
0.000895268193559909
0.000586582442191117
0.000197969477749756
0.00228968058271213
0.00214478071646893
0.00197821955533834
0.00179115641817319
0.00158593852857755
0.00136381144192748
0.00112302098928877
0.000858674646949213
0.000557520445440304
0.000187210436216486
0.00242166865864456
0.00228644606463849
0.00212941424147778
0.0019515205263224
0.00175552366787011
0.00154438919327435
0.00131904923676116
0.00107775397112049
0.000816669557609456
0.000525160399485081
0.00018023122740678
0.00254370535805725
0.0024177217083152
0.00226968315490909
0.00210031420695248
0.00191232460504899
0.00170927865193729
0.00149379240786953
0.00126642378189378
0.00102581272554931
0.000769475854598609
0.000490684998255454
0.0001739688491587
0.00265607444537785
0.00253906657374013
0.00239969439558523
0.00223849510758724
0.00205802665515647
0.00186193753616415
0.00165348664812026
0.00143474895379508
0.00120628788704969
0.000967424809280775
0.000717203844256611
0.000450938175928353
0.000150400863519289
0.00275887265989473
0.00265063648931752
0.00251973221602773
0.00236651712108023
0.00219337355516851
0.00200388016754128
0.00180143080069091
0.00158869114000609
0.00136754071436456
0.00113885042420289
0.000902716209636041
0.000659304918810379
0.00040519398544426
0.000123205695247644
0.000227887918224292
0.000651305361598972
0.000230741082949472
0.000962950288200326
0.000656689974410655
0.000233526042731262
0.00121758465153665
0.000968582631856539
0.000659870231814482
0.00023360198327529
0.00143975965177025
0.00122275921368286
0.000969057155526638
0.000657637545674761
0.000230178738995658
0.00163940545048334
0.00144374769602003
0.00122052275235601
0.000962356647392095
0.000648073969533325
0.000224099694397318
0.00182137812426666
0.00164174020935761
0.0014386702654157
0.00120937623146865
0.000947097005226501
0.000631843978574119
0.00021641112059087
0.00198857304341314
0.00182210607052657
0.00163369321185604
0.00142322782946066
0.00118862554469698
0.000923708648358059
0.000610599013649764
0.000207553984269449
0.00214299779818252
0.00198799040644958
0.00181136767526227
0.00161417891913441
0.00139724516670886
0.00115887765566594
0.000893464755659753
0.000585412735390665
0.000197570926597018
0.00228603901273982
0.00214137141798227
0.00197506494205132
0.00178828569412397
0.00158338479170244
0.00136161019477937
0.00112121213099981
0.000857304480226628
0.000556644025054188
0.000186904149098804
0.00241857747329577
0.0022835335728796
0.00212669901037917
0.00194902578388242
0.00175327459789273
0.00154241068267489
0.00131736633210926
0.00107639393712762
0.000815657695368392
0.000524489773916404
0.000180178408360889
0.00254112927424895
0.00241528486794199
0.00226740215984115
0.00209820640544635
0.0019104077251783
0.00170757016522258
0.00149230900201974
0.0012651820299013
0.00102482722296313
0.000768708019659692
0.000489353202010838
0.00017392267289503
0.00265399429529119
0.00253710282340727
0.00239786096908502
0.00223679949721653
0.00205647697164405
0.00186054428882868
0.00165226099903345
0.00143370146063456
0.00120542862633266
0.000966760168877018
0.000716713163915316
0.000450730945604446
0.000150287035402418
0.00275736276408877
0.0026492521404649
0.00251846461555331
0.00236535130640487
0.00219230622346069
0.00200291632970307
0.00180057759709574
0.00158795490957325
0.00136692653397714
0.00113836304433528
0.000902360053082444
0.00065907657758784
0.000405073237636896
0.000123154882397852
0.00285131280312319
0.00275180081133625
0.00262933634996205
0.00248408301425542
0.00231825784555847
0.00213533364062551
0.00193867990945474
0.00173108525159685
0.00151493030631399
0.00129220187926193
0.00106417646157362
0.000831664110282189
0.000595928246967466
0.000354079508058411
9.53238955917267e-05
0.000225309066700016
0.000645182311589747
0.000228527356416217
0.000955430774489698
0.000651495553875923
0.000231633068793361
0.00120969666295382
0.000962251162979289
0.000655488832324922
0.000232006917309473
0.00143204461207121
0.00121616003052769
0.000963765973996024
0.000653984611491381
0.000228861206037929
0.00163216543153592
0.00143733469148779
0.00121504687851796
0.000957982363705417
0.000645077918538191
0.000223032920937163
0.00181477295304253
0.00163575920641999
0.00143338293346955
0.00120488029652142
0.000943531985079471
0.000629431745122406
0.000215562830512742
0.00198267160417313
0.00181668046651179
0.00162879139866717
0.00141891358855755
0.00118498351338401
0.000920851144730278
0.000608694869088443
0.000206891284377777
0.00213781101169014
0.00198316837580726
0.00180694554487931
0.00161020273653618
0.00139377114966498
0.00115597382413944
0.000891216027481708
0.000583941009540982
0.000197070143086908
0.00228154276382185
0.00213715564254834
0.00197115628191477
0.00178471985176323
0.0015802030553235
0.00135885738199898
0.00111893891485964
0.000855572437640161
0.000555556606426068
0.000186588232775153
0.00241472958265482
0.00227990150045515
0.0021233037895716
0.00194589597164138
0.00175044260336
0.00153990896111355
0.00131522742425062
0.00107465338791899
0.000814355465182806
0.000523679518154052
0.000180209382403087
0.00253788127577677
0.00241220302918899
0.00226450429728569
0.00209551545173542
0.0019079490362263
0.00170536840495052
0.00149038700026418
0.00126356202861965
0.00102353123541838
0.000767741489154189
0.000488644853016957
0.000173688567518373
0.00265130060341685
0.00253453879897383
0.00239544301928597
0.00223454484986947
0.00205440358129436
0.00185867002572857
0.001650602526501
0.00143227387722295
0.00120424551795975
0.000965819581640101
0.000715811739414055
0.000450364658773846
0.000150140241988676
0.00275519635914137
0.00264719554874944
0.00251653172921774
0.00236354949286199
0.00219064365479171
0.00200140384530991
0.00179922680663331
0.00158677650743693
0.00136592976837209
0.00113755515244438
0.000901738394047249
0.000658673062045029
0.000404877583499024
0.000123058648746078
0.00284974375349188
0.00275035437334156
0.00262800354899166
0.00248284840012524
0.00231711787776329
0.00213429348923407
0.00193774716170282
0.00173026680433192
0.00151423151685134
0.00129162680209272
0.00106372838001199
0.000831343689675859
0.000595728639484221
0.000353984513316352
9.52977063869895e-05
0.00293504316725555
0.00284406647261535
0.00272991140345773
0.00259253739038194
0.00243399298394007
0.00225762815989055
0.00206673068006307
0.00186405912589606
0.00165208021653946
0.00143318934218316
0.00120958279794605
0.00098293879713048
0.000754756625861
0.00052699967728891
0.000298711863309332
6.79669848397882e-05
0.000222308939926131
0.000638010301192406
0.000225932752379855
0.000946570260456491
0.000645367195085778
0.000229399853636847
0.00120034176290093
0.00095473509262537
0.000650284037351623
0.000230112261738512
0.00142283934986378
0.00120827909120336
0.000957441949238267
0.000649614304414191
0.000227285202161887
0.00162347640966392
0.00142963119188753
0.0012084634650179
0.000952717936180992
0.000641466635602496
0.000221746101941836
0.00180680159713459
0.00162853411902577
0.00142698989875496
0.00119943840482869
0.000939210295638954
0.000626499732855528
0.000214530277480597
0.00197551175125484
0.00181009107066361
0.00162283200707514
0.00141366233988273
0.00118054341469399
0.000917359199811982
0.000606357981577812
0.000206078621024776
0.00213148586473476
0.00197728159516864
0.00180154061963647
0.00160533609118825
0.00138951157403084
0.00115240479296575
0.000888442311799157
0.000582115562227675
0.000196439364273345
0.00227603083003524
0.00213198156820495
0.00196635248076903
0.0017803299544915
0.00157627784768676
0.00135545235105307
0.0011161172041847
0.000853410189418719
0.000554153320483718
0.000186072443702559
0.00240998375285767
0.00227541615996268
0.00211910375526448
0.00194201597076652
0.00174692289363248
0.00153679031014633
0.00131255103269675
0.00107246490570142
0.000812714643325224
0.000522789368276324
0.000183780791983794
0.00253384253233322
0.0024083648096773
0.0022608865056697
0.00209214611974922
0.00190486067348112
0.00170259308990005
0.0014879544071026
0.00126150102374103
0.00102187317792744
0.000766525343485178
0.000487973525588352
0.000173286310172539
0.00264790770499833
0.00253130034494041
0.00239237605954583
0.00223167205134391
0.00205175055116333
0.00185626193500737
0.001648462135689
0.00143042151283561
0.00120270008157113
0.000964595014987204
0.000714883565087507
0.000449816825713364
0.000149900312685543
0.00275239427787683
0.00264451418298606
0.00251398710582804
0.00236115875157302
0.00218842493801363
0.00199937550908785
0.00179740607489955
0.00158517866854949
0.00136456786622261
0.00113643754915907
0.000900833367426103
0.000658061680333537
0.000404571413501877
0.000122915988166279
0.00284749793865505
0.00274821218869777
0.00262597875539595
0.00248094821634491
0.0023153504738258
0.00213266998695657
0.00193627969434428
0.00172896665507633
0.00151310825209315
0.00129068793089898
0.00106297791075895
0.000830790455732417
0.000595377691871183
0.000353820835070096
9.52348345429716e-05
0.00293341910517343
0.00284256231224823
0.00272851794668788
0.00259123870060244
0.00243278524962597
0.0022565166273908
0.00206572329378931
0.00186316332680365
0.00165130196398712
0.00143253297746175
0.00120905125046885
0.000982533506088981
0.000754475754231491
0.000526836399139293
0.00029865158326171
6.79630081451541e-05
0.00301029714232303
0.00292763723887398
0.00282164618525664
0.00269207438614033
0.00254079709546445
0.00237103334029623
0.0021859632222583
0.00198825749877531
0.00178033510363506
0.00156463758353924
0.00134367671898119
0.00111985951341491
0.00089523051875181
0.00067180790128742
0.000452607383858957
0.000239658760502337
4.22468711565539e-05
0.000218851569794767
0.000629669579224413
0.000222914458550606
0.000936199147547329
0.000638189001461902
0.000226783442548705
0.00118932375555725
0.000945876798397317
0.000644145667503005
0.000227878235965091
0.00141193016275294
0.00119893249963743
0.000949937178004119
0.000644424691321123
0.000225414312175109
0.00161311692349149
0.00142043967994039
0.00120060349783776
0.000946428454353916
0.000637147620375315
0.000220207189080181
0.00179724229777064
0.00161986294970379
0.00141931221768681
0.00119289831703325
0.000934011044377704
0.000622965817702054
0.000213284745985409
0.00196687800702262
0.00180213860281933
0.00161563453769713
0.00140731508676029
0.00117517084690299
0.000913126757706784
0.00060351649014313
0.000205087150534377
0.00212381847623173
0.00197013932262586
0.00179497742027154
0.0015994209975139
0.0013843281220768
0.00114805425913838
0.000885052392619989
0.000579873125922075
0.000195666093824208
0.00226931518335099
0.00212567169799705
0.00196048842511324
0.00177496506758822
0.00157147404969758
0.00135127738414969
0.00111264863506847
0.000850742970627591
0.000552430311835226
0.000185514529679429
0.00240417111799616
0.00226991718858126
0.00211394855499403
0.00193724682588225
0.00174258911402851
0.00153294213803803
0.00130923959725474
0.00106974677805775
0.000810653851885934
0.000521394880027418
0.00017953572010867
0.00252886585839713
0.00240363004929624
0.00225641702893681
0.00208797586930295
0.00190102988562654
0.00169914192757827
0.00148492021949519
0.00125892051573198
0.00101978732725888
0.000765019532013771
0.000487900721242413
0.000172902893525935
0.0026436927799215
0.00252727144378984
0.00238855218210348
0.00222808077637936
0.00204842460918001
0.00185323396731783
0.00164576162726476
0.0014280747827934
0.00120073239493832
0.000963034448854985
0.000713781184067541
0.000449095193706818
0.000149551972477718
0.00274886807346564
0.0026411311301904
0.00251076372076255
0.00235811742376152
0.00218559149246789
0.0019967757337052
0.00179506343862957
0.00158311362801311
0.0013627980859232
0.00113497792925435
0.000899687794616384
0.000657255839214384
0.00040409623531041
0.000122709645943937
0.0028445962295521
0.00274542274369552
0.00262331719400253
0.0024784315180883
0.00231299691463209
0.00213049836034483
0.00193430789542545
0.00172721068112063
0.0015115816999444
0.00128940128157983
0.00106193319313762
0.000830002269361963
0.000594862152937682
0.000353553363575812
9.51297724330817e-05
0.00293110014811921
0.00284034128422717
0.00272640835447738
0.00258924755053278
0.0024309206480973
0.00225478989680701
0.00206414703358366
0.00186174947858285
0.00165006080785989
0.00143147267159485
0.0012081774635225
0.000981850964582637
0.000753987432758719
0.000526539219266502
0.00029854018736077
6.79335617074202e-05
0.00300862152149864
0.00292607922082358
0.0028201962094604
0.00269071601017368
0.00253952619431542
0.00236985515490691
0.00218488594920536
0.00198728902595187
0.00177948198267512
0.00156390479467886
0.00134306759890225
0.00111937575193428
0.000894871893638717
0.000671571541299175
0.000452485911093837
0.000239639068069087
4.22593828041075e-05
0.00307734187085986
0.00300274713840542
0.00290474402232841
0.00278287713315396
0.00263884547292578
0.00247573209898177
0.00229659753284994
0.00210399708343696
0.00190025051900135
0.00168773362842903
0.00146896187622597
0.00124656199501642
0.00102311531350399
0.00080094172095634
0.00058269223215831
0.000373099248162041
0.00017769841946271
2.02780205592418e-05
0.00021492434401484
0.000620049493762742
0.000219432846798442
0.000924146160365114
0.000629841985449467
0.000223740187987067
0.00117643631925331
0.000935508930140923
0.000636958124146555
0.000225262293925332
0.00139908970758948
0.0011879243187516
0.000941094087710694
0.000638306983717274
0.00022320953613171
0.00160084759725446
0.00140954678643021
0.00119128426300804
0.000938967828436759
0.000632021080768159
0.00021838123588529
0.00178585241309942
0.0016095245668787
0.00141015382926994
0.001185093216835
0.000927801880687768
0.000618740486622265
0.000211795661771544
0.00195653132261134
0.00179260183265629
0.00160699854640288
0.00139969523895098
0.00116871649757736
0.000908035954438415
0.000600091689000604
0.000203894906849569
0.00211457924186676
0.00196152663652793
0.001787058219804
0.00159227939575438
0.00137806489340523
0.00114279121503957
0.000880943672930978
0.000577147122680097
0.000194731154938661
0.00226118046989659
0.00211802267343937
0.00195337487310222
0.00176845214535983
0.00156563677224095
0.00134619767808168
0.00110842057058712
0.000847481074660532
0.000550289725290635
0.000184752528242579
0.0023970945425401
0.00226321710813525
0.00210766218531012
0.00193142576376964
0.00173729329927137
0.00152823270986946
0.00130517898447667
0.00106640497981607
0.000808117652638642
0.000519859896994002
0.000182529327051468
0.00252277503945775
0.0023978305627667
0.00225093705059222
0.00208285661245929
0.0018963204771923
0.00169489167970661
0.0014811752409037
0.00125572639575878
0.00101719318921102
0.000763056491001238
0.000485960819955934
0.000172208683159998
0.00263850284434311
0.0025223059805711
0.00238383325556742
0.00222364166792299
0.00204430571168462
0.00184947602596026
0.00164240162911056
0.00142514592038622
0.00119826674564716
0.000961073170925786
0.000712528768548476
0.0004482492891031
0.000149097036496493
0.00274449074421343
0.00263692618207615
0.00250674918175573
0.00235432045865193
0.00218204503385928
0.00199351313955862
0.00179211501851837
0.00158050572424724
0.00136055371496021
0.00113311878628591
0.000898240687449981
0.000656219004046254
0.000403446721751425
0.000122420903215679
0.00284094758717292
0.0027419065768086
0.00261994939489845
0.00247523421280578
0.00230999608208403
0.00212772035220643
0.00193177702177495
0.00172494827540092
0.00150960587735627
0.00128772685871353
0.00106057071695091
0.000828963622370054
0.000594150377804158
0.00035314901508772
9.49723642593072e-05
0.00292810699929094
0.00283745249786307
0.00272363907009292
0.00258661451689078
0.00242844219285499
0.0022524851619513
0.00206203453257091
0.00185984602500793
0.00164838088737317
0.00143002795533299
0.00120697578748203
0.00098089928859054
0.00075329202510944
0.000526096164540007
0.000298336074274207
6.7869307411987e-05
0.0030062350164216
0.00292378552963963
0.00281800844069788
0.00268864086913119
0.00253757164823649
0.00236803263308711
0.00218320841661857
0.00198576901567417
0.00177813053789633
0.00156273093092606
0.0013420779750975
0.00111857478934252
0.000894261831149008
0.000671151464637413
0.000452251752606601
0.000239591370538806
4.22579398427247e-05
0.00307561741509401
0.00300113851759145
0.0029032411839164
0.00278146307255645
0.00263751569624852
0.00247449175318422
0.00229545495864616
0.00210296050095735
0.00189932697326527
0.0016869287271951
0.00146827967032052
0.00124600477300286
0.00102268350736497
0.000800633710793162
0.00058250484504584
0.000373024097925702
0.000177726527026039
2.03002635137422e-05
0.00313647273646086
0.00306966318705864
0.002979437347155
0.00286514499789438
0.00272831017387342
0.00257187733922448
0.00239878203606773
0.00221145143145591
0.00201208031041848
0.0018029361858508
0.00158644811096685
0.00136519909937074
0.00114189302682758
0.000919218045027556
0.000699813641634243
0.000487510654723576
0.000289403897337655
0.000114342091697879
5.30737445831237e-06
0.000210642437419944
0.00060904846594539
0.000215459029246238
0.000910237142651937
0.000620212202506019
0.000220227990776919
0.00116146605282734
0.000923459474770648
0.000628602978222369
0.00022222096861132
0.00138407871852305
0.00117504836049161
0.000930746763882551
0.000631146930711897
0.000220629076568963
0.00158641395524477
0.00139672527764958
0.00118031100544909
0.000930180196135146
0.000625980776107761
0.000216230701265541
0.00177237024809361
0.00159728016759796
0.00139930293538725
0.00117584276356739
0.00092043966088901
0.000613727692734881
0.000210031513693896
0.00194421029839326
0.00178123869201158
0.00159670460670294
0.00139060940278609
0.00116101681679135
0.000901958167689625
0.000595997505368526
0.000202477147910424
0.0021035135393601
0.00195120507526638
0.00177756356094662
0.00158371361014268
0.00137054876881623
0.00113647020755871
0.000876002352472156
0.000573863610770377
0.000193648529733124
0.00225138424054182
0.00210880545476915
0.00194479861791978
0.00176059619656458
0.00155859146478038
0.00134006132315351
0.00110330616045561
0.000843528645064355
0.000547724498731194
0.00018404225849358
0.00238852820721499
0.00225510110746674
0.00210004290352009
0.00192436615330346
0.00173086580025587
0.00152251105746241
0.00130023859934028
0.00106233032321158
0.000805006197280508
0.000517773841849036
0.000178318520532473
0.00251536486713588
0.00239076975973487
0.00224426062995171
0.00207661480499848
0.00189057285289287
0.00168969806211878
0.00147659176003824
0.00125180890218553
0.0010140039792473
0.000760692647463681
0.000485159966996406
0.000171448083214972
0.00263215547795049
0.00251622858526763
0.00237805270465495
0.00221819827458565
0.00203924867519611
0.00184485522417836
0.00163826255639436
0.00142152959427195
0.00119521299456488
0.000958619429436731
0.000710587086260091
0.000447060497992993
0.000148503727996388
0.00273910463422711
0.00263174772832534
0.00250179949207849
0.00234963222407518
0.00217765880978258
0.00198947046302234
0.00178845379738857
0.00157725900680883
0.00135775056365764
0.00113078724215722
0.000896432134109426