/*--------------------------------*- C++ -*----------------------------------*\
  =========                 |
  \\      /  F ield         | OpenFOAM: The Open Source CFD Toolbox
   \\    /   O peration     | Website:  https://openfoam.org
    \\  /    A nd           | Version:  12
     \\/     M anipulation  |
\*---------------------------------------------------------------------------*/
/*   Windows 32 and 64 bit porting by blueCAPE: http://www.bluecape.com.pt   *\
|  Based on Windows porting (2.0.x v4) by Symscape: http://www.symscape.com   |
\*---------------------------------------------------------------------------*/
FoamFile
{
    format      ascii;
    class       volScalarField;
    location    "200";
    object      nut;
}
// * * * * * * * * * * * * * * * * * * * * * * * * * * * * * * * * * * * * * //

dimensions      [0 2 -1 0 0 0 0];

internalField   nonuniform List<scalar> 
10244
(
7.64694891736446e-05
7.64513127719478e-05
0.000629960120723084
7.79398419706663e-05
7.64264806593887e-05
0.000629879603748177
7.79214872036576e-05
0.00150769400626322
0.000639313558031472
7.97014910002923e-05
7.63918660733024e-05
0.000629769043848065
7.7896361409096e-05
0.00150759579589641
0.000639239114386633
7.9682776902507e-05
0.00248584323581579
0.00152002614372598
0.00065107833688643
8.07178807571499e-05
7.63451417289771e-05
0.000629570149408136
7.78607232178098e-05
0.00150730473011585
0.000639140024176395
7.9656915831581e-05
0.00248575412460976
0.0015199414694293
0.00065100095147305
8.06989853709278e-05
0.00345166719034977
0.00249504723800213
0.00153424880612488
0.000658064006943785
8.04342562908214e-05
7.62842655400566e-05
0.000629255213486526
7.78127010873129e-05
0.00150679349248217
0.000638946334457404
7.96201512102663e-05
0.00248527788493484
0.00151966086755019
0.000650913220736442
8.06722359708495e-05
0.00345156793012143
0.00249497847824008
0.00153416779711997
0.000657980757876277
8.04141421373029e-05
0.0043524356076787
0.0034544203252366
0.00250219091698314
0.00154093794768845
0.00065627173133632
7.92050006630892e-05
7.62067479234326e-05
0.000628821467758189
7.77501097491657e-05
0.0015060325945576
0.000638634105580447
7.95706102144827e-05
0.00248441682427878
0.00151915348681865
0.000650726905908319
8.06346495137006e-05
0.00345090213021709
0.00249451151472287
0.0015338957081585
0.000657902355379021
8.03882402307546e-05
0.00435230160056685
0.00345434634272755
0.00250213379878999
0.00154085321416636
0.000656178805175612
7.91847839072481e-05
0.00516844644307481
0.00434816593076918
0.00344987811460961
0.00249919796486304
0.00153393672043728
0.000647116005317602
7.75877888174201e-05
7.61089986110894e-05
0.000628243077102128
7.76702901942922e-05
0.00150497015230812
0.000638193655972854
7.95060082000803e-05
0.00248312551702484
0.00151838521890338
0.000650414482955492
8.05838988173061e-05
0.00344968183583944
0.00249365190902598
0.00153339142476433
0.000657724070764405
8.03513678935173e-05
0.00435143891022709
0.00345369203604095
0.00250167408458998
0.0015405873032042
0.000656110697248705
7.91593360276186e-05
0.00516826044965988
0.00434806061574013
0.0034498219761716
0.00249914186011685
0.00153384503833116
0.000647018172141985
7.75678758530028e-05
0.00589711151080571
0.00515891103549311
0.00433127586512566
0.00343181354267038
0.00248035750566261
0.00151393836664835
0.000633905799331186
7.58158956542053e-05
7.59878532974359e-05
0.000627493329442193
7.75698194539855e-05
0.00150356623295229
0.00063760594183582
7.9423823392181e-05
0.00248134300137699
0.00151731672629535
0.000649966850274068
8.05176507273996e-05
0.0034478494062043
0.00249235764399691
0.00153261702055572
0.00065741300414336
8.03008760984756e-05
0.00434986099638676
0.00345247551697975
0.00250081480022404
0.0015400869540267
0.00065594488337379
7.9122986264675e-05
0.00516719912193282
0.00434721258451583
0.00344917700310398
0.00249868636485168
0.00153358519087006
0.000646958218762576
7.75430916563445e-05
0.00589686504099966
0.0051587569555113
0.00433119312844623
0.00343176201709384
0.00248029825270083
0.00151384211477741
0.000633809146349216
7.57966773757212e-05
0.00654364440772441
0.00588446641610811
0.00513196317281725
0.00429708550555186
0.00339602155072631
0.00244537533334295
0.00148469355964775
0.000618491186420849
7.38659603120285e-05
7.58389877543874e-05
0.000626548192359428
7.7445249027298e-05
0.00150176896018669
0.000636846356643035
7.93197401832261e-05
0.00247899304168645
0.0015159031420983
0.000649367451633495
8.04333801659607e-05
0.00344532316069393
0.00249056903442362
0.00153153665590402
0.000656960743184776
8.02341759075291e-05
0.0043474961183766
0.0034506436013956
0.00249951402083317
0.00153930935820824
0.000655641370443001
7.90729867260505e-05
0.00516527421903535
0.00434564191431631
0.00344796247578493
0.00249782799100856
0.00153309261800574
0.000646802391094655
7.75074997840829e-05
0.00589560889311674
0.0051577131918286
0.00433035768069274
0.00343112255595511
0.00247984653605223
0.00151358962051823
0.00063376042944291
7.57735482741989e-05
0.00654333307572677
0.00588425383409109
0.00513183529674595
0.00429700950163975
0.00339596866439748
0.00244531396461315
0.00148459699221972
0.000618404499984102
7.38498455897725e-05
0.00711558592893202
0.0065292109701766
0.00585045872999261
0.00508368814809032
0.00424267651660793
0.00334181823886722
0.00239665904744659
0.00144870563716957
0.000601263173300914
7.17965533695813e-05
7.56574019295276e-05
0.000625371161622488
7.72922738380897e-05
0.00149950166396757
0.000635886474506991
7.91911714727217e-05
0.00247598088948131
0.00151408812792357
0.000648591513183026
8.03267095846623e-05
0.00344199641809997
0.00248820994978281
0.00153010501426835
0.000656351904545698
8.01489291616827e-05
0.00434423931017808
0.00344811602092205
0.00249771336869647
0.00153821912595851
0.000655190025579197
7.90073223716405e-05
0.0051623968612886
0.00434328141615012
0.00344612732522392
0.00249652251920072
0.00153231867072412
0.000646505249698448
7.74581979357604e-05
0.00589335245450839
0.00515579795262822
0.00432879244537195
0.00342991041473632
0.00247899267883083
0.00151310747933437
0.000633615927008587
7.57399607272907e-05
0.00654189015817464
0.00588301763466432
0.00513080699095322
0.00429618193547763
0.00339533357218941
0.00244486848152119
0.00148435778351613
0.000618383275098014
7.38332913758645e-05
0.00711520866325248
0.00652893498400913
0.00585027483847067
0.0050835682372061
0.00424259928668417
0.00334176397023714
0.00239659776736154
0.00144861306034369
0.000601254349931904
7.17880250667834e-05
0.00762038709094232
0.0070998792622252
0.00649024842249256
0.00579096945909072
0.00501173075897929
0.00416725536959152
0.00327008898128912
0.0023358853937855
0.00140675365757861
0.000583816615843243
8.38759625679011e-05
7.54377373380379e-05
0.000623921078482349
7.71057693914797e-05
0.00149668395359068
0.000634691278780903
7.90333577107726e-05
0.00247219138622717
0.00151180025247946
0.000647609728022599
8.01949768836637e-05
0.00343773589192939
0.00248518540638882
0.00152826401123989
0.000655561530535618
8.0041815644939e-05
0.004339954762092
0.00344478658236634
0.00249533675539903
0.00153677122206693
0.000654578374938929
7.89234437661149e-05
0.00515844168001356
0.00434002917883215
0.00344359248672238
0.00249471164663449
0.00153122683263326
0.000646060251955692
7.73934765188462e-05
0.0058899909738303
0.00515292875769737
0.00432643347011618
0.00342807384339536
0.00247768942120176
0.00151234200558185
0.000633325070540758
7.56917679694601e-05
0.00653932017007076
0.00588077250355245
0.00512890020149338
0.00429462257628327
0.00339412738617588
0.0024440246164669
0.00148389434881613
0.000618274251586334
7.38053407965424e-05
0.00711358845521199
0.00652751345371539
0.00584905613009851
0.00508254999860858
0.00424177775214819
0.00334113582466076
0.00239616454208878
0.00144841329138274
0.000601367876855726
7.17809987994222e-05
0.00761994534280802
0.00709953806075752
0.00649000271844167
0.00579079415896819
0.00501160901487282
0.00416717576699437
0.00327003488612722
0.00233582470316619
0.00140673676547458
0.000584082193348809
8.38103767991206e-05
0.00806477644039221
0.00760352628809367
0.00705703664932093
0.00642177570067107
0.0057035332768076
0.00491523561389955
0.00407057837948068
0.00318114644641355
0.00226330842374692
0.00135979882659458
0.000580618638625608
7.93245244437132e-05
7.51741985999052e-05
0.00062215427086202
7.68802251766234e-05
0.00149322243273186
0.000633219857406484
7.88410489950251e-05
0.00246748906393541
0.00150895747920104
0.000646387211821363
8.00333183739512e-05
0.00343237914475337
0.00248137983622606
0.00152594302964415
0.000654560587640035
7.99090382737349e-05
0.00433447289396803
0.0034405220091835
0.00249228862527921
0.00153490700493733
0.000653783459605456
7.8817192030898e-05
0.00515324501371124
0.00433575013109284
0.00344025239793654
0.00249231956606991
0.00152977324347341
0.000645456317913903
7.73109090352084e-05
0.00588537826513328
0.00514898295633183
0.00432318089315344
0.00342553421848135
0.00247587800342179
0.00151125805365143
0.000632886699299247
7.56281273507782e-05
0.00653550461999813
0.00587742127781506
0.00512603691662538
0.00429226773194863
0.0033922968549922
0.00244273256715556
0.00148314373363805
0.000617994748789029
7.37594036720551e-05
0.00711072495970011
0.00652495617978205
0.00584682148818386
0.00508065260591926
0.00424022812265936
0.00333994221468221
0.0023953410862629
0.00144801639900353
0.000601188039537529
7.16956129362985e-05
0.0076181584188099
0.0070979404230961
0.00648859992318213
0.00578958714851334
0.00501059857504545
0.00416636263851241
0.00326941917085464
0.00233542221728918
0.00140672471841626
0.000584068588065497
8.36399551464158e-05
0.00806427079817151
0.00760312008059834
0.00705672660865315
0.006421538761756
0.00570335524360229
0.00491510978554898
0.00407049750024926
0.00318109297109522
0.00226327833251534
0.00136007327006327
0.000580907598744529
7.92882700056944e-05
0.00845479802652081
0.00804677269185369
0.0075572846161379
0.00698097785343484
0.00632079968703172
0.00558722507132691
0.0047933576336469
0.00395171713025649
0.00307416407919292
0.00217836473287888
0.00131070795176432
0.000552566671424177
6.85572293583742e-05
7.48602239978722e-05
0.000620022206851675
7.66096216896294e-05
0.0014890116193736
0.000631428850946883
7.86085997482099e-05
0.00246171976828245
0.0015054656776068
0.000644882575276899
7.98364461309027e-05
0.00342573958923768
0.00247665804739933
0.00152305963678075
0.000653313889270087
7.97461727764448e-05
0.00432758688897396
0.00343516087850069
0.00248845349413657
0.00153255600240404
0.000652774737389652
7.86853376169764e-05
0.0051466002074202
0.00433027439482831
0.00343597405700381
0.00248925064422666
0.00152790011499079
0.000644668638705592
7.72071165112977e-05
0.00587932471371184
0.00514379783654323
0.00431890079518475
0.00342218677127334
0.00247348314574097
0.00150981369504731
0.000632292348099971
7.55463264318734e-05
0.00653027887923501
0.00587282128914732
0.00512209695948097
0.00428901866049659
0.00338976347097941
0.00244093390037536
0.00148207518597053
0.000617557848429902
7.36962764294602e-05
0.00710648678933574
0.00652115252820665
0.00584347908532961
0.00507779903053248
0.00423788595872783
0.00333812888727838
0.00239407170348651
0.00144730295934744
0.000600853938874288
7.16542900421854e-05
0.00761502174697449
0.00709509063092042
0.00648605453697072
0.00578736478321018
0.00500871520668649
0.00416483011751539
0.00326824836533739
0.00233465369420415
0.00140635396163505
0.000582430222862885
6.94184130648848e-05
0.00806232873957369
0.00760135678668579
0.0070551485136837
0.00642014878915047
0.00570215760411567
0.00491410948013189
0.00406969801021292
0.00318050052842474
0.00226298823096174
0.00136003455032487
0.000579306914110167
7.92525131056459e-05
0.00845423067860269
0.00804630241812697
0.00755690979964295
0.00698067643696539
0.00632055904120379
0.00558704115216933
0.00479322826910712
0.00395163585070023
0.00307411957555158
0.00217846579836982
0.00131099864838883
0.000552651155432206
6.85244047354924e-05
0.00879595625823515
0.00843567564451306
0.00799739298429319
0.00747451005232521
0.00686800043049044
0.00618629034875424
0.00544100478231897
0.00464433699885289
0.00380872070406511
0.00294720714351799
0.00207940013073099
0.00124402078757142
0.000510389828394915
5.62088307132433e-05
7.44882777012688e-05
0.000617479502114496
7.62871576396491e-05
0.00148394023941027
0.000629267730465366
7.83297763862413e-05
0.00245471167198412
0.00150122007973303
0.00064304986430736
7.9598600783961e-05
0.00341759775511652
0.00247086520570659
0.0015195188237526
0.000651779173719735
7.95479252011094e-05
0.0043190534072231
0.00342851460998971
0.00248369600799914
0.00152963534649506
0.00065151644895056
7.852346180071e-05
0.0051382592419068
0.00432339588959085
0.00343059661352448
0.00248538947170521
0.00152553639574627
0.000643666950326413
7.70777146319668e-05
0.00587159167456012
0.00513716802866078
0.0043134240007188
0.00341789915893815
0.00247040977470329
0.0015079506548433
0.000631522488944483
7.54449976110049e-05
0.00652342807769775
0.00586678376227333
0.00511691919057629
0.00428474282063728
0.00338642330879551
0.00243855473270754
0.00148065049473111
0.000616965884372449
7.3613225603456e-05
0.00710069188778542
0.00651594133267231
0.00583888926740819
0.00507387075558498
0.00423465322395164
0.00333561786713428
0.00239229989334052
0.00144625037883616
0.000600339751055549
7.16059480842706e-05
0.00761039213635327
0.00709086553489819
0.00648226168919916
0.00578403672420197
0.00500588163071541
0.00416251358098292
0.00326646626756627
0.00233343086400753
0.00140562954940479
0.000581642235085026
6.93173508936875e-05
0.0080589390226083
0.0075982347741255
0.0070523116071282
0.00641761799375914
0.00569995342620633
0.00491224862103023
0.00406819305922388
0.00317937270898457
0.00226229217244548
0.00135897205258221
0.000562144311051285
7.92314099224304e-05
0.00845214408733751
0.0080443844915868
0.00755516660076699
0.00697911198716639
0.00631917986855297
0.00558585552928622
0.00479224346154441
0.00395085773144239
0.003073582609603
0.00217823282925188
0.00131023403887652
0.000552477488441197
6.84726362565657e-05
0.00879532945626904
0.00843514302193636
0.00799695414949276
0.00747414352774422
0.00686769437880322
0.00618604222336641
0.00544081505607605
0.00464420500213552
0.00380864130776451
0.00294720319718142
0.00207952229642001
0.00124412437759985
0.000510368450954029
5.61856931335048e-05
0.00909329323527038
0.0087757762090554
0.00838338650315851
0.00790853926365998
0.00735076656248487
0.00671692348450866
0.00601721441259446
0.00526268526445684
0.00446533852141739
0.00363853009825389
0.00279686422093714
0.00195919724689012
0.00115668551552134
0.000458770534077582
4.36027347099781e-05
7.40503204457275e-05
0.000614455751179663
7.59052661235388e-05
0.00147787028675745
0.000626681891578432
7.79976103173091e-05
0.00244626740954506
0.00149610336441574
0.000640838131667817
7.93134876486804e-05
0.00340770897423493
0.0024638271638872
0.00151521386694942
0.000649909887163616
7.93084599714943e-05
0.00430859415548431
0.00342036520094688
0.00247786070132944
0.00152604922289463
0.000649967611768215
7.83264565879662e-05
0.00512792719096262
0.00431487215304575
0.00342393121666963
0.00248060066482345
0.00152259887044153
0.000642414000367794
7.69181158942914e-05
0.00586188748879776
0.00512884494570211
0.00430654545104531
0.00341251125791998
0.00246654276693579
0.00150559765262514
0.000630539183559596
7.53187283353373e-05
0.00651468163213835
0.00585907031957447
0.00511029970544596
0.00427927243601714
0.00338214516559115
0.00243550044908272
0.00147881587373303
0.00061622581872951
7.35144681434143e-05
0.00709310222031757
0.00650910906442758
0.00583286505317438
0.00506870857053145
0.00423039890647416
0.00333230672243363
0.00238995466937519
0.00144483466137086
0.000599933755168265
7.15569603795649e-05
0.00760407140566793
0.00708508673871441
0.00647706345962461
0.00577946543866208
0.00500198061664165
0.00415931610521
0.00326399634833694
0.00233169808854561
0.00140449346247127
0.000581408158424025
6.95513456607428e-05
0.00805394887038871
0.0075936193844787
0.00704809880819038
0.00641384331634282
0.00569665250399403
0.00490945028197812
0.0040659182359245
0.00317764224810627
0.00226111172200809
0.00135792242292776
0.000560009687205996
7.91246736969298e-05
0.00844852217189657
0.00804101063901912
0.00755205837675746
0.0069762916688222
0.00631667123386703
0.00558367964044956
0.00479041661181416
0.0039493949384291
0.0030725193591718
0.00217744198401869
0.00130528337963292
0.000550833387330958
6.84056854295629e-05
0.00879310930981783
0.0084330813524893
0.00799505667454663
0.00747241465017974
0.00686614210056092
0.0061846771468132
0.00543964732608601
0.00464324283613249
0.00380789828332867
0.00294671953115002
0.00207915317035404
0.00124390774151772
0.000510357825603209
5.61417528205036e-05
0.00909260909804423
0.00877518326044656
0.00838288513992699
0.00790810835874536
0.00735039460274479
0.00671660867134508
0.00601695860532597
0.00526249049210493
0.00446520491257375
0.00363846078211927
0.0027968734674248
0.00195924575929729
0.00115667847036178
0.00045873457755404
4.35907839259688e-05
0.00935141103234673
0.00907214348924987
0.00872083089569489
0.00828902099557103
0.0077750992336247
0.00718469033451375
0.00652678350330682
0.00581122096176967
0.0050488576946346
0.00425245768297334
0.00343671046928605
0.0026171927269911
0.0018112242449
0.00104894670395837
0.000398947736605542
3.10746682022751e-05
7.35383588537099e-05
0.000610889663069644
7.54557090827421e-05
0.00147067475179134
0.000623610931799814
7.76043726177963e-05
0.0024361728729145
0.00148998327357306
0.000638192465599595
7.89740543797116e-05
0.00339579619237499
0.00245534762307005
0.00151002580648447
0.00064765504472363
7.90215567538773e-05
0.00429589039446904
0.00341046636161222
0.00247077203153751
0.00152169033618907
0.000648082430168631
7.80885586694255e-05
0.00511526442141198
0.00430442398374337
0.00341576027657155
0.00247472858622013
0.0015189922071015
0.000640869539212529
7.67237235411865e-05
0.00584987019174521
0.00511853494559033
0.00429802370410921
0.0034058348620694
0.00246174716681079
0.0015026711824659
0.000629306175079784
7.51635533666272e-05
0.00650371064431476
0.00584939107865432
0.00510199110360808
0.00427240401742443
0.00337677017779807
0.00243165667938313
0.00147649386187625
0.000615259292219558
7.33906066427456e-05
0.00708341791852037
0.00650038600020741
0.00582516970827882
0.00506211074343607
0.00422495725765711
0.00332806575312272
0.00238694468640341
0.00144305145156734
0.000599095709422934
7.14126194161523e-05
0.00759580006871917
0.00707751771294792
0.00647024851870496
0.00577346638684303
0.00499685525652766
0.00415510874546812
0.00326073866655121
0.00232939420933921
0.00140326027700469
0.000582087349819618
8.37346431359491e-05
0.00804714470093124
0.00758731627865672
0.00704233519528002
0.00640866931859516
0.00569211914086492
0.0049055989890783
0.00406277853167798
0.00317523317995512
0.00225938015112806
0.00135704009637239
0.000561098465438234
7.89416292456795e-05
0.00844320093341659
0.00803603574601698
0.00754745668442132
0.00697210044827528
0.00631293052962254
0.00558042408440289
0.00478767205653734
0.0039471813617509
0.00307085434055389
0.00217619800412692
0.00130369425292288
0.000550100440204718
6.82962938435222e-05
0.00878927428171571
0.00842947590313599
0.00799169754672752
0.00746932490386538
0.00686334779464942
0.00618220278695499
0.00543751284182747
0.0046414639347913
0.00380649458390611
0.00294570046844888
0.00207780376488152
0.00124278204020264
0.000510108656367376
5.60766146903464e-05
0.00909026564627748
0.00877298857799885
0.00838084428580436
0.00790622583038654
0.00734867928202437
0.00671507275218791
0.00601561430711857
0.00526134821642017
0.00446427443315455
0.0036377596291231
0.00279639933067131
0.00195895978529673
0.00115655184868007
0.00045876021983051
4.35619732424972e-05
0.00935067144421858
0.00907149220335541
0.0087202688335237
0.00828852721523758
0.00777466228386816
0.00718430868016504
0.00652645964343112
0.00581095815678707
0.00504865867648994
0.00425232467965574
0.00343664635994477
0.0026171851937229
0.00181122325752663
0.00104891411514781
0.000398938529006262
3.10728404136034e-05
0.00957447524226242
0.00932939227412053
0.00901481866872043
0.00862151237318273
0.00814687527359526
0.00759551997008262
0.00697539123942425
0.00629520229646728
0.00556458543383962
0.004795057922552
0.00400057885300811
0.00319709901114313
0.00240093965236358
0.00163067755707363
0.000918757291110791
0.000329167317568372
1.90635675314299e-05
7.29459616261342e-05
0.000606715287091731
7.49302192025889e-05
0.0014621901952271
0.00061999132700355
7.71417170789981e-05
0.00242419243163855
0.00148272101858457
0.000635051941522036
7.8572398210309e-05
0.0033815523926471
0.00244521005033504
0.0015038231977128
0.000644958926120483
7.86801390011791e-05
0.00428058480028095
0.00339854106231355
0.00246223345489793
0.00151643931476842
0.000645807734121164
7.78036309612529e-05
0.00509988327899934
0.00429173336005804
0.00340583714963302
0.00246759746422977
0.00151460962161578
0.000638987663738932
7.6489105267102e-05
0.00583514258946497
0.00510589880158534
0.00428758018777732
0.00339765317851188
0.00245586793249832
0.00149907618215178
0.000627781085638954
7.49726016789001e-05
0.00649012670533676
0.00583740425309693
0.00509170147465112
0.00426389785822918
0.00337011160631198
0.00242688934554074
0.0014736050025609
0.000614067216708904
7.32402200154441e-05
0.00707127453900103
0.00648944427253671
0.00581551550847454
0.00505383225288861
0.00421812714576022
0.00332273797966173
0.00238315377080135
0.00144076457627643
0.000598291247644499
7.13368407791e-05
0.00758525117646152
0.00706785960791306
0.00646154922593549
0.00576580562244929
0.00499030676791521
0.00414972838479744
0.00325656641684975
0.00232645508636073
0.00140141532834693
0.000580491444087809
6.93267916939317e-05
0.00803824750336415
0.00757906764759158
0.00703478676011104
0.00640188762489181
0.00568617181032605
0.00490054075223594
0.00405864787636446
0.00317205120427784
0.0022571940476154
0.00135633597105887
0.000575558795143484
7.87667639980923e-05
0.00843595452608793
0.00802925074804297
0.00754117087850576
0.00696636620821717
0.00630780464677672
0.00557595556889243
0.0047838969645264
0.0039441240402424
0.00306851004263094
0.00217459864684127
0.00130338585249326
0.00054972038891378
6.81377096250844e-05
0.00878365112828698
0.00842417136062793
0.00798673777777845
0.00746474806280028
0.00685919716487415
0.00617851776971119
0.00543432421693565
0.00463879424749853
0.00380436144425267
0.00294408474964403
0.00207650815727412
0.00124186415275047
0.000509717312897597
5.59825120279096e-05
0.00908623577740266
0.00876917081250463
0.00837725436092869
0.00790288705294902
0.00734561934095803
0.00671231880202821
0.00601318936335418
0.00525927030669551
0.00446255908779669
0.00363642301513847
0.0027953639766217
0.00195817569739625
0.00115612185028605
0.000458656315190893
4.35138570515065e-05
0.00934821405788856
0.00906917462709068
0.00871809523265902
0.00828650194613784
0.00777279475230284
0.00718261214323276
0.00652494777838329
0.00580964304016513
0.00504755051554133
0.00425143396001281
0.00343598187259935
0.00261673558415462
0.00181094931026548
0.00104881361256463
0.000399035521063019
3.10593504741791e-05
0.00957368131259063
0.00932868436273474
0.00901419775309005
0.00862095757651079
0.00814637505233512
0.00759507275160965
0.00697499968779419
0.00629487013743897
0.00556431646896423
0.004794855718328
0.00400044623374379
0.00319703297198712
0.00240092000032172
0.00163066679185389
0.000918738083732626
0.00032921057250063
1.90690987010424e-05
0.00976622002015718
0.00955169034525504
0.00926997138088707
0.00891110349536662
0.00847160830341577
0.00795522231732698
0.00736897473130296
0.00672052668952619
0.00601831467177476
0.00527253245314683
0.00449576966295779
0.00370322807037812
0.00291207135755833
0.0021404696530251
0.00141104975861698
0.000760238459018648
0.000246852743672314
8.86667644836265e-06
7.22731092437176e-05
0.00060189199766138
7.43208879031239e-05
0.00145226050816075
0.000615758075530671
7.6600940598995e-05
0.00241006872906217
0.00147416076689118
0.000631353345638347
7.81000858632235e-05
0.00336464112712036
0.00243317790845745
0.00149646306702469
0.000641760170604766
7.82765239151054e-05
0.0042622775211773
0.00338428183823373
0.00245202756914869
0.00151016412365354
0.000643088332117819
7.74647436475324e-05
0.00508134624939458
0.00427644254731914
0.00339388501691383
0.00245901083765207
0.00150933135070598
0.000636717371184151
7.62083252328265e-05
0.00581725086966969
0.00509054950142754
0.00427489789145558
0.00338772033772946
0.00244873015209468
0.00149470657092281
0.000625922644585285
7.47434015705516e-05
0.00647347901592698
0.0058227136666009
0.00507909322304946
0.00425347721613135
0.00336195427420108
0.00242104442512445
0.00147005113598687
0.000612568084792292
7.30583146271865e-05
0.00705624104519948
0.00647589640079425
0.00580356264840288
0.00504358392851023
0.00420967155440559
0.00331613886726149
0.00237845167516832
0.00143794645628767
0.000597000689382903
7.11529034405288e-05
0.00757202750618106
0.0070557490957783
0.00645064009363439
0.00575619866388098
0.00498209358880673
0.00414297709472963
0.00325132420301441
0.00232273921492907
0.00139930922200631
0.000580545566514393
8.31645058347963e-05
0.00802690489612605
0.00756854772235467
0.00702515707803778
0.00639323399333895
0.00567858040598451
0.00489408056751358
0.00405336674298051
0.00316798056614641
0.00225430104871046
0.00135428213386646
0.000561412720894697
7.84503404545256e-05
0.00842648485596949
0.00802037827528962
0.00753294598058072
0.00695885836798101
0.00630108891085417
0.00557009636629707
0.00477894113537147
0.00394010135990181
0.00306544319231466
0.00217259466127095
0.00130593363471801
0.000550307383554787
6.79303389105517e-05
0.00877600114389595
0.00841694551322144
0.00797997225167417
0.0074584965829183
0.00685352088285685
0.00617347202792349
0.00542995157439488
0.00463512433901457
0.00380140800045345
0.00294185151132314
0.00207508629319753
0.00124098516916573
0.000509207198902776
5.58507910703736e-05
0.00908033780825719
0.00876356541952186
0.00837196649694421
0.00789795538062947
0.00734108955847913
0.00670823417799681
0.00600958503132485
0.00525617243777397
0.00445998659346812
0.00363438197133
0.00279381740086804
0.00195706541916141
0.00115543675292999
0.000458378721676242
4.34418527339031e-05
0.00934400634404772
0.0090651627786941
0.0087142938170304
0.00828293420959434
0.0077694895321315
0.00717959864936054
0.00652225155942708
0.00580728459165307
0.00504554582458088
0.00424979642726276
0.00343471142119999
0.00261580693278542
0.00181033097873163
0.00104850821351756
0.000399018095046678
3.10299418837003e-05
0.00957111828913663
0.00932625315812786
0.00901190144725875
0.00861880019654064
0.00814436628765649
0.00759322656444888
0.00697333076423615
0.00629339177214086
0.00556303995886351
0.00479379068472695
0.00399960058009183
0.00319640609837587
0.00240049275017377
0.00163041852956132
0.000918699389017997
0.000329415284826697
1.90685393903256e-05
0.00976537238189708
0.00955092700756528
0.0092692932346611
0.00891048957746324
0.00847104688421958
0.00795471160533676
0.00736851725182934
0.00672012618428571
0.00601797523069881
0.00527225837295935
0.00449556514233462
0.00370309507248866
0.00291200438402788
0.00214044919419025
0.0014110483875294
0.000760257673949439
0.000247003071431095
8.87634735760179e-06
0.0099299595173234
0.00974276794372591
0.00949044862532876
0.00916240101114598
0.00875434844056737
0.008269242539978
0.00771329246819888
0.00709318451050753
0.00641619865648066
0.00569122033446187
0.00492938367390176
0.00414441332390392
0.00335272063456873
0.00257304349192885
0.00182689858137853
0.00114358342101531
0.000566452461898229
0.000152021031100506
2.2284201001659e-06
7.15565611232771e-05
0.000596386334129719
7.3622335033716e-05
0.00144073790594171
0.000610863531187322
7.59731339132154e-05
0.00239352977861349
0.00146414243557621
0.000627032937600848
7.75482217155392e-05
0.00334469281881438
0.00241899297601611
0.0014877906492773
0.000637995881081367
7.78021477254678e-05
0.00424052785474488
0.00336735067192393
0.00243991619801665
0.00150272047654053
0.0006398653694928
7.70643329922779e-05
0.00505916370435234
0.0042581523516573
0.00337959645458303
0.00244875119480003
0.00150302664571985
0.000634005358057731
7.58750557327857e-05
0.00579568142871739
0.00507205018513138
0.00425962005034681
0.0033757605762106
0.00244013848745828
0.00148944556346404
0.000623677856862431
7.44720762508123e-05
0.00645325146131882
0.00580486641702096
0.00506378119391578
0.00424082717744138
0.00335205427480167
0.00241394902584694
0.00146573306449439
0.000610769854273689
7.28540938436043e-05
0.00703781655270477
0.00645929269501973
0.00578891728778941
0.00503103117263316
0.00419931673923198
0.00330805569196474
0.00237268405947713
0.00143445091925629
0.000595704983526004
7.1067922256789e-05
0.00755565859415226
0.00704075621697495
0.00643713617762751
0.00574430929165217
0.00497193052433277
0.00413462154025958
0.00324483132050209
0.00231814229732468
0.00139644276584825
0.0005784779927032
6.91396055284444e-05
0.00801269060129475
0.0075553604393821
0.00701308548239103
0.00638238684611096
0.00566906499764241
0.00488598143386291
0.00404674107728209
0.00316286149218064
0.00225073376791558
0.0013525422991072
0.000573880208830567
7.8104058931457e-05
0.00841441826289023
0.00800906778938209
0.00752245896298022
0.0069492844629051
0.00629252378244661
0.00556262130137451
0.00477261436205831
0.00393496002412528
0.00306149415034652
0.00216977805254506
0.00130134894534953
0.000548436587111839
6.76599330317619e-05
0.00876601109385236
0.0084075030187156
0.0079711267306467
0.00745031936205108
0.0068460927278094
0.00616686556752507
0.00542422201934854
0.00463030896458624
0.00379752892407931
0.00293892638286171
0.00207363879707316
0.00124031959790987
0.000508624391359463
5.56744561346106e-05
0.00907232189478901
0.00875593789448735
0.00836476237924725
0.00789122907796119
0.00733490561450583
0.0067026532144687
0.00600465545651043