/*--------------------------------*- C++ -*----------------------------------*\
  =========                 |
  \\      /  F ield         | OpenFOAM: The Open Source CFD Toolbox
   \\    /   O peration     | Website:  https://openfoam.org
    \\  /    A nd           | Version:  12
     \\/     M anipulation  |
\*---------------------------------------------------------------------------*/
/*   Windows 32 and 64 bit porting by blueCAPE: http://www.bluecape.com.pt   *\
|  Based on Windows porting (2.0.x v4) by Symscape: http://www.symscape.com   |
\*---------------------------------------------------------------------------*/
FoamFile
{
    format      ascii;
    class       volScalarField;
    location    "200";
    object      omega;
}
// * * * * * * * * * * * * * * * * * * * * * * * * * * * * * * * * * * * * * //

dimensions      [0 0 -1 0 0 0 0];

internalField   nonuniform List<scalar> 
10244
(
3.13422758238114
3.13362770096498
1.07642366723279
3.08419797671945
3.1327191018858
1.07610768646801
3.08365026297766
0.659721193024366
1.06097261557019
3.02839550703347
3.13144027091975
1.07562178264253
3.08276580677939
0.659470634995078
1.06067199351974
3.02787638663776
0.502655249790187
0.65388055522882
1.04001557821737
2.97162325862465
3.12970900514915
1.0750242752609
3.08151242815141
0.659151328382976
1.06018006491026
3.02701525481133
0.502438109048587
0.653640257501546
1.03973374630369
2.9711241690117
0.42577020952179
0.500201917552097
0.644651611314257
1.01996427331722
2.92225055888303
3.12744754128459
1.07430370342466
3.07981482219039
0.658769289957914
1.05958070123972
3.02578592394275
0.502179098963552
0.653323237921777
1.03923757656362
2.9702849703871
0.42557562434076
0.499992927077242
0.644421530644183
1.01969816082943
2.92180100931768
0.382781317023607
0.424701359532772
0.49565710680146
0.634596354503059
1.00336068118684
2.87590527687865
3.12454824426522
1.07341501711358
3.07759143438066
0.658309821516872
1.0588618236227
3.02411573718188
0.50187734786664
0.652942992978781
1.03863446830833
2.96907644668284
0.425348031158701
0.499736486166654
0.644108075566585
1.01919953867289
2.92094345008935
0.382601833198811
0.424513804164378
0.495455098057618
0.634374335820814
1.00311261722694
2.87547288924564
0.356833278981573
0.382292673469748
0.422223656290831
0.489935866920069
0.62509187785028
0.988375684781979
2.82420840663324
3.12089052263688
1.07232725164634
3.07474156069716
0.657756894038201
1.05798468790143
3.02192437992945
0.501521782267908
0.65248771080814
1.03791844031318
2.96743103308336
0.425087127059146
0.499436334624652
0.643729994711221
1.01859259126411
2.91972249753471
0.382393579693836
0.424288306553496
0.49520221996818
0.63406430410679
1.00260956840266
2.87462698903094
0.356663864624918
0.38211963065174
0.422041577357495
0.489738771706425
0.624876903488633
0.988140386035251
2.82379373206658
0.340442768370102
0.356559172703817
0.380764672565391
0.418645051575334
0.483740643680725
0.615842913564574
0.972041499509128
2.76303736773792
3.11633632543914
1.07100087401199
3.07114692796271
0.657086817972738
1.05691171097108
3.01911291285359
0.501098083309548
0.651938807936556
1.03705032378171
2.9652696863227
0.42478388822534
0.499082422163578
0.643278101489745
1.01787800365078
2.91807689709371
0.382157211200756
0.424028422674644
0.494904138795302
0.633688298212709
1.00199484155566
2.87341956701886
0.356468358948225
0.38191316694808
0.421818943403791
0.489489282402231
0.624569690147548
0.987636488711142
2.82296526453636
0.340280131395948
0.356395870412674
0.380596375113663
0.418466453846772
0.483547337713418
0.615634038487144
0.971813937145682
2.7626411909293
0.329836952940116
0.340236051523274
0.355452167423481
0.378292530304861
0.414326046582487
0.477208691441225
0.605904997406821
0.952756710945024
2.69207396235563
3.11072206441212
1.06938314741945
3.06667104668023
0.656273001684009
1.05560134296879
3.01557125659376
0.500589606122031
0.651273879333867
1.03599024261219
2.96249479543186
0.424426402315039
0.498660652300018
0.642733590833762
1.01701635629279
2.91593530461903
0.381885174971874
0.423726002811563
0.494552043283104
0.633239267297563
1.00127719657301
2.87178973112325
0.356248085586902
0.381677504331469
0.421560473048159
0.489193462172787
0.624195200620047
0.987019664958481
2.82177781723763
0.340093381045926
0.356202005498172
0.38039230635349
0.41824650258302
0.483300841559476
0.615329829826666
0.971308126446995
2.76183365599144
0.329678971458901
0.340079352821533
0.355293269944446
0.378127066647151
0.41414998022287
0.477018874198097
0.605701770636809
0.95253018763339
2.69166795888051
0.322940533283798
0.329654251560397
0.339315171506806
0.353558069605544
0.375094436743913
0.409494602052109
0.470141271545932
0.594623360578664
0.930008660308064
2.6127535302425
3.10385897360777
1.06742163715398
3.06115265548811
0.65528826201202
1.05400541658733
3.01115736504935
0.499977426941405
0.650467489126406
1.03469707863364
2.95899828422464
0.424001000259729
0.498154525177553
0.642074345918546
1.01596691202914
2.91318995509576
0.381567259647511
0.423369374364058
0.494132202084733
0.632698789051438
1.00041970464979
2.86964948965022
0.355996563594243
0.381405921590308
0.421258886532392
0.48884333462814
0.623748423942568
0.986305029306324
2.82017141674754
0.339884286480261
0.355982310434153
0.380157627025556
0.41798966893501
0.48300734664863
0.614957671417929
0.970691217765626
2.76067722339471
0.329498410658043
0.339894171864046
0.355101559562426
0.377925184992023
0.413932424076797
0.476775344589213
0.605399964029439
0.952006947182387
2.690896033178
0.322785781465485
0.329502098855205
0.339162721065946
0.353401719142153
0.374930959260438
0.409320966994798
0.469955217499387
0.594426236035727
0.929697504676142
2.61226278609915
0.318527812448963
0.322775598523247
0.328831543109153
0.337742348531113
0.351053773095413
0.371407060308993
0.404229269226887
0.462345330045624
0.581674720859184
0.901252305872481
2.19480346052734
3.09553727140569
1.06505605783867
3.0544065664349
0.654099560527428
1.05207018720088
3.00571602042071
0.499240165775289
0.649491345473893
1.03312388364254
2.95463973910464
0.423492179450663
0.497545236525394
0.641275554192368
1.01468919546065
2.90972552496704
0.38119161739219
0.422944959310401
0.493628353350176
0.632044944835425
0.999378748612839
2.86690415279976
0.355704675636823
0.381088371089543
0.42090287724901
0.488425559929497
0.623211623346831
0.985451749551495
2.81805896116285
0.339647084044112
0.355731059897534
0.37988635523198
0.417689126014921
0.482659412540181
0.614514287599891
0.96998485463698
2.75909684690157
0.329297396359059
0.339685598799417
0.354882626754009
0.377691654981664
0.413677417612094
0.476484491643683
0.605029350498815
0.951359673006442
2.68992470015588
0.322609701703485
0.32932307433209
0.33897957777846
0.353211915929082
0.374730998410693
0.409105812169407
0.469714613205445
0.594119081995713
0.929010342987638
2.61179073900648
0.318375294545494
0.322626606542128
0.328683558495931
0.337592313007905
0.350899148575835
0.371245531368661
0.404058382946032
0.462164014243201
0.581458605821433
0.900580968887198
2.19479945358243
0.31582637698929
0.318382588061346
0.322023445656083
0.327465210876065
0.335697052618314
0.348170356980423
0.367407590223973
0.398561612034036
0.453735021816924
0.566449266328949
0.845885917228086
2.19512851894486
3.08552492513741
1.06221576794373
3.04622861287326
0.652669858160424
1.04973522500438
2.99906844873389
0.498353614908855
0.648312897584326
1.031217081068
2.94926658610023
0.422882466552817
0.496811502308484
0.640308990262635
1.01313620311434
2.905409457327
0.380744796240315
0.422437316771634
0.493021929356861
0.631253339328885
0.998112148535273
2.86346742307403
0.355361823398441
0.380713076030313
0.420479034848695
0.487924104562213
0.622562806151051
0.984415444926468
2.81535362422434
0.339373474218204
0.355439314760725
0.379568746895782
0.417333865779538
0.482244004392755
0.613981739143844
0.969142806700327
2.75702116918101
0.329070661937391
0.339448592750163
0.354631416738753
0.377420815846686
0.413378285136792
0.476139287643097
0.60459036276402
0.950658762346136
2.68836252035587
0.322414689029417
0.329122545349757
0.338771653974292
0.352993830169233
0.374498784283186
0.408852915558886
0.469426184316346
0.593733090681263
0.928484006246014
2.61388844500182
0.318202506339552
0.322452038346427
0.328506508375643
0.33741091720351
0.35071095572803
0.371047504053187
0.403845793450479
0.461924237641194
0.581087611938252
0.900125799449216
2.19479593400075
0.315675395811717
0.318235792938684
0.321878573624421
0.327319569813333
0.335548596975032
0.348017412563863
0.367248295913071
0.398394090177692
0.453554026651932
0.566128512221696
0.845248667487728
2.19512423343474
0.314320998387961
0.315702224825486
0.317692401136177
0.320812806004298
0.325752489558908
0.333406996583671
0.345114072240915
0.363233879901288
0.392565543356163
0.444285292484264
0.547379723758325
0.816315205405397
2.19485345861246
3.07356956513918
1.0588223343893
3.03638986303331
0.650957471694861
1.04692966795281
2.99101142608712
0.497290343643508
0.646895354321736
1.02891728625849
2.94270237792998
0.422151874225437
0.495929143864198
0.639142411606131
1.01125515055359
2.90008740212564
0.380211661759206
0.42182895779596
0.492291782792978
0.630296020555704
0.996575101529799
2.85919198134493
0.35495603719408
0.380266646588045
0.419972030245759
0.487320640443895
0.621777663064957
0.983156971141777
2.81193539153339
0.339053762491474
0.355096537664605
0.379193153576224
0.416910646400781
0.481745270304013
0.613337819044934
0.968119266648472
2.75440348476694
0.328810499980479
0.339175016483246
0.354339269677873
0.377103152818142
0.413024192123149
0.475726836504657
0.604063951704072
0.949842097679533
2.68628874267815
0.322195854377456
0.328895959294293
0.33853454875962
0.352742675990736
0.374228694217537
0.408555657369903
0.469084107904245
0.593292953215801
0.927880154176621
2.61268984880415
0.318012047648677
0.322257485291894
0.32830655822273
0.337203649575363
0.350493808377554
0.3708168519958
0.403595164538541
0.461633335083506
0.580699866383553
0.901670927898798
2.59630290364488
0.31550504081675
0.318064495084611
0.321705935815095
0.3271441637773
0.335368598663202
0.347830804105613
0.367052396546588
0.398183798611417
0.453300070903749
0.565776696198494
0.847020786915967
2.19512091593607
0.314171040080591
0.315556940542036
0.317549694148606
0.320670228422784
0.32560832700718
0.333260036117901
0.344963051056251
0.36307721865132
0.392401094818587
0.444085378804071
0.547066806772096
0.815954461500568
2.19485107677833
0.313652385130015
0.314217449913643
0.315069200797867
0.316611671469228
0.319361301352144
0.32392274765196
0.331084215647966
0.342070599183151
0.359055131793981
0.386416824045654
0.434123378321949
0.529979020766587
0.793891184545199
2.19192773954317
3.05937961323558
1.05478053825049
3.0246386166254
0.648914466112874
1.04357802349885
2.9813188994662
0.496019416631726
0.645196960081154
1.02615717449103
2.93474986965299
0.421278264715259
0.494870869871344
0.637739487249954
1.00898827730501
2.89358570212524
0.379575174444853
0.421100056512334
0.491413904288254
0.62914121957053
0.994716204905064
2.85392020751804
0.354473769912541
0.379733952495609
0.419364450994912
0.486594252223539
0.620828849359045
0.981631848976712
2.80770027528965
0.338676998271021
0.354690767434676
0.37874626087855
0.416404277387404
0.481145094578384
0.612558935792262
0.966868202382326
2.75106356738984
0.328507921396265
0.33885523772556
0.353995755609785
0.376727142492611
0.412602040353258
0.475231349176746
0.603427182065684
0.948857546614788
2.6839053033935
0.321945952432079
0.328635773199028
0.338260386795796
0.352449989419921
0.373911323540415
0.408203292168227
0.468675409015795
0.592777359143392
0.927215004629407
2.61017630656664
0.317799323604197
0.322038764046651
0.328079783314318
0.33696635703006
0.350242919675703
0.370547903968801
0.403300148907029
0.461292405843545
0.580279274659371
0.901739492558914
2.59932622983862
0.31531809176371
0.31787447212961
0.321511907889798
0.326944733620288
0.335161988586596
0.347614768094627
0.366823545563111
0.397934481328985
0.453003920291743
0.565654031073747
0.870511703828653
2.19512278104485
0.314002490713244
0.315388060585703
0.317380290309097
0.320499155383907
0.325434156713593
0.333081347892724
0.344778184224591
0.362883595940352
0.392190085461331
0.443827746921367
0.547011558736386
0.815835857631365
2.19484809726466
0.313503067485825
0.314073173812853
0.314927979887574
0.316471218090023
0.31922011996153
0.323779931882375
0.330938945459089
0.341921794762089
0.358901357077245
0.386251971165057
0.433926606430668
0.529751357223079
0.793687848219643
2.19192601406945
0.31356217481954
0.313567796828817
0.313636541625681
0.314101369600562
0.315376338760349
0.317903523175493
0.322188936029427
0.328935736151327
0.339264380303493
0.355143930204687
0.380489139804238
0.424492282031484
0.515203345222899
0.771800893381991
2.18619075674427
3.04264809853385
1.05000614015101
3.01069172255163
0.646491632622223
1.03959530765281
2.9697457120934
0.494507124705059
0.643171578826752
1.0228617804296
2.9251886934685
0.42023676989398
0.493606064724504
0.636059367603579
1.00626967585545
2.88570987408138
0.378816238577117
0.420228427973097
0.490361253102749
0.627753252865792
0.992477020175325
2.84747875306577
0.353899906426296
0.379097954331127
0.418636603005058
0.485721185843178
0.619685199691406
0.979791450314041
2.80249753918817
0.338230921006599
0.354208498354808
0.378212982350349
0.415797482063816
0.480422853099819
0.611618345130052
0.965356134811743
2.74687702448516
0.328152798924793
0.338478336602605
0.353588957405703
0.376279557006857
0.412096785154214
0.474635028121144
0.602655167091207
0.947608801502198
2.68069875310065
0.321656546452492
0.328333051634968
0.337939634115489
0.352105438087182
0.373535236335556
0.407782804881356
0.468184158133917
0.592159407934188
0.926029918537006
2.60754833331962
0.317557457555557
0.321788791659711
0.327818895523784
0.336691341490546
0.349949897353912
0.37023128854877
0.402950029316287
0.460888737353342
0.579821470831134
0.900708926365165
2.59102653861093
0.315110179691802
0.317661829893596
0.321292927201045
0.326717593240224
0.334924595609193
0.347364431250212
0.366556067728031
0.397641373686
0.452667254543875
0.565379491634652
0.872565000535808
2.19512522963001
0.313818268979185
0.315201522887551
0.317190744533741
0.320305537088693
0.325235160297659
0.33287547735796
0.34456346081263
0.362656533355624
0.391940742168134
0.443556975905087
0.548395659198052
0.817605956959273
2.19485034095997
0.313335847658017
0.313906084632758
0.314760961886545
0.316303310711637
0.319050148206625
0.323606842814937
0.330761665008144
0.341738858689244
0.358709625819642
0.386041202910284
0.433704648077322
0.529519224023292
0.793321005748244
2.19192744372483
0.313413204368903
0.313424152147176
0.313496308863245
0.313962364638001
0.315237208747681
0.317763560997614
0.322047613887123
0.32879238583476
0.339118035229996
0.354992640965171
0.380327673883442
0.424318228446252
0.515033913701093
0.771654308693685
2.18618932269802
0.313860994571105
0.313494432267904
0.313033406576588
0.31276762258983
0.313049764485817
0.314227622176753
0.316653781915082
0.320768929310924
0.327218613884705
0.337026126778779
0.351959470766048
0.375569894793546
0.41671075681889
0.502408440104909
0.748749362136831
2.18721514248742
3.0230337390092
1.04439531352762
2.99424331341324
0.643629911578703
1.034887559176
2.95601711473975
0.492716168153088
0.640769000269289
1.01894659119905
2.91377039644083
0.419000219465073
0.492101028730338
0.634056679777751
1.00302515931362
2.87624303416087
0.377913834057345
0.419189354271099
0.489103587701655
0.626091862137328
0.989791739047123
2.83967466835392
0.353217634179673
0.378339616444916
0.417766407245433
0.484674728173198
0.618311464172111
0.977577641816682
2.79614006696943
0.337701809869643
0.353634602460422
0.377576327818667
0.415070723371414
0.479555102412647
0.610485654157941
0.963534135829729
2.74173601159569
0.327733809405866
0.338032039332122
0.353105401999317
0.375745384715748
0.411491307038524
0.473917557004018
0.601724351681472
0.94613046822533
2.67662815800913
0.321318162533416
0.32797768749993
0.337561406661581
0.351697156527051
0.373087288594455
0.407279318259037
0.467592404022751
0.591392765997225
0.924982956425265
2.60559611485799
0.317278460603828
0.32149918265834
0.327515048168292
0.336369148210876
0.349604461996449
0.369855617334318
0.402531808562567
0.460405070726803
0.57916172547832
0.898128723186185
2.19479996690752
0.314874732156861
0.317419851924728
0.321042160444878
0.326455620619826
0.334648770754941
0.347071396110988
0.366240590152979
0.397293978818544
0.452280320076831
0.564850917474167
0.869675387914723
2.19511950574574
0.31361419986091
0.314993664157733
0.316977779347038
0.320086044069542
0.325007623881773
0.33263814845104
0.344313920465396
0.362390623014369
0.391649993191862
0.443247817137024
0.548352164232324
0.817699446933666
2.19485281337504
0.313153758735534
0.313722254310287
0.314574856108948
0.316114077505334
0.318856774199858
0.32340827015683
0.330556658381237
0.341525581329495
0.358484121320443
0.385795352016047
0.433550743651419
0.529506911949127
0.793108308302278
2.19192953863242
0.313246944529186
0.313258379885483
0.313331051842102
0.313796781115171
0.315070284736659
0.317594472265651
0.32187563821254
0.328616655647385
0.338937104953908
0.354802972842411
0.38012378958186
0.424097759417035
0.514786857632597
0.77125439341889
2.18619193425482
0.313712135291326
0.313351127744651
0.312893787883984
0.312629570165218
0.312912016085099
0.314089598296459
0.316515140926132
0.320629279463581
0.327077362483769
0.336882313882421
0.351811366034262
0.375416118219493
0.416555911092809
0.502268385496033
0.748615542363477
2.18721582064962
0.314408577614297
0.313807925838338
0.313000880988008
0.312250829044107
0.311873817891799
0.312162083653956
0.313382166996374
0.315836950925481
0.319940294708822
0.32630212373045
0.335870574822155
0.350273641670702
0.372866730686258
0.41198083482122
0.492629977729752
0.728075807381932
2.21610520102819
3.00018760348152
1.03783371314528
2.97496071575491
0.640271799526
1.02935149842547
2.9398288129426
0.490606166422757
0.637933088248974
1.01431965700187
2.90023266637663
0.417539046806746
0.490318817180206
0.631681423354087
0.999171676245226
2.86494552547411
0.376844987018038
0.417955720968523
0.487607499382112
0.624112317015765
0.986590260090901
2.83029450373397
0.352408515930444
0.377437928641934
0.416729325370047
0.483425005222884
0.616667840378107
0.974926204454201
2.7884330093889
0.337074540487443
0.352952275955759
0.376817334472914
0.414202101515456
0.47851548992193
0.609126319648463
0.961348635613755
2.73549464660096
0.32723836878028
0.337502635967115
0.352529980244871
0.375107718499182
0.410766254590516
0.47305587345705
0.600603547817702
0.944315394379637
2.67156616655367
0.320920248653163
0.327558356112691
0.337113437709238
0.351211709999615
0.372552556002755
0.406675877670997
0.466880756374498
0.590480210740802
0.923346804771372
2.60054310862867
0.31695339575
0.321160480612816
0.327158159920693
0.335988923792286
0.349194788030338
0.369407825257666
0.402030675769616
0.459818366719964
0.578453678569476
0.898195632920557
2.5897018414078
0.314604129487024
0.317140598429682
0.320751304322578
0.326150034434294
0.334325087077792
0.346725394907288
0.36586574266337
0.396879001837738
0.451794265688511
0.564033947589352
0.847699184443496
2.19512500894568
0.313383953380255
0.314758066860202
0.316734923606022
0.319834000938858
0.3247444592671
0.332361681225869
0.344021127434063
0.362076539232178
0.391307956714006
0.442856179577712
0.547636129932008
0.816952041007989
2.19484883334942
0.312952783907041
0.31351821053098
0.314366615083853
0.315900470306952
0.318636633403727
0.323180382112672
0.330319533206243
0.341276966286402
0.358219928861389
0.385511296640349
0.433269569139293
0.529249385094738
0.79278499098498
2.19192818433658
0.313066521631166
0.313076663962414
0.313147611494001
0.313610899596934
0.314881129455644
0.317401247345562
0.321677528935574
0.328412608669635
0.338725307655415
0.354579562446954
0.379890848568852
0.423865065052949
0.514532402264085
0.770845951240556
2.18619490155696
0.313546537335201
0.31318630426883
0.312729820186402
0.312465690271101
0.312747309759735
0.313923382168339
0.316346904786279
0.320458497314137
0.326903277694671
0.336703494646437
0.3516250982455
0.375219785494621
0.416349275203172
0.502033166769233
0.748154416342355
2.18721771931116
0.314259627332896
0.313664725597574
0.312861586433872
0.312113357048059
0.311736960058999
0.312025339639394
0.313245311398189
0.315699765453841
0.319802439814564
0.326163056106349
0.335729446273636
0.350129561297121
0.372720412807925
0.411838607773249
0.492508059811223
0.727920328465845
2.21611852068275
0.315100608475779
0.314368141121439
0.313349837122199
0.312293212013633
0.311492856894929
0.311208411308565
0.311657675130047
0.313070266756919
0.31574462663332
0.320099239488176
0.326743135514537
0.336614967084418
0.351335935106288
0.374189711040462
0.412949457380885
0.490766079689858
0.719855962786448
2.28699227690736
2.97378023809766
1.03016736585951
2.95250572200469
0.636350128074146
1.02287247293778
2.9208543163764
0.488133929571004
0.634604414356917
1.00887740367091
2.88427716097308
0.415821377297049
0.488219260343648
0.628878926883108
0.994619194138773
2.85155146099476
0.375585022162585
0.416498050045933
0.485836406570927
0.62176541855935
0.982790464704572
2.81910486761478
0.351452612250581
0.376369973188977
0.41549841030037
0.481938997050766
0.614710534074438
0.971766304210528
2.77916698896715
0.336332636574505
0.352143090280056
0.3759150714722
0.413167292282779
0.477274515763864
0.607501145778604
0.958731393075263
2.72793186509058
0.326652675734974
0.33687499486352
0.351845918419876
0.374347695978163
0.409899951340862
0.472024058369281
0.599260564048056
0.942176285393312
2.66542084815898
0.320451137569192
0.327062470174724
0.336582025807852
0.350634027395316
0.371914234164528
0.405953348749048
0.466026105200845
0.589369006721199
0.921757269425348
2.59655642017474
0.316572350085013
0.320762129918908
0.326736905906438
0.335538412857248
0.348707479758017
0.368873077240411
0.401429972214581
0.459115243313543
0.577511846509503
0.89546786157588
2.19479843256757
0.314289887834013
0.31681514746672
0.320410921149245
0.325790767963351
0.333942700748557
0.346314625663731
0.365418511282935
0.396380713056667
0.451223313670947
0.563439826842225
0.865603506777476
2.1951298383443
0.313120226220302
0.314487159332895
0.31645431438281
0.319541158957103
0.324436893465053
0.332036629949684
0.343674797949336
0.361702857416271
0.39089510732129
0.442361931591771
0.545608712116776
0.814543476061635
2.19485194520845
0.312726798824807
0.313287780933598
0.314130062448504
0.315656169105699
0.318383072169133
0.322916039878642
0.330042541625813
0.340984536475942
0.357907836990378
0.385171985032062
0.432869076526871
0.528788756184253
0.792303648928687
2.19192782894383
0.312868050414326
0.312875689921899
0.31294312941347
0.313401898784657
0.314666653183099
0.317180392894662
0.321449319995575
0.328175739251706
0.338477671562323
0.354317974519967
0.379613469592317
0.42357481474751
0.514221463267022
0.770430646946902
2.18619506955762
0.313367402747558
0.313006237960994
0.312548455133576
0.312282393103477
0.312561357192377
0.313734133613712
0.316153787351319
0.32026087160962
0.326700211371105
0.336493283809845
0.351405297118191
0.374989176875541
0.416107349407023
0.501756836768162
0.747675551504267
2.18721993313298
0.314094437620077
0.313500553766498
0.312698541721743
0.311950713303499
0.311573860827258
0.311861184832035
0.313079716197531
0.315532400900994
0.319632889759
0.325990647840534
0.335553000411528
0.349947645861043
0.372532610683482
0.411643668462228
0.492273923345062
0.727323174044134
2.21610785061829
0.314951370497202
0.314224840710672
0.313210631104017
0.312156032323009
0.311356522080152
0.311072465722591
0.311521962994153
0.312934674630798
0.315608971531895
0.319963212699725
0.326606249455439
0.336476582051533
0.351195730670707
0.374049387841718
0.412817058716
0.490654827576932
0.719531647911584
2.28700643360434
0.315859569315373
0.3150709536334
0.313940622280307
0.312706788800114
0.311651996992777
0.311017282029234
0.310993268563025
0.311771310640512
0.313593829951974
0.316792547098122
0.321834983015459
0.329407081937657
0.340586989280861
0.357249322800398
0.383061024168173
0.426300911472419
0.510905886732027
0.752146534398152
2.38167590478889
2.94371940341084
1.02123142515354
2.92654435841469
0.631785378102465
1.01530402592626
2.89876143622674
0.485252393016035
0.630716966008314
1.00250392049185
2.86558432540808
0.413813403352741
0.485759310647865
0.625589873370063
0.989264898767275
2.83577102970825
0.374107660552135
0.414784622610024
0.48375063307852
0.618997485331769
0.978300758179733
2.80584665914397
0.350328700881702
0.375111089432084
0.414044384941188
0.480180577783614
0.612390780635949
0.968016571050802
2.76812335312909
0.335458448209345
0.351187119014171
0.374846720559721
0.411939582619064
0.475799559229403
0.605566386455857
0.955617549686375
2.71883312650646
0.32596181195924
0.336132640286964
0.351034828100865
0.373444505960317
0.408868310730834
0.470792960162022
0.597654766541231
0.939574222196674
2.65803223287395
0.319898113808689
0.326476218734459
0.335952047893645
0.349947383777213
0.371153585586744
0.405090315259358
0.465003402390936
0.588049848022472
0.919455962058918
2.5896670769209
0.316124422173284
0.320292456942309
0.326238694595101
0.335003923987869
0.348127511393202
0.368234684272174
0.400710690606589
0.458267952074208
0.576469166490698
0.895062298618316
2.57910815616545
0.313922625033023
0.316433581020575
0.320010448409158
0.325366489852279
0.333489359123435
0.345825723038594
0.364884170209864
0.395783661497761
0.450521511563038
0.56241690035558
0.845402855040163
2.19512385861319
0.312814908376849
0.314172466938473
0.316127042547909
0.319198082396292
0.324074845912339
0.331652133810099
0.343263132554422
0.361256425873844
0.390401854738018
0.441805293547103
0.546038853606044
0.815154401618773
2.19485478838229
0.312468762006022
0.313023703050348
0.313857698744117
0.315373356482308
0.318087834384239
0.322606426431438
0.329716186212334
0.340637961499351
0.357535279072777
0.384762016752575
0.432299075120843
0.528025409182473
0.791579487147655
2.19192832024727
0.312645579132693
0.312649490376484
0.312711672399018
0.313163747668683
0.31442054760636
0.31692518827697
0.321183780630687
0.32789821216338
0.338185676728022
0.354007691837752
0.37927797417479
0.423210816060237
0.513829513056379
0.769951873810446
2.18619235870255
0.313170956045761
0.312807745658799
0.31234699091519
0.312077043485595
0.31235128982988
0.313518624329691
0.31593214649189
0.320032294047193
0.326463542313129
0.336246739278797
0.351146555758844
0.374717052079194
0.415821745706037
0.501439257346156
0.74720492319464
2.18722233102636
0.313916273383898
0.313321761216674
0.312518790135449
0.311769417007856
0.311390358262036
0.311674923314234
0.312890258933914
0.315339333274768
0.319435692968902
0.325788508397746
0.335344595572114
0.34973157579313
0.372308469121807
0.411408564593086
0.491992323261612
0.726729995481436
2.21609760029436
0.314786356881309
0.314061067702487
0.313048213959339
0.311994262535164
0.311194571154602
0.310909777618039
0.311358222811346
0.312769663880409
0.31544245424825
0.319794844260528
0.326435473147642
0.336302633733396
0.3510180849234
0.373868185364318
0.412628645574408
0.490403997971166
0.718613541439099
2.28699445525235
0.315709841011754
0.314927357593653
0.313801300309122
0.312569668046494
0.311515901797496
0.310881775978277
0.310858232693053
0.311636691157733
0.313459534880152
0.316658403557221
0.321700699772392
0.329272211234055
0.340451026137488
0.357112278915679
0.382925547296505
0.426175309638704
0.510700842889377
0.751273463039492
2.38167938551781
0.316628111705263
0.315839042468822
0.314669636140108
0.313353044088854
0.31216564695601
0.311338545126841
0.311048036146876
0.311466853032837
0.312812844328221
0.315383238810753
0.319594761604966
0.326053598871022
0.335693513303849
0.350070242808031
0.372025931252514
0.407329082439212
0.469390689071556
0.59757251493031
1.00109690484506
3.68517148169645
1.01081131588972
2.89682199414548
0.626471419631922
1.00650184032116
2.87322029362494
0.481907644762071
0.626192460808246
0.995060016371341
2.84382652085112
0.41147901091827
0.482892189929746
0.621748886060127
0.982992500770772
2.81728873923834
0.372385389370049
0.412781692604456
0.481307483080386
0.615749913293679
0.973023340019222
2.79023346272505
0.349014551565463
0.373635060398912
0.412335777849758
0.478110583773201
0.609655425715718
0.963587722335158
2.75506000740327
0.334433425788968
0.350063149912124
0.373587727209292
0.410489961759005
0.47405481629591
0.603272958884626
0.951921809349115
2.70804539749449
0.325149959454881
0.335257925432466
0.350076834815377
0.372375469447561
0.407644862619138
0.469330115309321
0.595742925254749
0.936493955039963
2.64916915787155
0.319247543791514
0.325784679982599
0.335207045961103
0.349133453319664
0.37024993816277
0.404062919383762
0.463783255970588
0.586456230940231
0.916747692974078
2.58318648569514
0.315597808591254
0.319738733471563
0.325649710955331
0.334370349085889
0.347438215090939
0.367474048945942
0.399851788160125
0.457256878692628
0.575122828342298
0.891076750323564
2.19479658425639
0.313492094764034
0.315984988352936
0.31953819939882
0.324864597309352
0.332951374057144
0.345243703751657
0.364246128090977
0.395068101060055
0.449693798848683
0.561517468055465
0.86227088500566
2.19511769020642
0.312459078230747
0.313804607356745
0.315743177495154
0.31879418797657
0.323646959692154
0.331195923917421
0.342772786804284
0.36072276591644
0.389807874297245
0.441111309218488
0.544070730886676
0.812876952369487
2.19485139070601
0.312170884249207
0.31271787810175
0.313541056315077
0.315043114663469
0.317741450962698
0.322241412236403
0.329329561936436
0.340225396368198
0.357090055617522
0.384273338481871
0.431818487541419
0.5275762434518