/*--------------------------------*- C++ -*----------------------------------*\
  =========                 |
  \\      /  F ield         | OpenFOAM: The Open Source CFD Toolbox
   \\    /   O peration     | Website:  https://openfoam.org
    \\  /    A nd           | Version:  12
     \\/     M anipulation  |
\*---------------------------------------------------------------------------*/
/*   Windows 32 and 64 bit porting by blueCAPE: http://www.bluecape.com.pt   *\
|  Based on Windows porting (2.0.x v4) by Symscape: http://www.symscape.com   |
\*---------------------------------------------------------------------------*/
FoamFile
{
    format      ascii;
    class       volScalarField;
    location    "200";
    object      p;
}
// * * * * * * * * * * * * * * * * * * * * * * * * * * * * * * * * * * * * * //

dimensions      [0 2 -2 0 0 0 0];

internalField   nonuniform List<scalar> 
10244
(
83333.3322445422
83333.3322668882
83333.3322447111
83333.3322443645
83333.3322899249
83333.332267045
83333.3322667055
83333.3322437966
83333.3322444915
83333.3322439881
83333.3323136263
83333.3322900767
83333.3322897441
83333.3322661365
83333.3322668187
83333.3322663227
83333.3322405331
83333.3322435098
83333.3322440939
83333.3322433618
83333.3323379686
83333.332313771
83333.3323134487
83333.3322891898
83333.3322898564
83333.3322893629
83333.3322629341
83333.3322658424
83333.3322664129
83333.3322656911
83333.3322345558
83333.3322402128
83333.3322430413
83333.3322434462
83333.3322424503
83333.3323629338
83333.3323381067
83333.332337793
83333.3323129069
83333.3323135572
83333.3323130717
83333.3322860636
83333.3322889049
83333.332289455
83333.3322887316
83333.3322570838
83333.3322625998
83333.3322653659
83333.3322657579
83333.3322647752
83333.3322259366
83333.3322342607
83333.3322396482
83333.3322423244
83333.3322425128
83333.3322412332
83333.3323885071
83333.3323630666
83333.3323627589
83333.3323372664
83333.3323378963
83333.3323374192
83333.332309866
83333.3323126316
83333.3323131615
83333.3323124443
83333.3322803542
83333.3322857403
83333.332288438
83333.3322888019
83333.3322878156
83333.3322486556
83333.3322567741
83333.3322620267
83333.3322646418
83333.3322648193
83333.332263553
83333.332214867
83333.3322256719
83333.3322336213
83333.3322388491
83333.332241334
83333.3322412727
83333.3322397106
83333.3324146753
83333.332388636
83333.3323883318
83333.3323622511
83333.3323628577
83333.3323623866
83333.3323343156
83333.3323369969
83333.3323375043
83333.3323367956
83333.3323043088
83333.332309555
83333.332312175
83333.3323125133
83333.3323115321
83333.332272129
83333.3322800546
83333.3322851797
83333.3322877201
83333.3322878639
83333.332286592
83333.3322378376
83333.3322483763
83333.3322561194
83333.3322612216
83333.3322636472
83333.3322635744
83333.33226202
83333.33220157
83333.3322146368
83333.3322250255
83333.3322327593
83333.3322377885
83333.3322400443
83333.332239725
83333.3322378984
83333.3324414266
83333.3324148023
83333.3324144987
83333.3323878466
83333.3323884271
83333.332387959
83333.3323593931
83333.3323619854
83333.3323624674
83333.3323617651
83333.3323289175
83333.332334011
83333.3323365474
83333.3323368602
83333.3323358882
83333.3322962978
83333.3323040209
83333.332309009
83333.3323114665
83333.3323115798
83333.3323103128
83333.3322615749
83333.3322718598
83333.3322794121
83333.332284384
83333.3322867291
83333.3322866183
83333.332285054
83333.3322248506
83333.3322375903
83333.3322477132
83333.3322552535
83333.3322601572
83333.3322623547
83333.3322620175
83333.3322601842
83333.3321862496
83333.3322013429
83333.3322140129
83333.332224143
83333.3322316366
83333.332236431
83333.3322384407
83333.3322378814
83333.332235825
83333.3324687496
83333.3324415532
83333.3324412477
83333.332414041
83333.3324145921
83333.3324141233
83333.3323850832
83333.332387583
83333.3323880365
83333.3323873366
83333.3323541579
83333.3323590909
83333.3323615399
83333.3323618254
83333.3323608606
83333.3323211283
83333.3323286351
83333.3323334756
83333.3323358461
83333.332335932
83333.3323346766
83333.3322860193
83333.332296041
83333.3323033949
83333.3323082264
83333.332310482
83333.3323103391
83333.3323087812
83333.332248912
83333.3322613368
83333.3322712093
83333.3322785571
83333.3322833251
83333.3322854374
83333.3322850574
83333.3322832036
83333.332209894
83333.3322246059
83333.3322369555
83333.3322468257
83333.3322541286
83333.3322587984
83333.3322607452
83333.3322601528
83333.3322580582
83333.3321690422
83333.3321860111
83333.3322007851
83333.3322131531
83333.3322229863
83333.332230207
83333.3322347475
83333.3322365228
83333.3322357632
83333.3322335217
83333.332496633
83333.332468878
83333.3324685673
83333.3324408219
83333.3324413406
83333.3324408672
83333.3324113738
83333.3324137777
83333.3324141989
83333.3324134963
83333.3323800132
83333.3323847804
83333.3323871391
83333.3323873936
83333.3323864308
83333.3323465968
83333.3323538764
83333.3323585626
83333.3323608431
83333.3323609006
83333.3323596548
83333.3323111345
83333.332320878
83333.3323280208
83333.3323327032
83333.3323348682
83333.3323346994
83333.3323331597
83333.3322736926
83333.3322857931
83333.3322954079
83333.3323025546
83333.3323071767
83333.3323091955
83333.3323087849
83333.3323069417
83333.3322343335
83333.3322486762
83333.3322607166
83333.332270332
83333.33227744
83333.3322819697
83333.3322838255
83333.3322831805
83333.3322810379
83333.3321931004
83333.3322096403
83333.332224039
83333.3322360887
83333.3322456684
83333.3322527006
83333.332257114
83333.3322588135
83333.3322579885
83333.3322556519
83333.3321501147
83333.3321688261
83333.3321855149
83333.3321999589
83333.3322119876
83333.3322214986
83333.3322284344
83333.3322327278
83333.3322343035
83333.3322333994
83333.3322309736
83333.3325250661
83333.3324967657
83333.3324964461
83333.3324681779
83333.3324686608
83333.3324681793
83333.3324382534
83333.3324405571
83333.3324409428
83333.3324402317
83333.3324064718
83333.3324110682
83333.3324133328
83333.3324135516
83333.3324125838
83333.3323726867
83333.33237973
83333.3323842571
83333.3323864437
83333.3323864676
83333.3323852238
83333.3323368961
83333.3323463492
83333.3323532708
83333.332357797
83333.3323598702
83333.3323596744
83333.3323581508
83333.332299153
83333.3323109144
83333.332320258
83333.3323271931
83333.3323316627
83333.3323335904
83333.3323331601
83333.332331352
83333.3322595032
83333.3322734682
83333.3322851914
83333.3322945457
83333.3323014492
83333.3323058286
83333.3323075906
83333.3323069193
83333.3323047988
83333.3322179703
83333.3322340891
83333.3322481219
83333.3322598595
83333.3322691837
83333.3322760183
83333.3322802874
83333.3322818865
83333.3322809828
83333.33227852
83333.3321746407
83333.3321928745
83333.3322091344
83333.3322232054
83333.3322349223
83333.3322441847
83333.3322509324
83333.3322550914
83333.3322565661
83333.3322555393
83333.3322529639
83333.332129591
83333.3321499188
83333.3321683706
83333.3321847238
83333.3321987967
83333.3322104621
83333.3322196475
83333.3322263053
83333.3322303772
83333.3322318002
83333.3322307649
83333.3322280109
83333.3325540364
83333.3325252047
83333.3325248735
83333.3324960997
83333.3324965426
83333.3324960483
83333.3324657116
83333.3324679099
83333.3324682562
83333.3324675311
83333.3324335231
83333.3324379432
83333.3324401094
83333.3324402873
83333.3324393066
83333.3323993857
83333.3324061858
83333.3324105474
83333.3324126357
83333.3324126189
83333.3324113679
83333.3323632864
83333.33237244
83333.3323791324
83333.3323834952
83333.332385472
83333.3323852412
83333.3323837204
83333.3323252667
83333.3323366781
83333.3323457378
83333.3323524526
83333.3323567635
83333.3323586001
83333.3323581482
83333.332356372
83333.3322853613
83333.3322989343
83333.3323103271
83333.3323194098
83333.3323260986
83333.3323303234
83333.3323320001
83333.332331325
83333.3323292831
83333.3322435815
83333.3322592704
83333.3322729293
83333.3322843493
83333.3322934095
83333.3323000366
83333.3323041539
83333.3323056617
83333.3323047407
83333.3323023237
83333.3321999908
83333.3322177535
83333.3322335943
83333.3322472976
83333.3322587014
83333.3322677083
83333.3322742567
83333.3322782651
83333.3322796196
83333.3322784494
83333.332275636
83333.332154635
83333.3321744356
83333.332192408
83333.3322083356
83333.332222042
83333.3322334021
83333.3322423422
83333.33224881
83333.3322527342
83333.3322540194
83333.3322528147
83333.3322501928
83333.332107573
83333.3321294088
83333.3321494944
83333.3321676122
83333.3321835778
83333.3321972552
83333.3322085559
83333.332217424
83333.3322238228
83333.3322277068
83333.3322289978
83333.3322277628
83333.3322249321
83333.3325835301
83333.332554183
83333.3325538372
83333.3325245758
83333.3325249736
83333.3325244632
83333.3324937379
83333.3324958255
83333.3324961275
83333.3324953831
83333.3324611576
83333.3324653941
83333.3324674564
83333.3324675887
83333.332466587
83333.3324266825
83333.3324332322
83333.3324374227
83333.3324394067
83333.332439342
83333.3324380736
83333.3323902907
83333.3323991371
83333.3324055929
83333.3324097862
83333.3324116598
83333.332411384
83333.3324098536
83333.3323520142
83333.3323630664
83333.3323718331
83333.3323783193
83333.3323824644
83333.3323842031
83333.3323837166
83333.3323819432
83333.3323118789
83333.332325049
83333.3323360999
83333.3323449007
83333.3323513659
83333.3323554315
83333.3323570232
83333.3323563408
83333.3323543681
83333.3322698885
83333.3322851343
83333.3322984066
83333.3323094978
83333.3323182837
83333.3323246952
83333.3323286608
83333.3323300968
83333.3323292123
83333.3323270055
83333.3322260916
83333.3322433746
83333.332258789
83333.3322721185
83333.3322832021
83333.3322919442
83333.3322982843
83333.3323021413
83333.3323034069
83333.3323022302
83333.3322994499
83333.3321805137
83333.3321997946
83333.3322172973
83333.3322328039
83333.332246142
83333.3322571904
83333.3322658757
83333.332272142
83333.3322759045
83333.3322770333
83333.3322755989
83333.3322730749
83333.3321331836
83333.3321544431
83333.3321739995
83333.3321916409
83333.3322071879
83333.3322205062
83333.3322315071
83333.3322401319
83333.3322463364
83333.3322500568
83333.3322511903
83333.3322499537
83333.3322472588
83333.3320841499
83333.3321074013
83333.3321290106
83333.3321487694
83333.3321664937
83333.3321820439
83333.3321953243
83333.3322062688
83333.3322148342
83333.3322209982
83333.3322247192
83333.3322258784
83333.3322246105
83333.3322218929
83333.3326135303
83333.3325836872
83333.3325833228
83333.332553594
83333.3325539427
83333.3325534117
83333.332522322
83333.3325242914
83333.3325245458
83333.332523777
83333.3324893647
83333.3324934102
83333.3324953626
83333.3324954443
83333.3324944138
83333.3324545666
83333.3324608576
83333.3324648714
83333.3324667442
83333.3324666251
83333.3324653284
83333.3324178974
83333.3324264274
83333.3324326411
83333.3324366583
83333.3324384211
83333.3324380899
83333.332436537
83333.3323793809
83333.3323900658
83333.3323985315
83333.3324047812
83333.3324087529
83333.3324103843
83333.3324098499
83333.3324080626
83333.3323390354
83333.3323517942
83333.3323624934
83333.3323710023
83333.3323772356
83333.3323811343
83333.3323826299
83333.332381912
83333.3323799238
83333.332296861
83333.3323116541
83333.3323245283
83333.3323352786
83333.3323437809
83333.332349969
83333.3323537799
83333.3323551453
83333.3323542876
83333.3323522529
83333.3322528953
83333.3322696865
83333.3322846618
83333.3322976061
83333.3323083592
83333.332316827
83333.3323229535
83333.3323266667
83333.3323278855
83333.3323268436
83333.3323244773
83333.332207151
83333.3322259046
83333.3322429307
83333.3322580105
83333.3322709734
83333.332281701
83333.3322901221
83333.3322961808
83333.3322997915
83333.3323008291
83333.3322993821
83333.3322968414
83333.3321596383
83333.3321803304
83333.3321993681
83333.3322165375
83333.3322316634
83333.3322446155
83333.3322553071
83333.3322636782
83333.3322696773
83333.3322732208
83333.3322741661
83333.3322728872
83333.3322703013
83333.3321103757
83333.3321330017
83333.3321540323
83333.3321732648
83333.3321905199
83333.3322056595
83333.3322185878
83333.332229237
83333.3322375602
83333.3322435257
83333.3322470794
83333.3322481527
83333.3322469304
83333.3322442997
83333.3320594011
83333.3320839887
83333.3321070281
83333.3321283225
83333.3321476904
83333.3321649901
83333.3321801215
83333.3321930127
83333.3322036128
83333.3322118939
83333.3322178475
83333.3322214365
83333.3322225806
83333.3322214471
83333.3322189742
83333.3326440164
83333.3326137013
83333.3326133139
83333.3325831409
83333.3325834368
83333.33258288
83333.3325514535
83333.3325532976
83333.3325534998
83333.3325527009
83333.3325181349
83333.3325219809
83333.3325238171
83333.3325238424
83333.3325227763
83333.3324830284
83333.3324890524
83333.3324928826
83333.3324946375
83333.3324944562
83333.3324931204
83333.3324460965
83333.3324543013
83333.3324602667
83333.3324640998
83333.3324657438
83333.3324653474
83333.3324637591
83333.3324073554
83333.3324176646
83333.3324258225
83333.3324318272
83333.332435617
83333.3324371305
83333.3324365341
83333.3324347168
83333.3323668162
83333.3323791561
83333.3323894949
83333.3323977025
83333.3324036953
83333.3324074177
83333.3324088036
83333.3324080346
83333.3324060244
83333.3323244781
83333.3323388107
83333.3323512769
83333.3323616756
83333.3323698845
83333.3323758402
83333.3323794867
83333.3323807605
83333.3323798553
83333.3323776884
83333.3322803703
83333.3322966608
83333.332311186
83333.3323237334
83333.3323341451
83333.3323423294
83333.3323482359
83333.332351805
83333.3323529811
83333.3323520484
83333.3323500094
83333.3322344971
83333.3322527125
83333.3322692498
83333.3322838918
83333.3322964689
83333.3323068657
83333.3323150145
83333.3323208645
83333.3323243438
83333.3323253767
83333.3323242054
83333.3323215244
83333.3321868578
83333.3322069765
83333.3322254894
83333.3322421816
83333.3322568795
83333.3322694565
83333.3322798286
83333.3322879374
83333.3322937299
83333.3322971183
83333.332297964
83333.3322966551
83333.3322940909
83333.332137453
83333.3321594649
83333.3321799286
83333.3321986397
83333.3322154226
83333.3322301436
83333.3322427093
83333.3322530523
83333.3322611227
83333.332266879
83333.3322702487
83333.332271207
83333.3322699936
83333.3322674154
83333.3320862908
83333.3321102036
83333.3321326149
83333.3321533333
83333.3321721822
83333.3321890211
83333.3322037497
83333.3322162949
83333.3322266038
83333.3322346442
83333.3322404013
83333.3322438506
83333.3322449484
83333.332243846
83333.3322414205
83333.3320333972
83333.3320592513
83333.3320836412
83333.3321063813
83333.3321272947
83333.3321462384
83333.3321631082
83333.3321778271
83333.3321903395
83333.3322006104
83333.3322086288
83333.3322144063
83333.332217945
83333.3322192063
83333.3322183542
83333.332216267
83333.3326749618
83333.3326442068
83333.3326437917
83333.3326131983
83333.33261344
83333.3326128518
83333.3325811215
83333.3325828331
83333.3325829759
83333.3325821408
83333.3325474586
83333.3325510967
83333.3325528094
83333.3325527718
83333.332551663
83333.332512059
83333.332517807
83333.3325214459
83333.3325230746
83333.3325228244
83333.3325214397
83333.332474879
83333.3324827499
83333.3324884596
83333.3324920999
83333.332493616
83333.3324931444
83333.3324915066
83333.3324359277
83333.3324458527
83333.3324536958
83333.3324594464
83333.3324630452
83333.3324644302
83333.3324637586
83333.3324618999
83333.3323952096
83333.3324071233
83333.3324170937
83333.3324249907
83333.3324307338
83333.3324342689
83333.3324355299
83333.3324346916
83333.332432637
83333.3323527245
83333.3323665898
83333.3323786393
83333.3323886763
83333.3323965818
83333.332402295
83333.3324057643
83333.3324069272
83333.332405962
83333.3324037468
83333.3323084947
83333.3323242776
83333.3323383434
83333.3323504831
83333.3323605425
83333.3323684332
83333.3323741097
83333.3323775209
83333.3323786117
83333.3323775681
83333.3323752215
83333.3322625192
83333.3322801883
83333.3322962267
83333.3323104193
83333.3323225997
83333.3323326555
83333.3323405232
83333.3323461603
83333.3323495132
83333.3323505505
83333.3323496017
83333.332346803
83333.3322147905
83333.3322343262
83333.3322523031
83333.3322685074
83333.332282767
83333.3322949585
83333.3323050018
83333.3323128421
83333.3323184329
83333.3323217051
83333.3323225902
83333.3323212736
83333.3323186036
83333.3321652996
83333.3321866929
83333.3322065852
83333.3322247704
83333.3322410747
83333.3322553681
83333.3322675607
83333.3322775873
83333.3322853981
83333.3322909481
83333.3322941597
83333.3322950217
83333.3322937901
83333.3322912305
83333.3321140372
83333.3321372892
83333.3321590861
83333.3321792347
83333.3321975616
83333.3322139311
83333.3322282454
83333.3322404326
83333.3322504389
83333.3322582282
83333.3322637772
83333.3322670688
83333.3322680916
83333.3322669809
83333.3322645683
83333.3320609999
83333.3320861294
83333.3321098413
83333.3321319558
83333.3321523004
83333.3321707336
83333.332187151
83333.3322014743
83333.3322136466
83333.3322236306
83333.3322314125
83333.3322370059
83333.3322404264
83333.3322416449
83333.3322407967
83333.3322387289
83333.3320062005
83333.3320332599
83333.3320589315
83333.3320830407
83333.3321054157
83333.3321259133
83333.3321444258
83333.3321608709
83333.3321751872
83333.3321873352
83333.332197297
83333.3322050838
83333.3322107426
83333.3322143226
83333.3322158315
83333.3322154182
83333.3322139031
83333.3327063263
83333.3326751803
83333.3326747315
83333.3326437515
83333.3326439339
83333.3326433103
83333.332611308
83333.3326128819
83333.3326129581
83333.3326120811
83333.332577326
83333.3325807476
83333.3325823283
83333.3325822196
83333.3325810599
83333.3325416496
83333.3325471126
83333.3325505514
83333.3325520441
83333.3325517179
83333.3325502762
83333.3325042366
83333.3325117641
83333.3325172098
83333.3325206476
83333.3325220262
83333.3325214709
83333.3325197712
83333.3324650894
83333.3324746218
83333.3324821417
83333.3324876286
83333.332491026
83333.3324922718
83333.3324915114
83333.3324895923
83333.3324242061
83333.3324356861
83333.3324452801
83333.3324528569
83333.3324583399
83333.3324616764
83333.3324627988
83333.3324618761
83333.3324597809
83333.3323815887
83333.3323949799
83333.3324066044
83333.3324162701
83333.3324238617
83333.3324293212
83333.3324325988
83333.3324336286
83333.3324325811
83333.3324303156
83333.332337253
83333.3323525221
83333.3323661201
83333.3323778422
83333.3323875385
83333.3323951245
83333.3324005587
83333.3324037943
83333.3324047713
83333.3324036398
83333.3324011619
83333.3322911946
83333.3323083115
83333.3323238423
83333.3323375752
83333.3323493476
83333.3323590513
83333.3323666275
83333.3323720404
83333.332375246
83333.3323761943
83333.3323750172
83333.3323723053
83333.3322434024
83333.3322623485
83333.33227978
83333.3322954855
83333.3323092958
83333.3323210912
83333.3323307956
83333.33233836
83333.3323437485
83333.3323469166
83333.3323478498
83333.332346512
83333.3323437151
83333.3321938617
83333.3322146287
83333.3322339396
83333.332251589
83333.3322674047
83333.3322812603
83333.3322930695
83333.3323027709
83333.3323103187
83333.3323156744
83333.3323187801
83333.332319587
83333.3323182962
83333.3323157003
83333.3321425548
83333.3321651439
83333.3321863238
83333.3322058991
83333.3322236984
83333.3322395896
83333.3322534788
83333.3322652967
83333.3322749909
83333.3322825238
83333.332287868
83333.3322910068
83333.3322919438
83333.3322908072
83333.3322884008
83333.3320894616
83333.3321138837
83333.3321369342
83333.3321584307
83333.3321782044
83333.3321961184
83333.3322120709
83333.3322259853
83333.3322378049
83333.3322474909
83333.332255026
83333.3322604226
83333.3322637064
83333.3322648522
83333.3322639671
83333.3322618854
83333.3320345658
83333.33206085
83333.3320857933
83333.3321092267
83333.3321309829
83333.3321509205
83333.3321689312
83333.3321849316
83333.3321988592
83333.332210673
83333.3322203537
83333.3322279118
83333.3322333982
83333.3322368662
83333.3322383177
83333.3322378813
83333.3322363664
83333.3319778671
83333.3320060765
83333.3320329696
83333.3320583817
83333.3320821463
83333.3321041209
83333.3321241948
83333.3321422805
83333.3321583108
83333.33217224
83333.332184045
83333.3321937282
83333.3322013298
83333.3322069381
83333.3322106592
83333.3322125671
83333.3322127835
83333.3322120356
83333.3327380458
83333.3327065854
83333.3327060984
83333.3326747874
83333.3326748982
83333.3326742338
83333.332641997
83333.33264343
83333.3326434293
83333.3326425049
83333.3326077252
83333.3326109223
83333.3326123594
83333.3326121693
83333.3326109505
83333.3325717914
83333.3325769598
83333.3325801891
83333.332581535
83333.3325811231
83333.3325796149
83333.3325341614
83333.3325413359
83333.3325465079
83333.3325497326
83333.3325509627
83333.3325503156
83333.3325485451
83333.3324948326
83333.3325039636
83333.3325111513
83333.3325163637
83333.3325195482
83333.332520645
83333.3325197849
83333.3325177908
83333.332453797
83333.3324648359
83333.3324740447
83333.3324812913
83333.3324865029
83333.3324896287
83333.3324905994
83333.3324895748
83333.3324874031
83333.3324110612
83333.3324239715
83333.3324351624
83333.3324444469
83333.3324517137
83333.3324569073
83333.3324599792
83333.33246086
83333.3324597236
83333.3324574296
83333.3323666337
83333.3323813828
83333.3323945049
83333.3324057994
83333.3324151217
83333.3324223912
83333.3324275693
83333.332430609
83333.3324314401
83333.3324302186
83333.3324277421
83333.3323205076
83333.332337067
83333.3323520824
83333.3323653458
83333.3323766992
83333.3323860391
83333.3323933115
83333.3323984846
83333.3324015175
83333.332402341
83333.332401013
83333.3323983484
83333.3322726703
83333.3322910219
83333.3323079003
83333.3323230972
83333.3323364472
83333.3323478349
83333.3323571893
83333.3323644667
83333.3323696397
83333.3323726704
83333.3323734868
83333.3323720842
83333.3323693073
83333.3322231046
83333.3322432402
83333.3322619614
83333.332279065
83333.3322943816
83333.3323077883
83333.3323192036
83333.3323285705
83333.3323358496
83333.3323410143
83333.332344029
83333.3323447894
83333.3323434118
83333.3323407621
83333.3321717883
83333.3321937088
83333.3322142633
83333.3322332565
83333.3322505189
83333.3322659218
83333.3322793753
83333.3322908139
83333.332300188
83333.3323074638
83333.3323126182
83333.3323156255
83333.3323164716
83333.332315283
83333.3323128667
83333.3321186936
83333.3321424092
83333.3321647977
83333.3321856746
83333.3322048727
83333.3322222591
83333.332237736
83333.3322512298
83333.3322626853
83333.3322720642
83333.3322793471
83333.3322845437
83333.3322876825
83333.3322887403
83333.3322878142
83333.3322857285
83333.3320637891
83333.3320893193
83333.3321135541
83333.3321363215
83333.3321574583
83333.3321768274
83333.3321943235
83333.332209865
83333.3322233901
83333.3322348573
83333.3322442459
83333.3322515647
83333.3322568655
83333.3322602019
83333.3322615638
83333.3322610664
83333.3322595149
83333.3320070452
83333.3320344283
83333.3320605419
83333.3320852272
83333.3321083227
83333.3321296872
83333.3321492098
83333.3321668018
83333.332182395
83333.3321959424
83333.3322074199
83333.332216829
83333.3322242102
83333.3322296523
83333.3322332567
83333.3322350855
83333.3322352556
83333.3322344944
83333.3319484488
83333.3319777572
83333.3320058176
83333.3320324742
83333.3320575659
83333.3320809511
83333.3321025165
83333.3321221705
83333.3321398401
83333.332155473
83333.3321690396
83333.3321805353
83333.3321899868
83333.3321974675
83333.3322031177
83333.3322071314
83333.3322096437
83333.3322106639
83333.3322107892
83333.3327699674
83333.3327383594
83333.332737847
83333.3327062752
83333.3327063013
83333.3327055934
83333.3326731773
83333.3326744624
83333.332674374
83333.3326733924
83333.3326386419
83333.3326416069
83333.3326428888
83333.3326426044
83333.332641318
83333.332602474
83333.3326073382
83333.3326103477
83333.3326115347
83333.3326110249
83333.3326094385
83333.332564645
83333.3325714566
83333.3325763448
83333.3325793449
83333.3325804124
83333.3325796641
83333.3325778114
83333.3325251501
83333.3325338701
83333.3325407156
83333.3325456421
83333.3325486008
83333.3325495372
83333.3325485697
83333.3325464933
83333.3324839756
83333.3324945651
83333.3325033791
83333.3325102846
83333.3325152122
83333.3325181148
83333.3325189235
83333.3325177848
83333.3325155256
83333.3324411342
83333.3324535565
83333.3324643046
83333.3324731975
83333.3324801274
83333.332485042
83333.3324878942
83333.3324886114
83333.3324873588
83333.332484955
83333.3323966275
83333.3324108503
83333.3324234882
83333.332434345
83333.3324432816
83333.3324502219
83333.3324551297
83333.3324579566
83333.3324586292
83333.3324573236
83333.3324548192
83333.3323504466
83333.3323664432
83333.3323809355
83333.3323937197
83333.3324046427
83333.3324136066
83333.3324205615
83333.3324254777
83333.3324283093
83333.3324289764
83333.3324275964
83333.3324249521
83333.3323025781
83333.3323203311
83333.3323366495
83333.3323513284
83333.332364207
83333.3323751752
83333.3323841669
83333.3323911436
83333.3323960816
83333.3323989406
83333.3323996067
83333.3323981512
83333.3323954051
83333.3322530044
83333.3322725052
83333.3322906303
83333.3323071789
83333.3323219856
83333.3323349322
83333.3323459418
83333.3323549627
83333.3323619616
83333.3323669197
83333.3323697956
83333.3323704654
83333.3323690221
83333.3323663606
83333.3322017019
83333.3322229506
83333.3322428729
83333.3322612752
83333.3322779906
83333.3322928946
83333.3323059015
83333.3323169501
83333.3323259957
83333.3323330105
83333.33233798
83333.3323408661
83333.332341613
83333.3323403528
83333.3323379197
83333.3321486394
83333.332171645
83333.3321933651
83333.332213615
83333.3322322293
83333.3322490786
83333.3322640693
83333.3322771316
83333.3322882131
83333.3322972781
83333.3323043088
83333.332309311
83333.3323123047
83333.3323132634
83333.3323122904
83333.3323102021
83333.3320937787
83333.332118559
83333.3321420874
83333.3321641894
83333.3321847034
83333.3322034965
83333.3322204676
83333.3322355382
83333.3322486485
83333.332259758
83333.3322688453
83333.3322759173
83333.3322810239
83333.3322842168
83333.3322854792
83333.3322849286
83333.3322833623
83333.3320370764
83333.3320636588
83333.3320890167
83333.332112988
83333.3321354154
83333.3321561624
83333.332175121
83333.3321922046
83333.3322073458
83333.3322204979
83333.3322316358
83333.3322407599
83333.3322479097
83333.3322531712
83333.332256637
83333.332258355
83333.3322584428
83333.3322576251
83333.3319784904
83333.3320069207
83333.3320341496
83333.3320600278
83333.3320843991
83333.3321071235
83333.3321280875
83333.3321471985
83333.3321643824
83333.3321795859
83333.3321927781
83333.3322039535
83333.3322131383
83333.3322204052
83333.3322258902
83333.3322297764
83333.3322321868
83333.3322331415
83333.3322332454
83333.3319179948
83333.3319483535
83333.3319775309
83333.3320053795
83333.3320317428
83333.3320564801
83333.3320794763
83333.3321006361
83333.3321198817
83333.3321371549
83333.3321524192
83333.3321656624
83333.3321769019
83333.3321861935
83333.3321936569
83333.3321995226
83333.3322040855
83333.3322073869
83333.3322093063
83333.3322101072
83333.3327703768
83333.3327698811
83333.3327381573
83333.3327380933
83333.3327373579
83333.3327048187
83333.3327059491
83333.3327057679
83333.3327047209
83333.3326700587
83333.3326727841
83333.3326739062
83333.3326735118
83333.3326721435
83333.3326336848
83333.3326382354
83333.3326410147
83333.3326420302
83333.3326414059
83333.3326397248
83333.3325956775
83333.332602117
83333.3326067108
83333.3326094738
83333.332610363
83333.3326095003
83333.3326075574
83333.3325560339
83333.3325643333
83333.332570826
83333.3325754547
83333.3325781726
83333.3325789331
83333.3325778481
83333.33257567
83333.3325147351
83333.3325248662
83333.3325332753
83333.3325398278
83333.3325444578
83333.332547123
83333.3325477606
83333.3325465004
83333.3325441648
83333.3324718009
83333.3324837274
83333.3324940231
83333.332502513
83333.3325090931
83333.3325137146
83333.332516334
83333.3325168762
83333.3325154984
83333.3325129616
83333.332427227
83333.3324409167
83333.3324530617
83333.33246347
83333.3324720086
83333.3324786059
83333.3324832285
83333.3324858277
83333.3324863292
83333.3324848841
83333.3324822364
83333.3323810026
83333.3323964308
83333.3324103924
83333.3324226871
83333.3324331679
83333.3324417427
83333.3324483657
83333.3324530083
83333.3324556208
83333.3324561261
83333.3324546721
83333.3324519968
83333.3323331142
83333.3323502645
83333.332366016
83333.3323801675
83333.3323925634
83333.3324030995
83333.3324117151
83333.3324183754
83333.3324230564
83333.3324257103
83333.3324262365
83333.3324247574
83333.3324220208
83333.3322835447
83333.3323024083
83333.3323199312
83333.3323359162
83333.3323502023
83333.3323626767
83333.3323732681
83333.3323819296
83333.3323886329
83333.3323933612
83333.3323960612
83333.332396614
83333.3323951313
83333.3323924774
83333.3322322711
83333.3322528467
83333.3322721317
83333.332289935
83333.3323060935
83333.3323204872
83333.3323330357
83333.3323436825
83333.3323523881
83333.3323591303
83333.332363897
83333.3323666433
83333.3323672827
83333.3323659614
83333.3323635212
83333.3321792621
83333.3322015567
83333.3322226036
83333.3322422191
83333.3322602405
83333.3322765425
83333.3322910361
83333.3323036557
83333.3323143531
83333.3323230964
83333.332329872
83333.3323346823
83333.3323375297
83333.3323383793
83333.332337354
83333.3323352611
83333.3321244769
83333.3321485065
83333.3321713244
83333.3321927556
83333.33221264
83333.3322308484
83333.3322472843
83333.3322618729
83333.3322745574
83333.3322852996
83333.3322940792
83333.3323009015
83333.332305811
83333.3323088541
83333.3323100137
83333.3323094173
83333.3323078461
83333.3320678665
83333.3320936558
83333.3321182631
83333.3321415237
83333.3321632816
83333.3321834048
83333.3322017897
83333.332218353
83333.3322330297
83333.332245774
83333.3322565612
83333.3322653905
83333.332272299
83333.332277369
83333.3322806862
83333.3322822922
83333.3322823156
83333.3322814722
83333.3320093758
83333.3320369587
83333.3320633844
83333.3320885005
83333.3321121547
83333.3321342124
83333.3321545632
83333.3321731164
83333.3321897992
83333.3322045585
83333.3322173631
83333.3322282067