/*--------------------------------*- C++ -*----------------------------------*\
  =========                 |
  \\      /  F ield         | OpenFOAM: The Open Source CFD Toolbox
   \\    /   O peration     | Website:  https://openfoam.org
    \\  /    A nd           | Version:  12
     \\/     M anipulation  |
\*---------------------------------------------------------------------------*/
/*   Windows 32 and 64 bit porting by blueCAPE: http://www.bluecape.com.pt   *\
|  Based on Windows porting (2.0.x v4) by Symscape: http://www.symscape.com   |
\*---------------------------------------------------------------------------*/
FoamFile
{
    format      ascii;
    class       surfaceScalarField;
    location    "200";
    object      phi;
}
// * * * * * * * * * * * * * * * * * * * * * * * * * * * * * * * * * * * * * //

dimensions      [0 3 -1 0 0 0 0];

internalField   nonuniform List<scalar> 
29275
(
-5.12949868838439e-06
7.97178633310146e-08
6.29473449029997e-08
-5.27170185774938e-06
7.76960231599074e-08
6.45009028625538e-08
-1.78386344343919e-06
1.17303866945177e-07
7.76665487325665e-09
-6.51183782451832e-06
9.96093496476115e-08
1.40931176304978e-07
-5.4099374005582e-06
7.43564258233366e-08
6.3875825782061e-08
-1.82839164068596e-06
1.13756557799722e-07
8.46328840398617e-09
-6.68769522070323e-06
9.74698905653539e-08
1.42871142835336e-07
-1.49359965380951e-06
1.51656908119966e-07
2.73427210347543e-09
-2.18976520648567e-06
1.47804174017195e-07
1.51627381573912e-08
-7.37977923832424e-06
1.16523805596123e-07
2.25221354536699e-07
-5.54440193534609e-06
7.14051389075936e-08
6.3050711591624e-08
-1.8723401996424e-06
1.09785602179719e-07
8.51345510987023e-09
-6.85859727619538e-06
9.24255552035259e-08
1.42331458235509e-07
-1.52985939091305e-06
1.46724003482707e-07
3.29108326261802e-09
-2.24366639878522e-06
1.43521346211228e-07
1.6305240314225e-08
-7.57807715536873e-06
1.14444713745178e-07
2.26705526217195e-07
-1.4292102126463e-06
1.85338414351871e-07
1.86329587570732e-09
-1.78715844582263e-06
1.89331707078903e-07
5.45674990159834e-09
-2.51683958416403e-06
1.7420653777581e-07
2.06535692399941e-08
-8.36174506099539e-06
1.3383422297518e-07
3.1814493706665e-07
-5.67623646629883e-06
6.88898997416787e-08
6.2941524414496e-08
-1.91565459101362e-06
1.05984422638612e-07
8.72919280310172e-09
-7.02526662424729e-06
8.82411862380962e-08
1.41459092866254e-07
-1.56546194229719e-06
1.41875223283136e-07
3.51151654804649e-09
-2.29778553933991e-06
1.38164334350859e-07
1.68848912782835e-08
-7.77049757292947e-06
1.08018965848003e-07
2.26715144353807e-07
-1.46399284230336e-06
1.79197661442809e-07
2.30821109210983e-09
-1.83003242402514e-06
1.83276419308893e-07
6.4080351260406e-09
-2.5775465122957e-06
1.69328979700021e-07
2.21202467433711e-08
-8.58582783202227e-06
1.31770261687129e-07
3.1900007073047e-07
-1.39806841746419e-06
2.18211326824826e-07
2.09510883811213e-09
-1.67589738277826e-06
2.29861596011332e-07
3.12601907462786e-09
-2.07663328282036e-06
2.2522866629382e-07
5.36035216267911e-09
-2.84927475060579e-06
1.99741173362593e-07
2.60790522779383e-08
-9.15575979087637e-06
1.46688462160901e-07
4.18138337777643e-07
-5.80636305986392e-06
6.66441239384752e-08
6.34752355140603e-08
-1.9585619153344e-06
1.02465566518756e-07
9.3266378812906e-09
-7.18881747009785e-06
8.50148705160096e-08
1.41453510763813e-07
-1.60058098841086e-06
1.37210286044777e-07
3.89178761681221e-09
-2.35178396170946e-06
1.33191529729728e-07
1.77710296875887e-08
-7.95817773038447e-06
1.02703788261213e-07
2.26419427349272e-07
-1.49808446046499e-06
1.73329513533287e-07
2.63663509142082e-09
-1.87264726641902e-06
1.77168475726512e-07
7.11995296515189e-09
-2.63904016221664e-06
1.62797884112184e-07
2.35940168963832e-08
-8.80260625969642e-06
1.24125010544713e-07
3.19351618984538e-07
-1.43231242112236e-06
2.10948499818056e-07
2.49260892731286e-09
-1.71658860112572e-06
2.22206459274253e-07
4.06757482158544e-09
-2.12556896067986e-06
2.17974779076341e-07
6.69557527819564e-09
-2.91757133180689e-06
1.94312066950158e-07
2.78647125312038e-08
-9.40036194670638e-06
1.44743097221376e-07
4.18833217344074e-07
-1.36826663316966e-06
2.5024167977065e-07
2.37487795976002e-09
-1.60915840972809e-06
2.68864234942399e-07
3.44866513616074e-09
-1.94378381410524e-06
2.73084837982816e-07
3.43105743033139e-09
-2.33662286033446e-06
2.57949053700172e-07
4.17945041121575e-09
-3.08270466584585e-06
2.16464677942788e-07
3.3147646439263e-08
-9.65728760192012e-06
1.54489487542267e-07
5.21875843990403e-07
-5.93556468017368e-06
6.45942859517025e-08
6.45980030405145e-08
-2.0013910309081e-06
9.92212196129058e-08
1.02473352550025e-08
-7.35014665323373e-06
8.22451500658324e-08
1.42540412692004e-07
-1.63547724862388e-06
1.32795397734278e-07
4.56555711079232e-09
-2.40546029641765e-06
1.28754010249356e-07
1.92560174791499e-08
-8.14244410310909e-06
9.87781269986134e-08
2.26924567001655e-07
-1.53170009318526e-06
1.67729148267587e-07
3.09610606012877e-09
-1.91504880596346e-06
1.71325100181803e-07
8.15673768408416e-09
-2.70082668651353e-06
1.56742709306368e-07
2.5510513636359e-08
-9.01352483910775e-06
1.17734875796748e-07
3.1957726282423e-07
-1.4658704880139e-06
2.04052908798804e-07
2.83408129669363e-09
-1.75662543648356e-06
2.14953138491177e-07
4.88727183589436e-09
-2.1744885723161e-06
2.10626576573835e-07
8.20814558838014e-09
-2.98675318721567e-06
1.866847553163e-07
3.02066409516608e-08
-9.63687605782069e-06
1.36331987162986e-07
4.19514332670902e-07
-1.40196778665289e-06
2.41918930993093e-07
2.73029849933943e-09
-1.64855220222422e-06
2.59885673847111e-07
4.20583116064154e-09
-1.99042703359956e-06
2.63962206956185e-07
4.72133050084773e-09
-2.39116155631857e-06
2.49647384658771e-07
5.8958973187421e-09
-3.15620157878696e-06
2.10759423751636e-07
3.53374064928214e-08
-9.91465397518385e-06
1.52667718890651e-07
5.23517199517202e-07
-1.3389665444148e-06
2.81347786007183e-07
2.69931578288958e-09
-1.55925784529574e-06
3.05503296783549e-07
5.03146541898961e-09
-1.85127259277094e-06
3.17768956668504e-07
5.00342510070411e-09
-2.17234544309689e-06
3.11446159827804e-07
3.50684719931817e-09
-2.49326917728607e-06
2.77416328869516e-07
3.59262143788062e-09
-3.21538259669246e-06
2.25134947300763e-07
4.2060434999339e-08
-9.93070943219602e-06
1.59503957133745e-07
6.2563104761374e-07
-6.06461780684561e-06
6.27216156937776e-08
6.63285974937629e-08
-2.04452014134617e-06
9.62339683449374e-08
1.14870049882499e-08
-7.51011688897221e-06
7.97476451702709e-08
1.44801655800254e-07
-1.67042602361263e-06
1.2866120326825e-07
5.50769935836328e-09
-2.45902669286536e-06
1.24701488073525e-07
2.13530222586333e-08
-8.32423042245576e-06
9.55035081647651e-08
2.28808365438968e-07
-1.56510468599062e-06
1.62422193734061e-07
3.77721729681038e-09
-1.95726494595422e-06
1.65827340480542e-07
9.70589787994881e-09
-2.76238802073849e-06
1.51433492150608e-07
2.81530024493764e-08
-9.22025186232144e-06
1.13115223959603e-07
3.20517308025705e-07
-1.49894661409725e-06
1.97501960250499e-07
3.30272722335181e-09
-1.79624891816094e-06
2.0806124267336e-07
5.9814902323972e-09
-2.22343698591315e-06
2.03648483680539e-07
1.01960691167205e-08
-3.05634560808242e-06
1.79605353116185e-07
3.32243857246011e-08
-9.8663117051568e-06
1.29123359702783e-07
4.19875896484971e-07
-1.43500108310086e-06
2.34028079595189e-07
3.05759850890205e-09
-1.68724008889818e-06
2.5145134264071e-07
5.02223288666408e-09
-2.03644509906315e-06
2.55318742109941e-07
6.21095882580563e-09
-2.44565424281034e-06
2.41167478220363e-07
8.21449164075895e-09
-3.23058863609897e-06
2.02457283719113e-07
3.84593143268385e-08
-1.01637637764448e-05
1.43702362042961e-07
5.24900089157421e-07
-1.37207146941844e-06
2.71996172727849e-07
3.02748158055481e-09
-1.59765714392359e-06
2.95303221543582e-07
5.71103366675283e-09
-1.89626167171543e-06
3.07003680883108e-07
6.1522497163545e-09
-2.2240561023416e-06
3.00922219907823e-07
5.15458670180762e-09
-2.55084535410154e-06
2.68527079570608e-07
5.70122564579922e-09
-3.29153544981891e-06
2.19309301506288e-07
4.48383614023207e-08
-1.0195350286582e-05
1.57595806792026e-07
6.30538885823106e-07
-1.31530045013511e-06
3.11341406467114e-07
3.29094342837875e-09
-1.52232459577805e-06
3.40290363395458e-07
6.40443505417287e-09
-1.78530608823043e-06
3.59600575199234e-07
8.02518962458463e-09
-2.05443695266584e-06
3.60344089369003e-07
7.15380792313539e-09
-2.29942720947265e-06
3.33115759638609e-07
4.0508230618897e-09
-2.56495531104932e-06
2.8592376696276e-07
4.18513064217512e-09
-3.28866659027423e-06
2.29969239820461e-07
5.21124683903558e-08
-1.00873972748669e-05
1.64094366251573e-07
7.26049716006955e-07
-6.19433559779913e-06
6.09950532181834e-08
6.87141971563735e-08
-2.08836599273185e-06
9.350223264453e-08
1.30611420028382e-08
-7.66966134718166e-06
7.74477295845007e-08
1.48403853556142e-07
-1.70574543638737e-06
1.24827986934559e-07
6.724780197457e-09
-2.51286244478303e-06
1.20973802211042e-07
2.40922079667321e-08
-8.50448457430404e-06
9.25570459165789e-08
2.32482871467273e-07
-1.59857137381554e-06
1.57445429340785e-07
4.68176383109266e-09
-1.99952728862803e-06
1.60695547484557e-07
1.17742015402616e-08
-2.82382527968991e-06
1.46630532597675e-07
3.1657655640112e-08
-9.42389792731118e-06
1.09329664954612e-07
3.23107913640118e-07
-1.53179967773449e-06
1.91309638465606e-07
3.96505295222078e-09
-1.83566975025614e-06
2.01509913890518e-07
7.51369413632116e-09
-2.27226753717822e-06
1.97122555239924e-07
1.28443034711659e-08
-3.12565951713021e-06
1.73483132548297e-07
3.70926888045121e-08
-1.00903349795853e-05
1.23910481247999e-07
4.20607022228799e-07
-1.46755164119123e-06
2.26548585151701e-07
3.50355310199539e-09
-1.72545543886817e-06
2.43480332682602e-07
6.097125469243e-09
-2.08212934516028e-06
2.47168468125426e-07
8.14371008532786e-09
-2.50024608801056e-06
2.33149306237786e-07
1.12404245550811e-08
-3.30533649394861e-06
1.94674745670708e-07
4.24098780539183e-08
-1.04046228104054e-05
1.35960691116606e-07
5.2475680851227e-07
-1.40451627095367e-06
2.63134644744703e-07
3.33794090515341e-09
-1.63534949908414e-06
2.85738843090246e-07
6.46144042512288e-09
-1.94045977986784e-06
2.96995393039128e-07
7.54235939353255e-09
-2.27500974988961e-06
2.90993608241923e-07
7.3364382677429e-09
-2.60831646640518e-06
2.59386604343684e-07
8.7528593104918e-09
-3.36866800025381e-06
2.10569985936724e-07
4.87131723825008e-08
-1.04527796282118e-05
1.48105256917643e-07
6.34205660379124e-07
-1.34787249566515e-06
3.0097897013835e-07
3.58885013922421e-09
-1.55996144757945e-06
3.28915826926921e-07
7.05070672621629e-09
-1.82900155484397e-06
3.47367120261713e-07
9.04181616352173e-09
-2.10398262447751e-06
3.47998675772738e-07
8.61972077914029e-09
-2.35361036920456e-06
3.21829891384792e-07
6.03236292290876e-09
-2.6234171146243e-06
2.76755669074519e-07
6.71447844776281e-09
-3.36608616765171e-06
2.23941394716553e-07
5.59014251777503e-08
-1.03575199527789e-05
1.61669731624219e-07
7.38979228104417e-07
-1.30045650924263e-06
3.40288667582301e-07
3.95777860248027e-09
-1.49658133577776e-06
3.73371154524927e-07
8.1391547485414e-09
-1.74313769221904e-06
3.98810842735378e-07
1.1122539245013e-08
-1.97491030132969e-06
4.05766695519253e-07
1.1931450555176e-08
-2.16422734139889e-06
3.83861470343418e-07
9.75125974197165e-09
-2.35009977549974e-06
3.41541121988038e-07
5.25504074171243e-09
-2.59691886921835e-06
2.8966473382513e-07
5.74431774587258e-09
-3.33876407302704e-06
2.34021653229655e-07
6.28327796094115e-08
-1.02056437426968e-05
1.69448215715629e-07
8.2119526025785e-07
-6.32562226849878e-06
5.94428620016721e-08
7.18387879724856e-08
-2.13339964668037e-06
9.10262042574386e-08
1.4998449492573e-08
-7.82977205108506e-06
7.53184711832709e-08
1.53493032177693e-07
-1.74179395213955e-06
1.21313158341537e-07
8.23678411970437e-09
-2.56743052881819e-06
1.17541880625074e-07
2.75281630890891e-08
-8.68423415306989e-06
8.98492314908026e-08
2.38291734585757e-07
-1.63239502852873e-06
1.52830935320472e-07
5.82026871898868e-09
-2.0421692089196e-06
1.5594621610413e-07
1.43925782284355e-08
-2.885530612427e-06
1.42208030451061e-07
3.61376070127736e-08
-9.62562820445823e-06
1.05977394239162e-07
3.28216712712785e-07
-1.5646950979049e-06
1.8551240060134e-07
4.82798362318265e-09
-1.87515262203075e-06
1.95354854755635e-07
9.5042048750558e-09
-2.32114685999971e-06
1.91036300997899e-07
1.62448359379442e-08
-3.19474086574567e-06
1.67987287146563e-07
4.20717188708339e-08
-1.03102979935871e-05
1.19801076867477e-07
4.2325326563464e-07
-1.49986617531477e-06
2.19499515554821e-07
4.12406888116144e-09
-1.76343076830321e-06
2.35923024074174e-07
7.52600399634892e-09
-2.12762922064487e-06
2.39453795948763e-07
1.06802655585098e-08
-2.55470772532666e-06
2.25707524487985e-07
1.5078943349179e-08
-3.37959497881981e-06
1.87973471544365e-07
4.72784524263302e-08
-1.06384488203872e-05
1.30574982876393e-07
5.23837194672557e-07
-1.43647700782117e-06
2.54749023061619e-07
3.75996242702866e-09
-1.67254603042782e-06
2.76727303723886e-07
7.45186250847981e-09
-1.98416751428703e-06
2.8761981193069e-07
9.35195706895381e-09
-2.32559794915096e-06
2.81710662336307e-07
1.01686584089855e-08
-2.66586491088054e-06
2.50758977437634e-07
1.27011440010396e-08
-3.44598124310951e-06
2.02381101488056e-07
5.32949616024108e-08
-1.07006008242747e-05
1.4014085966703e-07
6.32408558636235e-07
-1.37977846402333e-06
2.91163303409729e-07
3.87706078103052e-09
-1.59688577748753e-06
3.18256191992141e-07
7.74369289173304e-09
-1.87189005426302e-06
3.36042722958884e-07
1.03011497738185e-08
-2.15261242687103e-06
3.36583217589827e-07
1.05806147368854e-08
-2.40692336410481e-06
3.11201596108102e-07
8.83229615047367e-09
-2.68179197760196e-06
2.67287689081803e-07
1.04061752953313e-08
-3.44479435341005e-06
2.14800416667686e-07
6.07168019905538e-08
-1.06245591410214e-05
1.51705031547692e-07
7.49514582560189e-07
-1.33262836238765e-06
3.28933596367814e-07
4.21703209404899e-09
-1.53364343524238e-06
3.60850338751966e-07
8.71571013225592e-09
-1.78596854493155e-06
3.85231669550536e-07
1.20160195705623e-08
-2.02290922194273e-06
3.91836246817233e-07
1.3202045501943e-08
-2.21592614046624e-06
3.70656104729113e-07
1.14908994258145e-08
-2.4047725672614e-06
3.29912830879902e-07
7.54519379110975e-09
-2.65530673832214e-06
2.80265583872316e-07
8.77467091239557e-09
-3.41719783091652e-06
2.27447940702339e-07
6.85494709054749e-08
-1.04817857329025e-05
1.65629434224996e-07
8.494604618989e-07
-1.29454333066027e-06
3.6819702583228e-07
4.7642017701887e-09
-1.48106515325088e-06
4.05201981019949e-07
9.64261012685505e-09
-1.7173313207887e-06
4.36329501185255e-07
1.39476966859233e-08
-1.92893734451342e-06
4.48708560861236e-07
1.65370907837512e-08
-2.07788297609893e-06
4.3102199913697e-07
1.62603850796291e-08
-2.20567253498394e-06
3.92424737453173e-07
1.26311607569139e-08
-2.36919067181973e-06
3.44383652111886e-07
7.0227114186149e-09
-2.61836950812212e-06
2.92423030656875e-07
8.06665618616449e-09
-3.38402098432781e-06
2.38591589698756e-07
7.42062580425976e-08
-1.03225856161105e-05
1.78763084841197e-07
9.13830351385958e-07
-6.45950631952154e-06
5.81225039851197e-08
7.57528661424984e-08
-2.18014962742445e-06
8.88365092337547e-08
1.73526369366884e-08
-7.99152262243179e-06
7.33614466801356e-08
1.60212927471414e-07
-1.7789845912341e-06
1.18145050464174e-07
1.00708474279553e-08
-2.623253365803e-06
1.14397576251889e-07
3.1736779723999e-08
-8.86455375838214e-06
8.73523983186746e-08
2.4644762338171e-07
-1.66690755740785e-06
1.48617936737705e-07
7.20721601911946e-09
-2.08558881250403e-06
1.5158182819658e-07
1.76146149688519e-08
-2.94800684364937e-06
1.38138741429074e-07
4.17092417917288e-08
-9.82660599573449e-06
1.02983609231582e-07
3.36270157131321e-07
-1.59792023194116e-06
1.8015462555076e-07
5.90092939623008e-09
-1.91502210756425e-06
1.89657762888942e-07
1.19768229353248e-08
-2.37042579229044e-06
1.85395692336549e-07
2.04818281342414e-08
-3.26401158697104e-06
1.62961978346696e-07
4.84146261886783e-08
-1.05277868532993e-05
1.16271162475617e-07
4.29409574912882e-07
-1.53219775288824e-06
2.12919236834616e-07
4.92441469232905e-09
-1.80143900196969e-06
2.28821214072046e-07
9.36854150117126e-09
-2.17319273416103e-06
2.32202455641272e-07
1.38995911644537e-08
-2.60917101172405e-06
2.18814069721064e-07
1.98788917440497e-08
-3.45337795792187e-06
1.8210399883235e-07
5.35423099590131e-08
-1.08668277313828e-05
1.26445707217789e-07
5.25170472748731e-07
-1.46818441150385e-06
2.46858058338807e-07
4.34853808308021e-09
-1.70948362205467e-06
2.68213358590102e-07
8.77020873856085e-09
-2.02763494091336e-06
2.78746125231626e-07
1.16992961478495e-08
-2.37597111937509e-06
2.72997600497081e-07
1.37614357050968e-08
-2.72318983214086e-06
2.42796810146336e-07
1.75763740771972e-08
-3.52236214814476e-06
1.95536986240793e-07
5.86884644961135e-08
-1.09382838415871e-05
1.34839301537035e-07
6.26652489041589e-07
-1.41118986919179e-06
2.8188717490871e-07
4.27291759657923e-09
-1.63329217928396e-06
3.08233118197078e-07
8.65965427019515e-09
-1.91423952086832e-06
3.25471146455482e-07
1.19490225992801e-08
-2.2006987397677e-06
3.25998517535108e-07
1.3148876954103e-08
-2.45979535810823e-06
3.01310223252686e-07
1.24866448285158e-08
-2.74017146878885e-06
2.58399034439126e-07
1.50593763351171e-08
-3.52332811167792e-06
2.06477111169898e-07
6.54810782648154e-08
-1.08795583628757e-05
1.43961910327358e-07
7.43427890446902e-07
-1.36411696705195e-06
3.18178799518032e-07
4.47292940336808e-09
-1.56997302704676e-06
3.4913336043545e-07
9.32856630276453e-09
-1.82799702293483e-06
3.72671607995064e-07
1.31424856791149e-08
-2.06998673800382e-06
3.79014490220191e-07
1.4945791538631e-08
-2.26659660936007e-06
3.58481474843735e-07
1.39688656672499e-08
-2.45851661774245e-06
3.18986363870429e-07
1.08746146746576e-08
-2.71372893034594e-06
2.70570811925242e-07
1.30542877938146e-08
-3.49781029914986e-06
2.17906764112107e-07
7.51140817753107e-08
-1.07686029491652e-05
1.54457405383001e-07
8.81854881348291e-07
-1.32645154830251e-06
3.55832199961407e-07
5.00945409098899e-09
-1.51769202794246e-06
3.91558039425643e-07
1.01357008951817e-08
-1.75958255955973e-06
4.2146895938539e-07
1.47288794985444e-08
-1.9760326214555e-06
4.33308985347211e-07
1.76376529205693e-08
-2.12792893217789e-06
4.16150390352007e-07
1.77521753248518e-08
-2.25772450289678e-06
3.78850643944979e-07
1.46031777024148e-08
-2.42352476237301e-06
3.3254508444064e-07
9.59685142852238e-09
-2.67654364435477e-06
2.82643850095373e-07
1.1749202037684e-08
-3.46376434083869e-06
2.30811715119687e-07
8.30987638607412e-08
-1.05975988639673e-05
1.70341781102656e-07
9.54112092838595e-07
-1.29594483237573e-06
3.95409854639567e-07
5.30107507793748e-09
-1.47463603403624e-06
4.36294488284893e-07
1.0898250002784e-08
-1.70302035167803e-06
4.72649012042385e-07
1.62623834809755e-08
-1.90321875666089e-06
4.8996024044831e-07
2.04820766184742e-08
-2.03122242413514e-06
4.75836078929519e-07
2.22483667953031e-08
-2.11673944355072e-06
4.39914962728881e-07
2.06649778081456e-08
-2.22004435714616e-06
3.94648390730261e-07
1.57679957178775e-08
-2.38224670323349e-06
3.45980327255324e-07
9.36932517266502e-09
-2.63983898252023e-06
2.95355887669176e-07
1.13614314387791e-08
-3.43242814176825e-06
2.44883876675672e-07
8.93090388865714e-08
-1.03794748150466e-05
1.93775151747513e-07
1.04858475383509e-06
-6.59705637613912e-06
5.70257473309961e-08
8.05191785737226e-08
-2.2292019032732e-06
8.6981354959888e-08
2.01887211555e-08
-8.15611717145676e-06
7.15958081069047e-08
1.68739117721892e-07
-1.81777960028452e-06
1.15357403228683e-07
1.22737704392623e-08
-2.68092771213486e-06
1.11550467652915e-07
3.68318132982804e-08
-9.04662051638341e-06
8.50261770890431e-08
2.57231841497675e-07
-1.70248922838469e-06
1.4485257303218e-07
8.87371675556088e-09
-2.13024613443776e-06
1.47615687705712e-07
2.15077659363951e-08
-3.01183463247056e-06
1.34408584762637e-07
4.85038741220588e-08
-1.00280318003202e-05
1.00238266538353e-07
3.4762101308432e-07
-1.63178199697144e-06
1.75278100272658e-07
7.2013429516702e-09
-1.95564087788937e-06
1.84418821616784e-07
1.49878435265305e-08
-2.42054465206134e-06
1.80220857273009e-07
2.564893302341e-08
-3.33401856231469e-06
1.58406817381766e-07
5.62854052883221e-08
-1.07441103584197e-05
1.1307723623855e-07
4.39503141956059e-07
-1.56481064214782e-06
2.06853080914724e-07
5.91412781589267e-09
-1.83979741390559e-06
2.22223001551583e-07
1.16929813494644e-08
-2.219162215677e-06
2.25468702316832e-07
1.78717621432817e-08
-2.66399658592783e-06
2.12441716691422e-07
2.58251095456438e-08
-3.52719193674099e-06
1.76845451269471e-07
6.16481512226222e-08
-1.10921570111705e-05
1.22856055137777e-07
5.3186925597344e-07
-1.49987603441486e-06
2.39500017979651e-07
5.1104959239969e-09
-1.74642723062106e-06
2.60237446455242e-07
1.04510391224315e-08
-2.07114831797723e-06
2.70427539103224e-07
1.46558774975542e-08
-2.42637238817438e-06
2.64867732670604e-07
1.82451269977716e-08
-2.78036475787448e-06
2.35486602375821e-07
2.36681623534282e-08
-3.59785247626928e-06
1.89635427017412e-07
6.58325569273788e-08
-1.11678299059505e-05
1.30777378693505e-07
6.23920740618527e-07
-1.44232554287619e-06
2.73168618109458e-07
4.82486780912031e-09
-1.66941587009496e-06
2.98781250163277e-07
9.90340028298935e-09
-1.95630726922303e-06
3.15496611536792e-07
1.40860194705087e-08
-2.24850177314658e-06
3.1606838231221e-07
1.64299280030228e-08
-2.51235507232195e-06
2.9205282468243e-07
1.70627631151771e-08
-2.7980731251709e-06
2.50293112865784e-07
2.07183184574365e-08
-3.60007344240317e-06
1.99780685846007e-07
7.04832526267355e-08
-1.11172778930653e-05
1.39140160067069e-07
7.25211266989332e-07
-1.39509279412911e-06
3.08023785338118e-07
4.83895482966191e-09
-1.60576505772775e-06
3.38130264535387e-07
1.01671312810778e-08
-1.86947092050256e-06
3.60967329003226e-07
1.46361586798613e-08
-2.11646082442969e-06
3.67152470239545e-07
1.72674228987009e-08
-2.31663194689476e-06
3.4723941672051e-07
1.72531824632344e-08
-2.5117202685047e-06
3.0887578295077e-07
1.52104065932303e-08
-2.77197908245997e-06
2.61598410944139e-07
1.81853691135298e-08
-3.57757717567873e-06
2.09729835340718e-07
7.94663949680557e-08
-1.10370583183807e-05
1.48178455152805e-07
8.636747962146e-07
-1.35764494515609e-06
3.4414465851306e-07
5.22732294256553e-09
-1.55356998247988e-06
3.78800784801577e-07
1.06830342627131e-08
-1.80103116628852e-06
4.07710738613149e-07
1.5737419027787e-08
-2.02220859040627e-06
4.19137378677365e-07
1.9194502684371e-08
-2.17694647848685e-06
4.02506117773587e-07
1.99371134675629e-08
-2.30867148090373e-06
3.66379412399012e-07
1.75207664949031e-08
-2.4769164332468e-06
3.21462276935197e-07
1.33727145239273e-08
-2.73501339733567e-06
2.72673445391749e-07
1.67527646747868e-08
-3.54819087462335e-06
2.20334890289263e-07
9.36495816094648e-08
-1.08748298313867e-05
1.51932321701062e-07
1.00712493015616e-06
-1.32766027288913e-06
3.82034828261432e-07
5.51265511586826e-09
-1.51094248341183e-06
4.2153456258972e-07
1.13388554570698e-08
-1.7448704668743e-06
4.56511838507742e-07
1.694235181262e-08
-1.94976498128326e-06
4.73145595005858e-07
2.14376819587148e-08
-2.08038782328045e-06
4.59423013684554e-07
2.35291580734005e-08
-2.16713195328693e-06
4.24656133228538e-07
2.23376865408844e-08
-2.27170700374831e-06
3.80888471827363e-07
1.79199637544078e-08
-2.43607982037448e-06
3.33879610427266e-07
1.21916961800039e-08
-2.69791174215768e-06
2.84876380435209e-07
1.57542732673738e-08
-3.51243393144178e-06
2.34301176419941e-07
9.91306707919107e-08
-1.05802005594647e-05
1.71956156722734e-07
9.82858785600208e-07
-1.30273622052816e-06
4.22157569295015e-07
5.63499517308017e-09
-1.47562053347708e-06
4.66828488462936e-07
1.17909895040182e-08
-1.69779355036079e-06
5.08180801928594e-07
1.80367607134713e-08
-1.88970683930904e-06
5.30041660099463e-07
2.36001214164831e-08
-2.00634933368477e-06
5.19063477080682e-07
2.72539329278998e-08
-2.07025738647115e-06
4.851958503912e-07
2.79357357055412e-08
-2.12978943525016e-06
4.41712559724612e-07
2.51607095411287e-08
-2.22990220429704e-06
3.95314129318698e-07
1.92852510233029e-08
-2.39708013365295e-06
3.47449918592865e-07
1.25461289032622e-08
-2.66452128541157e-06
2.98685397564267e-07
1.69589858182972e-08
-3.48601119648054e-06
2.52022060361095e-07
1.16148170066166e-07
-1.01280742364651e-05
1.87716585753704e-07
1.11308281475849e-06
-6.73944555790803e-06
5.61002169456192e-08
8.62824360741824e-08
-2.28122481508741e-06
8.5474132235606e-08
2.35709138836856e-08
-8.32479844548356e-06
6.98665991018519e-08
1.79317386544856e-07
-1.85867906010275e-06
1.12968870572852e-07
1.49109549115052e-08
-2.74111036542841e-06
1.09024260028205e-07
4.29384992586408e-08
-9.23172681876949e-06
8.28990900729137e-08
2.70936304297385e-07
-1.73955290310419e-06
1.41558276258078e-07
1.0862003763781e-08
-2.17664857007495e-06
1.44044042655874e-07
2.61809794345947e-08
-3.07766946397089e-06
1.30992241099856e-07
5.66947061234326e-08
-1.02312162045599e-05
9.76786280787433e-08
3.6272467435031e-07
-1.66661653622335e-06
1.70924907805967e-07
8.76195782508041e-09
-1.99741297411835e-06
1.79658214606312e-07
1.86022244055982e-08
-2.47200468270814e-06
1.75495073998016e-07
3.18784914238117e-08
-3.40538766480772e-06
1.54257464056939e-07
6.58463560654387e-08
-1.09606180953793e-05
1.102451769082e-07
4.53858778350256e-07
-1.59798561856214e-06
2.01333177069366e-07
7.11964639676467e-09
-1.87883259875393e-06
2.1615416888829e-07
1.45000837021411e-08
-2.26593711479677e-06
2.1929527582816e-07
2.26863928931062e-08
-2.71963638466778e-06
2.06607474865792e-07
3.3085893148539e-08
-3.6016428383996e-06
1.72079151252728e-07
7.17277116140068e-08
-1.13158613222872e-05
1.1954561845843e-07
5.43647303818065e-07
-1.53179603775163e-06
2.32714913087833e-07
6.05786093405455e-09
-1.78365602128435e-06
2.52838621504481e-07
1.25263256579015e-08
-2.11501552123667e-06
2.62718333272193e-07
1.83089441255104e-08
-2.47714442671723e-06
2.57318015402156e-07
2.37655592179547e-08
-2.83776299761522e-06
2.28791377758741e-07
3.12752758313173e-08
-3.67317751748427e-06
1.84298929548483e-07
7.55187064549828e-08
-1.13944440387675e-05
1.27239067642073e-07
6.31227142615373e-07
-1.47340971905574e-06
2.65045242096731e-07
5.53868963661337e-09
-1.7055057570239e-06
2.89931628930378e-07
1.15054372404898e-08
-1.99837230632029e-06
3.06160254739594e-07
1.67820293813188e-08
-2.29629574937737e-06
3.06777737173546e-07
2.0538008250271e-08
-2.56482403578058e-06
2.83447678916005e-07
2.27509368994263e-08
-2.85555151326034e-06
2.42913279263741e-07
2.78662466451363e-08
-3.67520806728907e-06
1.93948862151419e-07
7.7786802206313e-08
-1.13410421335415e-05
1.35339366620952e-07
7.12325951903047e-07
-1.42576632610833e-06
2.98490418758178e-07
5.35145180626413e-09
-1.64124540574525e-06
3.27770691857166e-07
1.13150075475364e-08
-1.91062995516833e-06
3.49957152074316e-07
1.66008472451609e-08
-2.16259373344874e-06
3.56024505672373e-07
2.02615565033393e-08
-2.36628654593688e-06
3.36713927658039e-07
2.14212255401207e-08
-2.56444395801309e-06
2.99475190490957e-07
2.06020565919704e-08
-2.82930053550796e-06
2.53552413454419e-07
2.42631677230203e-08
-3.65369616331314e-06
2.03436119501757e-07
8.22954658273724e-08
-1.12700472592154e-05
1.46047815901866e-07
8.12133063051079e-07
-1.38829809146761e-06
3.33124946108583e-07
5.55185861470131e-09
-1.58888834780249e-06
3.66833580208799e-07
1.14532594430194e-08
-1.84190085646428e-06
3.94896852021124e-07
1.7106394661911e-08
-2.06774766145687e-06
4.06021973560878e-07
2.13042345794265e-08
-2.22526840542875e-06
3.89937579500568e-07
2.2889800816527e-08
-2.35888356882986e-06
3.5492191379036e-07
2.14164674755498e-08
-2.52963796238354e-06
3.11292171113244e-07
1.82350619929509e-08
-2.79300308216641e-06
2.63696048352204e-07
2.22044889855268e-08
-3.63053805578356e-06
2.12558342505202e-07
9.74256968659441e-08
-1.11239422669876e-05
1.47212151008946e-07
9.65551244777607e-07
-1.35863058945898e-06
3.69407030393447e-07
5.70779028142856e-09
-1.5464797293057e-06
4.0773328367435e-07
1.18315938359686e-08
-1.78589600007691e-06
4.41567500313905e-07
1.78510383620256e-08
-1.99538305287572e-06
4.57658410021883e-07
2.28335468331972e-08
-2.12853026438316e-06
4.44369908357288e-07
2.54720852923518e-08
-2.21641923952182e-06
4.10706594178763e-07
2.48952163086628e-08
-2.32221130831427e-06
3.68296950402942e-07
2.11879371638093e-08
-2.48900902154474e-06
3.2261661797498e-07
1.63552975135926e-08
-2.75692804817239e-06
2.74367921589814e-07
2.17322721004553e-08
-3.60085076772425e-06
2.20814373912903e-07
1.13172698846483e-07
-1.06092472097783e-05
1.3060797780601e-07
9.05543969185467e-07
-1.33427685881744e-06
4.07746787466447e-07
5.82862999734537e-09
-1.51168477357406e-06
4.50924489284494e-07
1.21864794998482e-08
-1.73934360696237e-06
4.90760302456695e-07
1.86399049332151e-08
-1.93587575172351e-06
5.11822168988619e-07
2.44339985089498e-08
-2.05501435882299e-06
5.01165545602759e-07
2.83590531471138e-08
-2.1198128628205e-06
4.68380052724368e-07
2.93596663828532e-08
-2.17981179615821e-06
4.26289036975546e-07
2.69581168014892e-08
-2.28101386873184e-06
3.81365427686194e-07
2.15437937650094e-08
-2.45044784322707e-06
3.34944156710613e-07
1.54883398565407e-08
-2.72241018789786e-06
2.86982188856297e-07
2.09582398529969e-08
-3.55985539985199e-06
2.36907834198994e-07
1.08013791587046e-07
-1.03852779510943e-05
1.78436959124267e-07
1.06160887143067e-06
-1.31340307207304e-06
4.48569526106729e-07
5.81195150983772e-09
-1.48231402841366e-06
4.96957247852487e-07
1.23486817729453e-08
-1.69983838213409e-06
5.43155359332998e-07
1.92769235631071e-08
-1.88517127468204e-06
5.69313264384581e-07
2.59204219300499e-08
-1.99340479481999e-06
5.6115648194827e-07
3.11626701037452e-08
-2.04583154297434e-06
5.28963727823774e-07
3.396451198327e-08
-2.0829924852427e-06
4.86702975456451e-07
3.36110849853262e-08
-2.13832816830943e-06
4.41637386287189e-07
2.98874097394205e-08
-2.24179936806088e-06
3.95627598445637e-07
2.33975943783867e-08
-2.41566029626274e-06
3.487799716579e-07
1.70981282684162e-08
-2.69491360136196e-06
3.01648808491492e-07
2.6328100024959e-08
-3.5277014428169e-06
2.51416404105255e-07
1.3171536080075e-07
-1.06719689956231e-05
1.9189976510933e-07
1.18059669334077e-06
-6.88785149808404e-06
5.52070366367171e-08
9.31929569324612e-08
-2.33698300852132e-06
8.42912862924126e-08