/*--------------------------------*- C++ -*----------------------------------*\
  =========                 |
  \\      /  F ield         | OpenFOAM: The Open Source CFD Toolbox
   \\    /   O peration     | Website:  https://openfoam.org
    \\  /    A nd           | Version:  12
     \\/     M anipulation  |
\*---------------------------------------------------------------------------*/
/*   Windows 32 and 64 bit porting by blueCAPE: http://www.bluecape.com.pt   *\
|  Based on Windows porting (2.0.x v4) by Symscape: http://www.symscape.com   |
\*---------------------------------------------------------------------------*/
FoamFile
{
    format      ascii;
    class       volVectorField;
    location    "200";
    object      U;
}
// * * * * * * * * * * * * * * * * * * * * * * * * * * * * * * * * * * * * * //

dimensions      [0 1 -1 0 0 0 0];

internalField   nonuniform List<vector> 
10244
(
(-2.26243399172959e-06 0.000835371066823044 1.61370060336346e-05)
(-2.03498133547566e-06 0.000854742308239814 1.55000884843014e-05)
(-2.33171165302354e-06 0.000680144320196443 3.43918826666398e-05)
(-6.52801820228275e-06 0.000820516894605177 1.42855027314303e-05)
(-1.85996841261589e-06 0.000874679866338638 1.47853078417149e-05)
(-2.2085046134297e-06 0.000694612044283349 3.31209337063217e-05)
(-5.93047246858639e-06 0.000836556663747335 1.35566557579475e-05)
(-1.48965957382949e-06 0.000715281261106464 5.47426500511858e-05)
(-7.71700300052475e-06 0.000624619010180793 3.31848347521576e-05)
(-1.11521918316939e-05 0.00080034397906608 1.40029463875882e-05)
(-1.69105284470125e-06 0.000894584095261198 1.42378078129978e-05)
(-2.06052606273618e-06 0.000709645465508542 3.18089445257001e-05)
(-5.42281867712948e-06 0.00085402228451852 1.27273332107686e-05)
(-1.38677799668894e-06 0.000731475645217152 5.27253854038336e-05)
(-7.37927773747789e-06 0.000635277071644023 3.19361597909772e-05)
(-1.03430193423725e-05 0.000814146629643074 1.32375414208041e-05)
(-1.0204157714434e-06 0.000724675146647846 7.55690987617635e-05)
(-4.48221261093994e-06 0.000688934583703444 5.35609939417823e-05)
(-1.38985825512536e-05 0.000599001332650911 3.26132050438868e-05)
(-1.55703800366964e-05 0.000805195851246324 1.39974731129606e-05)
(-1.47210594834043e-06 0.00091430892949949 1.37854857332496e-05)
(-1.89224479498222e-06 0.000724717393886543 3.06576272359289e-05)
(-4.89188894082e-06 0.000872627966676418 1.21947241758939e-05)
(-1.25668580836981e-06 0.000747810833828662 5.08161278109157e-05)
(-6.95321128246662e-06 0.000647734700067189 3.03831976849023e-05)
(-9.47822422976263e-06 0.000830065468375657 1.23162421870846e-05)
(-9.27926887520243e-07 0.000741712668950661 7.28250528506634e-05)
(-4.20482659896698e-06 0.000702967071873577 5.14622793523584e-05)
(-1.33596301021467e-05 0.000607345532815112 3.14618374629923e-05)
(-1.45359184686492e-05 0.000818255657122152 1.31877790484885e-05)
(-6.10011103327898e-07 0.00072585169989853 9.59381200114505e-05)
(-2.59033092762643e-06 0.000710110493650372 7.42772962613944e-05)
(-8.31806191775066e-06 0.000673777009333621 5.29148827586039e-05)
(-2.04237856406898e-05 0.000590038149825379 3.26030387770913e-05)
(-2.02725019569003e-05 0.000810795341783851 1.4102727299723e-05)
(-1.1879218284792e-06 0.000933973712872026 1.33744037267304e-05)
(-1.68727935754786e-06 0.000739726431544372 2.96505505674951e-05)
(-4.197071671592e-06 0.000891350522416399 1.18238500013184e-05)
(-1.10452246602982e-06 0.000764039709802039 4.90654873013675e-05)
(-6.42416239052936e-06 0.000661117286326699 2.9164033486805e-05)
(-8.48133061088917e-06 0.000847767712011338 1.17329086327548e-05)
(-8.16712702774801e-07 0.000758670569525518 7.0268490878885e-05)
(-3.82802923429787e-06 0.000717931495033291 4.94921062828311e-05)
(-1.26070416674833e-05 0.000618280345374929 2.9880256415126e-05)
(-1.32973001660213e-05 0.000833540806198644 1.21789413886341e-05)
(-5.32197120094832e-07 0.000743304554379894 9.24997135731623e-05)
(-2.34015007627838e-06 0.000725879134495669 7.14297113187224e-05)
(-7.86520282215368e-06 0.000686304709654285 5.07458599649273e-05)
(-1.96876703703504e-05 0.000597252210058233 3.14769210566507e-05)
(-1.8940559012748e-05 0.000823351846997171 1.32724909712684e-05)
(-2.01417109657496e-07 0.000724942215540566 0.000115360313232687)
(-1.24219382985291e-06 0.000716315129920347 9.43229663967049e-05)
(-4.78605203210591e-06 0.000700703345071868 7.34584900286892e-05)
(-1.24978422013519e-05 0.000667164094695846 5.28363791911373e-05)
(-2.74204480967823e-05 0.000584013722065972 3.25258559607315e-05)
(-2.54778026952634e-05 0.000813010918920684 1.41026216749548e-05)
(-8.41001555613592e-07 0.000953790878148866 1.30070701949452e-05)
(-1.43948309352393e-06 0.000754770394197488 2.87588007024491e-05)
(-3.32061732938334e-06 0.00091008302230537 1.15050667058388e-05)
(-9.20500407571983e-07 0.00078018143864902 4.74823095035195e-05)
(-5.77203370878788e-06 0.000674652219631592 2.8234887913536e-05)
(-7.25382882729995e-06 0.000865757661536332 1.13607561666801e-05)
(-6.78252260562523e-07 0.000775460693320996 6.7905149954688e-05)
(-3.35800868488495e-06 0.000733295065434864 4.77728248655136e-05)
(-1.16583049254061e-05 0.000630690088077801 2.86327667662261e-05)
(-1.18385283410395e-05 0.000850915264081158 1.15432463536138e-05)
(-4.34163752034197e-07 0.000760578502143385 8.92972938159787e-05)
(-2.00884756753133e-06 0.000742029294363799 6.88307609427599e-05)
(-7.2208856736027e-06 0.000700275714299943 4.87226806408575e-05)
(-1.8607688769173e-05 0.000607336951577176 2.98477777908479e-05)
(-1.73496060634442e-05 0.00083815524715247 1.22257097118592e-05)
(-1.37021794323967e-07 0.000742616394218299 0.000111271956856611)
(-1.02221030844402e-06 0.000732890820742787 9.07904454766828e-05)
(-4.38593229988957e-06 0.000715480711724121 7.05214571262955e-05)
(-1.18610165672075e-05 0.000678813276443101 5.0612465070862e-05)
(-2.64649194454883e-05 0.000590437932525415 3.14511768494697e-05)
(-2.37665297483904e-05 0.000825124561310711 1.32952533554924e-05)
(1.4151418825985e-07 0.000724345132337736 0.000133831682918024)
(-1.66926588888908e-07 0.000718080743759258 0.000113473070899332)
(-2.25315146560858e-06 0.000709965355335116 9.32655327609489e-05)
(-7.32215336281199e-06 0.000696529307714268 7.3189966339747e-05)
(-1.70511025491776e-05 0.000662917946590979 5.26216469086178e-05)
(-3.48385109512785e-05 0.000579159010295208 3.23042391840641e-05)
(-3.13297018534843e-05 0.000811553664094153 1.40345711071106e-05)
(-4.32413115597385e-07 0.000974024535453805 1.268669920426e-05)
(-1.1435782379936e-06 0.000770018219180853 2.79845307714206e-05)
(-2.25681291268923e-06 0.000928989393347368 1.12285911247775e-05)
(-6.9931429539151e-07 0.000796340315122317 4.60651308038613e-05)
(-4.9836817614914e-06 0.000688283882282973 2.74573261804837e-05)
(-5.74984102179966e-06 0.000883821318435462 1.10664119266555e-05)
(-5.07727262930983e-07 0.000792141299893069 6.5742136887338e-05)
(-2.78536135178894e-06 0.000748686871521416 4.62695244989049e-05)
(-1.05040096537501e-05 0.000643382240097477 2.77076083353547e-05)
(-1.00838919828743e-05 0.000868616514809211 1.11503843467808e-05)
(-3.10116369532581e-07 0.000777647248587024 8.63242820285249e-05)
(-1.59379320026776e-06 0.000758300011345467 6.64910873599487e-05)
(-6.39800667395463e-06 0.000714999861000482 4.70093149031713e-05)
(-1.72241472219046e-05 0.000619204296029764 2.85680389789486e-05)
(-1.54787185382152e-05 0.000855230301940497 1.1545525970322e-05)
(-5.3431473480711e-08 0.000760066574499933 0.000107457532265796)
(-7.33499271887975e-07 0.00074959818833052 8.75779496308384e-05)
(-3.82323534773889e-06 0.000730964048205169 6.7889008801446e-05)
(-1.09407206415989e-05 0.000692115907195721 4.8535095453639e-05)
(-2.50735324932513e-05 0.000599838576790236 2.97982837811765e-05)
(-2.17997174209921e-05 0.000839491649627299 1.22298617241281e-05)
(1.96585909790996e-07 0.000742158665682408 0.000129138361268979)
(2.01763647736724e-08 0.000735077371184811 0.000109300184689423)
(-1.89580010177677e-06 0.000725824404529138 8.96426189251853e-05)
(-6.75185904923415e-06 0.000710669043907572 7.0176581769308e-05)
(-1.62295308082376e-05 0.000673916461737085 5.03735438786184e-05)
(-3.36549842896026e-05 0.000584902243068522 3.12787418982605e-05)
(-2.9031798132461e-05 0.000823170254503172 1.32426554413421e-05)
(4.13976089460148e-07 0.000725012796455642 0.000151486440341601)
(6.81041559810403e-07 0.000719006583279899 0.000131651433823061)
(-3.18629717635021e-07 0.000713570861084346 0.0001120757338561)
(-3.59429908814184e-06 0.000707356211097355 9.27554158633633e-05)
(-1.01157164013952e-05 0.000694002088570492 7.27335073467201e-05)
(-2.18692226537139e-05 0.000659911028541751 5.21844639632161e-05)
(-4.2547368209005e-05 0.000575018551384572 3.19265376575139e-05)
(-3.79253465243292e-05 0.000807087464794685 1.39247660838617e-05)
(4.64686428945916e-08 0.000994959590951799 1.24129737875705e-05)
(-7.91022961551116e-07 0.000785678263192326 2.73390072746171e-05)
(-9.84464035132769e-07 0.000948318861831381 1.09897142172706e-05)
(-4.35104898980686e-07 0.000812673510626998 4.48197429712902e-05)
(-4.04235006158931e-06 0.000702145672253543 2.68131849888436e-05)
(-3.93762150390459e-06 0.000902076328494212 1.08190009213355e-05)
(-3.01933987724298e-07 0.000808824519419104 6.37865280140902e-05)
(-2.09657152899813e-06 0.000764118654913281 4.49540724595588e-05)
(-9.11791458160965e-06 0.000656195940261601 2.69490298064068e-05)
(-7.93890365593934e-06 0.00088635440714433 1.08644369425687e-05)
(-1.55675786360746e-07 0.000794590185929227 8.35815079876307e-05)
(-1.08029153845311e-06 0.00077453155118054 6.43835149437118e-05)
(-5.39324684086585e-06 0.000729829701450274 4.55487282968676e-05)
(-1.55470333383956e-05 0.00063141242969139 2.76437084753269e-05)
(-1.32617171424597e-05 0.000872579566093629 1.11272667308325e-05)
(5.45970597203816e-08 0.000777291588162926 0.000103902775485484)
(-3.62813984779102e-07 0.000766301591812901 8.46571611598996e-05)
(-3.0982985127885e-06 0.000746794246574995 6.55760197633746e-05)
(-9.75094268329997e-06 0.000706382472089496 4.68057858474359e-05)
(-2.32841518624161e-05 0.000611193526418187 2.84389537294597e-05)
(-1.95863930393091e-05 0.000856235988021925 1.15378145765219e-05)
(2.69726757481418e-07 0.00075971876184743 0.00012475321170859)
(2.70508781232089e-07 0.000752086924336319 0.000105494111048857)
(-1.39673359431047e-06 0.000742043181216366 8.64126601806568e-05)
(-5.94211710672829e-06 0.000725659200866649 6.74978963016876e-05)
(-1.50358918479578e-05 0.000686656188242254 4.82661640928042e-05)
(-3.1966908471658e-05 0.000593698218165079 2.95411319131032e-05)
(-2.65614147046559e-05 0.000837205740962898 1.21527539992266e-05)
(4.6142861751538e-07 0.000742928389783645 0.000146203527436171)
(8.38889992312236e-07 0.000736254390500881 0.000126858171701641)
(-7.60229271123016e-09 0.00073000175593218 0.000107803069922046)
(-3.09272964184271e-06 0.0007227242235352 8.90325453326109e-05)
(-9.37273607604321e-06 0.000707643778606453 6.96852479437925e-05)
(-2.08676217679047e-05 0.000670343755046629 4.99248075267678e-05)
(-4.11169088575901e-05 0.000580115549983185 3.08955055045417e-05)
(-3.45869494934272e-05 0.000818174021233684 1.3140131282787e-05)
(6.19941959851703e-07 0.000727242811942665 0.000168436648659443)
(1.34983986561759e-06 0.000720518069294282 0.000149023735899634)
(1.18302381647125e-06 0.000715607332184487 0.000129957888559576)
(-7.26507926857098e-07 0.000711946099899318 0.000111275546533666)
(-5.07713416554914e-06 0.000705871734040776 9.2072845177523e-05)
(-1.30919752128386e-05 0.000692352839348839 7.20121217013152e-05)
(-2.68233691000197e-05 0.000657528083196586 5.15113671297501e-05)
(-5.04186561985395e-05 0.000571031248014291 3.13075587779115e-05)
(-4.5003594218272e-05 0.000799978841274975 1.32381263151214e-05)
(5.96702221504253e-07 0.00101688186155974 1.21939887453787e-05)
(-3.74428138823067e-07 0.000801997051750668 2.68131240525691e-05)
(5.11645397062888e-07 0.000968360991844652 1.08042856793773e-05)
(-1.20264688480508e-07 0.000829370703561403 4.37600212079631e-05)
(-2.93159644276782e-06 0.000716434928278288 2.63000744019605e-05)
(-1.75292340964904e-06 0.000920781853667836 1.06341470079559e-05)
(-5.61541994753873e-08 0.00082565649072292 6.2045656977673e-05)
(-1.27298811337993e-06 0.000779727148695535 4.38279335144997e-05)
(-7.47398902912672e-06 0.000669235372233899 2.63169388887317e-05)
(-5.29504715626257e-06 0.00090424756718584 1.06497830140171e-05)
(3.18414829451637e-08 0.000811520189011931 8.10793729847393e-05)
(-4.57378795522963e-07 0.000790779863698 6.25149857805061e-05)
(-4.18442226151535e-06 0.000744706603239112 4.4291872653526e-05)
(-1.35336337405912e-05 0.000643731017978687 2.688677811437e-05)
(-1.0506016820264e-05 0.000889857802500715 1.08559199810839e-05)
(1.90955441183616e-07 0.00079437474490409 0.000100617192628496)
(1.01169410110938e-07 0.000782927865842922 8.19978850818139e-05)
(-2.20307998283076e-06 0.000762634634081762 6.35241282831044e-05)
(-8.29537183558495e-06 0.000720793636595635 4.53598068119852e-05)
(-2.11163944522308e-05 0.000622893600160877 2.74352988805459e-05)
(-1.70655787932322e-05 0.00087307883996029 1.11536080413418e-05)
(3.65781347288929e-07 0.000777038618467648 0.000120663663836836)
(5.97020603261531e-07 0.000769026474024521 0.0001020135295996)
(-7.48088441763842e-07 0.000758413340422173 8.35326477176923e-05)
(-4.89065256070508e-06 0.000741132602374616 6.51835934135993e-05)
(-1.34868452973208e-05 0.000700473743953301 4.65248436474076e-05)
(-2.98174910838094e-05 0.000604538846956756 2.80839694444322e-05)
(-2.41799717004619e-05 0.000853722697052891 1.14888742571394e-05)
(5.26671265509388e-07 0.0007605654743208 0.000141261143795038)
(1.05821527545416e-06 0.000753448064826841 0.000122479709768107)
(4.31465128297197e-07 0.000746622838028383 0.000103979678517158)
(-2.37592176310998e-06 0.000738558118835225 8.57415413957086e-05)
(-8.31411561193585e-06 0.000722198570732571 6.69861349064926e-05)
(-1.94140526449292e-05 0.000682575694907529 4.7796699483644e-05)
(-3.91329599193537e-05 0.000588382543297106 2.90238763592904e-05)
(-3.12529621718067e-05 0.000832254744585335 1.21324531683421e-05)
(6.60541652176918e-07 0.000745234996502354 0.000162577851776221)
(1.48717885826726e-06 0.000737935345876385 0.000143642084777807)
(1.44808169411145e-06 0.000732379600344182 0.000125070055842537)
(-2.85748806872821e-07 0.000727978192661369 0.000106918701872013)
(-4.41959260630577e-06 0.000720840528117817 8.83209234535428e-05)
(-1.21885177660888e-05 0.000705548783668216 6.89465699681746e-05)
(-2.56467519950123e-05 0.000667421716042504 4.92326095273826e-05)
(-4.86730376087819e-05 0.000575493020374481 3.01603766730677e-05)
(-3.98531338802742e-05 0.000810529874697538 1.24152247814063e-05)
(7.63139379591368e-07 0.000731050346898791 0.000184852580844241)
(1.89201539221493e-06 0.000723186252632796 0.000165760019041114)
(2.35277907816892e-06 0.000717733497972735 0.000147118084245505)
(1.54044595498946e-06 0.00071454678945468 0.000128985723727362)
(-1.1884301473847e-06 0.000711077532292867 0.000110380514381425)
(-6.68357633102448e-06 0.000704926164860453 9.10938111909492e-05)
(-1.61491560581166e-05 0.000691070171079159 7.10014412305076e-05)
(-3.18334935011687e-05 0.000655251741806222 5.05244419120073e-05)
(-5.8267167629287e-05 0.000566554403658603 3.03210939244947e-05)
(-5.11726972822785e-05 0.000789382544711606 1.30305819683465e-05)
(1.2230518090014e-06 0.00104013659263476 1.20396289425811e-05)
(1.10256021445202e-07 0.000819241301197131 2.64343830141668e-05)
(2.2519625020611e-06 0.000989403086653776 1.06662072955403e-05)
(2.51529296487573e-07 0.000846651706157045 4.29004115286815e-05)
(-1.63363758508686e-06 0.000731380002875397 2.59144922849414e-05)
(8.35321059159992e-07 0.000940197758496949 1.05186580954008e-05)
(2.33971441775513e-07 0.000842810003744134 6.05309896158008e-05)
(-2.95844124742767e-07 0.000795698368701124 4.29019195859815e-05)
(-5.5416117646748e-06 0.000682693857733556 2.58226859967578e-05)
(-2.11102228478362e-06 0.00092257212666497 1.05237929137186e-05)
(2.55019248872155e-07 0.000828578220631891 7.88368386453544e-05)
(2.88259784412176e-07 0.000807179943219972 6.0896178103658e-05)
(-2.74312540909153e-06 0.000759748916536036 4.32327307658898e-05)
(-1.11391805852649e-05 0.000656248847490433 2.62771598247827e-05)
(-7.02169349254225e-06 0.000907238412368499 1.06581446524155e-05)
(3.58327527131316e-07 0.000811430252292054 9.76207783392836e-05)
(6.65218555837033e-07 0.000799552255970752 7.96102286102643e-05)
(-1.11984477499355e-06 0.00077849347150123 6.17152393840977e-05)
(-6.54028403268336e-06 0.000735240821087184 4.41343912969152e-05)
(-1.84947756354379e-05 0.000634656826741562 2.67051926927312e-05)
(-1.38226023291327e-05 0.000889630237039203 1.09312011633115e-05)
(4.88895511651942e-07 0.000794201995014728 0.000116877515369552)
(1.01044111855217e-06 0.000785862782692081 9.88225782346441e-05)
(5.74619543148512e-08 0.000774740188780852 8.09254785665062e-05)
(-3.59078408523031e-06 0.00075664003932354 6.31593892944695e-05)
(-1.15924366310519e-05 0.000714440723090571 4.50861476592697e-05)
(-2.72342048375159e-05 0.000615660633517616 2.71353736504037e-05)
(-2.17587061247864e-05 0.000869939199333307 1.11123721089834e-05)
(6.14173599870486e-07 0.000777946190932181 0.000136647778591953)
(1.35137174577125e-06 0.000770529295612692 0.000118466422377995)
(1.00860317726619e-06 0.00076329312607076 0.000100536221253112)
(-1.43484434094026e-06 0.000754640350323996 8.28550524390055e-05)
(-6.93693051391152e-06 0.000737306460098347 6.46771664697651e-05)
(-1.75389449681708e-05 0.000695939107489072 4.60536098187192e-05)
(-3.67128020477857e-05 0.000598737397615146 2.75678912897337e-05)
(-2.90806601334421e-05 0.000849096690853237 1.16637049827485e-05)
(7.19219024381568e-07 0.000762924539739077 0.000157092888586365)
(1.68577015495821e-06 0.000755248817580423 0.000138713028920232)
(1.83528732589826e-06 0.000749243922228496 0.000120681762215032)
(3.5433358097538e-07 0.000744285903119911 0.000103065717286339)
(-3.47889871941269e-06 0.000736320816651571 8.5024068770208e-05)
(-1.08968924251119e-05 0.000719692440705944 6.62416607721283e-05)
(-2.39560480438814e-05 0.000679179919729401 4.7086240769944e-05)
(-4.63588222090264e-05 0.000583351283444431 2.82537438257921e-05)
(-3.44579794395414e-05 0.000825767723054722 1.15491121688589e-05)
(7.97852405295991e-07 0.000749096558677107 0.000178420522210649)
(2.01172339745355e-06 0.00074071924585342 0.00015980328524631)
(2.582322355336e-06 0.000734725163243134 0.000141645300177502)
(1.92534762219947e-06 0.000730977230754421 0.000124029809984824)
(-6.14139522842933e-07 0.000726770438980142 0.000105991888136968)
(-5.88546579591751e-06 0.000719522679889384 8.73260595581194e-05)
(-1.51013300892544e-05 0.000703828637952103 6.79191724868937e-05)
(-3.0481601623479e-05 0.000664602928496929 4.82026103669592e-05)
(-5.60735658670997e-05 0.000570370401821499 2.89861219737376e-05)
(-4.38026533841847e-05 0.000799151228334895 1.16049756587883e-05)
(8.65591151462638e-07 0.000736348754681351 0.000200875334428476)
(2.31114380351273e-06 0.000727194154252331 0.000182025915801015)
(3.28611283927042e-06 0.000720684832723913 0.000163720926725453)
(3.34772587450632e-06 0.000716923569629661 0.000145996021931839)
(1.89826603199701e-06 0.000713986873400332 0.000127873113353684)
(-1.72504746823568e-06 0.000710486302099072 0.000109177701278883)
(-8.35406677751314e-06 0.000704139804137734 8.97824082449438e-05)
(-1.92336646031131e-05 0.000689784412727583 6.96049160661774e-05)
(-3.68195901063669e-05 0.000652683571184825 4.90966289124793e-05)
(-6.56093323958182e-05 0.000560996416453531 2.9038539857424e-05)
(-5.43501099168988e-05 0.000770812566065479 1.21294860934811e-05)
(1.93763814409762e-06 0.00106512962526617 1.19478223456007e-05)
(6.73587746916124e-07 0.000837706985615374 2.62363345664759e-05)
(4.23003749375199e-06 0.00101177432969149 1.05509373843106e-05)
(6.86899587696851e-07 0.000864768189312081 4.22583563288896e-05)
(-1.1888367767311e-07 0.000747243097702467 2.56667516318601e-05)
(3.86386076531913e-06 0.000960615208439235 1.0465076438284e-05)
(5.74869770315085e-07 0.000860486341257811 5.92743222634552e-05)
(8.53126255482427e-07 0.000812246552107433 4.21892774677628e-05)
(-3.290634449477e-06 0.000696788975285685 2.54701928180256e-05)
(1.63588589723832e-06 0.000941577695591902 1.04707124814666e-05)
(5.19080420433783e-07 0.000845925704001868 7.68899568754287e-05)
(1.17272526696485e-06 0.000823902940343285 5.95354956031611e-05)
(-1.03937852226934e-06 0.000775138456647767 4.23852185478088e-05)
(-8.33020527064017e-06 0.000669157067459416 2.58671640386866e-05)
(-2.79940507640644e-06 0.000925005489229002 1.05061903894842e-05)
(5.60094457035136e-07 0.000828589752233352 9.49423165809536e-05)
(1.34093014717164e-06 0.000816305716022643 7.75264454762536e-05)
(1.7586864890148e-07 0.000794490899468287 6.01630142719396e-05)
(-4.44271422301322e-06 0.000749827210673091 4.31165893019437e-05)
(-1.53432527342241e-05 0.000646580149609799 2.61967844366924e-05)
(-9.47076190238822e-06 0.000906216689221844 1.08039398071204e-05)
(6.41900143769138e-07 0.000811318950860717 0.00011341507277194)
(1.51973176815749e-06 0.000802679406305499 9.59417195695945e-05)
(1.03494764296617e-06 0.000791066645050246 7.85932394832622e-05)
(-2.01313404132489e-06 0.000772156368111371 6.13996253682445e-05)
(-9.29799517472065e-06 0.000728409091331739 4.3887498916738e-05)
(-2.4058050157086e-05 0.000626752260410988 2.6504995301015e-05)
(-1.83260803885618e-05 0.000885326073999162 1.0902119821409e-05)
(7.27650839332082e-07 0.000795152617825795 0.000132372218161342)
(1.7275061646963e-06 0.000787485157838895 0.000114779017303335)
(1.73384588431116e-06 0.000779884856265455 9.74025232591685e-05)
(-2.58365170775114e-07 0.000770696789731428 8.0296528102645e-05)
(-5.23646400757652e-06 0.000752445944855132 6.26755731289307e-05)
(-1.525279163098e-05 0.000709417650786475 4.46426706539268e-05)
(-3.38588409248591e-05 0.000609217695071881 2.67675698226048e-05)
(-2.77683355108117e-05 0.000864698393488387 1.14490168796032e-05)
(7.99429043030261e-07 0.00078033990911843 0.000151971056346306)
(1.95589487361509e-06 0.000772417287328823 0.000134184405783156)
(2.35529878599579e-06 0.000766096122334701 0.000116719316926192)
(1.20526133710516e-06 0.000760717996085219 9.9661482604444e-05)
(-2.24257601320205e-06 0.000752095097120063 8.21574573735054e-05)
(-9.21885021154802e-06 0.000734414770579906 6.39494047725214e-05)
(-2.18077506994464e-05 0.000692090423133697 4.53617907526169e-05)
(-4.37975903172525e-05 0.000593358436273701 2.69500807317289e-05)
(-3.30587167973242e-05 0.000844975520829314 1.17947859677604e-05)
(8.51323511443791e-07 0.000766815076083158 0.000172398180671967)
(2.19193111366244e-06 0.000758109530467837 0.000154337169153744)
(2.93101625626589e-06 0.00075174503105264 0.000136713750309737)
(2.49636748914768e-06 0.000747572382419953 0.000119622630147185)
(2.23796500748943e-07 0.000742774217501336 0.00010212961829106)
(-4.73694784109919e-06 0.000734652017434794 8.40326275059056e-05)
(-1.36015517471279e-05 0.000717565622769055 6.52138369262886e-05)
(-2.85678993727452e-05 0.000675918141459617 4.60407575461914e-05)
(-5.32627354825014e-05 0.000578099040375312 2.70122661437527e-05)
(-3.48016359061196e-05 0.000818007797274107 9.76757035715961e-06)
(8.96531530192473e-07 0.000754419999207012 0.000193864664539298)
(2.41527169644405e-06 0.000744802894456756 0.000175497786574847)
(3.48697998115838e-06 0.00073782538527684 0.000157676328616582)
(3.68170085030968e-06 0.000733608138167113 0.000140462347101675)
(2.39730396685713e-06 0.000730114856426341 0.00012288855125901)
(-1.0305836316917e-06 0.000725850762240274 0.000104776751383259)
(-7.43539612140823e-06 0.000718359244195307 8.60028938574636e-05)
(-1.80600603856555e-05 0.000702088041974428 6.64941414893878e-05)
(-3.52881987622888e-05 0.000661465077898572 4.66836316487242e-05)
(-6.29615089290035e-05 0.000564082819208996 2.72573388996493e-05)
(-5.20723329039656e-05 0.000778025909016579 8.59541195091833e-06)
(9.37120672748534e-07 0.000743013993867422 0.000216615265374295)
(2.62891520542351e-06 0.000732550001782659 0.000197943771243554)
(4.02546501256731e-06 0.000724772598637659 0.000179890824362117)
(4.77789261944469e-06 0.000719915251117507 0.000162490473740587)
(4.36214610934982e-06 0.000716446783402211 0.000144739411656205)
(2.20430971832185e-06 0.000713523117376354 0.000126480064584511)
(-2.32605089418719e-06 0.000709901052342431 0.000107612280582297)
(-1.00556551711772e-05 0.000703272987888485 8.80271066109618e-05)
(-2.23000710258325e-05 0.000688276538008217 6.767467272305e-05)
(-4.15924116093578e-05 0.000649501210081647 4.7106745253907e-05)
(-7.21471867319037e-05 0.000554316566611332 2.69876458867771e-05)
(-6.21793925105875e-05 0.000739301369225642 8.77443867963129e-06)
(2.77924935212542e-06 0.00109228487857054 1.19321561148796e-05)
(1.33582692070672e-06 0.000857724835818859 2.62127739296527e-05)
(6.493923504277e-06 0.00103584789111337 1.04478214851595e-05)
(1.19863590600567e-06 0.000883990072322754 4.18577127483332e-05)
(1.64442075638942e-06 0.000764306047100707 2.55584325635414e-05)
(7.35611933449875e-06 0.000982342423554921 1.04790079783345e-05)
(9.74651736180725e-07 0.000878911382687015 5.83104960759099e-05)
(2.19964125324637e-06 0.000829611974081501 4.17051433388355e-05)
(-6.71338851111327e-07 0.000711771278913395 2.5227873456455e-05)
(6.01751432976952e-06 0.000961537205383486 1.04788311239902e-05)
(8.30707387510555e-07 0.000863740424430349 7.5268401890786e-05)
(2.21467139449282e-06 0.000841141565317327 5.84545296717252e-05)
(9.60706554753709e-07 0.000791080766023842 4.17600217832288e-05)
(-5.06328662081031e-06 0.000682667449348949 2.56110303265923e-05)
(2.17051073531993e-06 0.000943422177122312 1.0485704665508e-05)
(8.01454939097511e-07 0.000846001446115706 9.25948618696584e-05)
(2.14530263361225e-06 0.000833342303336425 7.57420884936267e-05)
(1.71442238235205e-06 0.000810794686406581 5.8891581788316e-05)
(-1.96009932525832e-06 0.00076472704188471 4.23245010756116e-05)
(-1.16360420901659e-05 0.000658862608531226 2.58632588376016e-05)
(-4.16154305709699e-06 0.000923217273496031 1.06648380983025e-05)
(8.28908725153841e-07 0.000828513200545407 0.000110298834666362)
(2.13654495193019e-06 0.000819598021393483 9.338520638684e-05)
(2.21158063718059e-06 0.000807508434969266 7.65694051602296e-05)
(-1.20064885921188e-07 0.00078778597146429 5.99027222386023e-05)
(-6.53836799902811e-06 0.000742473364442402 4.29134846985871e-05)
(-2.01583584365555e-05 0.000637960097233119 2.60334128510291e-05)
(-1.29660545677021e-05 0.000900695682748433 1.08923454119994e-05)
(8.69777779306802e-07 0.000812291865422727 0.00012845524778535)
(2.19617264472887e-06 0.000804399836772487 0.000111430567101783)
(2.62646278009446e-06 0.000796455668279091 9.46026112710313e-05)
(1.17998948263187e-06 0.000786742145414426 7.80541000771728e-05)
(-3.16807550117007e-06 0.000767562961476384 6.09532952203346e-05)
(-1.24625063208411e-05 0.000722830735284763 4.34852381249427e-05)
(-3.0225327945349e-05 0.000619476029137915 2.61906667548427e-05)
(-2.48520188342929e-05 0.000878048085534911 1.11484334628446e-05)
(9.04551309527869e-07 0.000797563010165152 0.000147221237385168)
(2.30579732173317e-06 0.00078943812092677 0.000130015321352262)
(3.01849760164808e-06 0.000782842562873052 0.000113104567439313)
(2.27772027290017e-06 0.000777081791875811 9.66047364278927e-05)
(-6.98415916401498e-07 0.000767835877551325 7.96236939952975e-05)
(-7.14959627427019e-06 0.000749141294050702 6.19842799815615e-05)
(-1.92062543710151e-05 0.000705035286021552 4.40039238490748e-05)
(-4.09521684909037e-05 0.000603153492050748 2.63016149198597e-05)
(-3.5552123908864e-05 0.000860338962533307 1.27179308474052e-05)
(9.25967499758858e-07 0.000784239758392304 0.000166774357234304)
(2.44147559300864e-06 0.000775327389447863 0.000149306852667682)
(3.4081566913824e-06 0.00076870878477848 0.00013224439751379)
(3.2658851985027e-06 0.000764215658813502 0.000115690244627434)
(1.34152675243809e-06 0.00075893507129767 9.8737621057053e-05)
(-3.22603086091255e-06 0.000750087231681892 8.1192425677203e-05)
(-1.16632197324023e-05 0.000731884315978974 6.29495401741666e-05)
(-2.62039371424455e-05 0.000688399999942602 4.4366081432734e-05)
(-5.06750469076568e-05 0.000588215992722602 2.59429505185897e-05)
(-3.43586136388005e-05 0.000834291060045851 1.00159978455392e-05)
(9.45832767636091e-07 0.000772138285847027 0.000187302857888011)
(2.57996939781428e-06 0.000762235022960506 0.000169498229864058)
(3.80287167353405e-06 0.000754943890936812 0.000152211544111586)
(4.19269939537294e-06 0.000750383345929508 0.00013551941574895)
(3.14540688017195e-06 0.000746437168405748 0.000118481894077815)
(-9.37914369106804e-09 0.000741541354680594 0.000100923881269936)
(-6.10538991438174e-06 0.000733126485458349 8.27184449672443e-05)
(-1.63801470202968e-05 0.000715411750457209 6.37855322243229e-05)
(-3.31432202065533e-05 0.00067239022439536 4.44745854306235e-05)
(-5.94377488418854e-05 0.000572169829640097 2.48885055563352e-05)
(-4.94603329789151e-05 0.000789442979329588 1.45294936931039e-06)
(9.65375296714014e-07 0.000761073981951433 0.000209014248705845)
(2.72182208187545e-06 0.000750197605347792 0.000190838887566927)
(4.20293817321385e-06 0.000742009342002564 0.000173277191966372)
(5.06857207538486e-06 0.000736767772004257 0.000156390417205079)
(4.79466944426283e-06 0.000732851960621052 0.000139182937382237)
(2.80491102078896e-06 0.000729349936353744 0.000121488951344226)
(-1.53202697614752e-06 0.000724925150413495 0.000103206767752847)
(-9.04108016197899e-06 0.000717092536172595 8.42305753953097e-05)
(-2.10255429510686e-05 0.000700091853898121 6.45090266312675e-05)
(-3.99311780184458e-05 0.000657654475288705 4.44942708641881e-05)
(-7.01408345405402e-05 0.00055637198436918 2.42793062796153e-05)
(-6.44699620103511e-05 0.000745066733597936 6.98349074165287e-06)
(9.83123660446612e-07 0.000750915823665228 0.000232139507791834)
(2.85720752234456e-06 0.00073918873755554 0.000213594648087345)
(4.58697974834949e-06 0.000730089730890661 0.00019572917436522)