/*--------------------------------*- C++ -*----------------------------------*\
  =========                 |
  \\      /  F ield         | OpenFOAM: The Open Source CFD Toolbox
   \\    /   O peration     | Website:  https://openfoam.org
    \\  /    A nd           | Version:  12
     \\/     M anipulation  |
\*---------------------------------------------------------------------------*/
/*   Windows 32 and 64 bit porting by blueCAPE: http://www.bluecape.com.pt   *\
|  Based on Windows porting (2.0.x v4) by Symscape: http://www.symscape.com   |
\*---------------------------------------------------------------------------*/
FoamFile
{
    format      ascii;
    class       volScalarField;
    location    "400";
    object      k;
}
// * * * * * * * * * * * * * * * * * * * * * * * * * * * * * * * * * * * * * //

dimensions      [0 2 -2 0 0 0 0];

internalField   nonuniform List<scalar> 
10103
(
4.00345192870912e-08
4.05866944735669e-08
2.34080463289687e-07
3.95482249947375e-07
4.09976896706949e-08
2.38640213747384e-07
3.99910412658707e-07
6.64458022842833e-07
3.21751128805381e-06
1.11426053714352e-06
4.1148098624564e-08
2.42754655405976e-07
4.01929433710974e-07
6.76860554914007e-07
3.27244066098372e-06
1.12740888480963e-06
1.42237535539344e-06
9.12241293978301e-06
1.00803882752136e-05
2.15703002057326e-06
4.0985517808958e-08
2.45011980018751e-07
4.03001070969077e-07
6.85907310303115e-07
3.32196906174473e-06
1.13533833711816e-06
1.44442920290259e-06
9.26459469262314e-06
1.02270885471132e-05
2.18305958292689e-06
2.5272675971196e-06
1.85641423714953e-05
2.67187234336211e-05
2.01266955790101e-05
3.39064582725623e-06
4.05236808589972e-08
2.4555808364995e-07
4.02238212606349e-07
6.89141016995541e-07
3.35600692733777e-06
1.14183715605568e-06
1.45600755260571e-06
9.37985554974443e-06
1.03723891280215e-05
2.20215361412659e-06
2.5585839535941e-06
1.87903296260275e-05
2.69988991948205e-05
2.03496372105772e-05
3.4390063436071e-06
3.93333155769921e-06
3.05472621276338e-05
4.7949647061826e-05
4.85789772425134e-05
3.16593932240893e-05
4.69784358524863e-06
3.97583537857135e-08
2.44618167878221e-07
3.99376759502922e-07
6.87535360487699e-07
3.37481315808367e-06
1.14515505517494e-06
1.45472992937496e-06
9.44047968208219e-06
1.04778169672147e-05
2.21934451712138e-06
2.56845631672982e-06
1.89342223014443e-05
2.72323740719166e-05
2.05626405646509e-05
3.477857119964e-06
3.97189987850018e-06
3.08280125416957e-05
4.82797300504294e-05
4.89021244554676e-05
3.19561945376924e-05
4.77851202392798e-06
5.57527625881894e-06
4.35478163240657e-05
7.01836537075479e-05
7.81867243692452e-05
7.05937513681733e-05
4.32212233611481e-05
6.04559630684386e-06
3.86666177343852e-08
2.42218889892745e-07
3.9426023276895e-07
6.81758252714322e-07
3.38043181669738e-06
1.14435700835789e-06
1.4427691367708e-06
9.45476509425072e-06
1.0545695827072e-05
2.23179407425434e-06
2.55567093846547e-06
1.89599222222885e-05
2.73503436015584e-05
2.07098417614263e-05
3.51314137715983e-06
3.97616573720705e-06
3.09494532912298e-05
4.84667305233134e-05
4.91247255708082e-05
3.22011331706295e-05
4.84287430676873e-06
5.6183289675251e-06
4.38493888307658e-05
7.05229375931056e-05
7.85351445841156e-05
7.09804484238871e-05
4.36092674102532e-05
6.16461488281731e-06
7.36590468635255e-06
5.65869198335815e-05
9.17691002385498e-05
0.000106466725179476
0.00010642380063551
9.11272629099795e-05
5.40893882064777e-05
7.12842858134064e-06
3.72194556927455e-08
2.38233567894381e-07
3.86677713651751e-07
6.71975391497649e-07
3.37306970338014e-06
1.13865807487527e-06
1.42147035185126e-06
9.43083457021394e-06
1.05810647456516e-05
2.23748393287199e-06
2.52367692167153e-06
1.88869000225799e-05
2.73629026798035e-05
2.07910145999443e-05
3.54066639254112e-06
3.94654290634375e-06
3.08819496328391e-05
4.84556302423717e-05
4.91871912899625e-05
3.2355074977539e-05
4.90054369074508e-06
5.61443869201298e-06
4.39186051587726e-05
7.06196736174278e-05
7.8665518009703e-05
7.11795793736924e-05
4.38808226473556e-05
6.26010970021181e-06
7.41071929779662e-06
5.68830467069243e-05
9.210497838659e-05
0.000106822705870562
0.000106838873013174
9.1608103603149e-05
5.45761467915933e-05
7.27707002946981e-06
9.22144693147759e-06
6.91799446135631e-05
0.000112273755259618
0.000133270249391864
0.000139408195514563
0.000132582489370097
0.000109906815016762
6.37138832425953e-05
7.79646297575205e-06
3.53909598746006e-08
2.32438254357701e-07
3.76387312355154e-07
6.58002420634956e-07
3.35138040416224e-06
1.12730011616138e-06
1.39135559540632e-06
9.37104229842693e-06
1.05839618246121e-05
2.23458525546037e-06
2.47451763286254e-06
1.87305200852823e-05
2.72828780984436e-05
2.08098731051447e-05
3.55776777491835e-06
3.88772049479416e-06
3.06544635328694e-05
4.82589303362267e-05
4.90879282935567e-05
3.24125221700158e-05
4.94597119958454e-06
5.56570123976033e-06
4.37368431507114e-05
7.04402304710609e-05
7.85413442639816e-05
7.1165581164037e-05
4.40319362090784e-05
6.34642424846849e-06
7.39712966774174e-06
5.6890677486599e-05
9.2111548533387e-05
0.000106853864531555
0.000106940670980274
9.18099544137434e-05
5.48846673670943e-05
7.399920035041e-06
9.26677731724759e-06
6.94580026687977e-05
0.000112599362109642
0.000133626158389402
0.0001398253852983
0.000133077445389702
0.000110480396625456
6.42992230670014e-05
7.9256668979764e-06
1.10843777144845e-05
8.10829496460071e-05
0.000131623037247665
0.000158657567118646
0.000170425120238136
0.000169949049143201
0.000156875416797516
0.000126956408900318
7.10811656054343e-05
8.34578870997676e-06
3.31685965629648e-08
3.63102467169176e-07
2.24559066043477e-07
6.39483553993401e-07
3.3126323154141e-06
1.1094579966207e-06
1.35241266838043e-06
9.27375328015025e-06
1.05505616156148e-05
2.22163240910125e-06
2.40921941895638e-06
1.84967090307099e-05
2.71142567972896e-05
2.07651432243946e-05
3.56217454593494e-06
3.80249231336152e-06
3.0286098413725e-05
4.78910763988703e-05
4.8833233555225e-05
3.23737732904781e-05
4.97613745940604e-06
5.4773451125484e-06
4.33379528477972e-05
6.99976347138232e-05
7.81608722445735e-05
7.09329116398531e-05
4.40538568797086e-05
6.41490012271222e-06
7.32826926542726e-06
5.6598914584491e-05
9.17717155810957e-05
0.000106540865722131
0.000106715808468649
9.17382201038455e-05
5.50420443443537e-05
7.51676014736356e-06
9.2426827398442e-06
6.94036816738946e-05
0.000112523163827098
0.000133562858148371
0.000139819825540378
0.000133167447001572
0.000110697600249937
6.46625224637584e-05
8.02865319344649e-06
1.1129930570269e-05
8.13426196558842e-05
0.000131936624153523
0.00015900826110964
0.000170832720513419
0.000170427464061905
0.000157433829932284
0.000127606595214193
7.17809195423506e-05
8.46047828630108e-06
1.29197208405671e-05
9.2209434563995e-05
0.000149806739029462
0.000182687485304346
0.000199800178019417
0.000204758058382293
0.000198554838761842
0.000179573812090641
0.000142408191815557
7.57105719697256e-05
8.4777960847714e-06
3.05694034920708e-08
3.46479576114858e-07
2.14359665630294e-07
1.08412950372929e-06
3.25310230852791e-06
6.16076889422723e-07
1.3045554722389e-06
9.13476117855405e-06
1.04742392120013e-05
2.19716784744426e-06
2.32846603013087e-06
1.81850100222525e-05
2.68544535507199e-05
2.0651412550785e-05
3.55158189221283e-06
3.6923967047903e-06
2.97851319500429e-05
4.73579163907661e-05
4.84253906909428e-05
3.22367452172089e-05
4.98922389995269e-06
5.35260464090311e-06
4.27423341521156e-05
6.93050767869274e-05
7.75288181142461e-05
7.04826580180654e-05
4.39440220610151e-05
6.46234326802082e-06
7.20993048429004e-06
5.60415013795423e-05
9.10986403525154e-05
0.00010588340838624
0.000106161817039281
9.1390368483363e-05
5.50358435634828e-05
7.61047212748335e-06
9.1537556936843e-06
6.90128672732618e-05
0.000112038685416315
0.000133072692139985
0.000139386398798317
0.000132855440410857
0.000110584210893972
6.48487459716751e-05
8.15673156058498e-06
1.10951266186091e-05
8.12308761860354e-05
0.000131785550343145
0.000158855330659419
0.000170719408980311
0.000170389590159004
0.000157508021468023
0.000127837025001993
7.22663918347796e-05
8.55367199373953e-06
1.29659717583502e-05
9.24545499241953e-05
0.000150110867806664
0.000183031991069863
0.000200193863585325
0.000205210957142887
0.000199069960706908
0.000180167848324248
0.000143093333909485
7.6311647441128e-05
8.54003494948618e-06
1.47174344394056e-05
0.000102576882118264
0.000166847738261863
0.000205392079348153
0.00022766257364286
0.000237607500636712
0.000236906275139014
0.000225494418564443
0.000200937623399128
0.000156557242732607
7.975971330672e-05
8.58140151044562e-06
2.76504971863287e-08
3.26242895015276e-07
2.01741952431883e-07
1.05007933582618e-06
3.16839776014255e-06
5.87526664475404e-07
2.15929385254637e-06
1.03462871933653e-05
8.94845668847438e-06
1.24776140569293e-06
2.23282949736471e-06
1.77928830155692e-05
2.64965438131171e-05
2.04599696346927e-05
3.52358761391863e-06
3.5587353373053e-06
2.91546849406042e-05
4.66593296325007e-05
4.78617229139103e-05
3.19955756978186e-05
4.98259873222542e-06
5.19358156919886e-06
4.19596188201538e-05
6.83692532841467e-05
7.66472214994081e-05
6.98149449521235e-05
4.37006491593776e-05
6.48747645694263e-06
7.04538395482263e-06
5.52385296207706e-05
9.01043658906128e-05
0.000104885423945962
0.000105279510366457
9.07647325775433e-05
5.48619686969304e-05
7.67496521600754e-06
9.0062571140486e-06
6.83172442082174e-05
0.000111159155966844
0.000132157022587502
0.000138524746054256
0.000132141746609301
0.000110139856775163
6.48341214116663e-05
8.28360852218088e-06
1.09865440177806e-05
8.0752728737128e-05
0.000131171359356442
0.000158199801619965
0.000170086570524308
0.000169839565112278
0.000157109848002061
0.000127688315801543
7.25415222629824e-05
8.63375161395455e-06
1.29208874453763e-05
9.22935833436206e-05
0.00014989383829073
0.000182796794900415
0.000199976675987088
0.000205045150073964
0.000198983295636444
0.000180203233529522
0.000143302854157487
7.67646595310632e-05
8.6214528693099e-06
1.4763911251843e-05
0.000102814196905455
0.000167146549784598
0.000205732270890697
0.000228044525738849
0.000238033726057089
0.000237383746087495
0.000226032079873266
0.000201556423810746
0.000157242781653252
8.00576902309003e-05
8.62271752120705e-06
1.64721752426463e-05
0.000112263283468506
0.000182812672753298
0.00022681161042715
0.000254079108312617
0.000268722624241037
0.000272809383839313
0.000267146432038871
0.000251012916280338
0.000221487135522423
0.000171878229421519
9.505053333899e-05
2.45097720127827e-08
3.02411439703138e-07
1.86784589608192e-07
1.00574782403648e-06
3.0543145881718e-06
5.53719395081604e-07
2.10545012302581e-06
1.01555427645896e-05
8.70814005180131e-06
1.18217499382328e-06
3.47512939701929e-06
2.01788175286052e-05
2.6030906667355e-05
1.73170216623473e-05
2.12308564135574e-06
3.40285848278893e-06
2.83955274437788e-05
4.57920618788169e-05
4.71358709325757e-05
3.1641442696656e-05
4.9534528357372e-06
5.00220799196382e-06
4.09949649231135e-05
6.71920710606932e-05
7.55149973994888e-05
6.89272551032805e-05
4.33194941286098e-05
6.48646478614478e-06
6.83696135308185e-06
5.41998235002813e-05
8.87960646517016e-05
0.000103549208847686
0.000104068314548565
8.98596847864723e-05
5.45196473111435e-05
7.71330948115092e-06
8.80323327603585e-06
6.73347276106338e-05
0.000109896185602063
0.000130819629853936
0.000137236146059499
0.000131025105683622
0.000109359156119049
6.46132342734347e-05
8.37125009869657e-06
1.08106148055198e-05
7.99376703827712e-05
0.000130107532614143
0.000157045528437859
0.000168935138111607
0.000168778879034196
0.000156242111195288
0.00012715999026042
7.25617438117544e-05
8.69141988440717e-06
1.27936334134561e-05
9.17395847723148e-05
0.000149164585364433
0.000181989574917076
0.000199155609430908
0.000204267686849613
0.00019830405583981
0.00017969658896911
0.000143096861018962
7.70431115892536e-05
8.66674649185328e-06
1.4710851837343e-05
0.000102612326049189
0.000166872974067048
0.000205423984163069
0.00022773345285826
0.000237745309580928
0.000237153676187624
0.000225892545645539
0.0002015545515182
0.000157444701627784
8.04523095228819e-05
8.89923568942327e-06
1.65203733571016e-05
0.000112494345130193
0.000183109813985274
0.000227150344766038
0.000254453052799757
0.000269130792045681
0.000273252346130083
0.00026763018967537
0.000251549699403579
0.000222088751213964
0.000172449220470486
9.50576829330039e-05
9.34734650887697e-06
1.81753247250633e-05
0.000121336394593641
0.000197780062975078
0.000247002748929279
0.000279108856172659
0.000298258585435578
0.000306736727913843
0.00030582027444921
0.000295733964016958
0.000275454714205215
0.000242396581552891
0.000193351104269363
2.12709243386302e-08
2.75433667976075e-07
1.69790992944166e-07
9.49996680910998e-07
2.90764458766533e-06
5.14773599466483e-07
2.03218252566415e-06
9.88827525453164e-06
8.40619816918376e-06
1.10815329389019e-06
3.40181349408897e-06
1.97923284715836e-05
2.54447241695831e-05
1.67527766199605e-05
2.00028000782139e-06
4.89801516565223e-06
3.11621374803653e-05
4.62384673319798e-05
4.47509948379243e-05
2.75084651537249e-05
3.22649057371026e-06
4.7805013019364e-06
3.98522514936326e-05
6.57737464311891e-05
7.41289985250045e-05
6.78144454469372e-05
4.27936267489741e-05
6.45591358583446e-06
6.58724360101943e-06
5.29320005155337e-05
8.71772257218952e-05
0.000101874438426434
0.000102526235322101
8.86728914348954e-05
5.40060136194721e-05
7.72431097455888e-06
8.54698804638525e-06
6.60743922339052e-05
0.000108256586864088
0.000129063831892675
0.00013552021174926
0.00012950314306856
0.000108237417873486
6.41884793892173e-05
8.42656684558939e-06
1.05706697555595e-05
7.88007354145467e-05
0.000128604989226085
0.000155397284845995
0.000167266463685176
0.000167206752733134
0.000154899438598276
0.000126237363947147
7.23388116489361e-05
8.69994450624661e-06
1.25907536058797e-05
9.08207733041285e-05
0.000147936602262789
0.000180616429207769
0.000197733837745282
0.000202880161442674
0.000197038320302103
0.000178661261301517
0.000142474000841409
7.70973225826337e-05
8.69476365833703e-06
1.45672156239479e-05
0.000101992307991187
0.000166041657414618
0.000204480221261941
0.000226740836293008
0.00023675304900172
0.000236223912115893
0.000225083537170383
0.000200940971383699
0.000157195923291354
8.06522598405221e-05
9.01383683980751e-06
1.64597026389149e-05
0.000112262349965892
0.000182787296385717
0.000226777315211494
0.000254057907052578
0.000268738668189816
0.000272888402990643
0.000267323411190519
0.000251334619128645
0.000222009269526057
0.000172527109086834
9.5196567270161e-05
9.42496209432116e-06
1.82257217124327e-05
0.000121567674207152
0.00019807757109923
0.000247342762709036
0.00027947881397233
0.000298654321776291
0.000307154971325561
0.000306262707926457
0.000296207133898934
0.000275967904453431
0.000242948218895166
0.000193709324064446
0.000136654583913667
8.13080093351889e-05
1.98217179863556e-05
0.00012983661077778
0.000211825707163947
0.000266029009045374
0.000302798071990194
0.000326307222863554
0.000338937237993841
0.000342216494866984
0.000336873518429897
0.000322813743890365
0.000299123077411533
0.00026449457639326
1.80629016387429e-08
2.46124120172887e-07
1.51256746400346e-07
8.83033239111786e-07
2.72721361449854e-06
4.71223934288646e-07
1.93599649079749e-06
9.53171187620889e-06
8.03545116676169e-06
1.02648001824474e-06
3.29778757175814e-06
1.92804485988618e-05
2.47215097903873e-05
1.60932219423097e-05
1.86572064101567e-06
4.80979019141896e-06
3.05401500584946e-05
4.5156175433354e-05
4.35288458656609e-05
2.64939027101169e-05
3.03183019591202e-06
6.39221492573034e-06
4.21137511950689e-05
6.64692366072903e-05
7.24846639408089e-05
6.41136152384165e-05
3.85353362124252e-05
4.53095930746395e-06
6.29886139589468e-06
5.1440264837881e-05
8.52503438071111e-05
9.98606025795154e-05
0.000100650287153482
8.72004818841942e-05
5.33147841135415e-05
7.70092661670373e-06
8.24035681322685e-06
6.45435162998914e-05
0.000106244987013178
0.000126891039507731
0.00013337521274094
0.000127573087570247
0.000106770729633911
6.35570501680126e-05
8.45142557283121e-06
1.02689467938385e-05
7.73493326772241e-05
0.000126670330735885
0.000153258410296896
0.000165081928703238
0.000165121327460379
0.000153076410391063
0.000124910823723747
7.18746210081957e-05
8.66152436266478e-06
1.23157618396854e-05
8.95511678244876e-05
0.00014621986530691
0.000178682836048338
0.000195714328814287
0.000200884137905069
0.000195179224368338
0.000177080092136302
0.000141393722090777
7.69562457180363e-05
8.65201539706439e-06
1.43394195355981e-05
0.000100981639210829
0.000164667151069064
0.000202908334764765
0.000225071428001546
0.000235061142976865
0.000234591475415707
0.000223595608226341
0.000199705732162498
0.000156453948864677
8.07892641869866e-05
9.21395559769273e-06
1.63000546447394e-05
0.000111588371119379
0.00018186472284993
0.00022570955142494
0.000252908744248687
0.000267560081063539
0.00027172939888837
0.000266235117228654
0.000250374806408274
0.000221262868978826
0.000172086305045321
9.50366872012418e-05
9.33503438261588e-06
1.81577453227407e-05
0.00012131009247248
0.000197713972015793
0.000246912877863101
0.000279007987455492
0.000298168641854115
0.000306674227349526
0.000305810007979435
0.000295808565958694
0.00027565240059806
0.000242735915700666
0.000193432704068212
0.000136171863986163
8.12423915924475e-05
1.98741554701902e-05
0.000130071522060129
0.00021212709635271
0.000266372215185602
0.000303168486069495
0.000326696379392465
0.000339340045214957
0.000342630904754847
0.000337302336881066
0.000323263221270673
0.000299604318722808
0.000264997388503744
0.000220445501395077
0.000183607767389205
0.000127746651950301
2.14049130795935e-05
0.000137801837808995
0.00022499970371704
0.000283936960308611
0.000325191941571919
0.000352931521517962
0.000369555970853133
0.00037672189396378
0.000375427441518348
0.0003660381415613
0.000348373919150396
0.000321850481805854
1.49953426325947e-08
2.15543057982721e-07
1.31847108826095e-07
8.06321852834387e-07
2.51443757450402e-06
4.24033630696121e-07
1.81614973987192e-06
9.07749200842992e-06
7.59167198909072e-06
9.38414520685195e-07
3.15674652187207e-06
1.86212153748076e-05
2.38441289330707e-05
1.5333685023699e-05
1.72138030428986e-06
4.67950404880835e-06
2.97505404915619e-05
4.38707985352193e-05
4.21157023435825e-05
2.53515256684704e-05
2.82147277989212e-06
6.2872485492867e-06
4.12644471948901e-05
6.4880735650466e-05
7.05755368136753e-05
6.22100632338119e-05
3.70489373866425e-05
4.25677994592914e-06
7.64140737011626e-06
5.24441415632087e-05
8.54388150658532e-05
9.8437192719536e-05
9.75064782558232e-05
8.30174040558427e-05
4.97307624528141e-05
5.97482298725855e-06
7.88688093561782e-06
6.2747853204019e-05
0.000103864709575682
0.000124302472734463
0.000130800478151335
0.00012523231275972
0.00010495728241982
6.27074437613645e-05
8.43643026709061e-06
9.90825240771923e-06
7.55901535149025e-05
0.000124308661214975
0.000150631395019311
0.000162382023057328
0.000162519937542087
0.000150767989106998
0.000123171526993984
7.11604922089161e-05
8.57922011457733e-06
1.19713896774784e-05
8.79360818806124e-05
0.000144020803395313
0.00017619275813394
0.000193098984457416
0.000198279600094774
0.000192723352715599
0.0001749436976878
0.000139845874784254
7.65850998645517e-05
8.54523838091091e-06
1.4031160494036e-05
9.95938148176244e-05
0.000162759431637494
0.000200714391423406
0.000222728327597865
0.000232675298596094
0.000232260342415317
0.000221430016743875
0.000197842053565189
0.00015515818239681
8.05545694847256e-05
9.27174563873956e-06
1.60481529885865e-05
0.000110497961602783
0.000180357570778024
0.000223956618879198
0.000251012154799763
0.000265599564556917
0.000269777758946004
0.0002643638163103
0.000248664653039641
0.000219830778983243
0.000171008711154093
9.46121255316531e-05
9.29044848367568e-06
1.79829111264223e-05
0.000120586197037769
0.00019671073916893
0.000245733377518021
0.000277714239519666
0.000296817959000692
0.00030530913463772
0.000304474100763651
0.000294546815680348
0.000274515895176521
0.000241779052425208
0.000192530026989949
0.000135182886660955
8.06881154947413e-05
1.98009982179727e-05
0.000129790696642382
0.000211727264819753
0.000265891764938135
0.000302633027433605
0.000326127919944151
0.000338757684430343
0.00034205349903085
0.000336750546701456
0.000322758129668848
0.000299162465752931
0.000264590933287327
0.000219929893350237
0.000183033834483501
0.000127344772836072
2.14613780636061e-05
0.000138041890829621
0.000225308388549812
0.000284287612476162
0.000325567197567641
0.000353320572878793
0.000369951392571782
0.00037711953875616
0.000375827687455981
0.000366445273293714
0.00034879954256792
0.000322319784523832
0.000286527812797157
0.000246453508704206
0.000211282393264794
0.000157905196180854
2.29009342545998e-05
0.000145250386460071
0.000237327591615304
0.000300768476397759
0.000346334469366407
0.000378172697142794
0.00039867147136391
0.000409543938044084
0.000411929153709735
0.000406432663710159
0.000393223034094249
0.000372131208032614
1.21556791824649e-08
1.8471908764671e-07
1.12282379669475e-07
7.22085945180144e-07
2.27415192364808e-06
3.74500735723043e-07
1.67474546981982e-06
8.52316775324758e-06
7.07438476567613e-06
8.45648181950938e-07
2.9765357685211e-06
1.7798230199309e-05
2.27988280807665e-05
1.44726139689735e-05
1.56964812577971e-06
4.49710042660265e-06
2.87632611651111e-05
4.23612135200373e-05
4.05013184621288e-05
2.40832493560127e-05
2.59857687712179e-06
6.13052808517873e-06
4.02189295417698e-05
6.30319842590493e-05
6.83925158955146e-05
6.00606251101285e-05
3.5398876632573e-05
3.96176841037056e-06
7.53066645942284e-06
5.13868749883818e-05
8.33827538878246e-05
9.5882803860418e-05
9.48103876139196e-05
8.04805762275573e-05
4.78105557258791e-05
5.61925904210917e-06
8.38384584893467e-06
6.16517704357832e-05
0.00010279967942074
0.00012248033366404
0.00012779537057172
0.00012129879940591
0.000101119625924047
6.06939499009962e-05
7.49024033384985e-06
9.49309041884321e-06
7.35306290675063e-05
0.000121523991731475
0.000147518024989867
0.00015916757061491
0.000159401949864004
0.000147972685701979
0.000121018442575931
7.01658889897515e-05
8.44302094703297e-06
1.15605870421537e-05
8.5979380157709e-05
0.000141344667894319
0.00017314944263827
0.000189889109506191
0.000195066588338646
0.000189669312618465
0.000172247854017282
0.000137819286293422
7.59542184847937e-05
8.38825120983803e-06
1.36455689262845e-05
9.78345403107958e-05
0.000160324196909851
0.000197903206855247
0.000219714748332297
0.000229595836021603
0.00022923046624045
0.000218583331978697
0.00019534540003501
0.000153331953089965
8.00050770683943e-05
9.25065215925499e-06
1.57079078005324e-05
0.000109004007711548
0.000178276264050759
0.000221525333794708
0.000248372659693882
0.000262857322824305
0.000267035248077089
0.000261708179226234
0.000246196366729917
0.000217671238724905
0.000169304757213361
9.36506979082165e-05
9.09328764225575e-06
1.77080298164857e-05
0.000119421791828428
0.000195083931624014
0.000243815011434223
0.00027560862386648
0.000294608125091164
0.000303063695805101
0.000302256676358454
0.000292420282130648
0.000272550662676318
0.000240049761569341
0.000190938444599152
0.000133624999490888
7.98786481219059e-05
1.96125240368787e-05
0.000129020756185922
0.000210648830104645
0.000264610073625936
0.00030121170588054
0.000324620700863048
0.000337207044305093
0.000340498991061909
0.000335229851879486
0.000321307769118769
0.000297815404466541
0.000263343131436329
0.000218635346238115
0.00018169754146267
0.000126241356009297
2.13844262014858e-05
0.000137744187079187
0.000224878021435662
0.000283765717491486
0.000324976208593176
0.000352680782965935
0.000369280533844761
0.000376435036500309
0.000375147265879683
0.000365786012510508
0.00034817521521806
0.000321728385253692
0.000285935880273112
0.000245835812577771
0.000210679581571257
0.000157463644411235
2.29678196538958e-05
0.00014549916173533
0.000237642737386227
0.00030112797306705
0.000346717035479955
0.000378565717599176
0.000399066094916072
0.000409934658157961
0.000412314080884202
0.000406814629155054
0.000393613381815323
0.000372559501431782
0.000343235838294268
0.000306737811248935
0.000268156770478134
0.000229988449705429
0.000177227597278498
2.42883488119579e-05
0.000152127419972684
0.000248844152416157
0.000316570252103108
0.000366270780008634
0.000402076469566488
0.000426346778366299
0.000440808807524873
0.000446669826844511
0.00044466498273618
0.000435149461517607
0.000418187061507486
9.59923501645868e-09
1.54635954191354e-07
9.32158108756096e-08
6.33043288305568e-07
2.01321093581943e-06
3.23916918505163e-07
1.51539703244078e-06
7.87333237656726e-06
6.48939810449994e-06
7.49990605386253e-07
2.76026984388064e-06
1.68042253658599e-05
2.157766522196e-05
1.35116836001495e-05
1.41304264180601e-06
4.25714176616089e-06
2.75530719649575e-05
4.06080779649654e-05
3.86773294355745e-05
2.26923635034282e-05
2.36681117990957e-06
5.91354293428096e-06
3.89401933103911e-05
6.09004567342792e-05
6.59248497353989e-05
5.76636149659011e-05
3.35930747865777e-05
3.6505621773589e-06
7.35809281155531e-06
5.01228251214798e-05
8.10198741521082e-05
9.29801913806111e-05
9.17699436025339e-05
7.76429928389743e-05
4.56889449579741e-05
5.23699272267923e-06
8.25456449859113e-06
6.03922787849969e-05
0.000100303608950432
0.00011931784754285
0.000124359598632554
0.000117881107392728
9.80143313181577e-05
5.83913859080958e-05
7.05493545894993e-06
8.26174671969454e-06
6.891127174385e-05
0.000118461239134024
0.000144694384685976
0.000155768774760532
0.000155439079384636
0.000143920877862816
0.000118320983943107
7.11786165996945e-05
9.02742370647989e-06
1.10873437740109e-05
8.369098590805e-05
0.000138196342103615
0.000169555957167666
0.000186085845009738
0.000191244989068663
0.000186015889987855
0.000168989825835628
0.000135304874299097
7.50165085848081e-05
8.16029020793215e-06
1.31859741080202e-05
9.57081827481356e-05
0.000157365934916676
0.000194478532502389
0.000216033923836616
0.000225821711610027
0.000225507643793177
0.00021506056153035
0.000192219586450005
0.000150944738935246
7.91733060700683e-05
9.23661162800261e-06
1.52826714025644e-05
0.000107112723688521
0.00017562674244616
0.000218420658317463
0.000244994199410396
0.000259336992618309
0.000263501813799394
0.000258265521413877
0.000242957098232162
0.00021476011346263
0.00016700904134785
9.21826695048585e-05
8.79265761698399e-06
1.7337266074637e-05
0.000117829400450135
0.000192844061725808
0.000241165807710046
0.00027269573059769
0.000291543411659015
0.000299940681456271
0.000299158313065772
0.000289425244849037
0.000269742285552972
0.000237506014530227
0.000188576111206383
0.000131277585343224
7.8455159805549e-05
1.93158486258802e-05
0.000127787569986477
0.000208910732140712
0.000262539995940748
0.000298913397701934
0.0003221818949001
0.000334693916316904
0.000337971273158138
0.000332741731947598
0.000318910524584269
0.000295556324352857
0.000261233766316424
0.000216516576385028
0.000179578115016304
0.000124652809524332
2.11833533426228e-05
0.00013693123682873
0.000223734175527236
0.000282395429225188
0.000323440906374154
0.000351032340979925
0.000367561948580989
0.000374685393633183
0.000373400805457775
0.000364073450619383
0.00034652153064232
0.000320142905707953
0.000284398995676882
0.00024431750948612
0.000209231969141502
0.000156301745310667
2.28898671289721e-05
0.000145191797296148
0.000237186844332451
0.000300568712320346
0.000346076614553483
0.000377863230465107
0.000398318940299261
0.000409159058503434
0.000411525804603366
0.00040602879589627
0.000392841986063122
0.000371803787344146
0.000342477455707704
0.000305988155285414
0.000267403890138334
0.000229300765077393
0.000176797429050189
2.43625261108523e-05
0.000152407970579021
0.000249167634914866
0.000316938726368827
0.000366662343901387
0.000402476589254355
0.00042674539074558
0.000441199225287812
0.000447048782127728
0.000445034163731664
0.000435520111319892
0.000418590185660246
0.00039409970254676
0.000362138639456708
0.000324785881390221
0.000285009610094445
0.000243013360571541
0.0001902194531614
2.55881295604388e-05
0.000158389564814629
0.000259571236111596
0.000331376754117207
0.000385036474597874
0.000424676461848909
0.000452621254727388
0.00047058848029408
0.00047981035245076
0.000481088072569214
0.000474885028073961
0.000461405023463842
7.36707619826317e-09
1.26165782551514e-07
7.51934967976545e-08
5.42097059685824e-07
1.73944361853704e-06
2.73493295584029e-07
1.3428758024249e-06
7.13881532531883e-06
5.84473038447943e-06
6.53081218519508e-07
2.51288573810919e-06
1.56414111777049e-05
2.01789825925505e-05
1.24555130388221e-05
1.25395246162538e-06
3.96379207690302e-06
2.61051347248007e-05
3.85967200345498e-05
3.66380346660876e-05
2.11832615763126e-05
2.12976877198162e-06
5.6312462464455e-06
3.73903900002993e-05
5.84618448786353e-05
6.31614687955823e-05
5.50177078360188e-05
3.16414121188298e-05
3.3280545652201e-06
7.11960618450963e-06
4.86148113793481e-05
7.83287669594718e-05
8.97194326259604e-05
8.83824307890697e-05
7.45084071397812e-05
4.33790857807026e-05
4.83372730110427e-06
8.04423133768745e-06
5.89254316147772e-05
9.74681242573368e-05
0.000115742787499621
0.000120492254440666
0.000114051152761419
9.45547617057447e-05
5.58522410536922e-05
6.58665137782546e-06
8.04893508372165e-06
6.73745865164005e-05
0.000115520458901363
0.000140941460450508
0.000151623463936403
0.000151198099299052
0.000139843314300191
0.000114705889799349
6.85433318545598e-05
8.51612989554519e-06
7.876139096568e-06
7.37436755313793e-05
0.000132308533339016
0.000165176644902565
0.000181766613695064
0.00018681664308759
0.00018169186647019
0.000165415704888839
0.000134581724510723
8.10793546258111e-05
1.05563016012857e-05
1.26563461653928e-05
9.32219424716813e-05
0.000153890472164574
0.000190444486049837
0.000211688675019753
0.000221354960913583
0.000221087445088763
0.000210859064034793
0.000188452043317775
0.00014798102062964
7.80121900001377e-05
9.17185060669167e-06
1.47760365601755e-05
0.000104828857116039
0.000172413621757018
0.000214647035453106
0.000240880095525736
0.000255045286267811
0.000259172474651125
0.000254029235129431
0.000238936931970835
0.000211106125914674
0.000164038153715005
9.02169714734229e-05
8.43857865119795e-06