/*--------------------------------*- C++ -*----------------------------------*\
  =========                 |
  \\      /  F ield         | OpenFOAM: The Open Source CFD Toolbox
   \\    /   O peration     | Website:  https://openfoam.org
    \\  /    A nd           | Version:  12
     \\/     M anipulation  |
\*---------------------------------------------------------------------------*/
/*   Windows 32 and 64 bit porting by blueCAPE: http://www.bluecape.com.pt   *\
|  Based on Windows porting (2.0.x v4) by Symscape: http://www.symscape.com   |
\*---------------------------------------------------------------------------*/
FoamFile
{
    format      ascii;
    class       volScalarField;
    location    "400";
    object      nut;
}
// * * * * * * * * * * * * * * * * * * * * * * * * * * * * * * * * * * * * * //

dimensions      [0 2 -1 0 0 0 0];

internalField   nonuniform List<scalar> 
10103
(
1.07120092112866e-08
1.08597480222345e-08
5.87133924594874e-08
1.29755205786953e-07
1.09697488490745e-08
5.98567394480656e-08
1.31208113227923e-07
1.58064555411024e-07
2.31515946383058e-06
3.67943437821381e-07
1.10100026362503e-08
6.08895890201394e-08
1.31870414863003e-07
1.61013165201244e-07
2.36115491154221e-06
3.72285121903167e-07
3.27939623983232e-07
7.20735979985886e-06
1.20409974441839e-05
7.20827153751314e-07
1.09665496261749e-08
6.14555403263521e-08
1.32221886963077e-07
1.63168883367762e-07
2.41588044034387e-06
3.74903129191098e-07
3.33021945156807e-07
7.35288387621479e-06
1.22407542055844e-05
7.29524913886452e-07
5.73560477361724e-07
1.59641741226699e-05
4.40045118233805e-05
2.94146219547183e-05
1.13973426375723e-06
1.0843082279233e-08
6.15927937783926e-08
1.31972173551009e-07
1.63936803597153e-07
2.45954656870806e-06
3.77048132189898e-07
3.35695499857271e-07
7.51223920386571e-06
1.25054271123788e-05
7.35903722052791e-07
5.80666198274988e-07
1.62342516402805e-05
4.45859904625279e-05
2.97149017106712e-05
1.15598742394837e-06
8.86869052074404e-07
2.85881555171405e-05
9.37342803027442e-05
0.000117699393049925
4.88165728439773e-05
1.57972191798921e-06
1.06384588018744e-08
6.1357570929627e-08
1.3103213505188e-07
1.6355513453556e-07
2.49181755347454e-06
3.78143624218441e-07
3.35399925455902e-07
7.62052986049872e-06
1.27194285581793e-05
7.41643776557613e-07
5.82907870805022e-07
1.64817277279268e-05
4.53982229128481e-05
3.01079249968962e-05
1.16903964825764e-06
8.95563221724527e-07
2.8972762146566e-05
9.44784715295328e-05
0.000118150259216759
4.92053962417347e-05
1.60683976129153e-06
1.25577307250211e-06
4.32607974673796e-05
0.000151711771658752
0.000236765682873439
0.000195495856043165
6.63060251858221e-05
2.0341926793751e-06
1.03465621220068e-08
6.07566382938557e-08
1.29352660986528e-07
1.6218158915772e-07
2.51660728388151e-06
3.77874414271885e-07
3.32642133731095e-07
7.68897812102812e-06
1.28902346198128e-05
7.45794386971843e-07
5.80007224493779e-07
1.6596842494381e-05
4.59718579178942e-05
3.04149889030834e-05
1.180883795198e-06
8.96524984262928e-07
2.92485101985246e-05
9.54583926423345e-05
0.00011914221184118
4.95901299986504e-05
1.62846216261635e-06
1.26546770587933e-06
4.37147970061548e-05
0.000152465688622624
0.000236917347383645
0.000196148714336412
6.68470022928141e-05
2.07421954968558e-06
1.66156805273201e-06
5.81753524904462e-05
0.000207669392617124
0.000355179202444661
0.00038126511022526
0.000256851595638495
8.1050702662079e-05
2.40653001301583e-06
9.95963880529249e-09
5.97582119192835e-08
1.26863695218739e-07
1.59855701163099e-07
2.53561755594071e-06
3.7598634440984e-07
3.27731751183468e-07
7.73297691820477e-06
1.30357044045385e-05
7.47678117183691e-07
5.72745818417281e-07
1.66151742173102e-05
4.63656348220553e-05
3.06418504657893e-05
1.19010279218418e-06
8.89848022467191e-07
2.92871002113393e-05
9.59444698356778e-05
0.000119816757396507
4.98753708391784e-05
1.64780840066671e-06
1.26458916022837e-06
4.39576084873505e-05
0.000153266511453929
0.000237862025892433
0.000196836248127172
6.72274300910432e-05
2.10630123509033e-06
1.67167565790056e-06
5.86375547301186e-05
0.000208393589913363
0.000355300511001449
0.000381874486150615
0.000258141534404325
8.17693797679398e-05
2.45667210061396e-06
2.08414534280172e-06
7.22871655220568e-05
0.000257356420682174
0.000459571211835629
0.000560686993822445
0.000495961907398395
0.000302811353958776
9.27611499739991e-05
2.63996260462533e-06
9.47075552918924e-09
5.8306178963859e-08
1.23485875164739e-07
1.56533502983198e-07
2.54854315005131e-06
3.72226510255253e-07
3.20789829190395e-07
7.75907515099616e-06
1.31622660866975e-05
7.46680406365526e-07
5.6158881636205e-07
1.65680057830202e-05
4.66564148951423e-05
3.08062465653197e-05
1.19579049606751e-06
8.76584368408929e-07
2.91535842008936e-05
9.60439437930759e-05
0.000120179858096825
5.00516784856865e-05
1.66299105974121e-06
1.25361646168422e-06
4.38695304763381e-05
0.000153345924838912
0.000238240717312846
0.000197203291494796
6.74876488006612e-05
2.13523188595299e-06
1.66860851156607e-06
5.88134288699171e-05
0.000208908548332703
0.000355912277310508
0.000382501965703835
0.000258770711354573
8.21997966730016e-05
2.49804326529199e-06
2.09439059203138e-06
7.27157530075658e-05
0.000258008982108343
0.000459863926240475
0.000561377243866754
0.000497595039430869
0.00030470442202995
9.36680716840185e-05
2.68364679345615e-06
2.50875955927187e-06
8.5071166038642e-05
0.000300312141317564
0.000548495353123083
0.000717986937717049
0.000732362455201048
0.000583479721514009
0.000337064603579437
9.89354628305149e-05
2.79710002329825e-06
8.8765534244717e-09
1.1912536298674e-07
5.63318696806324e-08
1.52130389949262e-07
2.5534656520831e-06
3.66322414077494e-07
3.11812536054081e-07
7.76773788997465e-06
1.32676536905873e-05
7.42308820838033e-07
5.46770280884496e-07
1.64682964907396e-05
4.68791694551199e-05
3.09125227717294e-05
1.19717184835883e-06
8.57367350861841e-07
2.88902431516608e-05
9.58769386924011e-05
0.000120309794041348
5.01251645820981e-05
1.67296534411837e-06
1.2337133632866e-06
4.35375210431157e-05
0.000152833425828743
0.000238014084080383
0.000197200134050371
6.76083265268447e-05
2.15804640202667e-06
1.65307836319182e-06
5.85956026653673e-05
0.000208544939892648
0.00035568701372367
0.000382524389021454
0.000258982445317357
8.24833151787723e-05
2.53725694288756e-06
2.08894458252034e-06
7.28076499718925e-05
0.000258249261372848
0.000460131970556629
0.000561780203559703
0.000498299038918253
0.000305512357214755
9.42153239365777e-05
2.71834415408661e-06
2.51906764671456e-06
8.54584605156441e-05
0.000300873287058245
0.00054892464742406
0.000718858705625126
0.00073408499847738
0.000585992080190595
0.000339473947216091
0.000100257707106751
2.8354455422514e-06
2.92653058183136e-06
9.64363031488326e-05
0.000337159452708271
0.000624164105019879
0.000852287225273274
0.000944739167878876
0.000870041596551369
0.000651515435643357
0.000360800549713858
9.55324631058974e-05
2.64077274618019e-06
8.18159793279932e-09
1.13669606971592e-07
5.37757498099317e-08
3.57944142085374e-07
2.54691223983275e-06
1.46565086691904e-07
3.00780257886211e-07
7.75554134710526e-06
1.33433960415147e-05
7.34076539331225e-07
5.28443922822823e-07
1.63178197007345e-05
4.70410372134182e-05
3.09550288026943e-05
1.19346376991405e-06
8.32543310592795e-07
2.85147169609026e-05
9.54983888747298e-05
0.00012024979672483
5.00964934626738e-05
1.67708749554441e-06
1.20561648664166e-06
4.30098007281735e-05
0.000151856773562054
0.000237279670949405
0.000196850428928794
6.75866470107994e-05
2.17359953981175e-06
1.62638442653504e-06
5.80777761647668e-05
0.00020743213125203
0.000354569619794889
0.0003818418381651
0.000258759075276171
8.25943122715175e-05
2.56842750916967e-06
2.06884657583732e-06
7.24751520729817e-05
0.00025752397239402
0.000459311386316626
0.000561223833903662
0.000498202582839755
0.000305790014574296
9.45864642559729e-05
2.76131970256924e-06
2.51119268538487e-06
8.54668703027851e-05
0.000300874377251774
0.000548875658258256
0.00071898066915452
0.000734646144289819
0.00058701236536366
0.000340570142374134
0.000101360009433274
2.86643158098199e-06
2.93700206994382e-06
9.67894727483369e-05
0.000337647797967124
0.000624649163827103
0.000853275584701566
0.000946503452471375
0.000872636054275498
0.000654695945950508
0.000363633485645311
9.64582714918272e-05
2.66006691912629e-06
3.33503413490841e-06
0.000106522221231052
0.000368834674087863
0.000688916791700071
0.000966999162938044
0.00112915603982062
0.00113493125947907
0.000981790800588499
0.000705262502633153
0.000373129945930889
8.99764252058986e-05
1.75934933959616e-06
7.40115607652656e-09
1.07028323402897e-07
5.06143347587595e-08
3.46685499886111e-07
2.52406337432654e-06
1.39776097059268e-07
7.21354381335852e-07
1.33753082703559e-05
7.71654007441683e-06
2.87687852486377e-07
5.0673998558705e-07
1.61140690320843e-05
4.7131740761072e-05
3.0920496376074e-05
1.18386111834516e-06
8.02405293163786e-07
2.80334344785711e-05
9.49240229041112e-05
0.000120011048883064
4.99583484754126e-05
1.67445112280109e-06
1.16979751363705e-06
4.23062936130797e-05
0.000150477963659959
0.000236096774067271
0.000196176075485656
6.74226366298504e-05
2.1813859116227e-06
1.58926483788282e-06
5.73094638567246e-05
0.000205689176452479
0.000352648557068308
0.000380474447133116
0.000258095754726444
8.25271674227763e-05
2.58935563239186e-06
2.03551411071786e-06
7.18082596492016e-05
0.000255947956984733
0.00045736238696546
0.000559597572217432
0.000497285499769147
0.000305561270221327
9.47342944352385e-05
2.80347494756018e-06
2.48661782846026e-06
8.50378076357812e-05
0.00029987220362006
0.000547546534805637
0.000717785660798575
0.000733987901374101
0.000587032813020047
0.000341059850351685
0.000102109581645047
2.89269624117886e-06
2.9267960426264e-06
9.67328467736669e-05
0.000337455971518164
0.000624319798548651
0.000853073115672303
0.000946763578984301
0.000873499167627241
0.000656030987506908
0.000365066585600799
9.75250597386328e-05
2.68517133739061e-06
3.34556337750615e-06
0.000106850508103608
0.000369280086906452
0.000689412866031425
0.00096801000795258
0.00113088171837389
0.00113748118549202
0.000985138653021266
0.000709095208739832
0.000376104089231359
9.00927382985491e-05
1.7677632091994e-06
3.73326265993665e-06
0.000115543888271928
0.000396347722330424
0.00074475001844913
0.00106559355252178
0.00128802494950317
0.00136927934817109
0.00129470405376885
0.00107603668561077
0.000751570907182264
0.000390033442610579
0.000107852318770186
6.56143517599742e-09
9.9207885852474e-08
4.68655130664707e-08
3.32032826259107e-07
2.4796852481351e-06
1.31739171436595e-07
7.0329562148975e-07
1.33434810263133e-05
7.64198804658825e-06
2.72568667244036e-07
1.16735429813561e-06
3.07874523653227e-05
4.71293215173364e-05
1.5853012583183e-05
4.81834502342849e-07
7.67260111579208e-07
2.74478753647638e-05
9.41512190983275e-05
0.000119583007041698
4.96979384433926e-05
1.6641222299159e-06
1.12669056450738e-06
4.14363881609869e-05
0.000148719309959686
0.000234486757345319
0.000195184243940496
6.71121350509539e-05
2.18006878185776e-06
1.54224864809224e-06
5.63104182285517e-05
0.000203374915234692
0.000349982789903479
0.000378445554859084
0.000256997542754085
8.22833908637853e-05
2.60092616333237e-06
1.98962425606879e-06
7.08501979657953e-05
0.000253625968393701
0.000454361313739951
0.000556917050365953
0.000495537853218482
0.00030481009775329
9.46617287916876e-05
2.83168024085834e-06
2.44680405397257e-06
8.42552587391996e-05
0.000297963458978245
0.000544921135779888
0.000715185504573542
0.000732074619370814
0.000586117510503336
0.000340979943065528
0.000102395896958649
2.91083937320964e-06
2.89797280468325e-06
9.62260674105805e-05
0.000336244807714486
0.000622578165467658
0.000851250639955589
0.000945382844242485
0.000872875396574882
0.00065619203182148
0.000365856097815466
9.85628598789088e-05
2.69863726567795e-06
3.33354495579656e-06
0.000106738966074184
0.000368948652735384
0.000688849486931832
0.000967481089471782
0.00113071997615309
0.00113801067326145
0.00098642041116041
0.000710930447966596
0.000378059021562722
9.10433519165257e-05
1.82429772496862e-06
3.74419102219769e-06
0.000115844641000873
0.000396772083638201
0.000745247983557325
0.00106656533535728
0.0012896535833953
0.0013716546299997
0.00129786284528303
0.00107989958700911
0.000755644543310406
0.000392250927335611
0.000107548035688481
2.93591955022026e-06
4.11950415587905e-06
0.000123697205598557
0.000420569365216475
0.00079338124658189
0.00115094744760332
0.00142523258801823
0.00157362137343075
0.00157644641357514
0.00143354920739816
0.00116368766178228
0.000809146910561761
0.000454018913211454
5.69548766958517e-09
9.03551415537128e-08
4.26063066080032e-08
3.13609969806672e-07
2.40860641250421e-06
1.224778872594e-07
6.78754037595183e-07
1.32220354247029e-05
7.5199303396679e-06
2.55505034355056e-07
1.14250233473091e-06
3.05254139246676e-05
4.69957209181889e-05
1.55274369320028e-05
4.53964706391009e-07
1.64489583169997e-06
4.92949587016917e-05
0.000118936241858373
9.31667903850157e-05
2.67589390593781e-05
7.2749462889704e-07
1.07675613256361e-06
4.04067777945814e-05
0.000146589552060174
0.000232448809444666
0.000193868750596184
6.66477696012292e-05
2.16854129507616e-06
1.48591578863733e-06
5.50926142060219e-05
0.000200513952944138
0.000346590334662714
0.000375763740281211
0.000255467504087122
8.18591913555189e-05
2.60264625449479e-06
1.93170838564706e-06
6.96183676014149e-05
0.000250605318568683
0.000450359298165289
0.000553200360928514
0.000492956596352652
0.000303528871605367
9.43799060343967e-05
2.84801269664784e-06
2.39249086797119e-06
8.31540809644638e-05
0.000295231685715471
0.000541066300184149
0.000711193778337309
0.000728892221542456
0.000584240768874425
0.000340293463760189
0.000102413835731969
2.91150982762533e-06
2.85202302784754e-06
9.5350495283105e-05
0.000334096777422968
0.00061942386662736
0.000847756281681727
0.000942317495527665
0.000870828830959872
0.000655357676344848
0.000366019004320082
9.94142796134536e-05
2.70594710694256e-06
3.30099916502681e-06
0.00010617308980006
0.000367580350987988
0.00068678424870654
0.000965100855061577
0.00112853877271407
0.00113657479830308
0.000986005168295252
0.000711450886004616
0.000379600526017715
9.1860246512005e-05
1.84734434312605e-06
3.73044372298424e-06
0.000115702580778091
0.000396332712759922
0.000744496830749952
0.00106573000317375
0.00128906899431113
0.00137164556743188
0.00129863523893266
0.00108144998598862
0.000757695979243507
0.000394004521276076
0.000107860018275744
2.9601743623321e-06
4.13093668156282e-06
0.000123987683612856
0.000420973708404334
0.000793881782399585
0.00115186147911028
0.00142671535585673
0.0015757600127985
0.00157929824745576
0.00143708290805874
0.00116771676202543
0.000812664334133575
0.000454342822608101
0.000251262304345702
9.58461688664801e-05
4.49275216938978e-06
0.000131094379727367
0.000442185228817002
0.000836231674815048
0.00122539732574355
0.00154423682913052
0.00175111424648679
0.00182455239418029
0.0017587575539345
0.00156237598417473
0.00126147571157235
0.000914426210195343
4.83771567445213e-09
8.07365951087186e-08
3.79602003277529e-08
2.91482680759216e-07
2.30668135462144e-06
1.12121286050803e-07
6.46562569963365e-07
1.29819468357667e-05
7.33665944135785e-06
2.36676151559215e-07
1.10737461322064e-06
3.00914651377158e-05
4.66732612017564e-05
1.51240015125209e-05
4.2342751355792e-07
1.61470405370119e-06
4.87164722332792e-05
0.000118014173576888
9.19418599474756e-05
2.59653400791577e-05
6.83602947922381e-07
2.14575909150503e-06
6.6017046642748e-05
0.00019220754354532
0.000229964799835081
0.000144089764131319
3.92219024322865e-05
1.02055189531631e-06
1.42086722591791e-06
5.36639135313945e-05
0.000197122372481214
0.000342477916826055
0.000372425177076609
0.000253505255854499
8.12485970817668e-05
2.59222291224199e-06
1.86240283072242e-06
6.81254666776884e-05
0.00024691253356145
0.000445374909260307
0.000548445743270731
0.000489536519869117
0.000301709337898553
9.38848411687486e-05
2.85294127871662e-06
2.32419862253979e-06
8.17465698449439e-05
0.000291713463226417
0.00053601700641663
0.000705827123173406
0.00072442926702966
0.000581377460455753
0.000338985030234369
0.000102190873226328
2.89509180400072e-06
2.78972544148271e-06
9.41400606530704e-05
0.000331075148625862
0.000614911094103889
0.000842608710188278
0.000937564661014205
0.000867309634522775
0.000653434734354249
0.000365445719582016
0.000100126956639703
2.69006991773405e-06
3.24938626701109e-06
0.000105230135624979
0.00036525337411098
0.000683225840292326
0.000960843334896271
0.0011243151393943
0.00113313146386344
0.000983842254592371
0.000710642283171989
0.000380440414718016
9.28409858192059e-05
1.88710392657742e-06
3.69426778972978e-06
0.000115104217247381
0.000394844318145644
0.000742172059155192
0.00106286786836772
0.00128616985792052
0.00136925181258329
0.00129718102571319
0.00108114463888192
0.000758556888288524
0.000395210237331871
0.000107860988323461
2.93146014915879e-06
4.11553399458786e-06
0.000123821223106408
0.000420466481964314
0.000792981199222723
0.00115075591619434
0.00142570658062433
0.00157516224558739
0.00157937072357689
0.00143794137315787
0.0011692493966067
0.00081427374907296
0.000454264579529073
0.000249909500601193
9.60608409537819e-05
4.50464879882608e-06
0.00013138017816782
0.000442588490224085
0.000836730509531688
0.00122625669326836
0.00154556867324588
0.00175299812892795
0.00182705562218801
0.0017618778038107
0.00156598858679717
0.00126507971065564
0.000916371645816836
0.000656051726346548
0.000573696892294862
0.000329462935202653
4.85163203416237e-06
0.000137838434770591
0.000461598380705963
0.000874261807043626
0.00129078137731157
0.00164796570186116
0.00190537596725414
0.00204117341881586
0.00204686946784536
0.0019256349023884
0.00169442372602938
0.00139306939537168
4.01725654591176e-09
7.06987958639931e-08
3.30930151839349e-08
2.66129446868689e-07
2.17143063119392e-06
1.00896275386825e-07
6.0646258634821e-07
1.25970996687082e-05
7.0795486929165e-06
2.16371233232805e-07
1.05986285463037e-06
2.94328433991819e-05
4.60898619362588e-05
1.46284780216857e-05
3.90668646185766e-07
1.57055586799133e-06
4.79099617495751e-05
0.000116723948319856
9.04241108452689e-05
2.50608708704598e-05
6.36172089711597e-07
2.10930631813198e-06
6.51936675186389e-05
0.00019014971677189
0.000226990639648457
0.000141208922289009
3.78858207359104e-05
9.58794062565629e-07
2.56943431389822e-06
8.04571007112406e-05
0.000251105777719227
0.000368411883151109
0.00033763815411775
0.000193207891935553
5.20320989177501e-05
1.3477742870647e-06
1.78251786920902e-06
6.63782390085049e-05
0.000242560263040251
0.000439415389803377
0.000542648844579168
0.000485271801224609
0.000299353509670966
9.31679630443509e-05
2.84343633458953e-06
2.24255682102514e-06
8.00428827705556e-05
0.000287429862008848
0.000529789535423637
0.000699084349879123
0.000718663811895666
0.000577497820529047
0.000337020394347336
0.000101720868299153
2.86236911396632e-06
2.71171375702033e-06
9.26025390591549e-05
0.000327203987529004
0.000609064419988947
0.000835815402617419
0.000931113267317647
0.000862287218500734
0.000650378808631675
0.000364168987276862
0.000100735139542246
2.65220555125792e-06
3.17952424672652e-06
0.000103940705654615
0.000362023703104868
0.000678215437382275
0.000954721601826768
0.00111806409168016
0.00112770421517078
0.000979969335074951
0.000708514774934669
0.000380096702955285
9.33537670770728e-05
1.89702370861834e-06
3.63717655461405e-06
0.000114117829217195
0.000392382538846461
0.000738293962652513
0.00105797310920465
0.00128094144885855
0.00136446116446662
0.00129349380856978
0.00107899120554723
0.000758099672391796
0.000394980295993492
0.000107678063467221
2.91589164574228e-06
4.07591837099095e-06
0.000123190678569989
0.000418898964651312
0.000790447802186106
0.00114748245257305
0.00142213842722916
0.00157181195119413
0.00157672021511572
0.00143633273235675
0.00116881502423707
0.000814652093019287
0.00045328875759183
0.000247519596302536
9.5149595232861e-05
4.48807258548159e-06
0.000131187184134364
0.000442025165286751
0.000835712844694951
0.00122492793018476
0.00154417956774226
0.0017518339191364
0.00182638628438859
0.00176188219084584
0.00156666866728495
0.0012660647353587
0.000916590310940234
0.000654083171663259
0.000571083261412313
0.00032762707222694
4.86444245878275e-06
0.000138119231635546
0.000462012074309493
0.000874784365561775
0.00129161150988715
0.00164918046046151
0.00190702974566588
0.00204333405250953
0.00204956582820289
0.0019287845521927
0.0016977129822839
0.0013955656359915
0.00111276246619514
0.000936133238731576
0.000850803361351475
0.000572383593096586
5.1907133943443e-06
0.000143993771274469
0.000479017490899572
0.000908192181423505
0.00134857535527723
0.00173881016484089
0.00203972197248184
0.00222979890952607
0.00229929172982241
0.00224806336915783
0.00208702346031836
0.00184372261360561
3.25756813118619e-09
6.05768903925821e-08
2.81839162665518e-08
2.38277339924707e-07
2.00363429091681e-06
8.91086041923385e-08
5.59137722168439e-07
1.20486184085208e-05
6.73916994009098e-06
1.94976962249716e-07
9.99209082816296e-07
2.85030949560264e-05
4.51710152506311e-05
1.40288315834376e-05
3.56227878688652e-07
1.5091213349725e-06
4.68053884229227e-05
0.000114940673276956
8.8546380161547e-05
2.40405894725949e-05
5.85912607346442e-07
2.05601976541976e-06
6.41229782116478e-05
0.000187596861189267
0.000223444684343974
0.000137918986686721
3.64021141361134e-05
8.9234487935796e-07
2.52991181338845e-06
7.9478458663097e-05
0.000248242045722497
0.000363678780269386
0.000332044937340718
0.000188771247492949
5.02027675024531e-05
1.26756771700761e-06
2.82090799146257e-06
9.22614369259247e-05
0.000296484503213397
0.000480156098494301
0.00053579169144897
0.000432475241410674
0.00023755872829553
6.43827740247676e-05
1.6928744866133e-06
2.14859744808481e-06
7.80527498083514e-05
0.000282388797574605
0.000522383420933636
0.000690954358392961
0.000711581846772105
0.000572592347023999
0.000334405506166482
0.000100953624047144
2.81026704306148e-06
2.61865929508139e-06
9.07428247706984e-05
0.000322495961106351
0.000601890244884272
0.000827368654256905
0.000922941705925561
0.000855733004951177
0.000646155351150264
0.000362170383214916
0.000101255452666786
2.5972460000084e-06
3.0921379484374e-06
0.000102310670533962
0.000357904384613748
0.000671765920047494
0.000946738998622384
0.00110976482144598
0.00112026728520398
0.00097434901575694
0.00070508411922744
0.000378948520881672
9.36482407306141e-05
1.88760267672518e-06
3.56005562806025e-06
0.000112770133497076
0.000388997022406373
0.000732898130713052
0.0010510589463709
0.00127336342998315
0.00135725924823632
0.00128754366343416
0.00107491310640414
0.000755880963127798
0.000393548111261445
0.000106827852684644
2.85167097438967e-06
4.01360674930464e-06
0.000122162851542128
0.000416339523031491
0.000786311382483731
0.00114205788255374
0.00141600852447813
0.00156570047543448
0.00157133454150591
0.00143224339642557
0.00116635992517479
0.000813442485201934
0.000451124937954775
0.000244327792295098
9.43429628721432e-05
4.44536542108708e-06
0.000130525148670687
0.000440376184813634
0.000833007136068833
0.00122131624751528
0.00154003317814058
0.00174760614536961
0.001822556531176
0.00175884245457716
0.0015646441584295
0.00126493762978023
0.000915386359026697
0.000650578736478108
0.00056683853269872
0.000325825162149329
4.84700667051647e-06
0.000137915589929114
0.000461404322452027
0.000873701697125036
0.00129012869141106
0.00164748671714206
0.00190536622565254
0.0020419636968725
0.00204869910011301
0.00192849649319997
0.00169781582067845
0.00139536628084051
0.00111124086254136
0.000933758048066701
0.000847810752949163
0.000570644602687857
5.20588577804375e-06
0.000144280266245748
0.000479427094231459
0.000908736462646044
0.00134938988172405
0.0017399372845993
0.00204119301151091
0.00223166995011692
0.00230160036422586
0.00225077169974559
0.00208993069319469
0.00184627703141353
0.00157690035814649
0.00135124656275157
0.00119057971312832
0.00102530678825066
0.000713832312810268
5.50517971989983e-06
0.000149420214662477
0.000494693623566884
0.000938671910608627
0.00140002886020264
0.00181890181926113
0.00215727546016798
0.00239425504370625
0.00251963801719349
0.0025312280961806
0.00243558733387769
0.00225145845407497
2.57269771658977e-09
5.06914398810113e-08
2.33958504658073e-08
2.08814788669069e-07
1.80743395954871e-06
7.70612880718256e-08
5.05774427942917e-07
1.13297391485716e-05
6.31234323382195e-06
1.72904667692374e-07
9.26392818157315e-07
2.72696315939745e-05
4.38501137171424e-05
1.33160455736306e-05
3.20672185524234e-07
1.42846991101888e-06
4.53371732047653e-05
0.000112529995099331
8.62385788638984e-05
2.28991944972114e-05
5.3364695697018e-07
1.98320603161316e-06
6.27213477073358e-05
0.000184400556026225
0.0002192136055654
0.000134188191065656
3.47753191292799e-05
8.22245892851038e-07
2.47100456169109e-06
7.82746610996568e-05
0.000244829968796521
0.000358134028357898
0.000325648084546553
0.000183809128078258
4.81845418886776e-05
1.18133556873143e-06
2.77355059673739e-06
9.11799722641581e-05
0.000293122670128047
0.000474162490463687
0.000527835656576759
0.000424538193542621
0.000231912619057373
6.21507539177617e-05
1.59449379212977e-06
2.74266517875183e-06
9.99297962863414e-05
0.000331189410094477
0.000566675574225405
0.000703165197134249
0.000681411448701653
0.00051379338631646
0.000276595890272604
7.57841134825744e-05
2.04320394212317e-06
2.51146602753764e-06
8.85725386899414e-05
0.000316960037312065
0.000593384894413641
0.000817245999677013
0.000913015840254394
0.000847612667935782
0.000640727880796921
0.000359389065138921
0.000101600888823303
2.51735448358315e-06
2.98799669126386e-06
0.000100342365166172
0.000352896988140007
0.000663871667240078
0.00093688393126397
0.00109937357922129
0.00111081760003902
0.000966984938454434
0.000700396247515934
0.00037703104414668
9.39220445084684e-05
1.87992709048006e-06
3.46366901366921e-06
0.000111067223731324
0.000384695398364867
0.000725987545970515
0.00104211993178488
0.00126342130162236
0.00134760057561552
0.00127925842913249
0.00106875395380396
0.000751787461886019
0.000391333788673808
0.000105425545117462
2.75033888610542e-06
3.92956663450664e-06
0.000120762756727207
0.000412830165292415
0.000780604387326043
0.00113449151402214
0.00140731112349848
0.00155680505671213
0.00156316948472742
0.00142558436443717
0.00116165643982893
0.000810211295027155
0.000447280999679706
0.000239410866981929
9.2576608259931e-05
4.37811136698647e-06
0.000129459755597784
0.000437720252428406
0.000828653226126617
0.00121545093226373
0.00153313245879926
0.00174031036138952
0.00181554846415906
0.00175272414421191
0.00155985020820859
0.00126151113843764
0.000912384179211354
0.000645340192020758
0.000560495063907576
0.000322330633424268
4.80144443510198e-06
0.000137228590000846
0.000459697664635566
0.000870891957568183
0.00128627401660486
0.0016428655167814
0.00190037274372161
0.00203705724257743
0.00204427924708405
0.00192483617478087
0.00169494835866799
0.00139281175417253
0.0011076835692398
0.000929230229377671
0.000844175006848015
0.000568532192558721
5.18822296346379e-06
0.000144083293301241
0.00047879774790396
0.00090759265050169
0.00134778220856405
0.00173799949433121
0.00203912448873873
0.00222970111485013
0.00229994047309078
0.00224953999590276
0.00208906303906731
0.00184537396505947
0.00157527953518933
0.00134879647825877
0.00118763578350794
0.00102428227059995
0.000714825533580398
5.52200456260784e-06
0.000149787212908887
0.000495117489900664
0.00093923228472544
0.001400838103025
0.00181997144560483
0.00215861397512373
0.00239589880225694
0.00252162077803639
0.0025335390583181
0.00243810652466969
0.00225384359651183
0.00201784770350169
0.00178033001803385
0.00157253142990455
0.00137276380347301
0.00113101054206273
0.000795485313558107
5.79977759095465e-06
0.000153969158148379
0.000508748031122274
0.00096615392294429
0.0014460914948629
0.0018899392138579
0.00226068680789218
0.00253814053057443
0.0027120879180506
0.00277910151855378
0.00274267333289731
0.0026152527131012
1.97518961899521e-09
4.13247342239565e-08
1.88653378140851e-08
1.78690668405606e-07
1.58948329822706e-06
6.50391413769102e-08
4.47948611028164e-07
1.04468804597817e-05
5.80005999472081e-06
1.50523797579275e-07
8.43010857631471e-07
2.5716468895909e-05
4.20733502402848e-05
1.24840122422393e-05
2.845336513018e-07
1.32977473959897e-06
4.34549309983988e-05
0.000109361627574419
8.34315216829515e-05
2.16317028628227e-05
4.80178876506e-07
1.88887344334298e-06
6.08941326905877e-05
0.000180385456606455
0.000214164979269669
0.000129975088348351
3.3009984200667e-05
7.49594770264772e-07
2.39187131079405e-06
7.67572112886436e-05
0.000240715188686344
0.000351635290589108
0.000318379146054077
0.000178316055426616
4.59933770573847e-05
1.0903652084492e-06
2.70201165741756e-06
8.9913984863991e-05
0.000289232298091464
0.000467210860572715
0.000518710803034494
0.000415578913748718
0.000225629026524531
5.96967785747055e-05
1.48865253420391e-06
2.66601097865624e-06
9.85824219096593e-05
0.000327439323195101
0.000559761461472836
0.000693378430341119
0.000670417413772287
0.000504008167912534
0.000270062884652725
7.32456326012433e-05
1.92748526158918e-06
2.42074721613983e-06
0.000101691297234879
0.000355809381061379
0.000634107339007085
0.000837907617482554
0.000901297541226298
0.000805419732474547
0.000583538617106714
0.000310603102825592
8.61003822362162e-05
2.39117884927031e-06
2.86798287774665e-06
9.80420487784624e-05
0.000347008736629733
0.000654528473986483
0.000925130857446329
0.00108685048290139
0.00109926883906754
0.000957802769913464
0.000694292194051442
0.000374225496997744
9.41700147571596e-05
1.85486277941153e-06
3.34885093183233e-06
0.000109009555446289
0.000379474038463268
0.000717550308346264
0.00103113200063013
0.00125109720945803
0.00133537665614792
0.00126849038013428
0.00106034256545387
0.000746020673914215
0.000388158895541565
0.000103589409444813
2.63282271365221e-06
3.82457888393109e-06
0.00011899746329731
0.000408377534452943
0.000773325684586196
0.00112477148915969
0.00139602075873411
0.00154508073532267
0.00155214805920182
0.00141622411699023
0.00115451270860251