/*--------------------------------*- C++ -*----------------------------------*\
  =========                 |
  \\      /  F ield         | OpenFOAM: The Open Source CFD Toolbox
   \\    /   O peration     | Website:  https://openfoam.org
    \\  /    A nd           | Version:  12
     \\/     M anipulation  |
\*---------------------------------------------------------------------------*/
/*   Windows 32 and 64 bit porting by blueCAPE: http://www.bluecape.com.pt   *\
|  Based on Windows porting (2.0.x v4) by Symscape: http://www.symscape.com   |
\*---------------------------------------------------------------------------*/
FoamFile
{
    format      ascii;
    class       volScalarField;
    location    "400";
    object      omega;
}
// * * * * * * * * * * * * * * * * * * * * * * * * * * * * * * * * * * * * * //

dimensions      [0 0 -1 0 0 0 0];

internalField   nonuniform List<scalar> 
10103
(
3.73734922155493
3.73735139990989
3.98683253486339
3.04791046762875
3.73734077550497
3.98685621615656
3.04790917893939
4.20371297736552
1.38975795763555
3.02834735616194
3.737337763125
3.98680068813873
3.04791210468647
4.20375907813518
1.38594915775615
3.02834794752523
4.33730861222848
1.26570799753353
0.837172196235515
2.99243724289199
3.73732114530662
3.98681679011599
3.04791498764207
4.203664915431
1.37505524125684
3.02835118919333
4.3373393973255
1.25999469712726
0.835494968312278
2.99244006801209
4.40627919263996
1.16286268421073
0.607181453139651
0.684241178077819
2.97494419100702
3.73728427170651
3.9867989189361
3.04790170369421
4.20369924186754
1.36448196185226
3.02835913660116
4.33728647904058
1.24860980796746
0.829431017014531
2.99244799032097
4.40629050079893
1.15744969601216
0.605546695604117
0.684829363015167
2.97495134666853
4.43507589818257
1.06852861176436
0.511548676823011
0.412737703939624
0.648537809593391
2.97384212483954
3.73722872139226
3.98676421136003
3.04792987876444
4.20369169356904
1.35435804815561
3.02836007758106
4.33729950117782
1.23882195265939
0.823764756355891
2.99246698653983
4.40628175629652
1.14880081833666
0.599855508093239
0.682964387840433
2.97496934782962
4.43508596841634
1.06403429489202
0.511013030469463
0.41389773310401
0.649444918209763
2.97385721902173
4.43971636349095
1.00663461779461
0.46261178641703
0.33022828063744
0.361101011535438
0.651844583354544
2.97198803640423
3.73714643361032
3.98670658375187
3.04794837432847
4.20367229261342
1.34324963547095
3.02840564255434
4.33730123297346
1.22965170994484
0.818115118778585
2.99250586118799
4.40627431959321
1.14238128298847
0.594936659954142
0.680909068466791
2.9750102350848
4.43508636903859
1.05815486262924
0.507726237387105
0.412320073730819
0.649345609126369
2.97389427764657
4.43972528214075
1.00307886193757
0.462549562660361
0.331487522764393
0.361870576944744
0.652374316191903
2.97201657546414
4.43310442460738
0.972695779417485
0.441899979010113
0.299754953124162
0.279133332112746
0.354785660114163
0.667352489613694
2.96211912703611
3.73702866342576
3.9866247707707
3.04797769752047
4.20363732171202
1.33027541770933
3.02845593145822
4.33729825297123
1.2195606775978
0.811698732748782
2.99257645964016
4.40627734069788
1.13672596962017
0.590154815841913
0.678516939541781
2.97509292121143
4.43507521138449
1.05445569585214
0.505038282303928
0.410520133900707
0.648718484357078
2.97397663997968
4.43973336842385
0.999112705856389
0.460763887345707
0.330719112117869
0.361618248929967
0.652722000349109
2.97208661131671
4.43310833819501
0.970078765540796
0.441976062818831
0.300654523601646
0.279774839346129
0.354875490356635
0.667439901665874
2.96216578014264
4.42456998660237
0.957015593486709
0.436257836357897
0.289988245476808
0.248638183247585
0.267323936359484
0.362954735943372
0.686859566321184
2.95324750513219
3.73686764118494
3.98651152396347
3.04801915079783
4.20358842097583
1.31501811303245
3.0285325872903
4.33728088860487
1.20775248545232
0.804113953850907
2.99269304030253
4.40628011236471
1.13052351203778
0.584761563008224
0.675508230482436
2.97524339474053
4.43507851029866
1.05148181169195
0.502467187730225
0.408453871313511
0.64758112316423
2.97414178543704
4.43971614115761
0.996975410400204
0.459355085862616
0.329672211995756
0.360874205621031
0.652444365622157
2.97224123066895
4.43311275021557
0.967307612899584
0.440918044132364
0.300225283991347
0.279582016744658
0.354792680876251
0.667698334892853
2.96228657760098
4.42456977819959
0.955198836510307
0.436416442518887
0.290577605166459
0.249075620406674
0.267441262159509
0.362582189944708
0.686458276667737
2.95331968323941
4.41827024575506
0.953119058097507
0.438287432103788
0.289259637689297
0.237365209985616
0.232055927957894
0.26886181475246
0.376653043814485
0.718459929046903
2.98372909100893
3.73665261468742
3.04807018476487
3.98635918382598
4.20352274260704
1.29730835138185
3.0286380357441
4.33726201484686
1.19388081980976
0.795209300880364
2.99286812541596
4.40627353604342
1.1231707566785
0.578386031844008
0.671738873521674
2.9754914056977
4.43507944353046
1.04831580179982
0.499505689814708
0.405895745598583
0.645858693141134
2.97444144727839
4.43972260943726
0.99541617918207
0.45799951374681
0.328387593308036
0.359700118772407
0.651604013038489
2.97254967116919
4.43310458148978
0.965924267520908
0.440057263572718
0.299535438774555
0.278977789472827
0.354225630974445
0.66731125228244
2.96255378015007
4.42457057845584
0.953247106597836
0.435715336527692
0.290270762943941
0.248887064112288
0.267244037417094
0.362334280875336
0.686327019448416
2.95350873117985
4.41827379458625
0.951838111347601
0.438512256915589
0.289672292646757
0.237644364847555
0.232163120640527
0.268662043830145
0.375895105532106
0.715964105043026
2.98382676028519
4.41468847815087
0.956169321647325
0.444320151270037
0.292691431364077
0.234428221020623
0.21673501569964
0.228213041248677
0.275624800682299
0.394700595463331
0.792511461635828
3.21034670515829
3.73636100712315
3.04812856616502
3.986177159555
3.02876727472946
1.27727302796328
4.20343550655953
4.33723769441154
1.17783669375492
0.78497551743299
2.99310457387179
4.4062689143869
1.11442645866678
0.570872904627617
0.667142411089842
2.97586066853844
4.43508062320651
1.04455295807012
0.495902778557741
0.402706632442427
0.643493046898144
2.97493357574233
4.43972415789802
0.993781264466946
0.456384494160261
0.326740246242071
0.358051838655433
0.650187929192485
2.97310666001544
4.43310349426461
0.964938829967464
0.439173236097308
0.298625157021325
0.278025628489089
0.35318710420426
0.666339388874139
2.96308620753859
4.42456961313311
0.952227974682502
0.435061188186752
0.289722171285891
0.248361509932316
0.266669513541219
0.361634473407909
0.685602813064028
2.95392509349629
4.4182697262471
0.950437004400152
0.43800855209703
0.289419522016178
0.237446452045877
0.231934233213351
0.268321471167724
0.37536180979
0.712967493184311
2.98408378225068
4.41469615940661
0.955212868703058
0.444578251984572
0.293015666503837
0.234618061473472
0.216809517817467
0.228124840512331
0.275193163236523
0.393509782674577
0.79113637701453
3.21045868736685
4.41297865150931
0.962962290241489
0.452364568690516
0.298137716808003
0.235432027625702
0.210429287235145
0.208740637955247
0.229676646419256
0.28491182027814
0.419578338431202
0.886451235689803
4.87759952916195
3.73597001609313
3.04819214804633
3.98586592895936
3.02891045680058
1.25527662750858
4.2033414642153
2.99338842102497
0.773536354021547
1.15964624069559
4.33720574194912
4.40626270054063
1.10418311974103
0.562180462364794
0.661696027963007
2.97635217452197
4.43508457337518
1.03999689951976
0.491543954891527
0.398810970817741
0.640445024189811
2.97566089829504
4.43972696868825
0.991805597623453
0.454347278639704
0.324643239206517
0.355878996861818
0.648159896197679
2.97401593288769
4.43310881036563
0.96386400959654
0.43806080341534
0.297421956913453
0.276705863323386
0.351670769144363
0.664774648278904
2.96404445955458
4.42456137573636
0.951384207637972
0.434303743918827
0.288954724642634
0.247543507927215
0.265726120449208
0.360450971732725
0.684378574814717
2.95476459648408
4.41826801530798
0.949609720455092
0.437424201953167
0.28892485216096
0.236960111929622
0.231392867367869
0.267633843487887
0.374386828792298
0.710428160553539
2.98467273924207
4.41468665981303
0.954108003867257
0.44418783764999
0.292793525570326
0.234419151551257
0.216574818281391
0.227800212079147
0.274687075704064
0.392538949905948
0.78712753149593
3.21076452338719
4.41298208579994
0.962224688775097
0.45262811538208
0.298416639763319
0.235580752125881
0.210485077430875
0.208692459370055
0.229441895493655
0.284244515160301
0.418083148137547
0.888614240646181
4.87775595528554
4.41227332312209
0.97160728401574
0.461243152044387
0.304547304207476
0.238439044334799
0.208631536481255
0.199235739736889
0.206337835477702
0.233275426049122
0.294698921160755
0.440675620713703
0.881302640711191
3.73542850845234
3.04826009650922
3.98554453769171
3.0290614195225
1.23173478991693
4.20314921555509
2.99369149855641
0.761086461963181
1.13951238849281
4.33716393661953
2.9769277438473
0.655423426698777
0.552329331916642
1.09234895080556
4.40625490917017
4.43507805427943
1.03452551669014
0.486367168873232
0.39416863732269
0.636675155704829
2.97661598811017
4.439735406989
0.989346966338901
0.451804618236242
0.32204376167939
0.353139442568396
0.645479302598854
2.9753486863003
4.43311223617488
0.962518574809657
0.436612669508587
0.295869430826137
0.274988867519702
0.349651922051476
0.66258386703335
2.9656010962143
4.42457074454339
0.950381643861338
0.433300210929
0.287919824813274
0.246421160870045
0.26440988278216
0.358777996283979
0.682569768143813
2.95628368553332
4.41825931584835
0.948755859028421
0.436656001579181
0.288198636694642
0.236211636045869
0.230548737202846
0.266571307622447
0.372925131951187
0.708639173706907
2.98588096766863
4.41468373781182
0.953375600198617
0.443619000032537
0.292316025539334
0.233956487176678
0.216068747273797
0.227184838314776
0.273847563296832
0.391128812321007
0.781664733388482
3.2115270184991
4.41297538578652
0.961338954490842
0.452293219747117
0.298213162759309
0.235388014645946
0.210260112667134
0.208393191522501
0.229002302760344
0.283508115448826
0.416455348630433
0.883670337584294
4.87817068871056
4.41226776602996
0.97107940564419
0.461498733243148
0.304798335289377
0.238572400925181
0.208684561118447
0.19921366512658
0.206208376060728
0.232938045749487
0.293906378574528
0.439640058066551
0.883862567312193
3.18378836646791
4.41201757233935
0.980914597112421
0.47026740255624
0.311329200171337
0.242503562394497
0.209270113483935
0.194924098701778
0.19399344742436
0.206294951363201
0.2367084598829
0.299570545705482
0.425865748415005
3.73469763655541
3.04834526558004
3.98511409370256
3.02922984717811
1.20718959003446
4.20299215625941
2.99398959432219
0.747863315814241
1.11785585630239
4.33710942990764
2.97751119685036
0.648388536857461
0.541426403775736
1.07891448494195
4.40624563905747
2.97770537882038
0.632156680948714
0.388766843558414
0.48033204377857
1.0280103068617
4.43507133324402
4.43972516836721
0.986276403830865
0.44869327661353
0.318904616900827
0.34979564905842
0.642086404466636
2.97707661850531
4.43312040385567
0.960782153440596
0.434768874893122
0.2939332931069
0.272847601648241
0.347100472726486
0.659742818432215
2.96786816926001
4.42457469765671
0.949094247831263
0.431980404415951
0.286579698517309
0.244974915637793
0.26270698886422
0.356596778754578
0.680107472938401
2.95875325819566
4.41826963566356
0.94764724112846
0.435607001038594
0.28720562488018
0.235191123404125
0.229398459458515
0.265129458351048
0.3709661729974
0.706338270917384
2.98812129146836
4.41467459517049
0.952493985841108
0.442795657605223
0.291587778480654
0.23324373056019
0.215299155969792
0.226265269702793
0.272616416577237
0.389253014624389
0.775515578671459
3.21320532689983
4.41297161728593
0.960622961837642
0.451715269786126
0.297735746920595
0.234940042902087
0.209787252973455
0.207838421605493
0.228278252901595
0.282438289608645
0.414108813126402
0.877988715499276
4.87934849469073
4.41226402572497
0.970266602619715
0.461196591905952
0.304604809375824
0.238388622161328
0.208475007447858
0.198949648123436
0.205849497361731
0.232405217425645
0.29300573793161
0.43788103884713
0.882593650473813
3.18392126296775
4.41200703796252
0.980481856461968
0.47052242727943
0.311561202426661
0.242632312166742
0.209329997431024
0.194924968796527
0.193923287396693
0.206116941644697
0.23633120070552
0.298952727086499
0.426350575876781
0.543872206654798
0.848317781469766
4.41193220525402
0.990405622634601
0.479042928979454
0.318128357317023
0.247101952671931
0.211306463301539
0.193555182749407
0.187561889676909
0.191540623479501
0.20661719532311
0.237121551106755
0.289246495172921
3.73376668954166
3.048482783321
3.98461401927223
3.02945354012724
1.1823105124748
4.20280529136216
2.9942910102377
0.734228232236165
1.09524658068012
4.33706569708152
2.97802345510432
0.640728143698668
0.529671789668234
1.06408492018374
4.40623384469903
2.97874411127788
0.626895763557197
0.382633492780714
0.473438821996074
1.02035646863657
4.43507478299561
2.97899934388573
0.637922375155131
0.345820124336679
0.315198952156118
0.444956070439433
0.982495336093231
4.43971475459327
4.43311048421536
0.958563426571329
0.432474217583981
0.291582603354349
0.270256398731008
0.343978990061822
0.656193288603946
2.9707810159132
4.42458348821906
0.947421272066382
0.430294021452486
0.284908370160491
0.243187615871605
0.260599735448449
0.353886062584551
0.676968181197379
2.96235524925807
4.41827419319998
0.946208909119239
0.434228606848934
0.285920798150521
0.233884365283425
0.227932988043702
0.263299527076718
0.368484778331909
0.703336988314119
2.9917960980358
4.4146859961745
0.951254622136967
0.441651588510344
0.290583204241474
0.232271903254543
0.214261635765754
0.225039843441533
0.270998896793113
0.386907588499047
0.768586685351438
3.21627900450719
4.41296243576115
0.959626618468969
0.450829924486971
0.296985744388632
0.234243627267127
0.209070513008923
0.207029354401528
0.227267742549827
0.281021460292372
0.411244291647198
0.870189641720433
4.88259044344408
4.41225584405502
0.969455105885081
0.460598556170299
0.304120248991673
0.237949374306599
0.208028573687873
0.198451005425885
0.205241297822929
0.231583080934667
0.291689222515723
0.435429775825403
0.881103433951851
3.18443161688371
4.41200226911478
0.979719707406133
0.470225286667615
0.311372928015347
0.242456270290748
0.209137452198294
0.194693739142514
0.193627755291582
0.205716708261247
0.235751586785537
0.298101118913654
0.425815070743001
0.544884702896777
0.845738916980083
4.4119211858135
0.990039166288692
0.479287421697994
0.318348873563471
0.247230851202497
0.21137616532196
0.193576958021331
0.187531731707503
0.191444796087179
0.206427571692477
0.236826435677745
0.289181130509042
0.33601847619959
0.320043161912121
0.387742104803758
4.4118995275966
0.999734493781378
0.487436076731743
0.3247733779756
0.251934175134465
0.214161933782586
0.193954357147532
0.184561434364712
0.183415428983628
0.190086989546822
0.20560023670511
0.231036933892286
3.73273214225141
3.04875147233586
3.98413707827086
3.02981072677852
1.15796357405233
4.20266882073121
2.9946608096763
0.720601745414372
1.07233841002981
4.33705768860459
2.97844811532053
0.632667905110562
0.517339994770359
1.04820781772156
4.40624125098417
2.97952090987583
0.620967736252173
0.375850878647465
0.46575743957991
1.01159795282107
4.43507790662619
2.98071858754717
0.632951769174399
0.341208689404986
0.310918269242188
0.44055334624315
0.97791038090209
4.43972288954153
2.97396486408835
0.651827385023852
0.340250295480601
0.267193316017878
0.288789868877847
0.429679156602641
0.955770831605816
4.43310355791921
4.4245732802205
0.945307590880487
0.428201669448414
0.282881473018239
0.241040738330094
0.258066329928279
0.350613168140848
0.673058009559721
2.96698405533615
4.418283770928
0.944370703533793
0.432483459951521
0.284323084824355
0.232278155111619
0.226141813253958
0.261071096283757
0.36547202798369
0.699566307275697
2.9972445107505
4.41469518915327
0.949607675707882
0.440156015465877
0.289284273307473
0.231030660421802
0.212948958042428
0.223502504247586
0.268987389143048
0.384013685047639
0.760262011970841
3.2219366922213
4.41297483687434
0.958179129056182
0.449582251774126
0.295944887657096
0.233291387951939
0.208105510522606
0.205958565456052
0.225956067009933
0.279234901747012
0.408207125161681
0.862895756720988
4.88752227851304
4.41225570098546
0.968279561228572
0.459647290392292
0.303343424446511
0.237257594371623
0.207347154542929
0.197717433058245
0.20437965343074
0.230460314932341
0.289976090201542
0.432955043298945
0.878657383734011
3.1861432496099
4.41199000804579
0.978858128208617
0.469589938787913
0.310878690330225
0.242020467412756
0.208712424414971
0.194240242546682
0.193105979009284
0.205068650908659
0.234866843327676
0.296788106845855
0.424740353175305
0.54615023893189
0.84801322903447
4.41191577026331
0.989355000633666
0.478993689606791
0.318161634855798
0.247061904603609
0.211198183654885
0.193373173523972
0.18728431217132
0.191131137173132
0.206015564368304
0.236293182645335
0.288668699777015
0.336241479491026
0.320502887846599
0.388688187366468
4.41188856594604
0.999440043178569
0.487667749563796
0.324980216460083
0.252062787514248
0.214240091578528
0.19399350923213
0.184560883861843
0.183369415260751
0.189987664966068
0.205452597822918
0.230959960758016
0.257492341359139
0.263267554774725
0.248332814446311
0.275873030054179
4.41190497621237
1.00872687182563
0.49544660920338
0.33117272153382
0.25681506636699
0.217489352655929
0.195453829856441
0.183668552484461
0.1791548016143
0.180792351891048
0.188413327195788
0.201836873554894
3.73151955475405
3.04933261594638
3.98391687682987
3.03044320290094
1.13501347723865
4.20274494385181
2.99522890948021
0.707397932631014
1.04974126317708
4.33716974658718
2.97889182525409
0.624431495132986
0.504722507436846
1.03163359563457
4.40630343576115
2.97994622591734
0.614528842389105
0.36854850691509
0.457402305867691
1.00177449406831
4.43509295505786
2.98174569539078
0.627215557721305
0.335997009008889
0.306082537144765
0.435477569499219
0.972440130817977
4.43972784740026
2.97665176294687
0.646550975607199
0.335892953367923
0.2636469573215
0.285534808551026
0.426339166035142
0.95234900592966
4.43310362571774
2.97203803679816
0.668229029266935
0.346728676563406
0.255084407025383
0.238516894926303
0.280475707719708
0.425661589660688
0.942704796746529
4.42456921235463
4.41827315177398
0.942063274491307
0.430342820874009
0.282394155477243
0.230359022533856
0.224010703177838
0.258425887930662
0.361891297674037
0.695030908023521
3.00434827639555
4.41469688854442
0.947506101721802
0.438283528914357
0.287676107247031
0.229509673262566
0.21135309747762
0.221645433238006
0.26657343889616
0.380537152348095
0.750124723996304
3.22967143266788
4.41298840925913
0.956249624796663
0.447952592374284
0.294601439205572
0.232075311835688
0.206886929180589
0.20462122679831
0.224337817808423
0.277052616429725
0.40462475676965
0.854314789516812
4.90074117467561
4.41226470640602
0.966603517538395
0.45829724594786
0.302259378911475
0.236307069695248
0.20642757333449
0.196745941075064
0.203261595438404
0.229038389487599
0.287970261645685
0.430200914116159
0.876650569628821
3.18875765259067
4.41199921231785
0.977562248432338
0.468569330635609
0.310074376214779
0.241326318111123
0.20805533300002
0.193564286758617
0.192356667771577
0.204169405046961
0.233676292192115
0.295103545654798
0.423249589049084
0.546908717324702
0.846683692032867
4.41190367474504
0.988474309356572
0.478338378343033
0.317656430741634
0.246628755241193
0.210788121626699
0.192953684214572
0.186824927094143
0.190596861593313
0.20535517126225
0.235438805404409
0.287685225849699
0.336062852932594
0.320545501022324
0.387451218243971
4.41188297337482
0.998757190176869
0.487377361877754
0.324785585772847
0.251894412361093
0.214072003917421
0.193810790216086
0.184349524468463
0.183114868288363
0.1896741911641
0.205072429516488
0.230569127025125
0.257312244277257
0.263275709469666
0.248498359850232
0.275939952239183
4.41189465792056
1.00844810951143
0.495680657696617
0.33136996857178
0.256943556622029
0.217574346472125
0.195506300808212
0.18368964377393
0.179142342559927
0.180744510516565
0.188338007139194
0.201789598794146
0.217664887017789
0.22700358299104
0.225232101237083
0.224311837530918
0.2482762325241
4.41190842946719
1.01811806599477
0.503026803988131
0.337253356071822
0.261616592643398
0.221054520540212
0.197632053132937
0.18411104893926
0.177275395829293
0.175671636786563
0.178663049961262
0.185740518884814
3.73119428472262
3.05053386832833
3.98428819725289
3.03160179573688
1.11385034301453
4.20336756119692
2.99619148125814
0.694926182617354
1.02804899292062
4.33759606027879
2.9795889926814
0.616224876670976
0.492077748330322
1.01469190124329
4.40650204661802
2.98021101692259
0.607736875003522
0.36086447821419
0.448492193924194
0.990967761166952
4.43516288998876
2.98180967585643
0.620844333449115
0.330261784707515
0.300733385436385
0.429721978573264
0.966003350298322
4.43974510435196
2.97777386801731
0.640345476011261
0.330923026091811
0.259624006707601
0.281807103918079
0.422410974094374
0.948207519821001
4.43311186194363
2.97617231439773
0.66234149106817
0.342189871928418
0.251639153122737
0.235602875787285
0.277669027629885
0.422634748020805
0.939512109303769
4.42456125810728
3.01230598021972
0.689596840029473
0.357684260194888
0.25533901806825
0.221525148564474
0.228113395630211
0.280114306053312
0.427775639856738
0.939228729198781
4.41826854400994
4.41468992709466
0.944886385169789
0.436005571161495
0.285743635815358
0.227698691805505
0.209465138102507
0.219458600637559
0.263746640189034
0.37648578497177
0.738345003214207
3.24161347205935
4.412981495787
0.953816292745721
0.445925978983542
0.292945974499705
0.230587713832556
0.205409440319623
0.203010506662169
0.222403217442134
0.274444055249785
0.400350955918956
0.842968298703609
4.91328183671417
4.41227823508888
0.964395436295688
0.456534554852111
0.300860062310674
0.235092134732311
0.205265648351262
0.195534061477406
0.201886902233676
0.227327438057577
0.285665995178822
0.426768774334123
0.874386462997664
3.19693607991513
4.41200460182899
0.975709760553928
0.467126867023423
0.308947543244227
0.240368241830999
0.207163438695957
0.192664251804094
0.191379320021679
0.203022179584092
0.232204872546221
0.293140833740495
0.421605459077003
0.548335950653122
0.847462023940943
4.41191349574454
0.987083355722509
0.477269970904262
0.316827338219561
0.245927984229868
0.210146157333614
0.192318521881162
0.186153815130835
0.189842613309359
0.204449454765609
0.234287526560327
0.286319921222472
0.335507657917677
0.320391965210804
0.386723434257823
4.41187097527514
0.997833154358625
0.486698525441947
0.32426000351838
0.251455679115622
0.213670770610394
0.193415712678119
0.18393464150232
0.182656457521834
0.189145162268591
0.204443709963318
0.229853678897296
0.256751118798361
0.262924624879828
0.247853783213428
0.274921538932068
4.4118896373895
1.00769349429423
0.495380033366464
0.331171381956653
0.256774879765032
0.217412739012625
0.195338216229082
0.183503993328243
0.178928893777123
0.180494143974234
0.188046975470167
0.20147882997372
0.217407417577187
0.226860138069482
0.225156477980562
0.223864818965465
0.247329482153009
4.411898946231
1.01749653805047
0.503249511474251
0.337444454926798
0.261744981885923
0.221144452692553
0.197694166564042
0.18414768807105
0.177286285876757
0.175657115792445
0.178630468731835
0.185722818703161
0.195306960908326
0.203410960770433
0.206536972943005
0.207617369698551
0.214863921717595
0.239123777547284
4.41191565696349
1.02870968913131
0.510215706464738
0.342985466650446
0.26626010592392
0.224703767578866
0.200214046964517
0.18540678682893
0.176915486130567
0.173109211505007
0.173146769751213
0.176428465651681
3.72980706632655
3.05303312703156
3.9858017671708
3.03371779020565
1.09434532623102
4.20505698251919
2.99783450459337
0.683344214840189
1.00770171167182
4.33872403581603
2.98084623152946
0.608225462096514
0.479614351538597
0.997717143906604
4.40704449504757
2.98079964889272
0.600740448207421
0.352927447136658
0.439138995993816
0.97926925636165
4.4353653944105
2.98127239084857
0.614022868020562
0.324094003909533
0.294919687667756
0.423294252269047
0.958540662318478
4.4398049416014
2.97658412991545
0.633358228669009
0.325400185118919
0.255149113377244
0.277601193056966
0.417844635254645
0.943159397201464
4.4331268676292
2.97712680683831
0.655353354696839
0.336989073836126
0.247731371992812
0.232291777490999
0.274439219575949
0.419071797464253
0.935598911485613
4.42457271021127
3.01909300005156
0.683434076900062
0.352799589780888
0.251788431593103
0.218673465025165
0.225528299523568
0.277462396848416
0.424737704875106
0.935800940210547
4.41825941046303
3.2535983286712
0.725171942305464
0.371852290527979
0.260486884067934
0.216929181573944
0.207275216609832
0.225586559584238
0.283470022445128
0.433291629370144
0.941684026481672
4.41468508493501
4.41297828644528
0.950836336379785
0.443477226709652
0.29096440203726
0.228820251011932
0.203666432868177
0.20112227075981
0.220148730676404
0.271430450943269
0.395432758635717
0.828418581024025
4.94475963855479
4.4122706148914
0.961648331532644
0.454348925832267
0.299138656838992
0.233607428901956
0.203857289697175
0.194081926966392
0.200261065521474
0.225339375929477
0.282976240868828
0.42260567926992
0.870909217041979
3.20514503594968
4.41201799720138
0.97326250280885
0.46524918165212
0.307492370919075
0.239142016638157
0.206033708970805
0.191538423280709
0.190174519555815
0.20163293016272
0.230466697492829
0.290985800981708
0.419531938160349
0.550066532993537
0.847343485887236
4.41191902232994
0.98507346990917
0.475756615222884
0.315662753971118
0.244956936608219
0.209269715008261
0.191466469748819
0.185271198096066
0.188871966521892
0.20331161226741
0.232883886423655
0.284714572401079
0.334879574655996
0.320439297510274
0.387025422234057
4.41188085684322
0.996358261128522
0.485590558173619
0.32340418211538
0.250746521575942
0.21303714401519
0.192808266783277
0.183317202665432
0.181996459844874
0.18840597554489
0.203582164359958
0.228862621283696
0.25586806142664
0.262285075279876
0.246974545645112
0.273813338110924
4.41187795539698
1.00666840577343
0.494654573867919
0.330632124376972
0.25633035283093
0.217015671889352
0.194958377881332
0.183119518513722
0.178521615907589
0.180047402476131
0.187546237121412
0.200926377321564
0.216874555614592
0.226405330200451
0.224626078709477
0.222940615137541
0.245928807097628
4.4118952858957
1.01651720245565
0.502930502904165
0.337240587674816
0.261575331408221
0.220986616170032
0.197536078220607
0.183980101236392
0.17710149305776
0.175449129788263
0.178396968654497
0.185470637810131
0.195055832919025
0.203211432912962
0.206365318248526
0.207309253602794
0.214269254671531
0.2380931269266
4.41191028755742
1.02757266294279
0.510387100783635
0.34317038533462
0.266388341698621
0.224797029919686
0.200282790334223
0.185454159588775
0.176942427196882
0.173117187438454
0.173142531537897
0.176435902998299
0.182045897379538
0.187999528098425
0.19214626641116
0.194662618112466
0.19933492469656
0.21096369296557
0.234905857902584
1.03934056483053
0.517143528216673
0.348367449259329
0.270697721724528
0.228334166069901
0.203014417706727
0.187239922288331
0.177540644604163
0.172180554136868
0.17021747600296
0.171023274127147
3.73222390316149
3.05702376403129
3.98802086140757
3.03739650218479
1.07633835974779
4.20832058114266
3.00059479822098
0.672756505158685
0.989043981990668
4.34115802681052
2.9830000182944
0.600590978088927
0.467516503152805
0.981098210314411
4.40834345907444
2.98228923855998
0.59370938615423
0.344854305803846
0.429448092459205
0.966819162930032
4.43591004973567
2.9812211633034
0.606905068358317
0.317585990975425
0.288690246537008
0.416206864333923
0.949983137250526
4.43999119860972
2.97371997420901
0.625908269073628
0.319415081449286
0.250257128514004
0.27291627818036
0.412592551040452
0.937049629132078
4.43317923465626
2.97269085907046
0.647435617616644
0.331178214039821
0.243381336782914
0.228583243544487
0.27076274386698
0.414900357116229
0.930813007620723
4.42458602420099
3.02013570071261
0.676158616129914
0.34720894876828
0.247763995456621
0.215449493659039
0.222591289204699
0.274413593691092
0.421174273998585
0.931660369306476
4.41827085300465
3.26799751162666
0.716776853293721
0.366670182235989
0.256773772882874
0.214045026982417
0.204773765679007
0.223161187894258
0.280834948158128
0.430106752546413
0.93784674509528
4.41467513577452
4.96589621338643
0.810123255000296
0.390001050532015
0.268013396338628
0.217565237554244
0.198948198038499
0.201650389361385
0.226763526554642
0.288641200085701
0.440577221716513
0.94723300760959
4.41297355357068
4.41226721043568
0.958335094529589
0.451720788171879
0.297084191601668
0.231846103362474
0.202198009861198
0.192383320161891
0.198378127637239
0.223062772853134
0.279877345493665
0.417771474905772
0.866904461853946
3.22819544540167
4.41201010782603
0.970226937883741
0.462927841073679
0.305703137428736
0.237643567543804
0.204663221789537
0.190185585156493
0.188743849368857
0.200008591774408
0.228469119649245
0.288528059658169
0.41701658218872
0.551793126001638
0.845551572985947
4.41193244564022
0.982411492739098
0.473786862999744
0.314158367461665
0.243713571651783
0.208156418603372
0.190396502817604
0.18417826062619
0.187690234261375
0.201955694419325
0.231265245853151
0.283042485512226
0.334215494020767
0.32064268899517
0.387254831700911
4.41188593691433
0.99420047580112
0.484027154125041
0.322209763040924
0.249763784691176
0.212168006197916
0.191987609896323
0.182497769245397
0.181138323592112
0.187466399839499
0.202514080543726
0.227666023509695
0.254811217610421
0.261555516247407
0.246036812199987
0.272676455849289
4.41188734811947
1.00508963175988
0.493481419618758
0.32974850443574
0.255609044389246
0.216382717002149
0.194367228236374
0.18253759687799
0.17792345060339
0.179410370434748
0.186849327510974
0.200163575318825
0.216111351152554
0.225715761602856