/*--------------------------------*- C++ -*----------------------------------*\
  =========                 |
  \\      /  F ield         | OpenFOAM: The Open Source CFD Toolbox
   \\    /   O peration     | Website:  https://openfoam.org
    \\  /    A nd           | Version:  12
     \\/     M anipulation  |
\*---------------------------------------------------------------------------*/
/*   Windows 32 and 64 bit porting by blueCAPE: http://www.bluecape.com.pt   *\
|  Based on Windows porting (2.0.x v4) by Symscape: http://www.symscape.com   |
\*---------------------------------------------------------------------------*/
FoamFile
{
    format      ascii;
    class       surfaceScalarField;
    location    "400";
    object      phi;
}
// * * * * * * * * * * * * * * * * * * * * * * * * * * * * * * * * * * * * * //

dimensions      [0 3 -1 0 0 0 0];

internalField   nonuniform List<scalar> 
28828
(
-8.32369186271628e-06
-4.09461178996907e-06
4.7320040876213e-06
-9.00745059524996e-06
-4.08629843507366e-06
4.77009412508539e-06
-7.89484470575584e-06
-7.7735305112234e-06
4.30487680183593e-06
-7.94466315476939e-06
-3.54701534115886e-06
8.90442919011487e-06
-9.68196848106403e-06
-4.06590569929949e-06
4.7404542694361e-06
-8.52561175161909e-06
-7.77116712062577e-06
4.31568858899836e-06
-8.55300819313986e-06
-3.52943186954483e-06
8.90792638602083e-06
-7.66819564712373e-06
-1.09280282440826e-05
3.79527381281629e-06
-6.61953843723604e-06
-6.11465262754172e-06
7.40453428182949e-06
-7.61331540970015e-06
-3.08996611372891e-06
1.25937726164994e-05
-1.03243635228099e-05
-4.04403781988302e-06
4.68644412069142e-06
-9.11243938494461e-06
-7.70341784708094e-06
4.22437418831407e-06
-9.12938355182012e-06
-3.46941170566974e-06
8.78625592191227e-06
-8.301844389179e-06
-1.09150392013265e-05
3.77757415640383e-06
-7.09498192795452e-06
-6.08104081453455e-06
7.34282223806352e-06
-8.18032275746655e-06
-3.07254056534289e-06
1.25474907428802e-05
-7.46270830216923e-06
-1.32681432417756e-05
2.98778829373595e-06
-5.42385143932782e-06
-7.56083034288688e-06
5.70599029804832e-06
-5.61963097427033e-06
-4.71707301329369e-06
9.46217176245259e-06
-7.32498509970478e-06
-2.56319533555247e-06
1.57340129792342e-05
-1.09433049619045e-05
-4.01073819536625e-06
4.62968159884531e-06
-9.6631588952833e-06
-7.62961628859991e-06
4.13631145817383e-06
-9.67809935153499e-06
-3.42465007377708e-06
8.65982327461884e-06
-8.89136867382231e-06
-1.0806403348139e-05
3.69255427666278e-06
-7.52381306746788e-06
-5.96518467657894e-06
7.149011255869e-06
-8.7332135551383e-06
-3.01664181193448e-06
1.23557864229549e-05
-8.09756396809256e-06
-1.32348285407136e-05
2.95470277888656e-06
-5.86047851808866e-06
-7.4982855182373e-06
5.6315234888762e-06
-6.03806417770964e-06
-4.67978892176905e-06
9.36851314821014e-06
-7.88256828799626e-06
-2.55525245221419e-06
1.56603172452224e-05
-7.08050539956145e-06
-1.47490379581826e-05
2.09823470083491e-06
-4.54721342026058e-06
-8.19679967932013e-06
4.03498382819828e-06
-3.62420563878822e-06
-4.77818827467855e-06
6.0723834523853e-06
-4.93951387291585e-06
-3.51036119731149e-06
1.07965363119475e-05
-6.8509159841777e-06
-1.97203682932126e-06
1.82585203325962e-05
-1.15381510879432e-05
-3.96264036045635e-06
4.55747961093232e-06
-1.01868557185291e-05
-7.54513682951086e-06
4.05810613337691e-06
-1.02021349415515e-05
-3.38178061620798e-06
8.53547964941109e-06
-9.45156450082534e-06
-1.06955103902548e-05
3.62611850220974e-06
-7.94258034218922e-06
-5.87508805589224e-06
7.00551374066977e-06
-9.28283767760319e-06
-2.98153999241506e-06
1.21909569450528e-05
-8.69310052793236e-06
-1.31013205116505e-05
2.89050462514241e-06
-6.2754798135561e-06
-7.37636102751013e-06
5.5187714949964e-06
-6.46548767446446e-06
-4.62066411390835e-06
9.18046782030769e-06
-8.45664914282028e-06
-2.52400552608082e-06
1.54538441680094e-05
-7.68364921103829e-06
-1.46929520021194e-05
2.06131283836136e-06
-4.94977208799418e-06
-8.11412126927714e-06
3.97314985575268e-06
-3.9539623837285e-06
-4.72424607079595e-06
6.00575927756411e-06
-5.35704326517766e-06
-3.49909764041687e-06
1.07298855582521e-05
-7.40358592227626e-06
-1.98298531746583e-06
1.81959610511008e-05
-6.58344287297349e-06
-1.56021899174099e-05
1.41420440649628e-06
-3.93545799882859e-06
-8.42520020610853e-06
2.68955795912457e-06
-2.40703660033455e-06
-4.2999772587206e-06
3.7921245161342e-06
-2.48770742665811e-06
-2.98446862512936e-06
5.78245931784003e-06
-4.23939111237721e-06
-2.40707435271414e-06
1.15953801032745e-05
-6.13153058194446e-06
-1.43322660092206e-06
2.02061113605907e-05
-1.20987248584213e-05
-3.89794043329661e-06
4.45850925528998e-06
-1.06798880916655e-05
-7.44006556211102e-06
3.9704492293446e-06
-1.06934584280708e-05
-3.33031240301425e-06
8.37910300875964e-06
-9.99054886269725e-06
-1.05762331250421e-05
3.57010255662227e-06
-8.34741230568506e-06
-5.8008978419257e-06
6.88204857446446e-06
-9.8235540193368e-06
-2.95575397759415e-06
1.20319163608667e-05
-9.26654003013603e-06
-1.29733699426603e-05
2.85132529531136e-06
-6.69088994187953e-06
-7.28808818953784e-06
5.45455162512901e-06
-6.90617566702117e-06
-4.59198965081507e-06
9.05662649517848e-06
-9.05091273191822e-06
-2.51376376960238e-06
1.52989505351235e-05
-8.25475932008747e-06
-1.45473461197293e-05
2.01715957959131e-06
-5.34643356662561e-06
-8.00840415202443e-06
3.91925724428747e-06
-4.30947909675855e-06
-4.68695221277427e-06
5.94058191716096e-06
-5.81026941190578e-06
-3.4950037081365e-06
1.06046654416746e-05
-8.00088796211406e-06
-1.9845990806647e-06
1.80357008030408e-05
-7.12927321804439e-06
-1.55255367714305e-05
1.37843656984609e-06
-4.29821509047456e-06
-8.33655453436585e-06
2.64653002387416e-06
-2.66303595811487e-06
-4.24313459657862e-06
3.74805679721656e-06
-2.76639944145565e-06
-2.9702102669926e-06
5.75556384953021e-06
-4.64255507539185e-06
-2.4198386256327e-06
1.15698634196278e-05
-6.66538312751406e-06
-1.4630703078483e-06
2.01928484824047e-05
-6.06058740161603e-06
-1.60520427690971e-05
9.46874436819818e-07
-3.45765911176279e-06
-8.45216451330394e-06
1.75778666594147e-06
-1.77964273067949e-06
-3.84481632355177e-06
2.43182794207863e-06
-1.33829876506213e-06
-2.34523803872497e-06
3.31614257148699e-06
-1.81154572430877e-06
-1.85138523494748e-06
5.43631919914304e-06
-3.57125290218272e-06
-1.54263891621709e-06
1.20382830896103e-05
-5.25899344671069e-06
-1.04952500654349e-06
2.17177162912811e-05
-1.26105921189881e-05
-3.81531046912209e-06
4.32717580282351e-06
-1.11317029222003e-05
-7.30760845921942e-06
3.86147504564009e-06
-1.11417318671265e-05
-3.26568226386915e-06
8.1724534824569e-06
-1.05032724905665e-05
-1.04339956393967e-05
3.50667631206946e-06
-8.72692229796061e-06
-5.72298140504937e-06
6.7426257998669e-06
-1.03437732221439e-05
-2.92772278437584e-06
1.18270074598551e-05
-9.82551422021785e-06
-1.28396191447138e-05
2.82238587269651e-06
-7.10570317403345e-06
-7.22109806614952e-06
5.40513448571093e-06
-7.3500920176162e-06
-4.5802262100382e-06
8.9504022584211e-06
-9.65321148371885e-06
-2.51529964529932e-06
1.51494663857224e-05
-8.80939296601577e-06
-1.44163201894934e-05
1.99760446802537e-06
-5.74578579684159e-06
-7.93952701547395e-06
3.90213489159127e-06
-4.67931628365024e-06
-4.68371233643031e-06
5.91611309603843e-06
-6.28622473378884e-06
-3.51313051433729e-06
1.05318932425462e-05
-8.64090778396307e-06
-2.00461879493417e-06
1.79435203451608e-05
-7.65030116905547e-06
-1.53740929520788e-05
1.34778923986127e-06
-4.66188330267683e-06
-8.24942220013671e-06
2.62186559923543e-06
-2.9403247342586e-06
-4.2190817457315e-06
3.7286891912602e-06
-3.07418029838903e-06
-2.9812023464978e-06
5.7345462791002e-06
-5.08835711830993e-06
-2.44779308163996e-06
1.15136013974517e-05
-7.26237935006919e-06
-1.48889064079695e-06
2.0121522070354e-05
-6.54106894512264e-06
-1.59610865320235e-05
9.16039115883977e-07
-3.77760582215979e-06
-8.36627530109512e-06
1.72810561105444e-06
-1.9895485592064e-06
-3.79166934399917e-06
2.40498090036022e-06
-1.52924013435573e-06
-2.32666914015985e-06
3.29546339368273e-06
-2.05123403637401e-06
-1.85934797527558e-06
5.43474805971812e-06
-3.9444884595954e-06
-1.57016541745173e-06
1.20501401734612e-05
-5.75659728788646e-06
-1.09554707385236e-06
2.17859133600854e-05
-5.58205607223579e-06
-1.62497696266051e-05
6.33870987256981e-07
-3.06044722450392e-06
-8.37266873361691e-06
1.14044629169956e-06
-1.39299648373992e-06
-3.49322457035582e-06
1.57427112785727e-06
-8.70470508829905e-07
-1.88221512092976e-06
2.10320837654125e-06
-8.57985629386648e-07
-1.3292059419223e-06
2.93727265557266e-06
-1.39459109929054e-06
-1.09463817649406e-06
5.17499677267035e-06
-2.97769853630109e-06
-9.50813839206309e-07
1.2235759196304e-05
-4.33830448099357e-06
-5.05627587747324e-07
2.26133874911992e-05
-1.30575063361932e-05
-3.7147240737889e-06
4.1616444523358e-06
-1.15291762622326e-05
-7.14355895646959e-06
3.72572020191464e-06
-1.15372408414445e-05
-3.18644265581906e-06
7.90912254372468e-06
-1.09784759439217e-05
-1.02587852813713e-05
3.42638545812551e-06
-9.07068298758749e-06
-5.63083782087365e-06
6.57036068986244e-06
-1.08353539741128e-05
-2.89154299692249e-06
1.15555385397893e-05
-1.03652562122014e-05
-1.26838722911325e-05
2.78963479736734e-06
-7.51372138647347e-06
-7.15593516408633e-06
5.34765538500933e-06
-7.79053985935704e-06
-4.57080345660549e-06
8.82612229748371e-06
-1.02535677352529e-05
-2.51839700846059e-06
1.4945709922708e-05
-9.35357589193498e-06
-1.42826795529102e-05
1.98724806528983e-06
-6.14849936366808e-06
-7.8914354959889e-06
3.89545960751144e-06
-5.05848891779178e-06
-4.69847582327713e-06
5.90254501327547e-06
-6.7778110019355e-06
-3.54359527577728e-06
1.04702353743019e-05
-9.30807177177362e-06
-2.03521780952095e-06
1.78517782302448e-05
-8.16029582730292e-06
-1.52454852478199e-05
1.33915468488417e-06
-5.02882288335523e-06
-8.2000167568448e-06
2.6250370552355e-06
-3.22910436737885e-06
-4.23032167591458e-06
3.73752688622649e-06
-3.39756774293971e-06
-3.01605398841791e-06
5.74240312149018e-06
-5.56510085501265e-06
-2.49333967996301e-06
1.14972876805807e-05
-7.9188102979842e-06
-1.53098316501426e-06
2.01308521014046e-05
-7.00142919575438e-06
-1.58075285875778e-05
8.93790838976871e-07
-4.10109082560368e-06
-8.29454190053242e-06
1.71638325752418e-06
-2.21393859062164e-06
-3.77426234842575e-06
2.40143742763494e-06
-1.73747352732049e-06
-2.33751333087032e-06
3.2932247815252e-06
-2.31630828236256e-06
-1.89068299144711e-06
5.4424915468469e-06
-4.36154985301049e-06
-1.61448377369025e-06
1.20561889998833e-05
-6.32467431070877e-06
-1.14115790754272e-06
2.18306582962229e-05
-6.0015279764794e-06
-1.61508017773147e-05
6.09190272250783e-07
-3.33856167983209e-06
-8.29290941993617e-06
1.12078755468475e-06
-1.56877709014838e-06
-3.44581716727643e-06
1.55802871098679e-06
-1.02067602333654e-06
-1.86172220796746e-06
2.09024137794291e-06
-1.01796565558731e-06
-1.33273065034974e-06
2.92882822888795e-06
-1.60304869069563e-06
-1.11452349410532e-06
5.18754970639084e-06
-3.31527842539019e-06
-9.873765509859e-07
1.22794526643828e-05
-4.77863442992976e-06
-5.52741387179002e-07
2.27788816723917e-05
-5.18067118561228e-06
-1.62977802575474e-05
4.30794605577781e-07
-2.73224813032506e-06
-8.23700505454819e-06
7.33660350840352e-07
-1.12085998936209e-06
-3.2221629390227e-06
1.01155355754367e-06
-6.13241657882179e-07
-1.55395252738074e-06
1.36170936291246e-06
-4.89045437800346e-07
-9.28633917998568e-07
1.81909997892959e-06
-6.04446708696469e-07
-6.76865685815638e-07
2.64745409882804e-06
-1.11369313552382e-06
-5.6769315358424e-07
4.95773442926636e-06
-2.47856089063125e-06
-5.49826827137522e-07
1.25372481108327e-05
-3.45563605443243e-06
1.27034560012917e-07
2.28007611476105e-05
-1.34226690777457e-05
3.9625556815789e-06
-3.597384874456e-06
-1.18593991323556e-05
-6.94615225393873e-06
3.56166036560096e-06
-1.18699429656197e-05
-3.09344152541461e-06
7.58779538214312e-06
-1.14024393219136e-05
-1.00445824198133e-05
3.32499824591362e-06
-9.37021239791541e-06
-5.52008110974931e-06
6.35890708974518e-06
-1.1290907353388e-05
-2.84528532429068e-06
1.12099248881831e-05
-1.08742671663474e-05
-1.24961136351663e-05
2.74636330522734e-06
-7.90760670046069e-06
-7.08182505674534e-06
5.27128510661248e-06
-8.22272689423411e-06
-4.55569715357154e-06
8.66667116120709e-06
-1.08460490034982e-05
-2.51721813029185e-06
1.46651722537419e-05
-9.88411241086107e-06
-1.41304240351703e-05
1.97709475786062e-06
-6.5521751247835e-06
-7.84843157120888e-06
3.88581789108967e-06
-5.44489726568193e-06
-4.71966498900889e-06
5.88290785138833e-06
-7.28241873447718e-06
-3.57776940213041e-06
1.03900224931258e-05
-9.9944221864665e-06
-2.06931819882245e-06
1.77012760437704e-05
-8.66271017543577e-06
-1.51191296794864e-05
1.33885165141126e-06
-5.4000862197979e-06
-8.17042820321223e-06
2.63750570651972e-06
-3.52648727945316e-06
-4.25982360603265e-06
3.75418090297843e-06
-3.73400250973634e-06
-3.06409963257649e-06
5.75944988187249e-06
-6.06850171829505e-06
-2.54919702488743e-06
1.14875336866954e-05
-8.6194500724856e-06
-1.58238239116844e-06
2.01347092387356e-05
-7.45351098716343e-06
-1.56838508906667e-05
8.9043225150823e-07
-4.42795447874413e-06
-8.26036764690946e-06
1.72635045699407e-06
-2.44676252978644e-06
-3.79133254400779e-06
2.41886116427999e-06
-1.95508785893463e-06
-2.37355167250291e-06
3.31262923406622e-06
-2.59962766197922e-06
-1.94213385531558e-06
5.47448772484463e-06
-4.8172458307972e-06
-1.67560958976883e-06
1.20975250433248e-05
-6.96383728319999e-06
-1.20378245099377e-06
2.19736924638919e-05
-6.40389827847528e-06
-1.59986269383511e-05
5.93461340605542e-07
-3.62089892954734e-06
-8.23342815943721e-06
1.1149971300285e-06
-1.75424781374153e-06
-3.43227849867186e-06
1.55986049714393e-06
-1.18129276485684e-06
-1.87043610705693e-06
2.09497096176773e-06
-1.19129127055045e-06
-1.36028687196393e-06
2.93615149270275e-06
-1.83512194140729e-06
-1.15668532392495e-06
5.21674662329761e-06
-3.6967628256997e-06
-1.04180324109674e-06
1.23382108432522e-05
-5.29886804035227e-06
-6.05053346478757e-07
2.29558188772663e-05
-5.54744928793931e-06
-1.61948207025355e-05
4.10802944541799e-07
-2.97352974973758e-06
-8.16350063718986e-06
7.21049930390314e-07
-1.26845397463901e-06
-3.1801845810536e-06
1.002743803408e-06
-7.37638047894617e-07
-1.53417603995849e-06
1.35487346760171e-06
-6.14417195245585e-07
-9.29909844525243e-07
1.81279606966304e-06
-7.43432505628301e-07
-6.93095709796065e-07
2.64638808703507e-06
-1.29805860303232e-06
-5.96795465894773e-07
4.98130837325964e-06
-2.77778487001134e-06
-5.90134387072839e-07
1.26159306111389e-05
-3.82772593796806e-06
8.92211416270452e-08
2.3061590488204e-05
-4.85475540887242e-06
-1.62590715936629e-05
2.98399042571018e-07
-2.46494326799155e-06
-8.07156369801657e-06
4.68725115445597e-07
-9.16446199233607e-07
-3.00361721865887e-06
6.35707801999797e-07
-4.35961865968083e-07
-1.31010245397585e-06
8.66970533676106e-07
-2.88363730061839e-07
-6.24208746639211e-07
1.15605762258512e-06
-2.91367002157164e-07
-3.23024487728003e-07
1.56815243701624e-06
-4.47240182990238e-07
-2.01689475471728e-07
2.39627189562855e-06
-9.13405617502885e-07
-1.78135101872293e-07
4.73353476968903e-06
-2.08198299563952e-06
-7.64229394494544e-08
1.29664722052704e-05
-2.63574124929848e-06
1.00399677628356e-06
2.20344998085198e-05
-1.36906454335227e-05
3.7328856801295e-06
-3.46489480553928e-06
-1.2128719100225e-05
7.20988365525116e-06
-2.98853296876216e-06
-1.21115190400186e-05
3.37179015057844e-06
-6.7170506278704e-06
-1.17612050973939e-05
-9.78882991741065e-06
3.20145564711892e-06
-9.61902546633008e-06
-5.38996245741611e-06
6.10701682087005e-06
-1.17008321877303e-05
-2.78871796178559e-06
1.0786420966063e-05
-1.13384873554444e-05
-1.2270405541127e-05
2.69004211443558e-06
-8.27985616988933e-06
-6.993616275911e-06
5.17080281668869e-06
-8.64290399260392e-06
-4.53066807655621e-06
8.46443924075206e-06
-1.14238696918844e-05
-2.50924089021766e-06
1.42969384891265e-05
-1.03918482300778e-05
-1.39514915109147e-05
1.96312611457817e-06
-6.95251599331963e-06
-7.80232738139268e-06
3.86722116994685e-06
-5.83596520754167e-06
-4.74062039878427e-06
5.84726853817943e-06
-7.79836690415429e-06
-3.610145228413e-06
1.02754954998667e-05
-1.0696870552037e-05
-2.10277871732124e-06
1.74703271039551e-05
-9.1545047769462e-06
-1.49793249412077e-05
1.34069160973314e-06
-5.77489634534841e-06
-8.14768662956642e-06
2.65114319096558e-06
-3.83143592133204e-06
-4.2985616532981e-06
3.76966629333709e-06
-4.08297491655479e-06
-3.11894733763386e-06
5.7730304412486e-06
-6.59813105724646e-06
-2.61014764388823e-06
1.14603969371771e-05
-9.36173132394477e-06
-1.6383244373063e-06
2.00817884383821e-05
-7.89983681101428e-06
-1.55675214995996e-05
8.94703011778929e-07
-4.75897976835565e-06
-8.24580365246696e-06
1.745245675594e-06
-2.68630735649589e-06
-3.82673057505161e-06
2.44395724317584e-06
-2.1806188046412e-06
-2.4237026089899e-06
3.33931103776788e-06
-2.89973778286686e-06
-2.00521983423798e-06
5.51554917645268e-06
-5.30967833444146e-06
-1.74705530524064e-06
1.21445413612317e-05
-7.66421516589092e-06
-1.27471691611662e-06
2.21096970053072e-05
-6.7989402869413e-06
-1.58817739664768e-05
5.92955861864205e-07
-3.90629326169044e-06
-8.21080729708439e-06
1.12625052590305e-06
-1.94576577177411e-06
-3.45143018095208e-06
1.5779625478818e-06
-1.34778151918914e-06
-1.90484401176831e-06
2.11663412997924e-06
-1.37404995788632e-06
-1.40952036948032e-06
2.96276841587064e-06
-2.08833677037765e-06
-1.21807318529402e-06
5.27013483681812e-06
-4.12238846017167e-06
-1.11408344545772e-06
1.24333364027452e-05
-5.90244628091109e-06
-6.79918251696473e-07
2.32570634920608e-05
-5.8988757974803e-06
-1.6047383087089e-05
4.00167944641175e-07
-3.21851969779604e-06
-8.11351479145906e-06
7.18520828222265e-07
-1.42322624861722e-06
-3.17008375818462e-06
1.00756769008346e-06
-8.68335424673491e-07
-1.54240455191858e-06
1.36251962306283e-06
-7.46925946763741e-07
-9.54677587012259e-07
1.82186656934264e-06
-8.94784876713435e-07
-7.31762036269368e-07
2.66257567028379e-06
-1.50489341192792e-06
-6.47615942004578e-07
5.029359806475e-06
-3.12088230061153e-06
-6.51023145949679e-07
1.27271398826754e-05
-4.28545593158298e-06
3.13086364203914e-08
2.33820716536752e-05
-5.17712826766308e-06
-1.61538827884827e-05
2.81434930424558e-07
-2.67423523130746e-06
-8.00363096022369e-06
4.60222910418624e-07
-1.04108696887966e-06
-2.96580016561761e-06
6.31302564941546e-07
-5.4022866674818e-07
-1.29188156954465e-06
8.64708246963889e-07
-3.91965545773084e-07
-6.25019673670879e-07
1.15357797390804e-06
-4.00372405128623e-07
-3.37738645982319e-07
1.56644609681282e-06
-5.71108162928467e-07
-2.27991078126065e-07
2.40145417387149e-06
-1.07759209885597e-06
-2.14657734022394e-07
4.76997353748927e-06
-2.34588726630858e-06
-1.14708020540356e-07
1.30835812830042e-05
-2.9379057673485e-06
1.00731252519229e-06
2.23562687996338e-05
-4.59086725651512e-06
-1.61713533997362e-05
2.10057140473015e-07
-2.24741052929441e-06
-7.89307460747365e-06
2.95683428816415e-07
-7.5768043389347e-07
-2.81723401527402e-06
3.84919690127068e-07
-3.00729679560541e-07
-1.11864342692683e-06
5.29009414163139e-07
-1.49664429780522e-07
-3.88825334282323e-07
7.15835961772696e-07
-1.17860902061991e-07
-3.50345763422701e-08
9.54646773956191e-07
-1.70516489961337e-07
1.25074885427799e-07
1.33313917450466e-06
-3.37716400126276e-07
1.7520440943805e-07
2.14624311032971e-06
-7.6618995951857e-07
1.60564918874185e-07
4.62975518999996e-06
-1.7855400556956e-06
3.56744522599911e-07
1.38257173298385e-05
-1.85036674838072e-06
1.67876461476442e-06
2.04936798593888e-05
-1.38491657149206e-05
3.47817532826429e-06
-3.31964611688135e-06
-1.23027933093779e-05
6.78002420564426e-06
-2.87304623231012e-06
-1.22767947308338e-05
3.16162626777395e-06
-6.46122442345209e-06
-1.20526120242876e-05
1.02837737458061e-05
-2.7221372413311e-06
-9.8111621803241e-06
5.81744166812112e-06
-5.24203176531122e-06
-1.20415443339166e-05
3.05641005988998e-06
-9.49308143289837e-06
-1.17431340217461e-05
-1.20037999937386e-05
2.61963751516831e-06
-8.62305146782571e-06
-6.88932628305271e-06
5.0440261181495e-06
-9.0469519911475e-06
-4.49360715094768e-06
8.21594153347312e-06
-1.19767989458476e-05
-2.49340491525058e-06
1.38327190651033e-05
-1.0864493058376e-05
-1.37409935112974e-05
1.94325230092735e-06
-7.34389585873583e-06
-7.7485273937354e-06
3.83635717843046e-06
-6.22816325148227e-06
-4.75708606667873e-06
5.78940587408218e-06
-8.3233515446546e-06
-3.63662791000863e-06
1.0116756600246e-05
-1.14109268092302e-05
-2.13231135644313e-06
1.71432350035188e-05
-9.62881750593296e-06
-1.48193525118106e-05
1.342170703012e-06
-6.15012324964761e-06
-8.12568230744143e-06
2.66170862450421e-06
-4.14224080539715e-06
-4.34156537769405e-06
3.77895524643943e-06
-4.44364995272161e-06
-3.17650445973442e-06
5.77427404720692e-06
-7.15474040730336e-06
-2.67228802532769e-06
1.14015200067433e-05
-1.01484842863036e-05
-1.69684840636339e-06
1.99538516461463e-05
-8.33753104193498e-06
-1.54435081069815e-05
9.01868977288323e-07
-5.09356220123139e-06
-8.23976773403906e-06
1.76734537316509e-06
-2.93205895506484e-06
-3.8728345215764e-06
2.4711595693593e-06
-2.41358515720355e-06
-2.48289037351994e-06
3.3665574800774e-06
-3.21657640275593e-06
-2.07572799467945e-06
5.55541323003711e-06
-5.84023637911315e-06
-1.82493409755163e-06
1.2177467632766e-05
-8.42792058656125e-06
-1.35122849432045e-06
2.21966239940381e-05
-7.18857301457608e-06
-1.57766421657553e-05
5.98738903067883e-07
-4.19527997850911e-06
-8.20778553705021e-06
1.14565829550418e-06
-2.14232411810485e-06
-3.4888438455722e-06
1.60390558924463e-06
-1.51882142231801e-06
-1.95418938303725e-06
2.14547158965588e-06
-1.56551598268854e-06
-1.47183822491977e-06
2.9973824599596e-06
-2.3620405933057e-06
-1.29146622961838e-06
5.33362815912136e-06
-4.59237791607376e-06
-1.19712873874558e-06
1.25368403594514e-05
-6.57689060901523e-06
-7.62941654815096e-07
2.35469525928954e-05
-6.24316663439091e-06
-1.59390713110902e-05
4.01573283218079e-07
-3.46590160519622e-06
-8.09976556577903e-06
7.29278044474585e-07
-1.58263521106112e-06
-3.19089290183571e-06
1.02511031262979e-06
-1.00298934766553e-06
-1.57596303421824e-06
1.38372504575048e-06
-8.84894448384312e-07
-1.00146149715157e-06
1.84654116731205e-06
-1.05695850468658e-06
-7.90847447040485e-07
2.69771097114055e-06
-1.73472384120741e-06
-7.17596501056233e-07
5.10345228901708e-06
-3.51309268923704e-06
-7.32748334597652e-07
1.28782352407127e-05
-4.83221714489959e-06
-5.48871034096484e-08
2.38585403521431e-05
-5.48518549080445e-06
-1.60127569066043e-05
2.73428532083579e-07
-2.88632289222519e-06
-7.96110409453449e-06
4.59831628454852e-07
-1.17114957837605e-06
-2.95850104758177e-06
6.36991537968887e-07
-6.48758980644106e-07
-1.30055309718187e-06
8.74233376243709e-07
-4.99783528205547e-07
-6.48787863964889e-07
1.16443948422717e-06
-5.16118592240716e-07
-3.74215530367544e-07
1.58006474100842e-06
-7.06847394204706e-07
-2.75909242987445e-07
2.42660869179478e-06
-1.26330373130498e-06
-2.7357607288659e-07
4.83757995750708e-06
-2.65442778985354e-06
-1.8162739757971e-07
1.32484360758135e-05
-3.33241585422519e-06
9.47543811697934e-07
2.2828845975761e-05
-4.87443972871792e-06
-1.60654674780894e-05
1.95162220811462e-07
-2.42946288573486e-06
-7.82952102680485e-06
2.89366558446421e-07
-8.63470946404261e-07
-2.78263276528259e-06
3.82843609000007e-07
-3.88536306430959e-07
-1.10199110286862e-06
5.29209834686506e-07
-2.36677652416809e-07
-3.89667998011276e-07
7.16360130298013e-07
-2.07995286430699e-07
-4.92120056880704e-08
9.55180645946108e-07
-2.67656890620721e-07
1.00138629707991e-07
1.33545894634529e-06
-4.49256372670781e-07
1.40175609102957e-07
2.15815669209998e-06
-9.13495809204871e-07
1.18122300354794e-07
4.684383070606e-06
-2.0235616492008e-06
3.30302586775267e-07
1.3998416003282e-05
-2.07903729684711e-06
1.74512910715166e-06
2.08396362147115e-05
-4.37138719242064e-06
-1.60562777525794e-05
1.50233733728424e-07
-2.06889992492951e-06
-7.71148848079447e-06
1.80647050168324e-07
-6.31704292653603e-07
-2.65260086841464e-06
2.17828696760371e-07
-1.92725577672041e-07
-9.60013320907776e-07
2.98358429539586e-07
-4.19525256176238e-08
-2.02098853072796e-07
4.13881068433508e-07
2.45785872647072e-09
1.95214313737066e-07
5.59120649059973e-07
-1.36269983531761e-08
3.99578600842779e-07
7.56810707714745e-07
-8.72988778504374e-08
4.91023293635269e-07
1.09946622910577e-06
-2.54011281257129e-07
5.02568111562551e-07
1.89743997333566e-06
-6.58561018369022e-07
4.289860045545e-07
4.68631289792076e-06
-1.64140430769037e-06
2.7043359965823e-07
1.54386980416637e-05
-9.82111308691625e-07
-3.09521317447822e-07
-1.38900468430824e-05
3.20625527174607e-06
-3.1653700916876e-06
-1.23840220671314e-05
6.30711083734313e-06
-2.74769393701019e-06
-1.23483246334332e-05
2.93651553139468e-06
-6.18461475125194e-06
-1.23319335883496e-05
9.70568286363834e-06
-2.64634589149471e-06
-9.93886785058661e-06
5.4947606488533e-06
-5.07845562770797e-06
-1.22325107815106e-05
2.89215844657157e-06
-9.16240003069641e-06
-1.24899766279469e-05
1.32659428950964e-05
-2.46902657955755e-06
-9.42814441016152e-06
7.92019660347435e-06
-4.44371692520049e-06
-8.92932419221656e-06
4.88972207116218e-06
-6.76903379701485e-06
-1.207356020192e-05
2.53423190953696e-06
-1.16968566895976e-05
-1.12882113875461e-05
-1.34964735700301e-05
1.91639316442487e-06
-7.719592013586e-06
-7.68479564194396e-06
3.79083929517015e-06
-6.61641103183069e-06
-4.76604610459369e-06
5.7047180151229e-06
-8.85271536737282e-06
-3.65396430558911e-06
9.90581485256328e-06
-1.21272422774787e-05
-2.15554910644002e-06
1.67045118522046e-05
-1.00759804579407e-05
-1.46358255436094e-05
1.34199347099886e-06
-6.52154148563654e-06
-8.10097735617878e-06
2.66712395191677e-06
-4.45621670649957e-06
-4.38514439089318e-06
3.77839781890829e-06
-4.81381197209347e-06
-3.23323668535341e-06
5.75615541336553e-06
-7.7375805378037e-06
-2.73152362922366e-06
1.1298730022787e-05
-1.09801438715319e-05
-1.75488100872913e-06
1.97296988122157e-05
-8.76108029612454e-06
-1.53060983590091e-05
9.10279635171839e-07
-5.42940848396977e-06
-8.23719301132016e-06
1.78951344732662e-06
-3.18258975718253e-06
-3.92541492834692e-06
2.49608375405962e-06
-2.6534199270572e-06
-2.54777058499801e-06
3.39004629102017e-06
-3.55047534536172e-06
-2.15078506150032e-06
5.58663697079747e-06
-6.41229949377196e-06
-1.90650185167944e-06
1.2183158631343e-05
-9.26523384045006e-06
-1.43267340132298e-06
2.22237427060888e-05
-7.57034404455934e-06
-1.56692817524014e-05
6.07538609830747e-07
-4.48711114665043e-06
-8.21486791110895e-06
1.16877688124788e-06
-2.34342603017567e-06
-3.53780909767052e-06
1.63340839578491e-06
-1.69413967700773e-06
-2.01359170388288e-06
2.17717500248293e-06
-1.76551655011131e-06
-1.54337285807497e-06
3.03419336654122e-06
-2.65690391543837e-06
-1.37341773707418e-06
5.39873276215762e-06
-5.11025267481371e-06
-1.28792940394188e-06
1.26319407382272e-05
-7.33046675691014e-06
-8.50384897396243e-07
2.38004515458643e-05
-6.58138020964366e-06
-1.58462016339767e-05
4.07772129845203e-07
-3.71592051977026e-06
-8.10591883604118e-06
7.46877510321536e-07
-1.74569537958499e-06
-3.22928146292713e-06
1.04913781383394e-06
-1.14080986046991e-06
-1.6244169525014e-06
1.41193947854266e-06
-1.02780437192036e-06
-1.06184794088028e-06
1.87838750202431e-06
-1.22952076831479e-06
-8.62905782400244e-07
2.741382790288e-06
-1.98786133971069e-06
-8.00155435484433e-07
5.18976082461983e-06
-3.95528969149037e-06
-8.26336538704475e-07
1.30422923356133e-05
-5.45267125961681e-06
-1.49549109011354e-07
2.43167914980957e-05
-5.78588966074411e-06
-1.5914546050781e-05
2.76168938359641e-07
-3.09982507428821e-06
-7.95444092977423e-06
4.69738509255645e-07
-1.30473886391134e-06
-2.98089640835008e-06
6.52860018148111e-07
-7.60348234058051e-07
-1.33400971680042e-06
8.94732428362367e-07
-6.11243276151328e-07
-6.94321758090135e-07
1.18803287571267e-06
-6.38037528270721e-07
-4.3120351381952e-07
1.60881342514836e-06
-8.54350504018203e-07
-3.43745391157192e-07
2.47136044526239e-06
-1.47343023472854e-06
-3.5269118043441e-07
4.93347889317701e-06
-3.01534463709772e-06
-2.74955817694793e-07
1.34590381937361e-05
-3.80842525083599e-06
8.60528848116505e-07
2.34738311428873e-05
-5.14552781949917e-06
-1.59313828225974e-05
1.89716157699054e-07
-2.61344168870786e-06
-7.79328936884611e-06
2.89597387724501e-07
-9.73245871911316e-07
-2.77750187171766e-06
3.88600679918318e-07
-4.7952453487127e-07
-1.11145123137723e-06
5.38869706865382e-07
-3.26448927246036e-07
-4.12912457488461e-07
7.28114789364812e-07
-3.02151129959046e-07
-8.44035406235659e-08
9.68774059678959e-07
-3.71539104570473e-07
5.42891524284099e-08
1.35374831996758e-06
-5.72245677263546e-07
8.36149531757168e-08
2.19239792202262e-06
-1.08137616438926e-06
5.04630185138327e-08
4.77330369398895e-06
-2.31154788217489e-06
2.58436606669237e-07
1.42253059438188e-05
-2.39697432625022e-06
1.66184343918624e-06
2.14847657443347e-05
-4.62236508547685e-06
-1.59524770508323e-05
1.37996373008081e-07
-2.22734916912772e-06
-7.6515439323302e-06
1.75640849944645e-07
-7.21579962485615e-07
-2.62030933176275e-06
2.16917672963891e-07
-2.66819607514542e-07
-9.44872447699693e-07
2.9981141534001e-07
-1.15311432916434e-07
-2.03265519466818e-07
4.16157349065737e-07
-7.33377991051849e-08
1.81304733146748e-07
5.61628519409668e-07
-9.37426937534757e-08
3.75534933227499e-07
7.5989368869704e-07
-1.74776041742092e-07
4.57589144305748e-07
1.10552046883685e-06
-3.54538224342029e-07
4.5978466833165e-07
1.91700646562659e-06
-7.96108372468578e-07
3.80721027544071e-07
4.77143443731451e-06
-1.88057025732382e-06
2.24941585412609e-07
1.57575971575084e-05
-1.08241524571999e-06
-3.59333558449088e-07
2.12991998147333e-05
-4.18466007757624e-06
-1.5926663872919e-05
1.0747649765422e-07
-1.9191072962658e-06
-7.53279285349358e-06
1.03729503383158e-07
-5.29198738602423e-07
-2.50486051048572e-06
1.06146517254027e-07
-1.04187433870783e-07
-8.23528914422243e-07
1.42171430395935e-07
4.60924069375836e-08
-4.95956655408358e-08
2.06404575845842e-07
9.61207191646188e-08
3.78908816358747e-07
2.92587064225987e-07
9.51971221810834e-08
6.21866302047101e-07
4.0172556873812e-07
5.72086294891263e-08
7.55040728584911e-07
5.61043534750165e-07
-2.3874027274047e-08
8.16270039059004e-07