/*--------------------------------*- C++ -*----------------------------------*\
  =========                 |
  \\      /  F ield         | OpenFOAM: The Open Source CFD Toolbox
   \\    /   O peration     | Website:  https://openfoam.org
    \\  /    A nd           | Version:  12
     \\/     M anipulation  |
\*---------------------------------------------------------------------------*/
/*   Windows 32 and 64 bit porting by blueCAPE: http://www.bluecape.com.pt   *\
|  Based on Windows porting (2.0.x v4) by Symscape: http://www.symscape.com   |
\*---------------------------------------------------------------------------*/
FoamFile
{
    format      ascii;
    class       volVectorField;
    location    "400";
    object      U;
}
// * * * * * * * * * * * * * * * * * * * * * * * * * * * * * * * * * * * * * //

dimensions      [0 1 -1 0 0 0 0];

internalField   nonuniform List<vector> 
10103
(
(-0.000118555204746474 1.52355975410683e-05 -0.000519505428803524)
(-0.00012570009712805 1.6811984866435e-05 -0.000578790948686784)
(-9.89048441940248e-05 -0.000139393162422123 -0.00024076106212908)
(-0.000346497080748091 0.000168833723137802 -0.000201859236422453)
(-0.000120564230169776 1.74665054864384e-05 -0.000648662813445785)
(-0.000100419592150445 -0.000142048500266561 -0.000282714942031304)
(-0.000347041088759919 0.000167636584277723 -0.000224685416881701)
(-0.00010665642832142 -0.000368120482230008 -0.000186061251672227)
(-0.000173640317286386 0.000287009167938 0.000287180099785835)
(-0.000377630235860501 0.000236388445784786 -0.000128698152647251)
(-0.000109997594767078 1.65667422436546e-05 -0.000712480346737739)
(-8.2257702841621e-05 -0.000133703419085446 -0.00031838817155937)
(-0.000316036467947682 0.000171366882993055 -0.000248223107588765)
(-0.000101670820168603 -0.000373450618928926 -0.000226567694392417)
(-0.000161837069208897 0.000283746778541578 0.000292530911616736)
(-0.000364558654067473 0.000235464080762784 -0.000133396066045606)
(-5.10676183808284e-05 -0.000590634721818982 -0.000170320658344359)
(-8.31530704109129e-05 0.000316155080119035 0.000403166185362753)
(-5.3318590250597e-05 0.000421597226628074 0.000346004018759079)
(-0.000315513061519091 0.000293294304358955 -0.000109868113334689)
(-0.000102054045138097 1.53659749808382e-05 -0.000766399030125936)
(-6.4510101079182e-05 -0.000128921503998168 -0.000350031818758955)
(-0.000282603694468249 0.000171581220657832 -0.000270305658767388)
(-8.14162900324379e-05 -0.000356033748359485 -0.000265707553230088)
(-0.000104770491235515 0.000301975902913748 0.000313597457114281)
(-0.000308819713198282 0.000242381177068185 -0.000142679537776779)
(-4.1495656085338e-05 -0.000590896391772046 -0.000214694905514097)
(-5.9818717489817e-05 0.000315234393208241 0.000410428573751195)
(-2.39683047607137e-05 0.000422742867920712 0.000367579784050596)
(-0.000289284648840703 0.000293519351203623 -0.000108203388540699)
(4.02646279548138e-05 -0.000719709222601143 -0.000135558248535411)
(5.5754000389519e-05 0.000314258087725444 0.00038628967890635)
(8.9053387534669e-05 0.000527789040531838 0.000464819367348576)
(8.95125334846186e-05 0.000438278068639015 0.000285745706649577)
(-0.000258184466499241 0.000324716601298 -0.000113383540065869)
(-9.52828707674752e-05 1.46928565206235e-05 -0.00081092449725815)
(-5.17498317169804e-05 -0.000126392651739044 -0.000370130738658388)
(-0.000257250659789122 0.000169104129944606 -0.000284037103361406)
(-6.46319024080126e-05 -0.000342749368758818 -0.000300904155528773)
(-6.23303430709819e-05 0.000309460268807612 0.000325953945126329)
(-0.000260407387111028 0.000245296245175206 -0.000157857100957707)
(-2.26023301438533e-05 -0.000563769146330319 -0.00026187346233388)
(-1.54990962989114e-05 0.000338422211476832 0.000419629902423786)
(4.53047584231391e-05 0.000433903922967043 0.000384714061894498)
(-0.000220934700527978 0.000299929698096243 -0.00011725779407876)
(5.0351381771034e-05 -0.000711944006765457 -0.000180456898112867)
(7.9587124272614e-05 0.000325014842220595 0.000386582491142296)
(0.00012253804719731 0.000536553723495816 0.000485463695913364)
(0.000125977913897399 0.000442676948902649 0.000301265667649681)
(-0.000221902198021757 0.000323584138814835 -0.000111436654899794)
(0.000112405053020695 -0.000758742886563295 -8.81411665872569e-05)
(0.000153294683126439 0.000327970912419158 0.000349151291813581)
(0.000194720158062605 0.000589360897558971 0.000433733975199401)
(0.000270096063205885 0.000585526623797111 0.000411275834969619)
(0.000220278511785573 0.000403914712423072 0.000238432331283528)
(-0.000173036404056082 0.000401143599802365 -0.000123899139254832)
(-8.76256112306596e-05 1.46714913867784e-05 -0.00084646365157947)
(-4.09623356437354e-05 -0.00012326563348295 -0.000379439502695787)
(-0.0002330093422703 0.000165736377660395 -0.000286651431459414)
(-5.21117258989494e-05 -0.000333613365572832 -0.000324413850143723)
(-3.31915789505433e-05 0.000308077916004631 0.000345577685991503)
(-0.000224655159326998 0.000243486935969143 -0.00016879582385249)
(-1.01115265428807e-05 -0.000542530908088516 -0.000303490628446049)
(1.19863340453208e-05 0.000349160974449368 0.000422376614217937)
(9.0153435476878e-05 0.000434632670226692 0.000387592845791129)
(-0.000167110801618132 0.000300735811114674 -0.000137047352447093)
(6.37105482310105e-05 -0.000678230076371322 -0.000228436518850261)
(0.000106255517426979 0.00035086374774883 0.000380698648680735)
(0.000162369504840901 0.000547313035551747 0.000492368340964302)
(0.000188381543350275 0.000446455198505712 0.000305297976908358)
(-0.000153690405287904 0.000325717059478741 -0.000123977457916187)
(0.000121964455278739 -0.000744525907586113 -0.000128102198944642)
(0.000172666605181768 0.000346695691748215 0.000344275343508854)
(0.000220903774519953 0.000604923007661218 0.000445636945879227)
(0.000300909415627298 0.000593924172352375 0.000424160717063342)
(0.000257905390778274 0.00040677442963202 0.000246171763747948)
(-0.00013335666351011 0.000396429335765334 -0.000122800615396982)
(0.000156598400222302 -0.000732459801859151 -3.84620050741722e-05)
(0.00019914119665517 0.000359381305316774 0.000327008344806996)
(0.00024476159140139 0.00064665141528791 0.000391878255329514)
(0.000316245486492526 0.00065349546213848 0.000384556728177461)
(0.00042710881159645 0.000585846042981037 0.000353553803357176)
(0.000352355848012799 0.000406484840033885 0.000199543372332451)
(-3.11093479121007e-05 0.000578252480951384 -0.000136554039426028)
(-7.82499702767312e-05 1.51355432964422e-05 -0.000872111520390326)
(-2.99535592617654e-05 -0.000118299660097006 -0.000378736062261254)
(-0.000205354465982887 0.000162146921507354 -0.000278021634472859)
(-4.07620307186553e-05 -0.000324562769545684 -0.000337947016028977)
(-7.40634030130445e-06 0.000303478429668535 0.000375103320195335)
(-0.000189100604115998 0.000239359072218086 -0.000171107759363979)
(-2.30519526580344e-06 -0.000526433933955913 -0.000334378685275982)
(2.97030797610673e-05 0.00034858701084688 0.000431698555537103)
(0.000120837638593975 0.000427337902629457 0.000394788313918017)
(-0.000125015965975969 0.000295539374635288 -0.000155944997307993)
(7.03773719774846e-05 -0.000652590657176924 -0.00027068948361597)
(0.000119437660319012 0.000363710981454498 0.000373229962841912)
(0.000184519668810968 0.000546877874790622 0.000491550122408915)
(0.000228936808199178 0.000442339543990072 0.000296926421001489)
(-0.000101869320830281 0.000321705083173416 -0.000151614770819065)
(0.00013098856091625 -0.000708561441105579 -0.000171059345588102)
(0.000188313014610144 0.00037169162110889 0.000332184953843655)
(0.000241943834906135 0.000615796987628408 0.000445545038703843)
(0.000333714825826572 0.000596793562194858 0.000425668205022675)
(0.000310802506985583 0.000405468886236422 0.0002425944668762)
(-7.20670516970168e-05 0.000395659881249163 -0.00013894212095951)
(0.000165160243196944 -0.000714803811207157 -7.13671584424026e-05)
(0.000214605093967945 0.000381364554844341 0.000320760777681118)
(0.000263165613078441 0.000664401189127387 0.0003964265500769)
(0.000338479715346716 0.000664449990821523 0.000391147440822969)
(0.000456318098680266 0.000591079506432785 0.000359223227572267)
(0.000390311427734653 0.000405863033138433 0.000202871843843562)
(3.93344568511752e-06 0.000571560065777488 -0.000136360949825435)
(0.000179642214694116 -0.000663475460670933 8.88602736084303e-06)
(0.000221648460141646 0.000403836322845667 0.000321301177504926)
(0.000264901112299604 0.000701369969409093 0.00037226714018059)
(0.00032104112067324 0.000704932414652884 0.000345784855548759)
(0.000416453333953199 0.000675559989892344 0.000328805616943644)
(0.000549233569922284 0.000604641099773928 0.000303634945907896)
(0.000537183608878646 0.000462618295092913 0.000163246945781567)
(0.000171465224817076 0.000893367702333599 -0.000151359826279417)
(-6.71930620199821e-05 1.56895634324772e-05 -0.000886650144041663)
(-1.77196129143146e-05 -0.00011113122471396 -0.000367627148004835)
(-0.000173297015200338 0.0001583443510753 -0.000258244151025356)
(-2.87536730417464e-05 -0.000313423074134808 -0.000342554266933272)
(1.97169852634813e-05 0.000297960791524385 0.000414612002467957)
(-0.000148908842413048 0.000233858475817883 -0.000164065239758139)
(4.27960047633065e-06 -0.00051117903852577 -0.00035728380184419)
(4.50172904468458e-05 0.000342794599992249 0.000447715260873825)
(0.000148489796048384 0.000415700697233885 0.000408224626821743)
(-8.08967218668241e-05 0.000286875905516617 -0.000168711419114209)
(7.31669051382488e-05 -0.000632516122760252 -0.000303412534805942)
(0.000126424434578997 0.000366074762622962 0.000372060973774379)
(0.000198519175288516 0.000538092858127167 0.000494083984996582)
(0.000258832049575816 0.000432350263083127 0.000290044746623055)
(-5.82333159805533e-05 0.00031232411730211 -0.000181116904319092)
(0.000133752459482842 -0.000682892198952154 -0.000209233320537775)
(0.00019366165457594 0.000383389340068411 0.000320637225319465)
(0.000251830559128218 0.000615029522813517 0.000442521153353127)
(0.000353875929896522 0.000590673122486747 0.000421627001327689)
(0.000347049693477751 0.000396993381971297 0.000228688032502225)
(-2.85578290126027e-05 0.000388782348119863 -0.000172842916694701)
(0.000171602263615348 -0.00067908054273557 -0.000107126844185948)
(0.000224118128766552 0.000403424419179016 0.000308000597630209)
(0.000274917211423351 0.000674139270109039 0.000392700513917739)
(0.000356347164431688 0.000667723427943279 0.000389909427766199)
(0.000485384918567978 0.000589208895254493 0.000357427688170581)
(0.00043568865927916 0.000400637416618721 0.000196020669379729)
(5.13547303521151e-05 0.00057111432826652 -0.000155152735947128)
(0.000187036517508349 -0.000644643563704657 -1.69215185847689e-05)
(0.000233516956930463 0.00042608096441358 0.000316350320979116)
(0.000278167818025788 0.000718788088793155 0.000373515438479274)
(0.00033655592343745 0.000716219624380527 0.000346720070928006)
(0.000438051760059287 0.0006816179617982 0.000329318834728272)
(0.000578545464149431 0.000606169814987703 0.000305435344688956)
(0.000574219267962956 0.00045937069366752 0.000164979966823194)
(0.000195940176315545 0.000887274369649308 -0.000146608957766848)
(0.000184546029714554 -0.000573404947054925 5.00652932507909e-05)
(0.000233043258524707 0.000454167743220921 0.000326073093557337)
(0.000272854441544292 0.000753434047191097 0.000368727583518243)
(0.000320568808682447 0.000751482034739225 0.000328429003832438)
(0.000385043419505312 0.000737762777138831 0.000299260106077746)
(0.000495076608235582 0.00071843183287385 0.000285954344415042)
(0.000681507264647168 0.000663733876494656 0.000261678370494659)
(0.000769426152792711 0.000576388971706719 0.000127349892198523)
(0.000386905685980277 0.0014223226369435 -0.000169908587972296)
(-5.49192338681805e-05 1.6056208012875e-05 -0.000889136662144074)
(-4.22967965973742e-06 -0.000101969551205245 -0.000345402345251716)
(-0.00013780559100869 0.000154099250108412 -0.000227608004390411)
(-1.55375133790929e-05 -0.000299288535075237 -0.000337698700930708)
(4.92267115857301e-05 0.000292178157849621 0.000463873253331486)
(-0.000103897511336933 0.0002268095898622 -0.000148179001251165)
(1.13449425926036e-05 -0.000494332699517976 -0.00037289172863153)
(6.09829726225309e-05 0.000334711084131989 0.000469770811279346)
(0.00017756058188727 0.00040144917628714 0.000427956352446373)
(-3.1103526057234e-05 0.000275799359918105 -0.000174656300412688)
(7.42788094574751e-05 -0.00061376713037663 -0.000329428950679073)
(0.000131563429870042 0.000362573734007931 0.000376231512471012)
(0.000209959940219146 0.000524108169789681 0.000500571419637132)
(0.00028639978822132 0.00041826024989162 0.000286870417562396)
(-1.07701837378459e-05 0.000299236526125549 -0.000206608217502431)
(0.000133457831060983 -0.000663386249352124 -0.000239633942807453)
(0.000194507618763083 0.000385738003838582 0.000314626346154161)
(0.00025697303417073 0.000606531786849998 0.000442470894447031)
(0.000368019900152243 0.000578338254703695 0.000419107453409284)
(0.000376027219166414 0.000383468466991071 0.000214485815328491)
(1.08543467144725e-05 0.00037718378623702 -0.000209780769277797)
(0.000172391970122928 -0.000655706903767423 -0.000138819535620767)
(0.000225397140356719 0.00041191714706292 0.000296143058238961)
(0.000278721277616483 0.000672102526174684 0.000387784259250563)
(0.000366142407503125 0.000661631444864215 0.000386523987071636)
(0.000504256081041915 0.000579676522904671 0.000351613091741111)
(0.000467065314843896 0.000388437016579848 0.000180149917898737)
(7.98456712990054e-05 0.000563493584713191 -0.000190062524765807)
(0.000191811317885131 -0.000610584683837458 -4.5800406079464e-05)
(0.000240329500550545 0.000444638193246264 0.000305284022908938)
(0.000285424811433719 0.000726813303238173 0.000369006548637907)
(0.000347132326262763 0.000718661570184805 0.000342377123525377)
(0.000455929195699849 0.000679917174025534 0.000325153808905688)
(0.000605521621944568 0.000600617497384654 0.000301902724422943)
(0.000612382744898455 0.00045093701495954 0.000157070278631463)
(0.000223972571325247 0.000888400350048599 -0.000164574905379496)
(0.000191163656574378 -0.000554640527053191 3.05367728873419e-05)
(0.000242071360265416 0.000475702321947446 0.000322753140178527)
(0.000282399165819193 0.000769431707301566 0.000369543708494871)
(0.000331714549080548 0.000761670261993138 0.000326559608396092)
(0.0003999077876683 0.000742992919690819 0.000295536514440297)
(0.000516677453710351 0.000720162097284015 0.00028324166563156)
(0.000710631389139779 0.000662124748576363 0.000261579347075717)
(0.000804132732971098 0.0005725137069856 0.00013006565217649)
(0.000396655897525909 0.00142067999318162 -0.000156704566421129)
(0.000177223853071401 -0.000476300356945738 8.49730445122138e-05)
(0.000231493762856249 0.000509337096479822 0.000335003731085954)
(0.000272880150308511 0.000803688149138524 0.000373476632781554)
(0.000318223679834967 0.000794819601432337 0.000326607728280415)
(0.00036834078909851 0.000787976940757381 0.000288397684668465)
(0.000438382319591067 0.000795023965812947 0.000266863757738688)
(0.000579715152146627 0.000792580894835915 0.000253581955179264)
(0.000835264552581848 0.000773038445699818 0.000224660339556349)
(0.00101263915193794 0.000793346602401899 8.69891454849798e-05)
(0.000511143871954768 0.00224967112692476 -0.000192807773617164)
(-4.21521726055948e-05 1.62529582919889e-05 -0.000879540386763338)
(-0.000100699916707917 0.00014909874167327 -0.000186655030729232)
(9.48515999925771e-06 -9.14341851533666e-05 -0.000312080856106155)
(-1.1275815283975e-06 -0.000281912350407609 -0.000322668696758813)
(8.05014658968668e-05 0.000285829301454328 0.000522449397441678)
(-5.54410687269196e-05 0.000218084339319192 -0.000123594436805895)
(1.87799918607684e-05 -0.00047483532322758 -0.000380505236282792)
(7.81192363099475e-05 0.000325228494605226 0.000497700329795084)
(0.000208333503481109 0.000385274597869208 0.000453284814673585)
(2.35429612696542e-05 0.000262295409645623 -0.000173373187125898)
(7.45985524438995e-05 -0.000594462042865239 -0.000349777949677899)
(0.000136290215563374 0.000355402372295157 0.000384731215522897)
(0.00022083221870013 0.000506346335824945 0.000510668790115444)
(0.000314435761570234 0.000400843108195624 0.000287935026463023)
(4.25763196337642e-05 0.000282663054125971 -0.000226430501533712)
(0.000131450878380923 -0.000645822690730254 -0.000264558538206437)
(0.000193352634728491 0.00038247220063577 0.000312994364543541)
(0.000260040051722525 0.000592648632279188 0.000445702710736555)
(0.00037917668368397 0.000561425453150329 0.000419407743019187)
(0.000403430310833309 0.000366005136839797 0.000202801465747557)
(5.57003400583371e-05 0.000362165354726359 -0.000244314879505129)
(0.000170408299721485 -0.000639260230563394 -0.000164268731998488)
(0.000222969331837525 0.000411813771260275 0.000288669358874763)
(0.000279097263119962 0.000662867872684163 0.000385384273078431)
(0.000372888830473956 0.000649576978208429 0.000384756731182894)
(0.000518128656621275 0.000564952168093616 0.000346504164984363)
(0.000493265751650236 0.000371468150368187 0.000162855148722245)
(0.00010779833595191 0.000551457512962764 -0.000231647891404865)
(0.000191703248165552 -0.000590449241380379 -7.11818736576528e-05)
(0.0002401605505617 0.000449365272477822 0.000294967719416011)
(0.000286378024730145 0.000723130308862967 0.000363832148862641)
(0.000351546600662469 0.000711459720939511 0.000336923241086569)
(0.000466739860181593 0.000669963443634129 0.00031950870907965)
(0.000623416664308813 0.00058797923154687 0.000295094372220547)
(0.00063816758214818 0.000435138197105646 0.000141138777479217)
(0.0002305180208151 0.000880964760343212 -0.000202370586356937)
(0.000194627547013309 -0.000522774875300714 7.79837003852895e-06)
(0.000247007659659282 0.000490783682112055 0.000314038026584675)
(0.000286859540888706 0.000775400556356459 0.000365900295712818)
(0.000338472987463683 0.00076254070395738 0.000321232086656484)
(0.00041047643759832 0.000739995523233112 0.000288941608831348)
(0.000534002821244689 0.000714412236079894 0.000277396886444606)
(0.00073569877722797 0.000653509566773754 0.000257371490166444)
(0.000835050285849685 0.000561769218748307 0.00012350912880551)
(0.000403354116052505 0.00141930805708469 -0.000171135547466918)
(0.000183168297151078 -0.000457873545178622 7.08103811535545e-05)
(0.000238622325765239 0.000529476878065633 0.000333796205340189)
(0.000279671658803299 0.000818223371172364 0.000374943610412263)
(0.000325748653662404 0.000803564387406346 0.000324335739985525)
(0.00037831130804635 0.000791778265472785 0.000283045290552927)
(0.000452981723642755 0.000795601232536741 0.000260902353132957)
(0.000601021484710252 0.000790883724698306 0.000249380062613566)
(0.00086378243471334 0.000769569476147971 0.000224007411085207)
(0.00104406909112976 0.000792589687058206 9.22773659385353e-05)
(0.000508279142623923 0.00226989018904184 -0.000167589599162298)
(0.000163940674895245 -0.000379974908121053 0.000114102252189494)
(0.000220826055887597 0.000566421705994083 0.000345729461349738)
(0.00026510214371023 0.000852126594109245 0.000381412307322146)
(0.000311435064277671 0.000836186368356916 0.000332404297152464)
(0.000356975222774741 0.000830572508266121 0.000290156916006415)
(0.000407677170991601 0.000851289343620383 0.000262493446962459)
(0.000495144963566256 0.000877128998170775 0.000244149908844619)
(0.00067205563004402 0.000900222372715673 0.000227287464154718)
(0.000988693897489958 0.000944745525087148 0.000190252558520544)
(0.001193142382967 0.00115658399356736 4.21310840280753e-05)
(0.00035185546053812 0.00326642191636121 -0.000211292346021436)
(-3.00129471001929e-05 1.64236931242867e-05 -0.000859127419643057)
(-6.424695485913e-05 0.000143284289702224 -0.000136685504409216)
(2.15381546997238e-05 -8.01561898302526e-05 -0.000269322821827321)
(-5.9684464947475e-06 0.00020761062345815 -9.03719213436417e-05)
(0.000111580590094808 0.000278669076755818 0.000588889407163289)
(1.36278761020043e-05 -0.000261870217278816 -0.000297181625160687)
(2.60336208064969e-05 -0.000452350010916756 -0.000379120307969613)
(9.53883629776728e-05 0.000314526691077436 0.00053129801123767)
(0.000239238157575111 0.000367303576860954 0.000483398302939392)
(8.0815562901525e-05 0.000246050956738545 -0.000164266353429679)
(7.44240825058857e-05 -0.00057369893027491 -0.000364014533840301)
(0.000140675801950244 0.000345458403830982 0.000397094495112888)
(0.000231119066680325 0.000485392618666775 0.000523940396909535)
(0.000342494424972385 0.000380403032045045 0.000293020993890893)
(0.000100634759940539 0.00026272902770487 -0.000239809656507888)
(0.000128096170257851 -0.000628637617255356 -0.000284992599115958)
(0.000190967723345553 0.00037507527099381 0.000314745472653088)
(0.000261631323661423 0.00057442089434924 0.000451844874533742)
(0.000388518404226805 0.000540509910872352 0.000422690524265385)
(0.000430315211450114 0.000344932600523273 0.000194612862967381)
(0.000106237544348806 0.000343190466148832 -0.000274295965625124)
(0.000166795299089614 -0.000625440446211665 -0.000185516517766008)
(0.000218626913858015 0.000406419941240703 0.000284693836220974)
(0.000277367625076392 0.000648389519886726 0.000385709952660622)
(0.000377569793119186 0.000632855604093988 0.000385462907302954)
(0.000529244920958167 0.000545975168787559 0.000343632661719275)
(0.000518398282026976 0.000350550857579249 0.000147231637464024)
(0.000142087853804816 0.000536839980889878 -0.000272354283656793)
(0.000189181698960802 -0.000578019182917053 -9.14492287068024e-05)
(0.000236440658081485 0.000445940093436408 0.000287905890840334)
(0.000284074872416445 0.000712353504119371 0.000360586363527552)
(0.000352829424690304 0.000698185998455481 0.000333038160292571)
(0.000474019400868361 0.000654659854893761 0.000315081155734327)
(0.000637087349055369 0.000570456886753883 0.00028853805099921)
(0.000660612101177858 0.000414881505037851 0.000122823374580066)
(0.000240386484665564 0.000869300729031199 -0.000248116795539475)
(0.00019400025961896 -0.000505979946340988 -1.20341134753617e-05)
(0.000246364041537935 0.000492119004276029 0.000305669837855001)
(0.000286199675606606 0.000769790232284571 0.000361598707168267)
(0.000340065187752752 0.000753714376938064 0.000315211855488629)
(0.000415482153389629 0.000728550973936469 0.000281709311693311)
(0.000544769403016751 0.000701092981273816 0.000270426086627599)
(0.000752287082964736 0.000637934925898104 0.000250392521201486)
(0.00085482910148928 0.000542410156751705 0.000108551486947207)
(0.00038541588646598 0.00140988147160704 -0.000208995809834192)
(0.000185808740758552 -0.000428450684937827 5.32851203739033e-05)
(0.000241765221575806 0.000541900104674878 0.000327600223062968)
(0.000282373407876571 0.000822335716258997 0.000372691704895608)
(0.000329270096498338 0.000802814621418944 0.000319515359761091)
(0.000384166681568914 0.000787171891391956 0.000275805226439301)
(0.000463159121319464 0.000788439932809218 0.000253081598188857)
(0.000617583646700777 0.000782036466152458 0.00024291348842975)
(0.0008868486044802 0.000758647125969851 0.000220270412292066)
(0.00106795282478605 0.000781194851215203 8.84370610272213e-05)
(0.000493689160534119 0.0022629177303997 -0.000183274728182306)
(0.000169330288473426 -0.000361462284264381 0.000104825360732911)
(0.000226561770219339 0.000585161143121367 0.000346608652170039)
(0.000270053074084396 0.00086531137344701 0.000383973084261381)
(0.00031661980071951 0.000843622652429855 0.000330844912944122)
(0.000363573789092389 0.000832977501675872 0.000284904503854124)
(0.000417231468446285 0.00085037711640645 0.000255533406138353)
(0.000509344592453912 0.000874254924344887 0.000237397539610015)
(0.000692936128084527 0.000896208038078532 0.000222656629262336)
(0.0010161487381412 0.000941443423011796 0.000190041954428454)
(0.00122477061624473 0.00116438301911494 5.138679847694e-05)
(0.000340997360092782 0.00333660986717297 -0.000171224335005141)
(0.000149056063541483 -0.000287784148212619 0.000139314615249123)
(0.000205863636191924 0.000622289575372718 0.000356566445620541)
(0.000251308094767025 0.000897813659872979 0.000390121611827584)
(0.000298987620825471 0.000875301179196125 0.000341181321672244)
(0.000343946909114613 0.000868144213600034 0.000297987373300052)
(0.000387420396877146 0.000894278868403061 0.000267549882131005)
(0.000446664949111993 0.000935006005401392 0.000245367454339002)
(0.000553256429753481 0.000981920828254668 0.000226503952295701)
(0.000755340106977162 0.00104695424590505 0.000204318122816105)
(0.0010945634089575 0.00118690342390016 0.000158118405062868)
(0.00109840701311787 0.00162278046811555 -1.21715547462318e-05)
(0.000551862950363858 0.00370558446880691 -0.000185163166540072)
(-1.93132064031547e-05 1.68200835223709e-05 -0.00082975015287126)
(-3.05655942565965e-05 0.000137248875824956 -8.02227147642751e-05)
(3.12202986335285e-05 -6.839775006951e-05 -0.000219706060801514)
(4.12259009120255e-05 0.00019552455786842 -4.93749337157783e-05)
(0.000139708615184913 0.000270972193656347 0.000660996666863188)
(2.75849213383539e-05 -0.000240464925086269 -0.000261961552975914)
(0.000137453783370768 0.00022692256634819 -0.000146608345947532)
(0.000267646738352897 0.000347952273791434 0.000517098039186325)
(0.000111526998401104 0.000302461029579074 0.000570059726653886)
(3.3193629357685e-05 -0.000427167575541367 -0.000368055363593326)
(7.31220262213551e-05 -0.000551162467091062 -0.000371410136644241)
(0.000144096416003452 0.000333094459315481 0.00041310667450368)
(0.000239819109633727 0.000461515871605845 0.000539914359346418)
(0.000368733945654436 0.000357021239362525 0.000301816695179437)
(0.000160893440582191 0.000239195475539191 -0.000245578201723298)
(0.000123516882168209 -0.000611268630736752 -0.000300884749403646)
(0.000187327548200248 0.000364155597857094 0.000319350081408591)
(0.00026140123915603 0.000552291391190678 0.000460465938285223)
(0.000395626625654365 0.000515878125596193 0.000428764285838896)
(0.000455642355521728 0.000320547956420647 0.00019007218263279)
(0.000161120005018794 0.000319988697517843 -0.000298792912070027)
(0.000161890489062584 -0.000612796219486907 -0.000203448670731015)
(0.000212776443198768 0.000396787785132113 0.000283366421971399)
(0.000273894867896745 0.00062935217398894 0.000388349052439973)
(0.000380088435210856 0.000611839986082331 0.00038865334261946)
(0.000537752654538738 0.000522947406883114 0.00034352610247847)
(0.000542543097651263 0.000325594490459351 0.000134827896827372)
(0.00018104189383068 0.000518001635674141 -0.000308806534586767)
(0.000185158623496885 -0.000568912858614861 -0.000108452861091465)
(0.000230774465483948 0.000437331698160004 0.000283414538310554)
(0.000279472950062491 0.00069631554875676 0.000359364519401272)
(0.000351653260048117 0.00068005853924875 0.00033143218259804)
(0.000478790252157 0.000634907040178833 0.000312752780248939)
(0.000648171513733682 0.000548742827884854 0.000283892515363155)
(0.000682782875659766 0.000390603210343027 0.000105811939128309)
(0.0002576044034814 0.0008575638250379 -0.00029363295060484)
(0.000191470123679392 -0.000497501764061713 -2.76268592793269e-05)
(0.000242732381294508 0.000485505841455806 0.00029963887695715)
(0.000282653146124138 0.000757277261632219 0.000358571195145586)
(0.000338244638068327 0.000738837127906143 0.000310442474498375)
(0.00041745700991435 0.000711629423241178 0.000275578952384063)
(0.000552318139577528 0.000682681115475188 0.000264386627237409)
(0.000765362877744297 0.00061755146194251 0.000243445021248147)
(0.000873072935972792 0.000518844309418155 9.03571385626899e-05)
(0.000377371443582809 0.0013959854752287 -0.000256611370246303)
(0.000184832947901302 -0.000414827895608488 3.81594721664878e-05)
(0.000240634537219942 0.00054041121388487 0.000321451316501743)
(0.000280821089001195 0.000814945755465387 0.000369669381919332)
(0.000328474007170635 0.000792427832582046 0.000314079830771718)
(0.000385384406839519 0.000774099765942852 0.000268172303583285)
(0.000468128374906254 0.00077353115044382 0.000244841705870238)
(0.000627962528729199 0.000765965348521641 0.000235609489982643)
(0.000901889557789013 0.000740398977290683 0.000214018839332948)
(0.00108189566934315 0.000758036489810996 7.49315941206601e-05)
(0.000447619546688718 0.00225613540807132 -0.000222581822701852)
(0.000171174397321356 -0.000334317519354907 9.18076526290786e-05)
(0.00022891983612861 0.000595255313096466 0.000342718351405216)
(0.000271622217919475 0.000867861417019195 0.000383213320720228)
(0.000318361331891184 0.000841516116636923 0.000327156865939915)
(0.000366457277426683 0.000826987990065056 0.000278240731292499)
(0.000422672983587321 0.000841702735256085 0.000247363718640788)
(0.000519058620664678 0.000864067240294099 0.00022929747575959)
(0.000708676562118358 0.00088515454772599 0.000216466941102132)
(0.0010371958159397 0.00092922084091999 0.000187745760645112)
(0.00124382723892423 0.00115449443816458 4.9095735847668e-05)
(0.000301297168894211 0.00330752985314417 -0.000190041069438368)
(0.000153577269771872 -0.000269887108216538 0.000133662495143294)
(0.000210750728846314 0.000639825389982274 0.00035947551604102)
(0.000255071855771382 0.000909792146669128 0.000393954040263019)
(0.000302577825157064 0.000881592959040892 0.000340760715085682)
(0.000348272845252078 0.000869402152490824 0.00029368525686702)
(0.000393554497431421 0.00089207369172195 0.000260976864205253)
(0.000455811838116416 0.000930734593627123 0.000238044532247896)
(0.000567054110796784 0.00097669972503668 0.000219822880123848)
(0.000775627198983177 0.0010419236835782 0.00020007939986434)
(0.00112130601742807 0.00118678552776344 0.000158816548063712)
(0.00113586819679879 0.00163237354087168 2.57306579028768e-06)
(0.000519834802139883 0.00369726264637298 -0.000134376734509466)
(0.000134633139979741 -0.000200813550399168 0.000160884789080518)
(0.000188819282797195 0.000675239241710851 0.000366937725187878)
(0.000234002690761535 0.000939766808349233 0.000398617759393594)
(0.00028195667244129 0.000911290796604349 0.000350741554659343)