/*--------------------------------*- C++ -*----------------------------------*\
  =========                 |
  \\      /  F ield         | OpenFOAM: The Open Source CFD Toolbox
   \\    /   O peration     | Website:  https://openfoam.org
    \\  /    A nd           | Version:  12
     \\/     M anipulation  |
\*---------------------------------------------------------------------------*/
/*   Windows 32 and 64 bit porting by blueCAPE: http://www.bluecape.com.pt   *\
|  Based on Windows porting (2.0.x v4) by Symscape: http://www.symscape.com   |
\*---------------------------------------------------------------------------*/
FoamFile
{
    format      ascii;
    class       volScalarField;
    location    "300";
    object      k;
}
// * * * * * * * * * * * * * * * * * * * * * * * * * * * * * * * * * * * * * //

dimensions      [0 2 -2 0 0 0 0];

internalField   nonuniform List<scalar> 
10142
(
0.00012088385044665
0.00011712768963592
0.000355402343676942
0.000123669104246318
0.000112954902340079
0.000347404980558311
0.000119902663410147
0.000521495457598789
0.000355996651366843
0.000126954037362438
0.000108267439476864
0.000338479692814652
0.00011571107097202
0.000510447292508566
0.000347999973076957
0.00012312162787991
0.000652878452245557
0.000521085866913613
0.000355935882888766
0.000127703569467149
0.000102999795095814
0.000328510747989469
0.000110989542154857
0.000498170687175655
0.000339067830127601
0.000118853800159466
0.000639344072546707
0.000510048889742901
0.000347936175415244
0.000123851717466673
0.000765393745751134
0.000651967306084495
0.000518407980139408
0.000352976891719907
0.000124532585357801
9.71012616109408e-05
0.000317379976730918
0.000105690686222635
0.000484565892047111
0.000329088187406924
0.000114043272411762
0.000624367054425092
0.000497776845551661
0.00033900077610483
0.000119569582018375
0.000749715053894136
0.000638453059843005
0.000507404660687994
0.000345016173369841
0.000120760223756141
0.000865590010790725
0.000763936019545672
0.000647616020761189
0.000512192498051066
0.000345714536185636
0.00011833953376419
9.05111299173366e-05
0.000304963103704349
9.97588006075339e-05
0.000469515820266486
0.000317946811147087
0.000108646528384077
0.000607863032695908
0.000484174951012947
0.000329019018555281
0.000114744360129444
0.000732423180368944
0.000623487584849076
0.000495169589314246
0.000336131756989429
0.00011657790837055
0.000848001777963384
0.000748288248528432
0.000634160379493056
0.000501270399224346
0.000337870214403076
0.000114731693376316
0.000956697837433812
0.000863497815755534
0.000758188433894102
0.000638881480342209
0.000501532587542494
0.000334460207762844
0.00011060527449668
8.31672105193039e-05
0.000291120799078829
9.31275761642605e-05
0.000452899044575006
0.000305519545373786
0.000102610796508666
0.00058973051487408
0.000469129026409254
0.000317880622532921
0.000109335238031865
0.000713450061929405
0.000606993683284139
0.000481610416258159
0.00032621345777079
0.000111871150498381
0.000828654738704803
0.000731017633539385
0.000619257562287126
0.00048913197151948
0.000329126049897507
0.000110740977806234
0.000937378561575512
0.000845953234352672
0.000742621343969241
0.000625540603362849
0.000490763568813091
0.000326813515808626
0.000107207133198431
0.00104060390823361
0.000954064718211031
0.000856427283424131
0.000747309554978539
0.000625276895369945
0.000486570395731523
0.000320272294979605
0.000102090555338663
7.52534066033722e-05
0.000275732122698233
8.57479071948706e-05
0.000434585357424764
0.000291668457776267
9.58652296259425e-05
0.000569868413519354
0.000452518858266458
0.000305464402132424
0.000103294368319079
0.000692713254518541
0.000588872556082187
0.00046661640184632
0.000315155086066948
0.000106605440947268
0.000807496259566789
0.000712063997162352
0.000602833077066979
0.000475685983573678
0.000319374795260021
0.000106256412279512
0.00091616279897347
0.000826639053286608
0.000725435654429663
0.000610769949883927
0.0004788043179079
0.000318298141320772
0.000103453029516223
0.00101970946745233
0.000934799939729776
0.000838984981809762
0.000731887136717257
0.00061212383797496
0.000476030420324475
0.000312880300411371
9.89291334225219e-05
0.00111855137254307
0.00103760710796539
0.00094586705759692
0.000843642216356973
0.000731091242538398
0.00060705515086434
0.000467978617623584
0.000303884890564386
9.29294442952808e-05
6.68160078176295e-05
0.000258529968387994
7.77106527855945e-05
0.00041444092064986
0.000276298117179826
8.83543614928158e-05
0.000548174566241402
0.000434216194163604
0.000291634289772063
9.65551364837547e-05
0.000670136484159649
0.0005690243328555
0.000450070298073269
0.000302840204994545
0.000100725924295675
0.000784463655555558
0.000691347524682429
0.00058479117430971
0.000460825376802881
0.000308514939881281
0.000101245353773426
0.000893016931702375
0.000805511371588544
0.00070657374995542
0.000594495371751528
0.000465565858475204
0.000308810788597969
9.92368295631799e-05
0.00099675678121208
0.000913626693747962
0.000819777398925601
0.000714864621381303
0.00059756880462981
0.000464335008255182
0.000304657502219591
9.54400481333381e-05
0.00109625808615115
0.00101677396755718
0.00092672304297703
0.000826372062750677
0.000715889705105053
0.00059416620461733
0.000457734345508456
0.000296793859596601
9.00225695305315e-05
0.00111532949983298
0.00102855337359572
0.000931477625563059
0.000825121106600601
0.000709945468424201
0.000584762955494186
0.000446286799923285
0.000285545352957228
8.31255837740326e-05
5.76928551485137e-05
0.000239015182977953
6.91591422662725e-05
0.000392249229832013
0.000259148748613143
8.00998331089952e-05
0.000524537043274382
0.000414093211643505
0.000276294961635537
8.90641485585724e-05
0.000645650126295399
0.000547347762873063
0.000431847536279313
0.000289137323611923
9.418068234528e-05
0.000759505605547167
0.000668792822290761
0.000565034264777304
0.0004444373742083
0.000296434619293119
9.56559482598461e-05
0.000867899830661353
0.000782510065930456
0.000685958352535206
0.00057662381484413
0.000450945367544338
0.00029825640381957
9.45304283916476e-05
0.00097176084169073
0.000890521082857116
0.000798762987235303
0.000696183803586743
0.000581538695128239
0.000451398347123685
0.000295505427239534
9.15128431869512e-05
0.00107163720358471
0.000993870362312613
0.000905674717849621
0.000807355923840288
0.000699117102289204
0.000579911677481794
0.000446376789465614
0.000288914746008004
8.68239035254019e-05
0.0011678908042782
0.00109309639129989
0.00100785411879868
0.000912529074134461
0.000808102320470438
0.000695043069604469
0.000572210025489224
0.00043639804992948
0.000278798242087932
8.04860512118603e-05
0.00110563955964985
0.0010128792701378
0.000910993811559006
0.000801391943278522
0.000684405327937568
0.000558806466041466
0.000421751373892291
0.00026529330690551
7.2749749984634e-05
4.79429932965952e-05
0.000216986699765152
5.99127396077612e-05
0.000367805755801823
0.000239635907607886
7.13507330772889e-05
0.000498871503888106
0.000391936202604591
0.000259267207860082
8.07176080458488e-05
0.000619182429220419
0.000523732263400516
0.000411827200996027
0.000273931147786596
8.69106930207402e-05
0.000732584569250689
0.000644330231305014
0.000543463398224654
0.00042640340656652
0.000283012841668707
8.94458332279423e-05
0.000840783580752854
0.000757584250046048
0.000663515435771965
0.000557060783039558
0.000434835673096497
0.000286532680317069
8.92948443009184e-05
0.000944706654724635
0.000865444465690131
0.000775883642155475
0.000675768905486114
0.000563943227720129
0.000437122934117425
0.000285337412800266
8.71358693241804e-05
0.00104487822591634
0.000968920824269757
0.000882700582850088
0.000786550688839801
0.000680714732909443
0.000564220317972962
0.000433823880118245
0.000280152342664979
8.32184090834218e-05
0.00114156860879905
0.00106853131437153
0.000985089086420144
0.000891695981596434
0.000789367346938813
0.000678606829075811
0.000558335435400431
0.000425444733504726
0.000271310904700092
7.76015622170445e-05
0.00123465001549087
0.00116455612014034
0.0010835444761018
0.000992393266077667
0.000892323017236704
0.000784704980051199
0.000669877814569208
0.000546658182242308
0.000412275659924814
0.00025892958222026
7.04032647130908e-05
0.00108893101005738
0.000990751191075119
0.000885018638206832
0.000773000589845028
0.000654823638591189
0.000529413204226959
0.000394487687544379
0.000243152821205324
6.19626835542733e-05
3.78232507857706e-05
0.000192125792363881
5.00005813426238e-05
0.000340840555528619
0.000217590138423321
6.19003697947163e-05
0.000471059709076062
0.000367536816450066
0.000239860112113945
7.1927436566627e-05
0.000590704751179971
0.000498096315381275
0.000389808532960279
0.000257191654168451
7.88205985367099e-05
0.000703674990918577
0.00061788523214792
0.000519970745215861
0.000406611876150766
0.000268129408894143
8.25610594708535e-05
0.000811659020938922
0.00073069591153745
0.000639176117600778
0.000535711217406174
0.00041712506076981
0.000273532256363171
8.34942808554204e-05
0.000915586119111426
0.00083836896021956
0.00075108886025428
0.000653547317838901
0.000544691715304785
0.000421408932716316
0.000274061268269333
8.22855303488662e-05
0.00101598927142482
0.000941912907460242
0.00085776354597658
0.000763898587158331
0.000660607898096415
0.00054700521864793
0.000419984270768721
0.000270429347293599
7.91942952422553e-05
0.00111310925331367
0.00104182367031044
0.000960284665831078
0.000868954575744978
0.000768871223643397
0.000660578407710744
0.000543070381364295
0.000413348346889286
0.000262990381345044
7.43488652827762e-05
0.00120690554334728
0.00113831025577386
0.0010591300641009
0.000969862253016209
0.00087179803599393
0.000766339526405638
0.000653861154063579
0.00053323941703539
0.000401790623214045
0.000251883619067983
6.7854783756763e-05
0.00129707511366909
0.00123119452505628
0.00115449060414448
0.00106705967462999
0.000970564488120756
0.000866708730766813
0.000756724406084633
0.000640745556200028
0.000517737525680961
0.000385482231598971
0.000237215518135932
5.9929713158689e-05
0.00106540787008932
0.000962829248199715
0.000854124387230173
0.000740280966085431
0.000621405085350297
0.000496727397827851
0.000364570804343369
0.000219184967810407
5.09866163977313e-05
2.80312290164387e-05
0.000164229435650408
3.96320165469547e-05
0.00031109040458164
0.000192716715930081
5.1787996306571e-05
0.000440961626274699
0.000340650728999881
0.000217923609239749
6.24645591653308e-05
0.000560183821158331
0.000470323058132593
0.000365574609278706
0.00023809609001288
7.012095782275e-05
0.000672757366167437
0.000589439381955798
0.000494478390216918
0.000384881041729162
0.000251748108323867
7.49322624708146e-05
0.00078053669980805
0.000701817657068036
0.000612866826278494
0.000512473205870154
0.000397697114915689
0.000259136962836641
7.707143797039e-05
0.000884413576720521
0.000809284339791238
0.000724339928262242
0.000629451900996319
0.000523694496111857
0.000404154115021808
0.000261581139551873
7.69146276345907e-05
0.000984970689006811
0.000912838237258711
0.000830835184186626
0.000739348801063261
0.000638725436326369
0.000528180228477854
0.000404766183436744
0.000259666153626859
7.47350553791807e-05
0.00108246478823094
0.00101298460978987
0.000933429383911685
0.000844267062623066
0.000746555605831609
0.000640884442524493
0.00052633190657245
0.000400023982527846
0.000253766166581719
7.07065288689491e-05
0.00117687317481154
0.00110990861594379
0.00103257898566882
0.000945309355405081
0.000849392095122685
0.000746249546793207
0.000636298025801451
0.000518484026594282
0.000390220770153711
0.000244058429371161
6.49790250383608e-05
0.00126795416722522
0.00120352808058782
0.00112841481476829
0.00104289553376306
0.000948364300787423
0.000846582800508417
0.000738814814606334
0.000625230611120566
0.000504849908077932
0.000375529733135229
0.000230655383900454
5.77448573632385e-05
0.00135531654146175
0.0012935099147613
0.0012207029552948
0.0011371379696164
0.00104385182925529
0.000943028382205931
0.000836257505801507
0.000724494576194437
0.000607851600752932
0.000485592835611746
0.000356093968125909
0.000213720162833616
4.92897639837427e-05
0.00103578096402271
0.000929725056230262
0.000818649161828811
0.000703426088539116
0.000584300455301127
0.000460861937250285
0.000332069893180698
0.000193478810060323
4.00831635442802e-05
1.90268961455781e-05
0.000133735317182909
2.95207986576236e-05
0.000278320499162693
0.000164834004177976
4.1204865160253e-05
0.000408404157216112
0.000311008328700118
0.000193274643893006
5.23632811927671e-05
0.000527573955376049
0.000440278249837409
0.000338919936667456
0.000216519983148221
6.09170178236627e-05
0.000639894248073734
0.000558949805883077
0.000466873084235725
0.000360987376454839
0.00023333431211168
6.65277253182005e-05
0.000747438849818993
0.000670932084388153
0.000584566307507464
0.000487268102116994
0.000376439110389507
0.000243254351923614
6.99718480304473e-05
0.000851232843029122
0.000778199215586183
0.000695608350088542
0.000603415291818822
0.000500860775455798
0.00038525189751632
0.000247786204549498
7.09715196085311e-05
0.000951851874766333
0.000881709606980113
0.000801903180385997
0.000712861466780744
0.000615002382490423
0.000507661585565732
0.000388077232248671
0.000247776599522296
6.98052946485435e-05
0.00104962457104051
0.000982014701437075
0.000904513542515468
0.00081760314993961
0.000722368765863765
0.000619455441717005
0.000508038934374671
0.000385388471478613
0.000243569037164747
6.6661966131428e-05
0.00114455529000201
0.00107931712097651
0.00100390264303704
0.000918721276288998
0.000825065316220853
0.000724376109034296
0.000617116885119141
0.000502313342690321
0.000377487064323689
0.000235388014599061
6.17557066333422e-05
0.00123641894840591
0.00117355620405447
0.00110018199369244
0.00101661231797193
0.000924169276730719
0.000824611613584409
0.000719225366000522
0.000608222872735694
0.000490686791060766
0.000364556591464961
0.00022337988606272
5.52718166808456e-05
0.0013248535397053
0.00126446929890054
0.00119321295131732
0.00111133080477406
0.00102003893076832
0.000921253493132416
0.000816620161769399
0.000707127647006086
0.000592921480815041
0.000473312458818153
0.000346738624161238
0.000207698026100777
4.74907013980215e-05
0.00140941321820032
0.00135164648144723
0.00128263284681404
0.00120259507923445
0.00111272409820986
0.00101463104512486
0.000910395586998012
0.000801308210806655
0.000688210057930015
0.000571348000935572
0.00045033810638446
0.000324181968251417
0.000188536332833263
3.8736873822252e-05
0.00100070690286947
0.000891796769242531
0.000778785068497638
0.000662587359420364
0.000543641543317997
0.000421910770458173
0.000297043416507574
0.000166114362323218
2.94722067362261e-05
1.20681525807493e-05
0.000102020087379793
2.03717539915337e-05
0.000242428654144336
0.000134326138782841
3.08346871639518e-05
0.000373176833217462
0.00027839747730612
0.00016577145060756
4.18452719284625e-05
0.000492788605557444
0.000407799898840874
0.000309594282320121
0.000192372497384956
5.11422474175535e-05
0.000605113419562517
0.000526375211797131
0.000437032458908244
0.000334764485307172
0.000212456630858415
5.77945513820355e-05
0.000712469377765557
0.000638098929370116
0.000554236066406239
0.000459992177964763
0.000353104868276561
0.000225759201026538
6.21480245363778e-05
0.000816119887767467
0.000745131739181997
0.000664872396831944
0.000575395728255434
0.00047609947124019
0.000364608651101606
0.000232563408903992
6.4415303997667e-05
0.00091670188052603
0.000848568207009189
0.000770972753724657
0.000684406368245663
0.000589377961715168
0.0004853661848077
0.000369820900737434
0.000234663250734756
6.43646037261232e-05
0.00101462415389665
0.000948941599302288
0.000873546676505354
0.000788947107815375
0.000696269333536581
0.000596228560466211
0.000488114062441059
0.00036935969599268
0.00023232653861405
6.21984436621818e-05
0.00110995437596598
0.00104652755500436
0.000973100211350771
0.00089008507904763
0.000798784424282591
0.000700666514537706
0.000596250353364301
0.000484651782285302
0.000363514670975248
0.000225812156921699
5.81696912828972e-05
0.00120248923790211
0.00114129355658092
0.00106976230754259
0.000988218129442909
0.000897962521709367
0.000800752915779588
0.000697896945371202
0.000589653055155884
0.000475173828123278
0.000352488770310192
0.000215323371293161
5.24926155590538e-05
0.00129186592355648
0.00123299694492491
0.0011634181036092
0.00108338203665404
0.000994133922080304
0.000897518842781156
0.000795181206607788
0.000688133748532455
0.00057656035120527
0.00045982497011852
0.000336433170182418
0.000201021995091833
4.54404014180664e-05
0.00137765154980999
0.00132126681162488
0.00125377516118562
0.00117538488958387
0.0010872892160908
0.000991268011964673
0.000889139149411515
0.000782250325229858
0.000671474713233742
0.000557087418422789
0.000438742267102561
0.000315490615789367
0.000183107796817508
3.73391450797792e-05
0.00145936798955306
0.00140564323694627
0.00134041100751476
0.00126384019421087
0.0011771091718712
0.00108200117756639
0.000980052244619438
0.0008730252718502
0.000762055123593247
0.000648024124499972
0.000531367939658726
0.00041206888062946
0.000289807897620758
0.000161747261535051
2.84857452435277e-05
0.000960569974159964
0.000849243516621845
0.000734684161056124
0.000617903991214311
0.000499539987202419
0.000379941204540256
0.000259521014085419
0.000137111141847877
1.94608201924963e-05
6.95052654468827e-06
7.22889811500222e-05
1.3011073930412e-05
0.00020371358141861
0.000102792296926667
2.14625657388413e-05
0.000335045813712808
0.000242757863816557
0.000135775547774822
3.14640910786837e-05
0.00045568452413864
0.000372696279931252
0.000277433635264772
0.000165618184728242
4.10031617864949e-05
0.000568427836585244
0.000491637821660977
0.000404813891939453
0.000306011489609079
0.000189155003542466
4.85782192299576e-05
0.000675747100898425
0.000603341298514792
0.000521834596131784
0.000430539976485183
0.000327540335149369
0.000205875460950749
5.38579011426664e-05
0.000779182631615221
0.000710190928801397
0.000632192186002547
0.000545375317644209
0.000449331957474457
0.000342026314111601
0.00021590749683523
5.72121824138726e-05
0.000879636630310525
0.000813486200327404
0.00073805801297548
0.000653955566199505
0.000561790829039212
0.000461208349197522
0.000349899880401993
0.000220227845398696
5.8384933697738e-05
0.000977548942865692
0.000913831146700046
0.000840564667150238
0.000758299262728989
0.000668225111242085
0.000571145973941317
0.000466482152195348
0.00035185414685082
0.00021996074692667
5.72964191098657e-05
0.00107311331838059
0.00101157403001902
0.000940195415363266
0.000859404905170212
0.000770529259126117
0.000675077919462036
0.000573638148882717
0.000465428721773131
0.000348232429531395
0.000215274388859007
5.42104083747243e-05
0.00116617476888559
0.00110674520092864
0.00103714776722043
0.000957708078345764
0.000869726284965374
0.000774970105256671
0.000674776262644377
0.00056945637782651
0.000458241083557111
0.000339259168039088
0.000206430656002675
4.93963859220532e-05
0.00125637435473528
0.00119912478835982
0.00113133518220919
0.00105325857920234
0.000966139694167761
0.000871803405915627
0.000771896305341054
0.000667454088415304
0.000558701496627962
0.000445060133673282
0.000325107512898383
0.00019363198648797
4.31218624738511e-05
0.00134326046445246
0.00128834466647065
0.00122248735636635
0.00114588737232556
0.00105973848081373
0.000965847446827784
0.000865965842111365
0.000761442854616648
0.000653173944176492
0.000541465892749347
0.000426014978076366
0.000305924363741484
0.000177088609733102
3.57197894660123e-05
0.00142635903955436
0.00137396816932817
0.00131022153834373
0.00123527351414361
0.00115028709403186
0.00105704160404763
0.000957236279069834
0.000852382141736955
0.00074367048321225
0.000632011653701601
0.000517863297241318
0.000401236706693205
0.000281851146479393
0.000156973000285842
2.74981930680243e-05
0.001505175489318
0.00145550420707714
0.00139407391765062
0.00132098711981306
0.00123737962830935
0.00114503653751006
0.00104566582111643
0.000940500578337475
0.000831119101289997
0.00071865264238631
0.000604077707222378
0.000488024593476943
0.000370854920468247
0.000253006643736673
0.000133382261612167
1.88104845687621e-05
0.000915579240360175
0.000802218613524522
0.00068648630261312
0.000569492623750107
0.000452068885972677
0.00033497283475929
0.000219502367973017
0.000106456617509048
1.06691527829673e-05
4.04762983730652e-06
4.70786528673758e-05
7.71610334613859e-06
0.000163281352653563
7.29957664264151e-05
1.38314923464139e-05
0.000293835288787571
0.00020437422639061
0.000104596523966818
2.20854802032212e-05
0.00041604286329102
0.000334758695645032
0.000242413672076892
0.000136469158424059
3.09577938953435e-05
0.000529813614456339
0.000454607754811254
0.000370055672234286
0.000274607285378808
0.000163487754419727
3.90422665731361e-05
0.000637412801865404
0.000566679675425965
0.000487296970973076
0.000398791524188982
0.00029962968923375
0.000183689595458807
4.52817847966594e-05
0.000740658761453954
0.00067348056670458
0.000597581292936728
0.000513305852479046
0.00042046375176794
0.000317339590133041
0.000197287423856338
4.94457213905135e-05
0.000840827576633065
0.00077656785505708
0.00070325782282886
0.000621562806200458
0.000532238353923447
0.00043511870225144
0.000328224182497255
0.000204399478386203
5.18459868663259e-05
0.000938542501478293
0.000876794272089399
0.000805632001036846
0.000725669235435129
0.000638202624240558
0.000544146321744257
0.00044306932471942
0.000332789510644142
0.000206394010942485
5.1939061916649e-05
0.00103412591127704
0.00097453842374523
0.000905247361392716
0.000826708446217583
0.000740294355082678
0.000647576679890512
0.00054922635476319
0.000444577460242674
0.000331570797003713
0.000203717693414531
4.98775929955307e-05
0.00112752035183769
0.00106995261726759
0.0010023685803818
0.000925099104739543
0.000839457638716742
0.000747238296794177
0.000649819448281072
0.000547575565377626
0.000439825035113926
0.000324807612530118
0.000196658642856728
4.5979818540333e-05
0.00121838704891012
0.00116286523144447
0.00109696937632152
0.00102094865987361
0.000936045206433651
0.000844084040835163
0.000746725834241594
0.000645035358272743
0.000539283142722835
0.000428953572284159
0.00031270119439542
0.000185481717514882
4.0531949097098e-05
0.00130625565090912
0.0012529133152962
0.00118880284717334
0.00111411399718274
0.00103003314940693
0.00093836649690987
0.000840850676536771
0.000738839898649036
0.000633249756023439
0.000524419420724368
0.000412089671718613
0.000295416745395609
0.000170421168483042
3.38640381014314e-05
0.00139061809340751
0.00133964541129976
0.00127749175061884
0.00120429582944551
0.00112120544990183
0.00102999890782367
0.000932404918530748
0.000829873512917019
0.000723597340922799
0.000614504352955585
0.000503076178968906
0.000389355719296355
0.000273099125619852
0.000151670582661161
2.63083144166942e-05
0.00147097753001562
0.00142258520489294
0.00136259672488945
0.00129110055071444
0.00120921698097627
0.00111870974219807
0.00102128338073646
0.000918330668467232
0.000811187541017298
0.000701038020701942
0.000588881544431822
0.000475364181962498
0.00036086848325094
0.000245860892813275
0.000129336750346425
1.82013164429672e-05
0.00154683405089113
0.00150122502073034
0.00144362615751954
0.00137406664204331
0.00129363145666689
0.00120407596260004
0.00110711091154422
0.00100412772291619
0.000896187833861204
0.000784833113451054
0.000671242687460023
0.000556489080679683
0.000441393108166843
0.000326720050164835
0.000213788382158448
0.000103441038410729
1.03086248363241e-05
0.000865888490007145
0.000750857595705711
0.000634301325795357
0.000517416126433061
0.000401224653388387
0.000286977398841598
0.000177086180258617
7.4651992482835e-05
4.25256580740129e-06
2.32337191820989e-06
2.90622225607766e-05
4.5304719159009e-06
0.000122854405689512
4.85299556699764e-05
8.33582292596003e-06
0.000249574198279768
0.00016420028619399
7.51285225356738e-05
1.44265711728095e-05
0.000373550066172958
0.000293806589884771
0.000204790871324505
0.000106066963132869
2.19110071712153e-05
0.000489191862815682
0.00041507922610498
0.000332581863279408
0.000240548382454567
0.000135627171051305
2.96498339790585e-05
0.000597634357415094
0.000528095579946456
0.00045051055126903
0.000364618569099361
0.000269271110468297
0.000159344893543018
3.6484896454967e-05
0.000700834831451209
0.000635143300106632
0.000561066224006634
0.0004791352938151
0.000389399263658571
0.000290472456546473
0.000176449047849865
4.15798168811213e-05
0.000800533803249256
0.000738043930722996
0.000666668785281987
0.000587234926495252
0.000500671918484079
0.000407015997796509
0.000304588756909224
0.000187096499533446
4.47750957092743e-05
0.000897823179466498
0.000837994012412676
0.000768841985736792
0.000691129383384946
0.000606240325296122
0.000515218572576138
0.000417805560472104
0.00031210192425756
0.000191551401529409
4.61262276398788e-05
0.000993147450431666
0.000935558550040721
0.000868356766866293
0.000792048300392458
0.000708085514751445
0.000618132460870187
0.00052296516112372
0.000422034598187529
0.000313462142098022
0.000191084742169796
4.51729771008529e-05
0.00108661831542838
0.00103100592258621
0.000965499002595155
0.00089043963430757
0.000807174058806011
0.000717545898138683
0.000622992035424958
0.000523960501707021
0.000419867734155918
0.000309078377943042
0.000185967741313327
4.22491122560853e-05
0.00117794338517057
0.00112426176284045
0.00106035815605002
0.000986475064612508
0.000903858327052194
0.000814350209372369
0.000719640620022796
0.00062083330141664
0.000518251519281122
0.000411448917914358
0.000299163982337059
0.000176534756114228
3.76742314966937e-05
0.00126663799658355
0.0012149838713374
0.00115273414899602
0.00108006568900235
0.000998154787432442
0.00090880719481346
0.000813765388535181
0.000714399468812765
0.000611649429391431
0.000505889503659889
0.000396907213132299
0.000283913654175469
0.000163065943150797
3.17751789748174e-05
0.00135215362579753
0.00130270382912765
0.00124225650038312
0.00117093450898964
0.00108986822945835
0.00100082867899526
0.000905549721192909
0.00080547091053261
0.000701788792892792
0.000595445397122018
0.000486945234757261
0.000376362423577125
0.000263487445354869
0.000145782132683339
2.49091280403527e-05
0.0014339472724571
0.00138691560771369
0.00132847450496628
0.00125869410886745
0.00117867287148325
0.001090158047239
0.000994857368643019
0.000894195950385998
0.000789451214735392
0.000681805629879608
0.000572270487593226
0.000461508201534324
0.000349922611184489
0.00023800308767548
0.000124821245867541
1.74263116605642e-05
0.00151151196286863
0.00146712033746735
0.00141091285143628
0.00134290472357354
0.00126416551158435
0.00117642876356932
0.0010813849611033
0.000980425999530272
0.000874766675895722
0.000765714872088949
0.000654497457172554
0.00054220474409307
0.000429667795131084
0.000317666346114034
0.00020754129926117
0.000100250631974459
1.00041525701763e-05
0.00158435029540827
0.00154280453480312
0.00148906425852184
0.00142308194997261
0.00134588712231464
0.00125919751719273
0.00116469377460787
0.00106376226549741
0.000957607592236805
0.000847270860841652
0.000734305276912969
0.000619936987871436
0.000505323091110621
0.000391473487174107
0.000279643591213461
0.00017226062497981
7.239663413281e-05
4.05839904455801e-06
0.000811624879857219
0.000695254267461075
0.000578165526219798
0.000461624358569685
0.000346895529749096
0.00023599339337131
0.00013276244228254
4.29077742888032e-05
8.79566499147386e-07
8.24991457701299e-07
1.59886093425859e-05
2.63487808319723e-06
8.41137512767008e-05
3.11745900052782e-05
4.94535115121968e-06
0.000202544572397025
0.000124004724999565
5.15468744192791e-05
8.84273152076351e-06
0.000327743704952236
0.000249804722912001
0.000165481257807878
7.78407995239032e-05
1.45071575977161e-05
0.000446355543460911
0.000372727454343943
0.000292219716887861
0.000204107235562786
0.000106928345655351
2.11465134961763e-05
0.000556638432967372
0.000487509517779925
0.000411284883970952
0.000327882532801221
0.000236501282838469
0.000133273031607092
2.78886446914475e-05
0.000660151900584982
0.000595341356377852
0.000522630551511111
0.000442766576286468
0.000356041715643397
0.000261391414278501
0.000153703586154821
3.36069452492444e-05
0.000759235115627251
0.000698183592638621
0.000628419760088283
0.000550990536013332
0.000467043254120574
0.000376829412632622
0.000278929534090762
0.000167749183009407
3.76097402154439e-05
0.000855721936988894
0.000797684116543684
0.000730409652278265
0.000654772032281401
0.000572341481807426
0.000484324156828351
0.000390631538338861
0.000289637281993458
0.000175427348333401
3.98881420619963e-05
0.000950414150345411
0.000894843717863338
0.000829672187890126
0.000755498170789081
0.000673934732958362
0.00058674363042995
0.00049480785535284
0.000397738006905979
0.000293843113369445
0.000177318628020759
4.01107997590952e-05
0.00104361834373654
0.00099005431633307
0.000926664723390461
0.000853814349331501
0.000772913816190542
0.000685892364466618
0.000594266288890289
0.000498566357559547
0.000398316114259909
0.000292019073309286
0.00017431974725286
3.82193409350967e-05
0.00113512457898844
0.00108340313273477
0.0010215836262942
0.000949899715437973
0.000869613899731744
0.000782608744376052
0.000690623471490887
0.00059481300736777
0.000495560776785164
0.000392496905907534
0.000284452668362774
0.000166765051638003
3.45618617753814e-05
0.00122443551167217
0.00117459460542999
0.00111432086102274
0.00104377209680667
0.000964115888783307
0.000877167527804185
0.000784692327180846
0.000688088990183525
0.000588329077038929
0.000485826252842693
0.000380418149361306
0.000271373359202596
0.000154998641668178
2.94650176254004e-05
0.00131095600778716
0.00126314751903633
0.00120452730252782
0.00113519766447124
0.00105626894833559
0.000969504815554774
0.000876646059922306
0.00077914168491479
0.000678201259005526
0.000574783190633545
0.000469415344843172
0.000362202573197863
0.000252967732251677
0.000139275673524414
2.33130774870092e-05
0.00139408505423616
0.00134851763971928
0.00129173805635629
0.00122379657031921
0.0011457665309031
0.00105937799609606
0.000966338362385709