/*--------------------------------*- C++ -*----------------------------------*\
  =========                 |
  \\      /  F ield         | OpenFOAM: The Open Source CFD Toolbox
   \\    /   O peration     | Website:  https://openfoam.org
    \\  /    A nd           | Version:  12
     \\/     M anipulation  |
\*---------------------------------------------------------------------------*/
/*   Windows 32 and 64 bit porting by blueCAPE: http://www.bluecape.com.pt   *\
|  Based on Windows porting (2.0.x v4) by Symscape: http://www.symscape.com   |
\*---------------------------------------------------------------------------*/
FoamFile
{
    format      ascii;
    class       volScalarField;
    location    "300";
    object      nut;
}
// * * * * * * * * * * * * * * * * * * * * * * * * * * * * * * * * * * * * * //

dimensions      [0 2 -1 0 0 0 0];

internalField   nonuniform List<scalar> 
10142
(
4.90035253634734e-05
4.74807804030071e-05
0.000440417127233503
5.19252063635158e-05
4.57892884389091e-05
0.000432806651199186
5.03437185984604e-05
0.00108045341535327
0.000450483610739959
5.55113323041742e-05
4.38891502985718e-05
0.000424159893892733
4.85838057691526e-05
0.00106489199889697
0.000442750592523877
5.38355283972057e-05
0.00179764806549487
0.00109157509946357
0.000463205972242604
5.76251827240284e-05
4.17538322689704e-05
0.000414314834839725
4.66014581384597e-05
0.00104709205781108
0.000433949008255033
5.19691247018614e-05
0.0017731580999341
0.00107589821137356
0.000455289407634224
5.58870119315864e-05
0.00250577507317027
0.00180537270132118
0.00110466375075152
0.000470783026862648
5.69365281643943e-05
3.93628045755409e-05
0.000403090668549508
4.43769315184163e-05
0.00102677077901963
0.000423920816176824
4.98663398439691e-05
0.00174510020180167
0.00105795499578669
0.000446272154645744
5.39543902720004e-05
0.00247200566069929
0.00178081191519235
0.00108883008649193
0.000462737882694617
5.52117760231297e-05
0.00316570823001381
0.00250815721547983
0.00181159882654502
0.00111099524756078
0.000468509378352262
5.41304091371904e-05
3.66916423408295e-05
0.000390272140112639
4.18859470075735e-05
0.00100354380032525
0.000412487918246815
4.75065782242529e-05
0.00171304868605015
0.00103746412457532
0.000435996922223815
5.17778130165622e-05
0.00243331327766693
0.00175265997297171
0.00107070438475726
0.000453580326908006
5.32995692475376e-05
0.00312272150655651
0.00247438413034394
0.0017869711744774
0.00109507140078545
0.000460479903018076
5.2480132278779e-05
0.00376355406520714
0.00316264500301318
0.0025046922639277
0.00180938399903568
0.00110448745036946
0.000457797018158727
5.04601774931744e-05
3.37148703745376e-05
0.000375584710542083
3.91012777591048e-05
0.000976920512978919
0.000399427469532661
4.48668678597912e-05
0.00167641067863397
0.00101404443460955
0.000424286568710136
4.93366181460545e-05
0.00238913942616395
0.00172049892666724
0.00105000811712104
0.000443151571907403
5.11477861985966e-05
0.00307349779829615
0.00243567623858501
0.00175874390470273
0.00107685620815186
0.000451352980977262
5.06547405093096e-05
0.00371164656047646
0.00311973101546787
0.00247097420713201
0.00178478024935793
0.00108863816239731
0.000449922293650863
4.89099428987952e-05
0.00429807630980152
0.00375647259859687
0.00314942862984993
0.00249022171271759
0.00179343836851311
0.00108553185536378
0.000442422029071668
4.65135077919213e-05
3.05057961812842e-05
0.000358716000316794
3.60014215626254e-05
0.000946211405069424
0.000384459159572503
4.19163783445188e-05
0.00163441948712889
0.000987201364529379
0.000410917743752955
4.66103052848887e-05
0.00233870560629315
0.0016837409081272
0.00102636528472629
0.000431278274879077
4.87401935191859e-05
0.00301735716366789
0.00239148351601671
0.00172650657019877
0.00105607390887006
0.000440972257512589
4.86034744980655e-05
0.0036522497290572
0.00307057829775755
0.00243233371646543
0.00175660351056591
0.00107053204120462
0.000440982999541011
4.71972860663012e-05
0.00423767137092507
0.00370470137346484
0.00310670109874979
0.0024566840876379
0.00176903405402032
0.00106992909061305
0.000434774737732077
4.50732335513231e-05
0.00477359693237316
0.00428860318289968
0.00373538773097182
0.00312220746622407
0.00246094531615482
0.00176321145338588
0.00105770518398872
0.000424575132497853
4.23343268263525e-05
2.70827056100645e-05
0.000338148195609932
3.26230547770641e-05
0.000910312978217708
0.000367332923208775
3.86297831739272e-05
0.00158601385287113
0.000956239796328558
0.000395601656229503
4.3568099407223e-05
0.00228102694371336
0.00164162176685711
0.000999285307122307
0.000417741662602088
4.6051617933375e-05
0.00295336511389582
0.00234103538178094
0.00168968259402926
0.0010323592648741
0.000429174257554131
4.6311237934434e-05
0.0035845760424051
0.00301451721320114
0.00238823256353816
0.00172445157794189
0.00104990230952202
0.000430828030973915
4.52738539856211e-05
0.00416856578675895
0.00364544598641916
0.00305776767352153
0.00241828075721704
0.00174112153880199
0.00105213272078973
0.000426106447443661
4.34836111255719e-05
0.00470512291837155
0.00422837668938246
0.0036839201258516
0.00307983082778298
0.00242777909356312
0.00173919641781642
0.00104247104316089
0.000417194058731915
4.10101900551513e-05
0.0047627203264319
0.00426192103625303
0.00369706882650898
0.00307836841497086
0.00241604368297907
0.0017208171857332
0.00102352013097413
0.000404594340232215
3.78736919929201e-05
2.33720227496917e-05
0.000312212365516248
2.90243477133504e-05
0.000866927706489854
0.000346739888752402
3.50149258486126e-05
0.00152954212368901
0.000920049490938228
0.000378095303274694
4.01850136942659e-05
0.00221481769237248
0.00159308073633258
0.000968082711124246
0.000402254134960573
4.30579763168182e-05
0.0028803713390879
0.00228335418646521
0.0016475212388305
0.00100523865575004
0.000415744764524429
4.37541596160991e-05
0.00350755323430177
0.00295062320909695
0.00233791681216182
0.00168776720680267
0.00102640196467949
0.000419306157047079
4.31265425997365e-05
0.00408990981299457
0.00357793165741899
0.00300197347982893
0.0023744872343582
0.00170931555866352
0.00103188934600131
0.000416273421127241
4.16944207660982e-05
0.00462683036427142
0.00415946202285961
0.00362501758445965
0.00303133530044821
0.00238984863191942
0.00171177284925708
0.00102512508907058
0.00040883980074042
3.95530706564276e-05
0.00511943180560987
0.00469443082519816
0.00420209085683359
0.00364611338316632
0.00303655868589586
0.00238345518080452
0.00169734897364995
0.00100873662554052
0.000397509531007095
3.6671160333791e-05
0.0047320132442965
0.00421467360665296
0.00363945937243464
0.00301711182146912
0.00235629153350035
0.00166789869590105
0.000983632334158558
0.000382168298893827
3.31463276929011e-05
1.9406248887476e-05
0.000280867125755341
2.51264417881798e-05
0.000814674769301748
0.000320371056577122
3.1178472584413e-05
0.00146309241861502
0.000876498177918501
0.00035753209481564
3.64125575581487e-05
0.00213828689265878
0.00153645750246071
0.000931714930846838
0.00038454226603171
3.97313662764812e-05
0.00279695351909268
0.00221715828672617
0.00159898472768119
0.000974069557636712
0.000400424640291919
4.09125533536295e-05
0.00341988431844476
0.00287775487789923
0.00228042913351678
0.00164583027614748
0.000999586210465071
0.000406219631846648
4.07376639886008e-05
0.00400049608203459
0.00350109720867872
0.00293841391732023
0.00232457528857002
0.00167308715696876
0.00100887580269631
0.000405137661200355
3.97000691647834e-05
0.00453779435808938
0.00408101959318357
0.00355792299852761
0.00297608294716585
0.00234665114546577
0.00168057751050586
0.00100542945003583
0.000399373215129872
3.791065748281e-05
0.005032814911701
0.00461637685489282
0.00413363487079538
0.0035878364430397
0.00298876849175568
0.00234624269873721
0.00167059728494123
0.000991934418370469
0.000389503144157342
3.5356971221876e-05
0.00548693843656288
0.00510771163628264
0.00466417153801625
0.00415549875069808
0.00358927005625694
0.00297609886141505
0.00232446724146109
0.00164510136295793
0.000969363380775873
0.000375410765955632
3.20773009775263e-05
0.00467750128195072
0.00414481294648439
0.00356182152083673
0.00293833069001924
0.00228217425678732
0.00160480587152754
0.000937728086001397
0.000357001330586931
2.82273290076334e-05
1.52692916918167e-05
0.00024360621155616
2.09444010789839e-05
0.000752110058675753
0.000288298408891497
2.70287189779786e-05
0.00138495853204401
0.000824060847126629
0.000330767857495126
3.24344373863673e-05
0.00204955607920642
0.00146996167559295
0.000888187211259371
0.00036445953469629
3.60265569203397e-05
0.00270133368821777
0.00214063746465931
0.00154247259367042
0.000937971870954843
0.000382924165850216
3.77608542217907e-05
0.00332001394791861
0.00279449851448875
0.00221451626652996
0.00159766409422516
0.000968868907775821
0.000391346950069849
3.80904791736253e-05
0.00389887531942634
0.00341365504475582
0.00286597037394
0.00226762569473802
0.00163176371741801
0.000982686403006747
0.000392524363735015
3.74899408885532e-05
0.00443667125909278
0.00399185500347138
0.00348159714062121
0.00291319831322689
0.00229749415046897
0.00164511695331711
0.000983086711004984
0.00038867166574607
3.60773172893757e-05
0.00493409155827888
0.00452759696068849
0.00405573303320269
0.00352150036725009
0.00293438500513455
0.00230393211152873
0.00164022366171758
0.00097289018253497
0.000380440672432011
3.38750520799473e-05
0.00539229044991707
0.00502138502796555
0.00458667328540806
0.00408783392653882
0.00353193223008673
0.00292928764035362
0.00228819024312638
0.00161916411268103
0.000953177567031852
0.000367791758049957
3.09161966167716e-05
0.00581238325227343
0.00547432963900102
0.00507425287508586
0.00461043108699109
0.00408659891440564
0.00351266514490177
0.0028983324833196
0.00225127631661726
0.00158278303607437
0.000924033988405043
0.000350607086599439
2.73012706189977e-05
0.0045968146823377
0.00405164366323212
0.00346363008006591
0.0028415424671819
0.00219330871857291
0.00153096809730667
0.000885172719646603
0.000328905190847137
2.32300541223393e-05
1.13162496090416e-05
0.000200621434122596
1.65695789197119e-05
0.000678159398894813
0.00025008254267934
2.25849478445291e-05
0.00129351045487447
0.000761344417839039
0.000297993381614055
2.81460956769172e-05
0.00194688164948938
0.00139188525756267
0.000835749560554536
0.000337818336597076
3.20376465094626e-05
0.00259131483690181
0.00205205933021251
0.00147626635737775
0.000895025465998505
0.000363107812890675
3.42657394346736e-05
0.00320607215391208
0.00269907871888002
0.00213842559811836
0.00154181930768326
0.000933422237482799
0.000374393420431836
3.5158037370385e-05
0.00378333663212147
0.00331405913659654
0.00278325837440632
0.0022024511620125
0.00158446223312948
0.000952807952175434
0.00037823235106594
3.50421584093247e-05
0.00432184844439626
0.00389052874530667
0.00339477571539658
0.00284160224351605
0.00224151348296217
0.00160477630245684
0.000957733833362865
0.000376585608998527
3.40456694304596e-05
0.00482197617690382
0.00442676592967814
0.00396721422466677
0.00344609701090202
0.0028725721315733
0.00225587443388065
0.00160577291418909
0.000951332482653451
0.000370210272739484
3.22154057648779e-05
0.00528447916261098
0.0049229562238375
0.00449853751326953
0.00401088136117
0.00346673615010982
0.00287609864385956
0.00224701899843324
0.00158977335735056
0.000934864738603422
0.000359175032218529
2.96060062620258e-05
0.00571022467701339
0.00537998796030276
0.00498858337865345
0.00453387903429506
0.00402009988512774
0.00345658410315134
0.00285275513904424
0.00221612215457511
0.00155777873859819
0.000908532430384478
0.000343414238656026
2.63059824494278e-05
0.0061000171947676
0.00579889537146012
0.00543807665651792
0.00501439433688046
0.00453089203249554
0.0039947084825606
0.00341576517519835
0.00280276070938127
0.00216348178562744
0.00150981359996321
0.000872113879513261
0.00032291442321727
2.24569838242809e-05
0.00448926372599423
0.00393454866163332
0.00334379097157568
0.00272557189101006
0.00208852336186177
0.00144521425205249
0.000825156356302808
0.000297740205449521
1.82866990771322e-05
7.62258427612349e-06
0.00015465325441926
1.2324282886554e-05
0.000592457135666671
0.000206113589691557
1.79405274753005e-05
0.00118744128777126
0.000687170233284732
0.000259220729347538
2.35653164517267e-05
0.00182858993879966
0.00130057478539162
0.000773178424250095
0.000305043319921488
2.78112465667532e-05
0.00246528255117594
0.00194962316265281
0.00139869516700059
0.000843256501506975
0.000338256154773227
3.04104994283576e-05
0.00307577939182043
0.00258934740385568
0.00205045383924766
0.00147655258823247
0.000891856166293586
0.000355114932737153
3.19139541588994e-05
0.00365186515839441
0.00320044802748464
0.00268854618550514
0.00212744830913556
0.00152995164393858
0.000918534546409035
0.000361988046189585
3.23324472693186e-05
0.00419143701746538
0.00377533946652393
0.00329594015393128
0.00275996585601916
0.00217761649468379
0.00155877150023909
0.000928922230623028
0.000362926624665834
3.17992575012367e-05
0.00469473206514528
0.00431228470135064
0.00386666277648522
0.00336040097802616
0.00280230576242125
0.00220127062772126
0.00156668967954619
0.000926938760305863
0.000358677819485445
3.03724272029796e-05
0.00516208774055743
0.00481116967858654
0.00439846537356729
0.00392350237494857
0.0033927149348245
0.0028157434881073
0.00220035179419258
0.00155651198300495
0.000914176180682783
0.000349455766812015
2.81372861935428e-05
0.0055939479330261
0.00527250205745509
0.00489089574398825
0.0044468685449376
0.00394454885496238
0.00339290552277278
0.00280105767802733
0.00217630409567996
0.00152950295923161
0.000891024608117116
0.000335289356398727
2.51794351722037e-05
0.0059909266637214
0.00569706897583151
0.00534445941832891
0.00492982070111542
0.00445572844608654
0.00392975330612953
0.00336124364810499
0.00275865112377505
0.00212961682973407
0.0014858493398121
0.000857366617812765
0.000316197897180594
2.16373337527461e-05
0.00635364537468027
0.0060856730116436
0.00576005001128145
0.00537277117626107
0.00492536148534297
0.00442487342724949
0.00387920209575595
0.00329746504760855
0.00268819625875797
0.00205990235096656
0.00142501920970216
0.00081279714612965
0.000292201327747163
1.76725044108601e-05
0.00435429750388373
0.00379214680991344
0.00320050339256194
0.00258855305508833
0.00196592019348977
0.00134579940038824
0.000756557808379159
0.000263222366555125
1.3481059498541e-05
4.87238122637576e-06
0.00010971465034345
8.48428703287498e-06
0.000496675100694222
0.000158772444107433
1.34053315456688e-05
0.00106605782421408
0.000601319147121114
0.000214880254599975
1.88019583361943e-05
0.00169314331553814
0.00119476429477297
0.000699358916661107
0.000266465027022526
2.33188619214114e-05
0.0023213340704728
0.00183165463097354
0.00130815851986413
0.000781674046108901
0.000306647570729031
2.63977119007645e-05
0.00292710771812024
0.00246370965832142
0.00194889201339263
0.00140027968323156
0.000841976042576598
0.000332845998227449
2.8334331029958e-05
0.00350209522946547
0.00307054061464002
0.00257971488435507
0.0020407915383219
0.00146642552943179
0.000878868130742018
0.000343489180105262
2.93407223707598e-05
0.00404322120465827
0.00364428217984433
0.00318326246461213
0.00266663543262586
0.00210437821691938
0.0015060426615217
0.000896051466061308
0.000347458980986259
2.93189978079359e-05
0.00455029474092397
0.00418227502047082
0.00375240450064694
0.00326294316282529
0.00272233545192139
0.00213912823826969
0.00152228418029272
0.000899316356481437
0.000345679905737898
2.83381998239892e-05
0.00502323693135387
0.00468430646010342
0.00428488536102602
0.00382432021012223
0.00330869676858258
0.00274726346585656
0.00214745759622813
0.00151888123275994
0.0008908234774129
0.000338513065146751
2.65032526396733e-05
0.005462013088486
0.00515047373756228
0.00477997067789012
0.004348134148349
0.0038588501967545
0.00332071282792609
0.00274250455947961
0.00213126854029313
0.00149757427558731
0.000871280934018548
0.000326132554648046
2.3913267665225e-05
0.00586683790438921
0.00558114886619307
0.00523780077742041
0.00483342728423087
0.0043703755595341
0.00385605106082836
0.00329943585621711
0.00270871393529535
0.00209133966778686
0.00145880655973942
0.000840738087902743
0.000308613343746124
2.07032204038448e-05
0.00623821002408453
0.00597694354129424
0.0056590210195198
0.00528038656164595
0.00484239084233549
0.00435154652043843
0.00381615366291023
0.00324479065035295
0.0026457733910414
0.00202748147136573
0.00140219996126924
0.000798880968662539
0.00028601750712384
1.70348475798133e-05
0.00657667887736062
0.00633849529414324
0.00604441686300892
0.00568978577161196
0.00527517110345885
0.00480643134247084
0.00429181114794011
0.00373868970230419
0.00315595735288246
0.00255276775518324
0.00193863894568401
0.00132666132917773
0.000744976789447074
0.000258192505962212
1.30298410223454e-05
0.00419045592019058
0.0036222440306799
0.00303132158140245
0.00242788504742281
0.0018227825005429
0.00123019085122209
0.000677548522087719
0.000224467283546971
8.89751845956309e-06
2.76466322864906e-06
7.21515501204537e-05
5.41979509777748e-06
0.000395212076101293
0.000112877555849064
9.32391593034329e-06
0.000930007450760658
0.000505327229227728
0.000166783293725022
1.41192013612059e-05
0.00153937450163971
0.00107387063849686
0.000614241465441662
0.000222473423641329
1.8664741457605e-05
0.00215758435336621
0.00169667984483912
0.00120347713027609
0.000709335477998082
0.000269214003378917
2.21582571312545e-05
0.00275785328984648
0.00232022139348422
0.00183206733917342
0.00131154099125364
0.000782531654404326
0.000303255847990109
2.45348144808077e-05
0.00333125823486038
0.00292239534283247
0.00245524271014771
0.00194101275787471
0.00139246693175877
0.000831748921310808
0.000322622609929331
2.60494087977254e-05
0.00387459791056785
0.00349500167595043
0.00305450930653107
0.00255954783364222
0.00201990729157791
0.00144504638135488
0.000858294678921092
0.000329907112883329
2.6590777612464e-05
0.0043862330955006
0.00403453218491741
0.00362246650508329
0.00315195969935814
0.00263111379953486
0.00206817353038644
0.00147165940383898
0.000867965559072343
0.000331021343454188
2.61032201655684e-05
0.00486569509880178
0.00454031453034083
0.0041559485140559
0.00371170799395616
0.00321328155845921
0.00266949784321115
0.00208744342891228
0.00147627674849008
0.000864466959554052
0.000326212076653255
2.46988345885123e-05
0.00531240570849708
0.00501204138790464
0.00465412239887558
0.00423614584471106
0.0037616804227573
0.00323889843996591
0.00267620725654202
0.00208035116824948
0.001461545445413
0.000849042781987198
0.000315832190689507
2.25026210956796e-05
0.00572611217359971
0.00544961148851568
0.00511673073834715
0.00472402846346929
0.00427361238027213
0.00377255913521341
0.00322948205007238
0.00265226905015027
0.0020481438847609
0.00142833643589704
0.000822016254193405
0.000300067172904385
1.96468307023014e-05
0.00610697172254712
0.00585324313021664
0.00554401257841429
0.00517518315481094
0.00474790726872964
0.00426837950781859
0.00374472321921567
0.00318518544521633
0.00259784577611908
0.00199091841522266
0.00137650432077983
0.000783213224105799
0.000279028473317712
1.62960704354963e-05
0.00645547476744526
0.00622344984063016
0.00593655933020254
0.0055901272859822
0.00518460633466101
0.00472558400281559
0.00422075268498819
0.00367789804306385
0.00310540878165917
0.00251224362420382
0.00190781595475544
0.00130510065297243
0.000731985023268766
0.000252623344113684
1.25781257949565e-05
0.00677215970561515
0.00656079262433417
0.00629503111505892
0.00596963599815707
0.00558443419726008
0.00514449562817771
0.00465714705495835
0.0041302346032458
0.00357097437264689
0.0029887963226878
0.00239387867327694
0.00179698784928995
0.00121223204817444
0.000666858208103827
0.00022006089731304
8.6001863956247e-06
0.00399535014352653
0.00342201264038691
0.00283312506766213
0.00224010733233476
0.00165535667644147
0.00109464060980503
0.000584925485239282
0.000179640253623432
4.81436381053568e-06
1.64158701292793e-06
4.31879328571907e-05
3.191937803e-06
0.000295731094107194
7.38563828352409e-05
5.99841745320516e-06
0.000781973266901317
0.00040344632480174
0.000119337358365096
9.90659557245009e-06
0.00136688699260575
0.000938544932682885
0.000519018828960981
0.000174190780462679
1.40731697026157e-05
0.00197216683120144
0.00154362096868326
0.00108420002035994
0.000626149395192004
0.000226542706689432
1.77764430706758e-05
0.00256557966105875
0.002157073960249
0.00169860285789689
0.00120922660024119
0.000713014059114261
0.000267650100372847
2.05987603886785e-05
0.00313678587604997
0.00275373151332987
0.00231315748118806
0.00182643741822979
0.00130667546082129
0.000775430414050379
0.000296280624918682
2.24946197707833e-05
0.00368247719990044
0.00332475433230983
0.00290775347837509
0.00243721851567342
0.00192289095570488
0.00137423635056411
0.000814266437356321
0.000309989450647625
2.36033142856584e-05
0.0041996735192335
0.00386646557920404
0.00347453274938929
0.00302531506862821
0.00252668278037738
0.00198670303615966
0.0014135986007069
0.00083223443441593
0.000314471842010281
2.36586244599125e-05
0.00468683362961774
0.00437677527247697
0.00400948486960971
0.00358375048601569
0.00310479606304796
0.00258102438610072
0.00201919312689588
0.00142793759399386
0.00083469230774071
0.000312396064281832
2.27233905734513e-05
0.00514274829515198
0.00485498632874648
0.00451133137541335
0.00410910384992204
0.00365147760922736
0.0031461428818108
0.00260109795104215
0.00202275261562446
0.00142088792341475
0.000824017986491214
0.000304274559059403
2.09457684766928e-05
0.00556662108939177
0.0053004599594246
0.00497942129447502
0.00459998361046476
0.00416396417273646
0.00367801853324992
0.00315034527833089
0.00258849944887666
0.00199942885319388
0.00139403839820604
0.000800968525971454
0.000290460115267242
1.84666943430756e-05
0.00595821083882402
0.00571294907479358
0.00541352755160854
0.00505582142117796
0.00464076651407773
0.00417420732926851
0.00366392910805249
0.00311785106010549
0.00254378996484806
0.00194975223384643
0.00134761283019892
0.00076559337717179
0.000271144634689408
1.54494382611112e-05
0.00631773860422099
0.00609263094847062
0.0058138533643869
0.00547673147599301
0.00508156160835194
0.00463362463262008
0.00414027385746084
0.00360914375593829
0.00304832531545396
0.00246656523401257
0.00187313725119389
0.00128087356526401
0.000717370706216441
0.000246299979151692
1.20338574322875e-05
0.00664574241257623
0.00644000599115158
0.00618093001920964
0.00586328496710453
0.00548681066308814
0.00505635139649358
0.00457892626976155
0.00406186339873449
0.00351278467442171
0.00294065117139433
0.00235546976838692
0.00176793144306638
0.00119207216968348
0.000654939811297428
0.000215239681687754
8.32167701464388e-06
0.00694277777717318
0.00675561599920118
0.0065153418013599
0.0062161737274046
0.00585729844829871
0.00544315020345691
0.00498040291774794
0.00447606283770704
0.0039377534127781
0.00337323279783264
0.00279287215543226
0.00220809049821545
0.00163123553844808
0.00107804212470916
0.000575340863646697
0.000176051189029013
4.65167950571683e-06
0.00376596303068203
0.00318804510180704
0.00260204204238619
0.00202077227251415
0.00145860028226711
0.000933754686604896
0.00047390810763308
0.000127942995678202
1.85945604464922e-06
9.30721401888795e-07
2.50539523884647e-05
1.86511038429365e-06
0.0002035815384024
4.56063266417714e-05
3.58800975540444e-06
0.000626528370238133
0.000302526321153599
7.90672187955255e-05
6.46111305487568e-06
0.00117638182720536
0.00079121025417066
0.000417337405121466
0.000125871741683398
9.95750980018871e-06
0.00176343949590649
0.00137212273868987
0.000950887228618368
0.000532882011595161
0.000179309316532961
1.3479534667984e-05
0.00234748799721803
0.00197248049957734
0.0015475285613945
0.00109294898578465
0.000633143761158282
0.000226866827490361
1.65649533455113e-05
0.00291536210501201
0.00256219102324382
0.002151749114068
0.00169576714453838
0.00120802500679604
0.000709555801557215
0.000263207459384831
1.88884857089591e-05
0.00346317971328754
0.00313100890847037
0.00274076559207238
0.0022977265667513
0.00181172245144457
0.00129228111424507
0.000761811714416297
0.0002867788654333
2.03672170434332e-05
0.00398716977259199
0.00367499868577204
0.00330591013872221
0.00288101665208949
0.00240750952424061
0.00189326827306747
0.00134641211157599
0.000791216623417382
0.000295762441444281
2.10025069554159e-05
0.00448354044981219
0.00419083106489251
0.00384294893760315
0.00343820160901505
0.0029812452782031
0.00248008413645881
0.00194128752082214
0.00137286739592631
0.000800971756506247
0.000296878442083065
2.05766717375099e-05
0.00495025421322853
0.00467669294937189
0.00434921738943814
0.00396489820756574
0.00352640450716267
0.0030408738833794
0.00251588171029087
0.00195748962682198
0.0013749545587018
0.000795862066206362
0.000291333866706654
1.92450939458021e-05
0.00538587020763519
0.00513132945799269
0.00482368760518021
0.00445932588986315
0.0040396972887694
0.00357094378070953
0.00306079172932403
0.00251642863708959
0.00194448149793679
0.00135545056278042
0.000777341894305842
0.000279693281337947
1.71643239061581e-05
0.00578970597900164
0.00555395036935509
0.00526560256627296
0.00492051961744586
0.00451938563790783
0.00406762217112509
0.00357258479230085
0.00304182524286806
0.00248286068709118
0.00190344313115857
0.00131516763089625
0.000745811695253498
0.00026227680568092
1.44963316379177e-05
0.0061616816760838
0.00594433480372011
0.00567470237116674
0.00534813103684859
0.00496473986758697
0.00452946170514771
0.0040492751821016
0.00353151259797006
0.00298397353951822
0.00241516632911985
0.00183418505474612
0.00125368459885876
0.000700940086813243
0.000239133963850942
1.13938337358138e-05
0.00650213658045794
0.00630271876283596
0.00605118487097947
0.00574234407167881
0.00537581736161399
0.00495616948452595
0.00449007736822171
0.00398455652924801
0.00344710294185292
0.00288640527263138
0.00231228301508321
0.001735320534159
0.00116945983649435
0.000641513056489902
0.000209688894311049
7.96734389442156e-06
0.00681167757234144
0.00662964193799997
0.00639556791472224
0.00610370970595566
0.00575319159089262
0.00534824120801099
0.00489525864009731
0.0044009574022088
0.00387248511857913
0.00331799369004842
0.00274741892195664
0.00217203741065874
0.00160415898347932
0.00105949827326977
0.000564738056407274
0.000172300342944541
4.51429039555374e-06
0.00709088824532083
0.00692565659136954
0.00670840589097124
0.00643284876059357
0.00609758856108153
0.0057065036861487
0.00526569819005419
0.00478152162701056
0.00426072919949366
0.0037113569527847
0.00314207263699281
0.00256434292956992
0.00199101053974453
0.00143642704535072
0.000918817069609459
0.000465755721726354
0.000125230779401411
1.77455579199394e-06
0.00349880721416856
0.002916369940749
0.00233346855419424
0.00176449239914416
0.00122636311247934
0.000741271403403929
0.000340642156033426
7.0303804688015e-05
3.69305315816809e-07
2.81979118157028e-07
1.2413094530354e-05
1.07317612577525e-06
0.00012345890767287
2.80075983862562e-05
2.09402692150399e-06
0.00046649618723558
0.000209833365083812
5.12525198726465e-05
3.92510638024174e-06
0.000968952150143094
0.000635682010432059
0.000316292026218776
8.61866987439622e-05
6.58434467011571e-06
0.00153014689363179
0.00118267745062651
0.000805454851425548
0.000432818672018322
0.000132760979154915
9.60997257947601e-06
0.00210064959019628
0.00176486144339078
0.00137845799026452
0.000963083089938933
0.000543535378089939
0.000182531008350151
1.26407534774003e-05
0.00266301193534183
0.00234508500995045
0.00196932645082434
0.00154807691023922
0.00109610006369864
0.00063406593958842
0.000225190059155331
1.52358734403267e-05
0.00321258076993682
0.00291047909700744
0.00255124265607455
0.00213937589980896
0.00168508702607187
0.00119824808731915
0.000700155987485247
0.000256627084638427
1.70824765520744e-05
0.00374445393586336
0.00345654104151874
0.00311414219168915
0.0027169826200882
0.00227177370351373
0.00178640042488733
0.00126887554242749
0.000742780965492144
0.000274605416761996
1.81469382591364e-05
0.00425207218099493
0.00397906393778531
0.00365333720033491
0.00327243736136549
0.00284048518834039
0.00236487562283464
0.00185195766253426
0.00130966387721943
0.000762588901268385
0.000279430973196352
1.82635633695116e-05
0.0047316433527986
0.00447406639354632
0.00416497519675409
0.00380106103411534
0.00338430712841559
0.00292122261866502
0.00241897808671408
0.00188332321804362
0.00132292361542088
0.000764147776216229
0.000276862678300777
1.74065961255257e-05
0.00518095989257965
0.00493944553108426
0.00464695429853483
0.00429974016266841
0.00389878031495809
0.00344958528767471
0.00295935010210153
0.00243487625901468
0.00188243483751869
0.00131202008921405
0.000750848262682754
0.000267665762131704
1.57453369428723e-05
0.00559887189406371
0.0053737643052885
0.00509790616636482
0.00476714765412283
0.00438186744787806
0.0039469679527554
0.00346928782845843
0.00295596233735628
0.00241417075808559
0.0018513581853422
0.00127876634195171
0.000723651266686827
0.000252345111857406
1.34420894733271e-05
0.00598500493272793
0.0057763569699479
0.00551702818492997
0.00520240903296281
0.00483241923160208
0.00441158176021057
0.00394642508326652
0.00344389704040713
0.00291146967429354
0.00235737412430619
0.00179047866696853
0.00122321607648586
0.0006825060075381
0.000231052208552521
1.0663683201124e-05
0.0063394921343223
0.00614715771793305
0.00590411750356966
0.00560524613755476
0.00525003067593791
0.00484270973404832
0.00438957176582636
0.00389728844821574
0.00337308826318722
0.00282539335282583
0.0022638092824767
0.00169877675444681
0.00114411682694877
0.000626384269852824
0.000203319099342338
7.52752077611734e-06
0.00666280040068422
0.00648651251015156
0.00625942874551844
0.00597587450983189
0.00563488829755731
0.00524044338496367
0.00479861215648497
0.00431578506781655
0.00379882803779121
0.0032557824426707
0.00269633580864173
0.0021316072952687
0.00157384115109669
0.0010387121732981
0.000552708467719883
0.000167718309394716
4.31735719094998e-06
0.00695560804425727
0.00679502323105937
0.0065835079358084
0.0063148347935532
0.00598756836449044
0.00560539603744789
0.00517415832606694