/*--------------------------------*- C++ -*----------------------------------*\
  =========                 |
  \\      /  F ield         | OpenFOAM: The Open Source CFD Toolbox
   \\    /   O peration     | Website:  https://openfoam.org
    \\  /    A nd           | Version:  12
     \\/     M anipulation  |
\*---------------------------------------------------------------------------*/
/*   Windows 32 and 64 bit porting by blueCAPE: http://www.bluecape.com.pt   *\
|  Based on Windows porting (2.0.x v4) by Symscape: http://www.symscape.com   |
\*---------------------------------------------------------------------------*/
FoamFile
{
    format      ascii;
    class       volScalarField;
    location    "300";
    object      omega;
}
// * * * * * * * * * * * * * * * * * * * * * * * * * * * * * * * * * * * * * //

dimensions      [0 0 -1 0 0 0 0];

internalField   nonuniform List<scalar> 
10142
(
2.46683987631541
2.46684423974848
0.806967580732872
2.38167766499647
2.46684118035118
0.802679394126105
2.38168070909672
0.48266352828204
0.790254390791459
2.28699316144663
2.46683835846298
0.798000229838445
2.38167984455201
0.479341842212444
0.78599549939211
2.28699581011822
0.363184799504026
0.47737060617239
0.768418164311458
2.21610697667948
2.46683452748261
0.792901244090262
2.38167530777881
0.475765892272232
0.781354084644733
2.2870079271358
0.360568001561997
0.47406797813312
0.764208807806865
2.21610913137178
0.305451895481891
0.361126157278984
0.469290297420122
0.749765542891775
2.18721775585323
2.46682782535463
0.787366221780787
2.38165827618735
0.471931907245919
0.776296362077336
2.28697900765528
0.35778292488906
0.470508525914673
0.759627892029099
2.21612331110756
0.303282094298301
0.358517962731648
0.466009037574254
0.745597424098373
2.18721860542126
0.273426970490881
0.304580595997259
0.357483131072836
0.461021322256418
0.737903128858396
2.18619322577566
2.46680508538093
0.78141141106391
2.38167709541093
0.467857825552126
0.770802724352382
2.28697861317679
0.354842823584592
0.466690789150075
0.754636103569516
2.21609128397796
0.300998308393399
0.355737903794268
0.462470870917847
0.741063350963197
2.18722046005908
0.271558567161019
0.302413937816687
0.354880027473593
0.45775133828242
0.733734984281851
2.1861929151941
0.254200636116318
0.273030268946671
0.302707220688724
0.353093362538137
0.45408627085326
0.730586252195466
2.19193193507179
2.46678126284934
0.775113552036378
2.38170160929269
0.463598663921983
0.764893675768596
2.28700601141414
0.351781650159032
0.462631626778651
0.74921207970194
2.21610726759164
0.298622195974111
0.352800965973248
0.458673041098635
0.736121630724922
2.18721393070675
0.269612927383317
0.300129229804395
0.352102179647239
0.454222177312741
0.729198795109072
2.18619178960914
0.252550598852058
0.271162234871651
0.300537877662098
0.350486063249458
0.45080503859278
0.726377688815375
2.19192922429423
0.242109221248719
0.253978883958157
0.27193100212115
0.30009759820261
0.348646993589384
0.44823225898651
0.723906754036706
2.19485822904104
2.46685600848344
0.768664131108521
2.38179225911149
0.459289916710398
0.758646140985654
2.28705898295906
0.348667167766345
0.458385568057014
0.74337116558313
2.21612726386856
0.296195148570449
0.349740600373713
0.454629953672642
0.730746491126434
2.18721825356119
0.267617062139637
0.297749908119114
0.349163500140966
0.450428686456838
0.72425144625091
2.18618963719849
0.250848892309993
0.269212823490059
0.298246761749386
0.347699379063155
0.447258278574382
0.721792317735755
2.19192750555393
0.240629670919888
0.252328013919109
0.270056550386322
0.297916667592766
0.346021511900149
0.444917728194228
0.719637718703376
2.19485325608768
0.234320448162973
0.241945235712813
0.253217905534759
0.270206969102299
0.297077402630268
0.344289477985534
0.442447124877262
0.715738787565291
2.1951322074037
2.46710977771731
0.764546349039871
2.38207774583481
0.455273000129351
0.752173572589874
2.28720832045595
0.345630377218364
0.454087139889763
0.737191781631155
2.21618885830368
0.293787184761926
0.346623287010197
0.450392190163748
0.724946138022651
2.18723964142585
0.265616889650587
0.295316990961703
0.346095282259613
0.446380821563198
0.718857048042703
2.18619407057886
0.249127629359258
0.267210738774706
0.295856341942107
0.344744601330616
0.443437312455439
0.716784346412842
2.19192361212936
0.239112642621158
0.250621377233845
0.268096692245258
0.295608613370422
0.343209127744739
0.441327409631984
0.714979799173004
2.19485101772543
0.232992443591797
0.240464377289356
0.251558940291303
0.268317355387193
0.294874318261955
0.341632606030382
0.439085908919403
0.711404808828588
2.1951268552881
0.234179087452014
0.241335624204807
0.251950306925344
0.268038452638688
0.293846288221417
0.339817012720636
0.43603128694551
0.705757161094594
2.19481068255959
2.4684579407777
0.765553223949789
2.38279746884582
0.452458984636919
0.747386605981737
2.2875911105826
0.342937298130294
0.450077105331834
0.73075481034157
2.21635232567511
0.291513892325733
0.343578169260341
0.446085371959389
0.718792669813732
2.18729932062537
0.263683225575933
0.292899290988272
0.342960231079265
0.442121253163202
0.713020691029533
2.18621381599225
0.247437393729
0.265201623683407
0.29340579996981
0.341648903071469
0.439345775887281
0.711309382910117
2.19193152738901
0.237599577037915
0.248892703417233
0.266079295037883
0.293193323389214
0.340217282982512
0.437448403622836
0.709883005355769
2.19484625293944
0.231613679174395
0.238942045113164
0.24984008953011
0.266336727488019
0.292536143482737
0.338778406103054
0.435436410858227
0.706669814154033
2.19512422384563
0.228128989431683
0.232849610954433
0.239845865578959
0.250274464405715
0.266124387525884
0.291611554184905
0.337119846520868
0.432618424750503
0.701362408548026
2.19480514058606
0.233650985863677
0.240322113802347
0.250310202240173
0.265615592228299
0.290458679754649
0.335036214978022
0.428769326959016
0.694179259957962
2.19480573107997
2.47049254982686
0.772559975403336
2.38444982034606
0.451475569959123
0.747994872471257
2.28846146597185
0.34097060277323
0.447161457352207
0.72515785748905
2.21675195204148
0.289569389096576
0.340869996444246
0.442009875941042
0.712356409123586
2.18745794987137
0.261922325219168
0.290610839633116
0.339880293298844
0.43775457637857
0.706781784113946
2.1862686607412
0.245851468196799
0.263255309152351
0.290960778399072
0.338467939928479
0.435015678031597
0.70536394071973
2.19194807846382
0.236147376563402
0.247192355454975
0.264048450622322
0.290706396479771
0.337067453641724
0.43327725072717
0.704297428076323
2.19485434553035
0.230261255460744
0.237421262541381
0.248094346958993
0.264290580203364
0.290079219582651
0.335730018071663
0.431481174639142
0.701480049366546
2.19511911976615
0.226825072812626
0.231465356481676
0.238310619396966
0.248533063241024
0.264111238162551
0.289231301365818
0.334213062856781
0.428904094490076
0.696556391828494
2.19480231296031
0.225016196147496
0.227999582409451
0.232312312544717
0.238814478264723
0.248608492325947
0.263668989704897
0.288185525965142
0.332294528806057
0.425305585192243
0.689723379565683
2.19480014114704
0.232801862451494
0.239033993540159
0.248473606279667
0.263074742564107
0.28692972793103
0.329892364939464
0.420684517647892
0.681097800967762
2.19513095048833
2.47707958883524
0.788673618527946
2.3873006038256
0.453179094730817
0.7547392968971
2.29017031273842
0.340125497029029
0.446006891034333
0.725161489179701
2.21762553516218
0.288211070276589
0.338849865034987
0.438881046719378
0.705679587674316
2.18784711264511
0.260491694894174
0.288645434992543
0.337102096562087
0.433501140857071
0.700215428553087
2.18641927393713
0.244474581634746
0.261476578981517
0.288630129866842
0.335309042334074
0.430527863390086
0.698950780923042
2.19199870064206
0.234833392734944
0.245592758854617
0.262071397207682
0.288207758165488
0.333805507188667
0.428833584576852
0.698201929840834
2.19486956763889
0.228998096115998
0.235958697558188
0.246370706124699
0.262219905761299
0.287534093595654
0.332502329117078
0.427209793467131
0.695778393761993
2.195127054682
0.225595581307361
0.230105214610802
0.236772158810653
0.246756917541808
0.262021248847044
0.286717826625729
0.331095321960916
0.424866397368984
0.691278300145585
2.1947970768372
0.223820573939195
0.226692486123704
0.230914651686745
0.237255786425109
0.246833172099829
0.261612931365499
0.285754716430484
0.329330061640538
0.421527569585173
0.684853897769426
2.19479726429068
0.22315718998085
0.224903249575039
0.227519327980859
0.231444664174861
0.237499326077591
0.246738215860041
0.261089578383334
0.284614354742027
0.327105809122807
0.41717321704188
0.676585064029082
2.19512542090208
0.231770898701427
0.237639172698528
0.246598039480567
0.260520817350165
0.283318568010169
0.324453134393664
0.411864030885317
0.666407748828375
2.19485568691378
2.47707765247967
0.818603637087203
2.39185417680148
0.458727557398186
0.770612430061483
2.29303147667512
0.340903024488884
0.44743314723022
0.731303521103003
2.21929747849747
0.287733885264804
0.33790361351781
0.437421240205188
0.704805110377602
2.18870502245036
0.259620080349553
0.28724285564139
0.334952014415098
0.430022447796816
0.693315041391476
2.18679835039516
0.243455749695349
0.260021188770387
0.286597217512625
0.332382143170977
0.426063467255908
0.692151487431978
2.19214278540219
0.23376549927163
0.244197314059505
0.260248899248079
0.285796076595476
0.330518762241184
0.424171643508065
0.691588487379996
2.19491695506187
0.227904958186105
0.234630893900967
0.244739344758029
0.260187294949637
0.284952752317283
0.329130127151823
0.422629095200176
0.689527553422454
2.19514130958217
0.224485718825345
0.228831753447493
0.23528585325893
0.244992250639537
0.259890986766178
0.284095795802791
0.327774806712471
0.420488094143596
0.685464951320498
2.1948048515979
0.222703721331369
0.225455715118791
0.229536595531988
0.235686192206226
0.245012039666122
0.259465908231778
0.283174297255661
0.326137071172435
0.417408801552035
0.679497201861936
2.19479197779223
0.222049785944394
0.2237046048185
0.226199449646741
0.230022796346001
0.235905656049959
0.244918907003187
0.258982905505819
0.282128225571771
0.324083193311674
0.413336630125917
0.671653524918298
2.19512262939621
0.222182413292915
0.223061433583962
0.224473289436202
0.226774739523943
0.230385500640666
0.236069386870867
0.244822891185119
0.258493197000173
0.280959888264854
0.32162436185737
0.408311318614319
0.661847683061888
2.19485236171608
0.230724017843998
0.236297765305643
0.244826655968583
0.258083850534001
0.279767258519083
0.318888314722727
0.402432691264197
0.649824264641093
2.19192995822876
2.49612145387186
0.864742987046089
2.39533601503348
0.469773224774328
0.799724095944597
2.29674769691033
0.343936295143196
0.452592841825339
0.745598719591143
2.22204871723377
0.288514086281347
0.338525900073355
0.438346345471518
0.709800769293845
2.19037351229288
0.259562234669005
0.286696330137218
0.333791876350659
0.42808727333821
0.689815421889698
2.18765645315788
0.243007951677775
0.259112424771237
0.285091181434227
0.330003892851716
0.422085000492768
0.685001754357834
2.192515777959
0.233095365274488
0.243153211332665
0.258730295889579
0.283633350445072
0.327370330585366
0.419420150306206
0.684514881521043
2.19505560520556
0.22709440003513
0.233544457339072
0.243300285482889
0.258286335400156
0.282419968801589
0.325680566707734
0.417771498469132
0.682718165828802
2.19518630728496
0.223574967958907
0.227724922969372
0.233926151516546
0.243305235085325
0.257776569406054
0.281408125796082
0.324275407572628
0.415764760286263
0.679074712548907
2.19481853346539
0.221723331242413
0.224335700688403
0.22823929661241
0.234158460602701
0.243187338774612
0.257259268144916
0.280462827238765
0.322717298790449
0.412925946114402
0.673584576229599
2.19479967643484
0.221027968656307
0.222580511352312
0.224944887660864
0.228613080800254
0.234290234627994
0.243039957360944
0.256769209589087
0.279475131229609
0.320814541808587
0.409143123707133
0.666230173429891
2.19511741636928
0.221143341267733
0.221950849509591
0.223261673056246
0.225430268594273
0.228927535219121
0.234430362764876
0.242951790248765
0.256330944102285
0.27841697742832
0.318546736964602
0.404422818613822
0.65686087084302
2.1948499727696
0.221827491949257
0.222103040840537
0.222677380283491
0.223831434427725
0.225917245164874
0.229301710389387
0.234686300049701
0.243007340256053
0.256011835329311
0.277366546364434
0.316022481183663
0.398847325922705
0.645227502170697
2.19192893783902
0.229820516851894
0.235169368156105
0.243332055297162
0.255968236045197
0.276532864924166
0.313501975358631
0.392624877065186
0.631079966711074
2.18619365483965
2.47684900258225
0.929867497735531
2.40111560495267
0.48810309557593
0.846029293924264
2.30018086900016
0.350053087873144
0.462977902232084
0.771459671416357
2.22558050497906
0.291049553239278
0.341322468896147
0.442682969995139
0.72194276124909
2.19317081553601
0.260674853852152
0.287376890215027
0.334082186731953
0.42826608734625
0.692836503981803
2.18937730661276
0.243403880682293
0.258999240115358
0.284385210980173
0.328500215687765
0.419376384149835
0.678269236309901
2.19338245433317
0.233037605859745
0.242671188138429
0.257730961225261
0.281947331440118
0.324666654858817
0.414861613873485
0.677061818461715
2.19542324772009
0.226725631402477
0.232849204625926
0.242195785705844
0.25665539423652
0.280072259338421
0.322279173896234
0.41272283428431
0.675369651026625
2.19532073189423
0.222979875297182
0.226896030188722
0.23279651123826
0.241790024663576
0.255761769933666
0.278725019753136
0.320645822087699
0.410711640381806
0.672085749728839
2.19486220185125
0.22096397027142
0.223411419367565
0.227100640825023
0.23274334525957
0.241419652555464
0.255041616228551
0.277654075410651
0.319084713032268
0.408065885321024
0.667070728344873
2.19481329607905
0.220154953571417
0.221590015741172
0.2238010187993
0.227274066467829
0.232702094127572
0.241138863031312
0.254474306326633
0.276667648401916
0.317295666645268
0.404563851391115
0.660232682154447
2.19512516206178
0.220197991594413
0.220921708860624
0.222119579008153
0.224143650653148
0.227471051065983
0.232755953856158
0.241005202483156
0.254044452448768
0.275689482720618
0.315206267101415
0.400164064199429
0.651371689414704
2.19484701083643
0.220840841281576
0.221060614425476
0.221553367068429
0.222594477859116
0.224535617113962
0.227796717169141
0.232993539556123
0.241078827425976
0.253791468123218
0.274768192109559
0.312895649137961
0.394915673504591
0.640197862916924
2.19192716018351
0.221900448047836
0.221762921910676
0.221760185952414
0.222124390081003
0.223141420208984
0.225115288344089
0.228354000406057
0.23351102695475
0.241465596135902
0.253851578618619
0.274093296661407
0.310605933531555
0.389016009258295
0.626459938998862
2.1861928472248
0.229228034479904
0.234452320006292
0.242364309205433
0.254502984756306
0.274053534666717
0.308847366376376
0.3830294150532
0.610829069079842
2.1872188611848
2.51405902630846
1.00190475505154
2.4006579023158
0.515453837919664
0.910653106841869
2.30188323223664
0.360261429560346
0.480397353982992
0.814083621580687
2.22846110581968
0.296019275136267
0.347058823074752
0.451668685482324
0.744440311195331
2.19682452498093
0.263455672404371
0.289764638364992
0.336370240659733
0.431405870847908
0.702619481781681
2.19233033276058
0.245026486139167
0.260036089749508
0.28483374217414
0.328270316640008
0.418564965782371
0.678883729086286
2.19516235530522
0.233900399393048
0.243016719330335
0.257486636001259
0.280974617725522
0.322687704265209
0.411213414707625
0.669226180032835
2.19629485099363
0.227026558784679
0.232757027249832
0.241628994679238
0.255496520754187
0.278127036513816
0.319165083659871
0.407668705160598
0.667545005240851
2.19568357678908
0.22286753156563
0.226502381147506
0.232042081264437
0.240580253257492
0.253970433114758
0.27615959954511
0.316976979169554
0.405378005121391
0.664491131089591
2.19499428600931
0.22054676599955
0.22279822758074
0.226228840945314
0.231538932095304
0.239795126915548
0.25288573323962
0.274804165199163
0.315271999135098
0.402829079449185
0.659921579444869
2.19485693466437
0.219519146856635
0.220817250950781
0.222844970186216
0.226080053296911
0.231206850987056
0.239269652822096
0.252139015390111
0.273730890494647
0.313531874766728
0.399578413757958
0.653608663360143
2.1951392112067
0.21941141155561
0.22003858272958
0.221105084488899
0.222957712331149
0.22607096952163
0.231090719765831
0.239015511891064
0.251653989770566
0.272784300353579
0.311593349079393
0.395500102631658
0.645295467057538
2.19485081982205
0.219955245493131
0.220107833863885
0.220505877119782
0.221419675023544
0.223201174924647
0.226279656028382
0.231249625517782
0.239057620886791
0.251429068723343
0.271967896127371
0.309490476451984
0.390601632257627
0.634661429450112
2.19192655109092
0.220953390871798
0.220772755386914
0.220703856470854
0.220974130095603
0.221865850516319
0.223684861684359
0.226792790412574
0.231757958419881
0.239475874353301
0.251572597343897
0.27144300578391
0.307437365677022
0.385050427972902
0.621371713831804
2.18619160885243
0.222259302017047
0.221848836020001
0.221456239400585
0.22128436645398
0.221576543764532
0.222575082237102
0.224529268407606
0.22771117592167
0.232742947598908
0.240448851241905
0.252342657949104
0.271579239486666
0.305927335469093
0.379400959097561
0.606115231014572
2.18721824195948
0.229161201764417
0.234428886689857
0.242307094186845
0.254225596930014
0.273094549595494
0.306011700789133
0.375265522724185
0.592610037905014
2.21610854576862
2.46568095716546
1.09008812769647
2.4173727128663
0.552127780632964
0.988347433548896
2.30585691214659
0.375761296740919
0.506571045085224
0.876477621088445
2.22937133566249
0.304372538140774
0.356678390120444
0.467061421571502
0.783446506534819
2.19977407716397
0.268645434085096
0.29450737197425
0.341316791445395
0.43856512117943
0.721664170119822
2.19629238638525
0.248447869906468
0.262707577889704
0.286881049744858
0.329790565398941
0.42022970711961
0.686304975051086
2.1982771750453
0.236120280669791
0.244570163592381
0.258340081813108
0.281042124605917
0.321781317836692
0.409243156294904
0.665880274521787
2.19811323304673
0.228332052308647
0.233571499557253
0.241856067943509
0.25502957662732
0.276790710541535
0.316625813363784
0.403091871946609
0.659375594747418
2.19655537518424
0.223479872228161
0.226768932537581
0.231867724135986
0.239865673152574
0.252585179745135
0.273894141117389
0.313433618636757
0.399874719048001
0.65631952807952
2.19535425673861
0.220644894399928
0.222661288979935
0.225776475241029
0.230682478996101
0.2384357426542
0.25089909393256
0.272002884443015
0.311342359857069
0.397237154252909
0.652113508161052
2.1949890283453
0.219244708690213
0.220382210127426
0.222189082771593
0.225134028860598
0.229895326920645
0.237509332813294
0.249825058691357
0.270708123745809
0.309542383931955
0.394175391623665
0.646319703706592
2.19518412950551
0.218873716990003
0.219389494562036
0.220300575397924
0.221946151623453
0.224796652325302
0.229494232615877
0.237029839039492
0.249192774042378
0.269718595818695
0.307705707989227
0.390403847662005
0.638578957197709
2.19486760023708
0.2192362248072
0.219311129662304
0.219598558581291
0.220362608638809
0.22195323688066
0.224801123396597
0.229494253774936
0.236970876544705
0.248939481943929
0.268967211126002
0.305792333290404
0.385866380515099
0.628524951925589
2.19192682148663
0.220113268453116
0.21987962550662
0.219732365189014
0.219893167069534
0.220641908199841
0.222287947230905
0.225203682324187
0.229936397393867
0.237375367141561
0.249133631043651
0.268574114709564
0.303976699851793
0.380694560362288
0.615796165243481
2.18619129940061
0.221341339867759
0.220898118238949
0.220451731479672
0.220200887038248
0.22038613235028
0.221248416985786
0.223039926954238
0.226086054187186
0.23092435665754
0.238395504887286
0.250005987058413
0.268881569942556
0.302723687733401
0.375394637144179
0.600896402244509
2.18721736146907
0.222797574765664
0.222218820742306
0.221573357397492
0.221047014176198
0.220858040286923
0.221209394852881
0.222293442885708
0.224332803028872
0.227588612063177
0.232664971701723
0.24034135832334
0.252022768600032
0.270588212286482
0.30306798099655
0.371585603712185
0.587562282204648
2.21610814409181
0.22992485134681
0.235522889961661
0.24377059073714
0.256048706462761
0.275075123915897
0.307337037188043
0.373671978610091
0.583478541260649
2.28699453242711
2.49631298205334
1.15998554280631
2.42906369191476
0.603465356699866
1.06410577749814
2.32324422011512
0.398344608377285
0.542763636459328
0.950185471047901
2.23283063618936
0.31754151376205
0.371338197825477
0.490708162775154
0.842659056864862
2.20045047515796
0.277407795363126
0.302508816741354
0.34975952275923
0.451410213181141
0.756386637759413
2.1996185112741
0.254584627535196
0.267731711446382
0.291116146420632
0.333609870032125
0.425292211638774
0.702371939105062
2.20253541884279
0.240393750829907
0.247890689782575
0.260748904385933
0.282547810504685
0.322343710989351
0.409372252202001
0.670380118642012
2.20133141014048
0.231155720905203
0.235720801919903
0.243241810686151
0.255572153359192
0.276351335208585
0.314959333004167
0.39982157158426
0.652406861470625
2.19839046315416
0.225178066316158
0.228025663153845
0.232565905749018
0.239890797883344
0.251812223042958
0.272131836731929
0.310310310550502
0.394458249511424
0.647652895323747
2.19622484771915
0.221509644342178
0.223239385113395
0.225961047353361
0.23036703208901
0.237513337103961
0.249238504364931
0.269390883892481
0.307411043076576
0.391352303688347
0.643646405677146
2.19534906699734
0.21950757852488
0.220456192815627
0.221993732697708
0.224580704898918
0.228894347533449
0.235967003452723
0.247623738777819
0.267669618539783
0.305368443995959
0.3883567153996
0.638332039510461
2.19531857703927
0.218709946537642
0.21909755981255
0.21982314006224
0.22121618580399
0.223744073489114
0.228049014317039
0.23511584049586
0.246712063384668
0.26652427386479
0.303551401439796
0.384855086968148
0.631172673400494
2.19491497029936
0.218774148666175
0.218760304024552
0.218917803705784
0.219502364175715
0.220860724754288
0.223424683163748
0.227780566689109
0.234858813959732
0.246348670536169
0.265776001068111
0.301792109087886
0.380677396160927
0.621732229533018
2.19194619497417
0.219445550237662
0.219150480607585
0.218911304792838
0.218942748582993
0.219521718866625
0.220959739621558
0.223632546682817
0.228080995943665
0.235185997328281
0.246544260717237
0.265483154765244
0.300205030770682
0.375905801810808
0.609625376235593
2.18619374460913
0.220534781869518
0.220050371895325
0.219539566761121
0.219195174158114
0.219254634634644
0.219959799728938
0.221567979136411
0.224415425862902
0.229018752283342
0.236212716330733
0.247491541416107
0.265949830276161
0.299217296964589
0.371002718132871
0.595268749342457
2.18721720707518
0.221900104169062
0.221297070217031
0.220607906952007
0.220014513839544
0.219732906789605
0.219965539663241
0.220904561047219
0.222775616741531
0.225892843770743
0.230776470246324
0.238222664895399
0.249629560445108
0.267846142156784
0.299827148498948
0.367500112497282
0.581836520236802
2.21610744847733
0.223434672863976
0.222766536926723
0.221969910992707
0.221221111040282
0.220724489498176
0.220660072515007
0.221185060854368
0.222473586543722
0.224752042995506
0.228291396279177
0.233700923482072
0.241752762753697
0.253802318482684
0.272532801746659
0.304351758867869
0.369851870721662
0.578105753863846
2.28699433563476
0.231971877893275
0.238397144939203
0.247770866755666
0.261618785546251
0.28286526740663
0.318363007513341
0.389741668584062
0.610319377154817
2.38167841478807
2.9257182698255
1.28804379145657
2.45521496417358
0.681309699414945
1.11307615795348
2.36164640503656
0.434182696320175
0.590967623047146
1.00574322096482
2.25286416828756
0.338245500465461
0.392971200714354
0.523191367756506
0.90316488110477
2.20328040595438
0.291707642788131
0.315155627721231
0.362800865089671
0.471576779742409
0.805419983612652
2.20047594530486
0.264983953328151
0.276231043295549
0.298365918204027
0.340450929132202
0.435116631542123
0.730139129848191
2.20624860229321
0.247896711172736
0.253867707930311
0.265385432309785
0.286010710035103
0.324825923686184
0.412246421008157
0.682550494153028
2.20577739641055
0.236331837235701
0.239886138799792
0.246319086344846
0.257547323059279
0.277162690647085
0.314483633748755
0.398381987837588
0.65366905151791
2.20165618848028
0.228530501815772
0.230775248134533
0.234546018556103
0.240992352118964
0.251935956879064
0.271117354251021
0.307856464465807
0.3899363277323
0.6388342604525
2.19806457113579
0.223517877846332
0.224887996738599
0.227099811047847
0.230867114435411
0.237260428508737
0.248107606490804
0.267180975765793
0.30369472184758
0.385323092010266
0.634570412837377
2.19621981469697
0.220561497543824
0.221287354555397
0.22248985398824
0.224625266910563
0.228381700260281
0.234796334960622
0.245668322567376
0.264726921424276
0.301087764718136
0.382150000822163
0.629625301332536
2.19568149105559
0.219095419096798
0.219336993578902
0.219839396013923
0.220920260178808
0.223047678884439
0.226870385600349
0.233369979104686
0.244288803246401
0.263255209109061
0.299154646437354
0.3788417480603
0.623034676941413
2.19505380550317
0.218693253719627
0.218579479616185
0.218584027374779
0.218951073584635
0.220023973853929
0.222238320225486
0.226182538313497
0.232780026148415
0.24369820364549
0.262416131405115
0.297488397122414
0.375005712965936
0.614232788292581
2.19199683827929
0.219040088107268
0.218675460261197
0.218329010139561
0.218206153587416
0.218579741887463
0.219763537944381
0.222136754512185
0.22623837930494
0.232941206633069
0.24382349187052
0.262173101251154
0.296106779628358
0.370645429428774
0.60278875669243
2.18621249781237
0.219904848006439
0.219372546076907
0.218785966840141
0.218330567523138
0.218239968797593
0.218757277283778
0.220144108340781
0.222740211732491
0.22705564951218
0.233917192687159
0.244803792733336
0.262775937578842
0.295385729929312
0.36617873225028
0.58909623997223
2.18722116427642
0.221117350555017
0.220482812763251
0.219740853640379
0.219067455516627
0.218675317387974
0.2187670983218
0.219537570419676
0.22121773961573
0.224132499363555
0.228781481980614
0.235955516429835
0.2470412936035
0.264856628507446
0.296279343160063
0.363061927863399
0.57606483102402
2.21610681721688
0.222550699728979
0.22186516618167
0.221033085453574
0.220226905352185
0.219648923476324
0.219479210622591
0.219875641875716
0.221012326940724
0.223118656965081
0.226518584381078
0.231738152019168
0.23956637571976
0.251351212233123
0.269741501041037
0.301052444298408
0.365589605895107
0.572208676752428
2.28699422060006
0.224109247713507
0.223411562421915
0.222540021679175
0.221666010103938
0.220986893457876
0.220670233892076
0.220853667577112
0.221683352118009
0.223349248413419
0.226107793756258
0.230271942966044
0.236512414783951
0.245696159651046
0.259320365666429
0.280266234877035
0.315287369318713
0.385798865199218
0.603031729629087
2.38167751245985
0.23600316041647
0.244140687442279
0.25610982760832
0.274169618413076
0.302907377446411
0.353744951957671
0.466410687864325
0.868119599893169
3.68516580399512
2.94890112223629
2.93624876935594
0.893787716150992
1.20928074904947
2.41074114632021
0.508011908875001
0.660766577911217
1.03446692776466
2.30196937991196
0.374234153080538
0.427502094561963
0.563251976965689
0.938891201770968
2.2231212117153
0.315348304864529
0.335180171330136
0.382324680679462
0.497913700273618
0.847766076592194
2.20294350372899
0.282365599158383
0.29011112944783
0.309952779160828
0.351318053167102
0.450380468472699
0.764253568397021
2.20741119446383
0.260704160132136
0.263991141070868
0.273299650516096
0.292177225347472
0.32982257594954
0.418647850418388
0.701566066661234
2.20974604523943
0.245330620055099
0.247203201481564
0.251922277942892
0.261568886606349
0.279680893462942
0.315568762701634
0.399061827235231
0.660931759536739
2.20619056007993
0.234494558030118
0.235829536945203
0.238453034066029
0.243665934229373
0.253344612241117
0.271165292513971
0.306351454140223
0.38694960602328
0.635844721938124
2.20134560439283
0.227266011248139
0.22816365157312
0.229671955222441
0.23256375847023
0.237979726885594
0.247752675676432
0.265574592841601
0.300475215414919
0.379602875738521
0.625121123454361
2.19805979278028
0.22278430459869
0.223246774824758
0.224018975158667
0.225564291662173
0.228609270901152
0.234213154257238
0.244151331993688
0.262056768834459
0.296842030823114
0.375632646433992
0.620211147637364
2.19655342292587
0.220280197855298
0.220358679666243
0.220589691416457
0.221276465793585
0.22289710798197
0.226119980403416
0.23192923038985
0.242036807647303
0.259998508676645
0.294566476771497
0.372367834565919
0.614138428670842
2.1954216347598
0.219165879995051
0.21894248845794
0.218767107753504
0.218867589575928
0.219585125458603
0.221365241273238
0.224804137302286
0.230819253059247
0.241052273255148
0.258927664926634
0.292891923617332
0.36882844783667
0.605980700585819
2.19214133690418
0.219019422613422
0.218578037520698
0.21810720295213
0.21779916020599
0.217921430553733
0.218791835804307
0.22079604943724
0.224474129112886
0.23069091193361
0.241003816421402
0.258656577336272
0.291671564087884
0.364876928610851
0.595231499558112
2.1862668380172
0.219540592043267
0.218954350866832
0.218279801280811
0.217692553265319
0.217421022026313
0.217709836579089
0.218825580337578
0.221111447879751
0.225075146377575
0.23153565690115
0.241954890506182
0.259356024742265
0.29120646741326
0.36087265951415
0.582274554822361
2.18723936276593
0.220514247903215
0.21984279936237
0.219038538948444
0.218269989155467
0.217745474842349
0.21766804424993
0.218236031613801
0.219685073057631
0.222343392983402
0.226704299924026
0.233551411767993
0.244257536888584
0.261607573297133
0.292399859425419
0.358219071017149
0.569935774051853
2.21609764042036
0.221783869438116
0.221074649936018
0.220199299077676
0.219324380695202
0.218648767307836
0.218352495120866
0.218595425271924
0.219554628762109
0.221464817402003
0.224660819803783
0.229648568697859
0.237212334713254