/*--------------------------------*- C++ -*----------------------------------*\
  =========                 |
  \\      /  F ield         | OpenFOAM: The Open Source CFD Toolbox
   \\    /   O peration     | Website:  https://openfoam.org
    \\  /    A nd           | Version:  12
     \\/     M anipulation  |
\*---------------------------------------------------------------------------*/
/*   Windows 32 and 64 bit porting by blueCAPE: http://www.bluecape.com.pt   *\
|  Based on Windows porting (2.0.x v4) by Symscape: http://www.symscape.com   |
\*---------------------------------------------------------------------------*/
FoamFile
{
    format      ascii;
    class       volScalarField;
    location    "300";
    object      p;
}
// * * * * * * * * * * * * * * * * * * * * * * * * * * * * * * * * * * * * * //

dimensions      [0 2 -2 0 0 0 0];

internalField   nonuniform List<scalar> 
10142
(
83333.332546344
83333.3325284851
83333.3325451257
83333.3325466123
83333.3325101427
83333.3325273462
83333.3325287475
83333.3325436402
83333.3325455826
83333.3325471937
83333.3324913952
83333.3325091851
83333.3325103914
83333.3325259849
83333.332527799
83333.3325293875
83333.3325423564
83333.3325441172
83333.3325462385
83333.3325480754
83333.3324722244
83333.332490618
83333.3324916796
83333.3325079298
83333.3325096495
83333.3325111065
83333.3325247078
83333.3325264921
83333.3325285246
83333.3325304073
83333.3325408168
83333.3325427261
83333.3325447732
83333.3325471914
83333.3325493076
83333.3324527328
83333.3324717025
83333.3324725558
83333.3324894773
83333.3324911594
83333.3324925148
83333.3325066436
83333.3325084754
83333.3325104686
83333.332512285
83333.3325229816
83333.3325251204
83333.3325272348
83333.3325296319
83333.3325318587
83333.332539198
83333.3325411226
83333.3325433158
83333.3325457419
83333.3325484808
83333.3325508876
83333.3324330976
83333.3324525714
83333.3324531226
83333.33247072
83333.3324723294
83333.3324735317
83333.332488117
83333.3324901112
83333.3324921228
83333.3324938943
83333.3325046447
83333.3325070984
83333.3325093212
83333.3325117482
83333.3325139858
83333.3325210303
83333.3325233288
83333.3325257968
83333.3325283523
83333.3325311564
83333.3325337339
83333.332537752
83333.3325394759
83333.3325416837
83333.3325442663
83333.332547087
83333.3325501129
83333.3325527581
83333.3324135693
83333.3324333713
83333.3324335636
83333.3324517558
83333.3324532911
83333.332454253
83333.3324691825
83333.3324714494
83333.3324734593
83333.3324751455
83333.332485705
83333.332488637
83333.3324910993
83333.3324936156
83333.3324958953
83333.33250221
83333.332505032
83333.3325078832
83333.3325106139
83333.3325135307
83333.3325162012
83333.3325191508
83333.3325213525
83333.3325239902
83333.3325268978
83333.3325299179
83333.3325330798
83333.3325359629
83333.3325366833
83333.3325380234
83333.3325400431
83333.3325426474
83333.3325456467
83333.3325487757
83333.3325520292
83333.3325548373
83333.3323945672
83333.3324143424
83333.3324141202
83333.3324326764
83333.3324341954
83333.3324348554
83333.3324498605
83333.3324525811
83333.3324546052
83333.3324561331
83333.3324661448
83333.332469776
83333.3324725973
83333.3324752005
83333.332477493
83333.3324826128
83333.3324861511
83333.3324895553
83333.3324926001
83333.3324956858
83333.3324985117
83333.3324997509
83333.332502578
83333.3325057974
83333.3325091659
83333.3325124325
83333.3325157855
83333.3325188463
83333.3325176201
83333.3325194753
83333.332522021
83333.3325251299
83333.3325285168
83333.3325318909
83333.3325353497
83333.3325384504
83333.3325361529
83333.3325369621
83333.3325386102
83333.3325410352
83333.332544077
83333.3325474195
83333.3325507424
83333.3325541478
83333.3325570273
83333.3323766866
83333.3323959181
83333.3323952102
83333.3324136225
83333.3324152772
83333.3324155873
83333.3324301526
83333.3324335869
83333.3324356968
83333.3324370311
83333.3324458934
83333.3324505299
83333.3324539
83333.332456623
83333.33245887
83333.3324621383
83333.3324666725
83333.3324708502
83333.3324743397
83333.3324776048
83333.332480569
83333.3324793651
83333.3324830464
83333.3324870554
83333.3324910554
83333.3324947088
83333.3324983169
83333.3325016453
83333.3324976149
83333.3325001321
83333.3325033675
83333.3325071165
83333.3325110433
83333.3325147364
83333.3325184696
83333.3325218069
83333.332516649
83333.3325179641
83333.3325201791
83333.3325231968
83333.332526796
83333.3325305904
83333.3325342078
83333.3325378658
83333.3325410815
83333.3325364396
83333.3325375747
83333.3325396525
83333.3325425338
83333.3325459431
83333.3325494986
83333.3325529241
83333.3325563697
83333.3325592341
83333.3323604352
83333.3323786031
83333.3323774045
83333.3323948381
83333.3323969466
83333.3323968749
83333.3324100591
83333.3324145842
83333.3324169747
83333.3324180799
83333.3324248456
83333.3324308864
83333.3324350809
83333.3324380184
83333.3324401967
83333.332440613
83333.3324465252
83333.3324517787
83333.3324559081
83333.332459407
83333.3324624603
83333.3324578101
83333.3324626607
83333.3324677466
83333.3324726015
83333.3324767798
83333.3324806699
83333.3324842626
83333.332476415
83333.3324798288
83333.3324839962
83333.3324886151
83333.3324932468
83333.3324973978
83333.3325014722
83333.3325051597
83333.3324960809
83333.3324980234
83333.3325009741
83333.3325047623
83333.3325090881
83333.3325134682
83333.33251746
83333.3325214557
83333.3325249436
83333.3325164238
83333.3325170209
83333.3325187106
83333.3325214248
83333.3325249666
83333.3325289865
83333.332533031
83333.3325367785
83333.3325405124
83333.3325437363
83333.3325370776
83333.3325386729
83333.3325412332
83333.3325445073
83333.3325481501
83333.332551795
83333.33255522
83333.3325585939
83333.3325613502
83333.332346282
83333.33236286
83333.3323612849
83333.3323766697
83333.3323797053
83333.3323792466
83333.3323896685
83333.3323958204
83333.3323988342
83333.3323996739
83333.3324028459
83333.3324108648
83333.3324162385
83333.3324196044
83333.3324217083
83333.3324177847
83333.3324255848
83333.3324323267
83333.3324373667
83333.3324412271
83333.3324443508
83333.3324348042
83333.3324412435
83333.3324477991
83333.3324538203
83333.3324587338
83333.3324629678
83333.3324667833
83333.3324537565
83333.3324583846
83333.3324638112
83333.3324695956
83333.3324751614
83333.3324799125
83333.3324843509
83333.3324884113
83333.3324741289
83333.3324769205
83333.3324808547
83333.3324856698
83333.332490943
83333.3324960863
83333.3325005883
83333.3325050054
83333.33250889
83333.3324953863
83333.3324965258
83333.3324989271
83333.3325024735
83333.3325068684
83333.3325116685
83333.3325163309
83333.3325204844
83333.3325245947
83333.3325281128
83333.3325170684
83333.3325168142
83333.3325178145
83333.3325200374
83333.3325233085
83333.3325272978
83333.3325315813
83333.3325357285
83333.3325394883
83333.3325431757
83333.3325462883
83333.3325382336
83333.3325403429
83333.3325433233
83333.3325468548
83333.3325505919
83333.3325542073
83333.3325575318
83333.3325607379
83333.3325632881
83333.3323345337
83333.3323489767
83333.3323473328
83333.3323594584
83333.3323640374
83333.3323633435
83333.3323691066
83333.3323776672
83333.332381757
83333.3323823292
83333.3323797575
83333.3323905438
83333.3323976027
83333.3324017575
83333.3324037633
83333.3323933013
83333.3324037089
83333.3324124939
83333.3324188087
83333.3324232592
83333.3324264657
83333.3324099436
83333.3324185538
83333.3324270954
83333.3324346972
83333.3324406149
83333.3324453413
83333.3324493616
83333.3324292491
83333.3324355296
83333.3324426527
83333.332449995
83333.3324568126
83333.332462369
83333.3324672384
83333.3324716564
83333.332450458
83333.3324543982
83333.3324596558
83333.3324658308
83333.3324723509
83333.3324784846
83333.3324836295
83333.3324884887
83333.3324928235
83333.3324728188
83333.3324746804
83333.3324780365
83333.3324826772
83333.3324881862
83333.3324939876
83333.3324994406
83333.3325041385
83333.3325087166
83333.3325126634
83333.3324957055
83333.3324958636
83333.3324974961
83333.3325005402
83333.3325047338
83333.3325096355
83333.3325147235
83333.3325194956
83333.3325236712
83333.3325277539
83333.332531165
83333.3325186503
83333.3325174662
83333.3325176467
83333.3325192229
83333.3325220423
83333.3325257942
83333.3325300703
83333.3325344525
83333.3325385633
83333.3325422218
83333.3325457314
83333.3325486279
83333.3325399947
83333.3325425562
83333.3325458207
83333.3325494615
83333.3325531598
83333.3325566345
83333.3325597691
83333.3325627059
83333.3325649718
83333.3323252494
83333.3323369793
83333.3323359004
83333.3323434012
83333.3323502613
83333.3323496043
83333.3323484891
83333.3323604733
83333.3323662398
83333.3323667121
83333.332355447
83333.332370063
83333.3323795744
83333.3323849609
83333.3323868508
83333.3323667973
83333.3323807766
83333.3323923605
83333.3324005005
83333.3324058494
83333.3324091265
83333.3323826821
83333.3323942719
83333.3324054986
83333.3324152321
83333.3324225252
83333.3324279623
83333.3324322187
83333.3324023407
83333.3324108679
83333.3324202872
83333.3324297139
83333.3324381879
83333.3324448086
83333.3324502589
83333.3324550359
83333.3324245891
83333.3324300776
83333.3324371171
83333.33244511
83333.3324532672
83333.3324606972
83333.3324666722
83333.3324720298
83333.3324768433
83333.332448326
83333.3324511645
83333.3324557991
83333.3324618921
83333.3324688557
83333.3324759483
83333.3324824072
83333.3324877698
83333.3324928542
83333.3324972912
83333.3324727176
83333.33247341
83333.3324758853
83333.3324800175
83333.3324854112
83333.3324914822
83333.3324975869
83333.3325031479
83333.3325078767
83333.3325124404
83333.3325163007
83333.332497143
83333.3324962009
83333.3324968917
83333.3324992197
83333.3325029671
83333.332507708
83333.3325129203
83333.3325181009
83333.3325228198
83333.3325268858
83333.332530789
83333.33253396
83333.3325212185
83333.3325190529
83333.3325183256
83333.3325191279
83333.3325213482
83333.3325246903
83333.33252876
83333.3325331469
83333.332537471
83333.3325414153
83333.3325448624
83333.3325480793
83333.3325506599
83333.3325423315
83333.332545209
83333.3325486043
83333.3325522107
83333.3325557448
83333.332558977
83333.3325618395
83333.3325644121
83333.3325663435
83333.3323183662
83333.3323266795
83333.3323269807
83333.3323284897
83333.3323384507
83333.3323382986
83333.3323278307
83333.3323444639
83333.3323526077
83333.3323532193
83333.3323297386
83333.3323495322
83333.3323625302
83333.3323697227
83333.3323716269
83333.3323378166
83333.3323566643
83333.3323720834
83333.3323828384
83333.3323894765
83333.3323928
83333.3323523292
83333.3323680093
83333.3323828995
83333.3323955256
83333.3324047521
83333.3324111389
83333.3324156522
83333.3323722684
83333.3323838777
83333.3323964145
83333.3324086325
83333.3324192999
83333.3324273561
83333.3324335884
83333.3324387579
83333.3323958378
83333.3324034262
83333.3324128766
83333.332423297
83333.3324336106
83333.332442721
83333.3324497807
83333.3324557714
83333.3324610918
83333.3324213619
83333.3324255124
83333.3324318603
83333.3324398866
83333.3324487607
83333.3324575256
83333.3324652734
83333.3324714631
83333.3324771175
83333.3324820959
83333.3324476686
83333.3324490842
83333.3324526899
83333.3324582589
83333.3324652202
83333.3324727965
83333.3324801914
83333.3324867381
83333.3324921362
83333.3324972349
83333.3325015996
83333.3324739696
83333.3324733329
83333.332474691
83333.3324780171
83333.3324829789
83333.3324889889
83333.3324953836
83333.3325015595
83333.3325070386
83333.3325116423
83333.3325160302
83333.3325196341
83333.3324997561
83333.3324976457
83333.3324972687
83333.3324987125
83333.332501808
83333.3325061586
83333.3325112463
83333.3325165585
83333.3325216472
83333.3325261617
83333.3325299925
83333.332533569
83333.3325363801
83333.332524778
83333.3325216214
83333.3325199283
83333.3325198624
83333.3325213623
83333.3325241557
83333.3325278563
83333.3325320606
83333.332536388
83333.3325405072
83333.3325441646
83333.3325473033
83333.332550114
83333.3325522998
83333.3325451374
83333.3325481747
83333.3325515495
83333.3325549841
83333.332558239
83333.3325611391
83333.3325636576
83333.332565793
83333.3325673612
83333.3323142814
83333.332317817
83333.3323205006
83333.3323146804
83333.3323282616
83333.3323295798
83333.332307011
83333.3323296319
83333.3323409455
83333.3323421018
83333.3323023431
83333.33232898
83333.3323466803
83333.3323563623
83333.3323585014
83333.3323058309
83333.3323312023
83333.3323517911
83333.3323661681
83333.3323746166
83333.3323780952
83333.3323180931
83333.3323393524
83333.3323592052
83333.3323757501
83333.3323876447
83333.3323953075
83333.3324000786
83333.3323380381
83333.332353901
83333.3323706962
83333.3323866735
83333.3324002682
83333.3324102718
83333.3324174868
83333.3324231196
83333.3323632523
83333.3323737183
83333.3323864553
83333.3324001357
83333.3324132937
83333.3324245919
83333.3324330952
83333.3324399014
83333.3324457604
83333.3323911431
83333.3323970645
83333.3324057273
83333.3324163435
83333.3324277366
83333.3324386638
83333.332448055
83333.3324553141
83333.3324616395
83333.3324672216
83333.332419974
83333.3324223563
83333.3324274734
83333.3324349495
83333.3324439693
83333.3324534934
83333.3324625319
83333.3324703169
83333.3324765352
83333.3324822427
83333.3324871635
83333.3324486783
83333.3324484577
83333.3324507108
83333.3324553587
83333.3324619027
83333.332469547
83333.3324774422
83333.332484863
83333.33249128
83333.3324965354
83333.3325014515
83333.3325055495
83333.3324766447
83333.3324745943
83333.3324746663
83333.3324769527
83333.3324811973
83333.33248685
83333.3324932269
83333.3324996923
83333.3325057236
83333.3325109454
83333.332515282
83333.3325193143
83333.3325225196
83333.3325035468
83333.3325002574
83333.3324987342
83333.3324991626
83333.332501443
83333.3325052098
83333.3325099598
83333.3325151731
83333.3325203837
83333.3325252095
83333.3325293804
83333.3325328507
83333.3325359759
83333.3325383171
83333.3325292887
83333.3325251747
83333.3325225009
83333.3325215002
83333.3325221837
83333.3325243143
83333.3325275165
83333.3325313875
83333.3325355463
83333.3325396535
83333.3325434331
83333.3325466974
83333.332549432
83333.3325517383
83333.3325534812
83333.3325482799
83333.3325513203
83333.3325545287
83333.3325576646
83333.3325605383
83333.33256303
83333.3325651385
83333.3325668156
83333.3325680178
83333.3323131705
83333.3323104055
83333.3323167178
83333.3323021043
83333.3323193541
83333.3323236438
83333.3322859704
83333.3323158752
83333.3323309692
83333.3323338284
83333.332272806
83333.3323083219
83333.3323320257
83333.3323449679
83333.3323477118
83333.3322700727
83333.3323041316
83333.3323315387
83333.3323506872
83333.3323616119
83333.3323655179
83333.3322790383
83333.3323077964
83333.3323342868
83333.3323560591
83333.3323715174
83333.3323809367
83333.3323860546
83333.3322984857
83333.332320189
83333.3323427694
83333.3323637934
83333.3323812748
83333.332393855
83333.3324023328
83333.3324084771
83333.3323255846
83333.3323400129
83333.332357261
83333.3323753506
83333.3323922791
83333.3324064336
83333.3324168206
83333.3324246443
83333.3324311237
83333.3323565748
83333.3323649161
83333.3323767391
83333.3323908535
83333.3324055846
83333.3324193168
83333.3324308132
83333.3324394671
83333.3324466042
83333.3324528454
83333.3323887973
83333.3323924722
83333.332399625
83333.3324096563
83333.3324213996
83333.332433453
83333.3324445812
83333.332453922
83333.3324611709
83333.332467575
83333.3324731278
83333.3324206768
83333.3324210094
83333.3324244581
83333.3324308551
83333.3324394743
83333.3324492362
83333.3324590443
83333.332468026
83333.3324756041
83333.3324816531
83333.3324871621
83333.3324918042
83333.3324514411
83333.332449478
83333.3324501532
83333.3324535539
83333.3324593003
83333.3324666291
83333.3324746443
83333.3324825537
83333.3324897493
83333.332495837
83333.3325007743
83333.3325053083
83333.3325089704
83333.3324807401
83333.3324772656
83333.3324759539
83333.3324770228
83333.3324803214
83333.3324853497
83333.3324914367
83333.3324979115
83333.3325042101
83333.3325098993
83333.3325147045
83333.3325186198
83333.3325221555
83333.3325248284
83333.3325084615
83333.3325040377
83333.3325013484
83333.3325006713
83333.3325020037
83333.3325050312
83333.3325092642
83333.3325141842
83333.3325193085
83333.3325242298
83333.3325286375
83333.3325323379
83333.3325353369
83333.3325378867
83333.3325396969
83333.3325346762
83333.3325296728
83333.3325260449
83333.3325240847
83333.3325238782
83333.332525252
83333.3325278503
83333.3325312699
83333.3325351242
83333.3325390658
83333.332542805
83333.3325461265
83333.3325489036
83333.3325511486
83333.3325529057
83333.3325541419
83333.332551619
83333.3325545101
83333.3325574156
83333.3325601397
83333.3325625459
83333.3325645674
83333.3325662366
83333.3325674475
83333.3325683662
83333.3323141316
83333.3323046945
83333.3323157563
83333.3322910187
83333.3323118677
83333.3323204963
83333.3322648531
83333.3323033571
83333.332322447
83333.3323287039
83333.3322407792
83333.3322875314
83333.3323185171
83333.332335438
83333.3323400112
83333.3322293587
83333.3322750681
83333.332311306
83333.3323364709
83333.3323505726
83333.3323553755
83333.3322337238
83333.3322726227
83333.3323079601
83333.3323365535
83333.3323566161
83333.3323684083
83333.3323741456
83333.3322522185
83333.3322818451
83333.3323122025
83333.3323399355
83333.3323625078
83333.3323784358
83333.3323885853
83333.3323953042
83333.3322813608
83333.3323012038
83333.3323246281
83333.3323486655
83333.3323705811
83333.3323884384
83333.3324012378
83333.3324102989
83333.3324175022
83333.3323162155
83333.332327887
83333.3323440485
83333.3323629207
83333.3323821026
83333.3323994841
83333.3324136667
83333.3324241007
83333.3324322265
83333.3324391988
83333.3323529723
83333.3323583908
83333.3323683198
83333.3323818128
83333.3323971892
83333.3324125435
83333.3324263355
83333.3324376329
83333.3324461795
83333.3324533792
83333.3324596455
83333.3323891265
83333.3323901822
83333.3323952326
83333.3324039689
83333.3324153373
83333.3324278619
83333.3324401143
83333.3324510486
83333.3324600596
83333.332467076
83333.3324732644
83333.3324785292
83333.3324235753
83333.3324217237
83333.3324232026
83333.3324280782
83333.33243579
83333.33244529
83333.3324553985
83333.3324651218
83333.3324737567
83333.3324809044
83333.3324865662
83333.3324916585
83333.3324958279
83333.3324559439
83333.3324522324
83333.3324512051
83333.3324531205
83333.3324577481
83333.3324644055
83333.3324721925
83333.3324802502
83333.3324878946
83333.33249464
83333.332500214
83333.3325046607
83333.3325086471
83333.3325117155
83333.3324861811
83333.3324813444
83333.3324786246
83333.3324783634
83333.332480534
83333.3324847187
83333.3324902698
83333.3324965092
83333.3325028266
83333.3325087412
83333.3325139116
83333.3325181535
83333.3325215251
83333.3325244246
83333.3325264718
83333.3325144017
83333.3325089337
83333.3325051123
83333.3325032965
83333.3325035816
83333.3325057388
83333.3325093094
83333.3325137735
83333.3325186386
83333.3325234726
83333.3325279345
83333.3325317876
83333.3325349089
83333.3325373347
83333.3325392391
83333.3325404362
83333.3325408408
83333.3325350423
83333.3325305203
83333.3325276169
83333.3325264853
83333.3325270245
83333.3325289294
83333.3325318025
83333.3325352468
83333.332538904
83333.3325424699
83333.3325457109
83333.3325484731
83333.3325506845
83333.3325523878
83333.3325535614
83333.3325544482
83333.3325550107
83333.3325576085
83333.3325600891
83333.3325623065
83333.332564179
83333.3325656944
83333.3325669077
83333.3325677457
83333.3325683423
83333.3323148798
83333.3323000991
83333.332315905
83333.3322813504
83333.3323056468
83333.3323192958
83333.3322435573
83333.3322924266
83333.3323151503
83333.3323258776
83333.3322063351
83333.3322667774
83333.3323063473
83333.3323274767
83333.3323352793
83333.3321825156
83333.3322437452
83333.3322911357
83333.3323235809
83333.332341523
83333.3323481068
83333.3321797808
83333.3322327822
83333.3322799861
83333.3323173113
83333.3323430781
83333.3323578165
83333.3323646665
83333.3321969015
83333.3322375373
83333.3322784221
83333.3323150292
83333.3323441388
83333.3323642964
83333.332376593
83333.33238409
83333.3322288034
83333.3322559536
83333.3322877724
83333.3323197761
83333.3323482356
83333.3323708349
83333.3323866787
83333.3323972608
83333.3324052362
83333.3322683574
83333.3322845661
83333.3323066643
83333.3323320098
83333.3323571201
83333.3323792371
83333.3323968145
83333.3324094591
83333.3324187469
83333.332426554
83333.3323109648
83333.3323187509
83333.3323324948
83333.3323507077
83333.3323709611
83333.3323906401
83333.3324078289
83333.3324215751
83333.3324317374
83333.3324398558
83333.3324469143
83333.3323528684
83333.3323548662
83333.3323620843
83333.332373991
83333.3323890407
83333.3324051964
83333.3324205841
83333.332433961
83333.3324447342
83333.33245292
83333.3324598809
83333.3324658527
83333.3323922535
83333.3323905229
83333.3323930665
83333.3323999081
83333.3324102217
83333.3324225605
83333.3324353585
83333.3324473619
83333.3324577678
83333.3324661995
83333.332472735
83333.3324784593
83333.3324832064
83333.3324286373
83333.3324246061
83333.3324239541
83333.332426987
83333.332433355
83333.3324421197
83333.3324520804
83333.3324621324
83333.3324714436
83333.3324794788
83333.3324859858
83333.3324910709
83333.3324955564
83333.3324990679
83333.3324620779
83333.332456709
83333.3324539531
83333.3324542374
83333.3324575005
83333.332463178
83333.3324704108
83333.3324783076
83333.3324861043
83333.3324932347
83333.3324993314
83333.332504229
83333.3325080473
83333.3325113334
83333.332513684
83333.3324928334
83333.3324867577
83333.3324826769
83333.3324810428
83333.3324819596
83333.3324851194
83333.3324899294
83333.3324957119
83333.3325018332
83333.3325077586
83333.3325130961
83333.3325175946
83333.3325211537
83333.3325238715
83333.3325260327
83333.3325274063
83333.3325212363
83333.3325148482
83333.3325099743
83333.3325070392
83333.3325062299
83333.3325074116
83333.3325101941
83333.3325140698
83333.3325185317
83333.332523129
83333.3325274897
83333.3325313443
83333.3325345278
83333.3325369775
83333.3325387577
83333.3325399871
83333.3325407207
83333.3325476661
83333.3325411844
83333.3325358553
83333.3325320575
83333.3325300047
83333.3325296655
83333.3325307981
83333.3325330419
83333.3325359932
83333.3325392748
83333.332542567
83333.332545617
83333.3325482505
83333.3325503732
83333.3325519664
83333.3325530909
83333.3325538062
83333.3325543438
83333.3325583116
83333.3325604862
83333.3325624388
83333.3325640781
83333.3325653771
83333.3325663781
83333.3325671891
83333.3325677024
83333.3325680576
83333.3323172676
83333.3322969298
83333.3323158605
83333.3322703351
83333.3323006625
83333.3323179071
83333.3322219674
83333.3322824037
83333.3323082987
83333.3323236039
83333.3321690311
83333.3322460423
83333.3322956447
83333.3323201708
83333.3323319867
83333.3321292144
83333.3322102582
83333.3322712482
83333.3323121625
83333.3323338414
83333.3323431873
83333.3321149221
83333.3321873143
83333.3322502733
83333.3322984833
83333.3323310412
83333.3323490651
83333.3323575538
83333.332128388
83333.3321852152
83333.3322406769
83333.33228903
83333.332326335
83333.3323516175
83333.3323664306
83333.332375056
83333.3321647393
83333.3322021217
83333.332245588
83333.3322883185
83333.3323253023
83333.3323538625
83333.3323734208
83333.3323858269
83333.3323947049
83333.332210903
83333.3322332145
83333.3322634006
83333.3322975239
83333.3323304886
83333.3323587042
83333.3323805159
83333.3323958392
83333.332406465
83333.3324151578
83333.3322609593
83333.3322719169
83333.3322908758
83333.3323155263
83333.3323423355
83333.3323676776
83333.3323891758
83333.3324059376
83333.332418052
83333.3324272383
83333.3324351484
83333.3323103874
83333.3323136114
83333.3323237864
83333.3323400252
83333.332360039
83333.3323809896
83333.3324004063
83333.3324168357
83333.3324297671
83333.3324393574
83333.3324471909
83333.3324539313
83333.3323563958
83333.3323547717
83333.3323587312
83333.3323682244
83333.332382026
83333.3323981122
83333.3324143848
83333.3324292577
83333.3324418357
83333.3324518099
83333.3324593815
83333.3324658265
83333.3324712129
83333.3323981124
83333.3323936213
83333.3323934508
83333.3323979629
83333.3324066294
83333.3324181496
83333.332430911
83333.3324434836
83333.3324548557
83333.3324644526
83333.3324720756
83333.3324779216
83333.3324829712
83333.3324869841
83333.3324357009
83333.3324296272
83333.3324268198
83333.3324278181
83333.3324325081
83333.3324401185
83333.3324495003
83333.3324594875
83333.332469122
83333.3324777394
83333.3324849567
83333.3324906473
83333.3324950044
83333.3324987161
83333.33250142
83333.3324696553
83333.3324628017
83333.3324583872
83333.3324569884
83333.3324587222
83333.3324631735
83333.3324695638
83333.3324770081
83333.3324846889
83333.3324919534
83333.3324983543
83333.3325036354
83333.3325077287
83333.3325108025
83333.332513258
83333.3325148516
83333.33250052
83333.3324933733
83333.3324880401
83333.3324850597
83333.332484661
83333.3324866613
83333.332490555
83333.3324956934
83333.3325014242
83333.3325071768
83333.3325125021
83333.3325170978
83333.3325207994
83333.3325235758
83333.3325255474
83333.3325269449
83333.3325277732
83333.3325288139
83333.3325216517
83333.3325158398
83333.3325118497
83333.3325099488
83333.3325100961
83333.3325119836
83333.3325151536
83333.332519095
83333.3325233318
83333.3325274665
83333.3325311949
83333.3325343191
83333.332536741
83333.3325384534
83333.3325395564
83333.3325402339
83333.3325405588
83333.3325550281
83333.3325479842
83333.3325419535
83333.3325373372
83333.3325343988
83333.332533173
83333.3325334833
83333.3325350207
83333.332537405
83333.3325402412
83333.332543184
83333.3325459618
83333.3325483778
83333.332550319
83333.3325517507
83333.3325527061
83333.3325533055
83333.3325536746
83333.332553984
83333.3325613844
83333.3325630247
83333.332564371
83333.3325653914
83333.3325661091
83333.3325666531
83333.3325671
83333.3325675856
83333.3325677771
83333.3322952226
83333.3323185936
83333.3322617932
83333.332297013
83333.3323170365
83333.3321995449
83333.3322711548
83333.3323024452
83333.3323207934
83333.3321283164
83333.3322250349
83333.3322854077
83333.3323128448
83333.3323283744
83333.3320683218
83333.332174229
83333.3322517096
83333.3323020447
83333.3323264505
83333.3323390964
83333.3320392378
83333.33213593
83333.3322190289
83333.3322803603
83333.3323205589
83333.3323415344
83333.3323522692
83333.3320428122
83333.3321229165
83333.3321983955
83333.3322620838
83333.3323093569
83333.332340553
83333.3323579293
83333.3323680282
83333.3320832758
83333.3321361838
83333.3321965304
83333.3322539187
83333.3323019233
83333.3323377693
83333.3323616747
83333.3323761071
83333.3323860554
83333.3321399494
83333.3321709134
83333.3322124732
83333.3322586938
83333.3323020758
83333.3323380704
83333.3323650504
83333.3323835094
83333.3323956693
83333.3324052583
83333.3322007373
83333.3322158294
83333.332241894
83333.3322753348
83333.3323109409
83333.3323436613
83333.3323705786
83333.3323909831
83333.332405378
83333.3324157508
83333.3324245474
83333.3322598996
83333.3322646784
83333.3322788595
83333.332301015
83333.332327729
83333.3323550201
83333.3323796007
83333.3323998093
83333.3324153352
83333.3324266007
83333.3324353985
83333.3324429364
83333.3323146044
83333.3323130366
83333.3323188879
83333.332331993
83333.3323505095
83333.3323715729
83333.332392348
83333.3324108312
83333.3324260638
83333.3324378784
83333.3324466603
83333.3324539102
83333.3324599759
83333.3323634274
83333.3323582483
83333.3323586856
83333.3323651728
83333.3323769117
83333.332392075
83333.3324084711
83333.3324242385
83333.3324381539
83333.332449629
83333.3324585698
83333.3324653094
83333.3324709932
83333.3324755536
83333.3324064563
83333.3323994159
83333.332396514
83333.3323984438
83333.332405009
83333.332415143
83333.332427295
83333.3324399328
83333.3324518519
83333.3324622789
83333.3324708347
83333.3324774649
83333.3324824588
83333.3324866536
83333.3324897596
83333.332444498
83333.3324366292
83333.3324317732
83333.3324306755
83333.3324334684
83333.3324395884
83333.332448
83333.3324575401
83333.3324671611
83333.332476068
83333.3324837562
83333.3324899793
83333.3324947202
83333.3324982258
83333.3325010117
83333.3325028579
83333.3324784332
83333.3324703261
83333.3324644054
83333.3324613649
83333.3324614908
83333.3324645383
83333.332469847
83333.3324765764
83333.3324838875
83333.3324910598
83333.3324975584
83333.3325030517
83333.3325073864
83333.3325105735
83333.3325127978
83333.3325143835
83333.3325153604
83333.3325090411
83333.3325010169
83333.332494586
83333.332490347
83333.3324886364
83333.3324893993
83333.3324922391
83333.3324965692
83333.3325017434
83333.3325071576
83333.3325123183
83333.332516866
83333.3325205869
83333.3325233933
83333.3325253121
83333.332526509
83333.3325272809
83333.3325276475
83333.3325369766
83333.3325291948
83333.3325225825
83333.3325176373
83333.3325146909
83333.3325137908
83333.3325147162
83333.3325170759
83333.3325203908
83333.3325241665
83333.3325279725
83333.3325314743
83333.3325344375
83333.3325367355
83333.332538335
83333.3325392993
83333.3325397854
83333.3325400417
83333.3325401363
83333.3325628036
83333.3325553189
83333.3325487023
83333.3325433631
83333.3325396016
83333.3325375114
83333.3325369813
83333.3325377587
83333.3325395028
83333.33254183
83333.3325443679
83333.3325468137
83333.3325489498
83333.33255064
83333.3325518365
83333.3325525654
83333.3325529173
83333.3325531278
83333.3325534883
83333.332553761
83333.3325641027
83333.3325651223
83333.3325658169
83333.3325662147
83333.3325663925
83333.3325665328
83333.3325668653
83333.3325673505
83333.332253698
83333.3322961594
83333.332320061
83333.3321903314
83333.3322620418
83333.3322986261
83333.3323195818
83333.3320870172
83333.3322037945
83333.3322743373
83333.3323065719
83333.3323249938
83333.3319968886
83333.3321349499
83333.3322323182
83333.3322921879
83333.3323190867
83333.3323348825
83333.3319519109
83333.3320773072
83333.3321860064
83333.3322630092
83333.3323112454
83333.3323344386
83333.3323477504
83333.3319421094
83333.3320502774
83333.3321515209
83333.3322345701
83333.3322935281
83333.332331083
83333.3323507154
83333.3323625534