/*--------------------------------*- C++ -*----------------------------------*\
  =========                 |
  \\      /  F ield         | OpenFOAM: The Open Source CFD Toolbox
   \\    /   O peration     | Website:  https://openfoam.org
    \\  /    A nd           | Version:  12
     \\/     M anipulation  |
\*---------------------------------------------------------------------------*/
/*   Windows 32 and 64 bit porting by blueCAPE: http://www.bluecape.com.pt   *\
|  Based on Windows porting (2.0.x v4) by Symscape: http://www.symscape.com   |
\*---------------------------------------------------------------------------*/
FoamFile
{
    format      ascii;
    class       surfaceScalarField;
    location    "300";
    object      phi;
}
// * * * * * * * * * * * * * * * * * * * * * * * * * * * * * * * * * * * * * //

dimensions      [0 3 -1 0 0 0 0];

internalField   nonuniform List<scalar> 
28893
(
9.94081488763791e-06
-2.73639333571479e-07
-2.72872490333337e-07
1.05454151654353e-05
-2.85276468023081e-07
-3.19323258070115e-07
4.20891400469191e-06
-3.85798356045624e-07
-1.44843582042494e-07
1.166345952532e-05
-3.05123314956053e-07
-5.75845253256197e-07
1.12064924555008e-05
-2.922854839049e-07
-3.6879394885261e-07
4.48312110156552e-06
-3.9156408633218e-07
-1.67918821561886e-07
1.23497045565303e-05
-3.2431209203337e-07
-6.81253308175462e-07
3.60095460056978e-06
-4.89332919470069e-07
-1.26413864605738e-07
5.01504729241333e-06
-4.28113239768444e-07
-2.99645846582402e-07
1.28217503451991e-05
-3.43295403681789e-07
-8.82223056093773e-07
1.19293970005375e-05
-2.89429559517653e-07
-4.33476966016886e-07
4.77176715334563e-06
-3.87499827904264e-07
-1.93434339501145e-07
1.31200835327537e-05
-3.35257777647457e-07
-8.03922625128918e-07
3.84506098501511e-06
-4.87494881430162e-07
-1.48175402812721e-07
5.31126155813455e-06
-4.35437474143107e-07
-3.53006047164338e-07
1.35630975826037e-05
-3.69569329697747e-07
-1.05302935738546e-06
3.52677106710519e-06
-5.92803834913952e-07
-1.17466707867924e-07
4.22648432476564e-06
-5.46785520027292e-07
-2.62403266958041e-07
5.68526209941501e-06
-4.86581330009399e-07
-4.55401640678114e-07
1.41217053346515e-05
-3.83758395605383e-07
-1.20384474640081e-06
1.27155357270193e-05
-2.72162020497287e-07
-5.13985010174524e-07
5.07513642950218e-06
-3.66664648850507e-07
-2.26138502281011e-07
1.39753555843672e-05
-3.32931538496407e-07
-9.5582949936322e-07
4.1020998917984e-06
-4.72552980325954e-07
-1.71985787927785e-07
5.62626765129859e-06
-4.29532203589644e-07
-4.14169034169408e-07
1.44007412518476e-05
-3.83672798765014e-07
-1.25789974352544e-06
3.76327938583534e-06
-5.85780989920456e-07
-1.38221889839108e-07
4.49594859558705e-06
-5.43148619655804e-07
-3.09928224942953e-07
6.00324932170283e-06
-4.97079610004748e-07
-5.43484173231944e-07
1.49289500343763e-05
-4.16922586767477e-07
-1.44335823551642e-06
3.52938578004415e-06
-6.95733637190089e-07
-1.11842932185701e-07
4.06333000020048e-06
-6.64666715547435e-07
-2.448339746636e-07
4.85174529862541e-06
-6.29809093815148e-07
-4.01508422518998e-07
6.28341438892909e-06
-5.441325685185e-07
-6.12274748850984e-07
1.51026832843438e-05
-4.20699957263622e-07
-1.51959132728891e-06
1.35609919709709e-05
-2.35333751506613e-07
-6.10123092838336e-07
5.39047166002873e-06
-3.23211569662973e-07
-2.64288972908181e-07
1.49190811528414e-05
-3.17200898778577e-07
-1.14051907742821e-06
4.37347729781604e-06
-4.3770212252839e-07
-2.00340311079108e-07
5.95813757146795e-06
-4.03521730507741e-07
-4.87423956706652e-07
1.53339098280447e-05
-3.82276297075446e-07
-1.5067338459742e-06
4.01548125515796e-06
-5.63700188400133e-07
-1.61054444972911e-07
4.78120851104059e-06
-5.2340324544504e-07
-3.63375998335025e-07
6.34204294498428e-06
-4.91005559068114e-07
-6.45631344905147e-07
1.58416947174168e-05
-4.35798451958396e-07
-1.73485469386634e-06
3.7617486952855e-06
-6.86664100965702e-07
-1.31479638538491e-07
4.32556622204357e-06
-6.54475743863333e-07
-2.89130656217601e-07
5.1492404819166e-06
-6.26500480485093e-07
-4.78002542898604e-07
6.61858183440997e-06
-5.58987228014058e-07
-7.36586677639975e-07
1.5946017435582e-05
-4.61289414471462e-07
-1.82540333480351e-06
3.52046296033756e-06
-7.96253163401038e-07
-1.07540895946825e-07
3.99354404997433e-06
-7.80488760710488e-07
-2.32669226475228e-07
4.65122552251498e-06
-7.68841946613345e-07
-3.79489541941913e-07
5.32707678664347e-06
-7.05363621216337e-07
-5.40294176769801e-07
6.60098613167536e-06
-5.90557307393096e-07
-7.64596216008169e-07
1.55964615923604e-05
-4.50294589405264e-07
-1.80011319098671e-06
1.44546219667128e-05
-1.70056681178143e-07
-7.23578807031554e-07
5.71226899287807e-06
-2.49373978611448e-07
-3.07757592046538e-07
1.59523854124154e-05
-2.80334095237158e-07
-1.36310165274774e-06
4.65903882836058e-06
-3.75895131089991e-07
-2.32878538153015e-07
6.3012077950136e-06
-3.52536756261652e-07
-5.72026744164107e-07
1.63679467447536e-05
-3.6757702255835e-07
-1.80699224912289e-06
4.28535247091738e-06
-5.20117665682354e-07
-1.87456173283185e-07
5.08310544039101e-06
-4.80397881739438e-07
-4.25362489735241e-07
6.69869894095132e-06
-4.61630028181466e-07
-7.6472946060251e-07
1.68605984857273e-05
-4.37643066610468e-07
-2.08801341563305e-06
4.01287602487563e-06
-6.61563312448365e-07
-1.53264125926114e-07
4.60624764758097e-06
-6.26276991074823e-07
-3.38862176347599e-07
5.46408441888994e-06
-6.04026328929936e-07
-5.65200269027606e-07
6.9743510175983e-06
-5.55446101790016e-07
-8.81757182858552e-07
1.68989075305171e-05
-4.87502197719489e-07
-2.20024683823975e-06
3.74771930724615e-06
-7.87893262970791e-07
-1.26026878546187e-07
4.24951970266139e-06
-7.67997713147603e-07
-2.7393215003362e-07
4.94309192148923e-06
-7.57702968748489e-07
-4.49793063815587e-07
5.64153186351876e-06
-7.04581369096744e-07
-6.46863063932708e-07
6.93697533501108e-06
-6.11244842984912e-07
-9.22621380925553e-07
1.64325313476987e-05
-4.96251166595046e-07
-2.1652262555372e-06
3.49210426739532e-06
-8.92649776739732e-07
-1.04008279323508e-07
3.94540200106226e-06
-8.92344778850224e-07
-2.24282403460325e-07
4.53117823735735e-06
-9.01479755252184e-07
-3.6307336290287e-07
5.07418285923358e-06
-8.59476269096265e-07
-5.16142707727653e-07
5.49774171867706e-06
-7.57648744108454e-07
-6.71057158832331e-07
6.64922149388427e-06
-6.21626522922989e-07
-8.9998377467162e-07
1.56788458679561e-05
-4.70155500961163e-07
-2.02418865107052e-06
1.53796040471069e-05
-6.23527960672927e-08
-8.62628302445996e-07
6.03299310123492e-06
-1.34154307693859e-07
-3.56625112699346e-07
1.70713800298374e-05
-2.1029925352343e-07
-1.63226744491317e-06
4.95739566275362e-06
-2.78057460118184e-07
-2.69673604851159e-07
6.64842113166805e-06
-2.66772325044874e-07
-6.68533697293815e-07
1.75053667237211e-05
-3.309706376997e-07
-2.16955286681076e-06
4.5747213564054e-06
-4.47509671983289e-07
-2.17754578168945e-07
5.40025249987909e-06
-4.06449822082099e-07
-4.96112145186553e-07
7.06517156211119e-06
-4.0485428905363e-07
-9.0122572664193e-07
1.79930516327889e-05
-4.26586098937828e-07
-2.51286491662599e-06
4.28561117618047e-06
-6.14511802144099e-07
-1.7834131464549e-07
4.90728211227638e-06
-5.73044168389584e-07
-3.9584483922907e-07
5.79708175942917e-06
-5.54881451276209e-07
-6.65110214037698e-07
7.34773325028445e-06
-5.26550988576024e-07
-1.04920909165804e-06
1.79617525163617e-05
-4.96548892097042e-07
-2.65432684454622e-06
3.99626074066103e-06
-7.63429057170117e-07
-1.46675809838715e-07
4.52700859147899e-06
-7.3663301190442e-07
-3.20396551990644e-07
5.25538257943828e-06
-7.25573009626764e-07
-5.29607199315274e-07
5.97278433427974e-06
-6.82865570903422e-07
-7.69035741850891e-07
7.28912107345738e-06
-6.13498461146823e-07
-1.10790965827081e-06
1.73749084823426e-05
-5.29016254901488e-07
-2.613618234495e-06
3.71275433916395e-06
-8.87132913803541e-07
-1.2141011007539e-07
4.19513430152175e-06
-8.80911512028246e-07
-2.62845100589918e-07
4.81514657991922e-06
-8.87690252324862e-07
-4.27912472723428e-07
5.38303492038492e-06
-8.49862252571909e-07
-6.13363748404362e-07
5.80771211797817e-06
-7.62066621838782e-07
-8.0601024842812e-07
6.96926135949285e-06
-6.49609057879404e-07
-1.08930907170825e-06
1.64712837318492e-05
-5.20853097473986e-07
-2.43680996404026e-06
3.45570447073255e-06
-9.83891410625483e-07
-1.00998877770682e-07
3.90610768926067e-06
-9.98973490932792e-07
-2.18276070434685e-07
4.45301967631137e-06
-1.02737878536628e-06
-3.51943788517832e-07
4.9105310278658e-06
-1.00347294024146e-06
-4.97610786215587e-07
5.19473428523754e-06
-9.16289909307721e-07
-6.45642472195091e-07
5.42916646989076e-06
-7.87414644302235e-07
-7.85615453471337e-07
6.53703869926576e-06
-6.41531462197341e-07
-1.00819413135859e-06
1.55120049201722e-05
-4.82093380157281e-07
-2.17645056351932e-06
1.63094664163184e-05
1.05753950717938e-07
-1.03561438656391e-06
6.34331867699629e-06
3.81205614304584e-08
-4.10798281878749e-07
1.82685772379016e-05
-9.50417788090136e-08
-1.96477547909417e-06
5.26642917650489e-06
-1.3211110248357e-07
-3.11076104463252e-07
6.99141896119538e-06
-1.32723396972137e-07
-7.77196695878702e-07
1.874263754444e-05
-2.56949082812265e-07
-2.61259090389001e-06
4.88542746478873e-06
-3.36440799610561e-07
-2.5232253465215e-07
5.73066488196266e-06
-2.90896126020349e-07
-5.75961241763084e-07
7.43213317862127e-06
-3.10136685451501e-07
-1.05633075568269e-06
1.92420760951455e-05
-3.92678686391657e-07
-3.02591189860925e-06
4.58344180717286e-06
-5.38273877977414e-07
-2.07066775895985e-07
5.23032404098287e-06
-4.86328421031847e-07
-4.6091784620861e-07
6.14567891623548e-06
-4.70886200849519e-07
-7.78678571257047e-07
7.72904703852852e-06
-4.68927369550598e-07
-1.24020500435183e-06
1.91435129468323e-05
-4.94177265166022e-07
-3.20046032471936e-06
4.26974208304827e-06
-7.17534355186998e-07
-1.70458972407563e-07
4.82895998851467e-06
-6.79756975127289e-07
-3.73580166235576e-07
5.59012200925714e-06
-6.64860433012115e-07
-6.20606297524729e-07
6.3218650228638e-06
-6.32392689701582e-07
-9.08351400299178e-07
7.65589849763738e-06
-5.90833357287476e-07
-1.32171026740827e-06
1.84223967243846e-05
-5.4628833227224e-07
-3.15554802560932e-06
3.95645328956449e-06
-8.6620393329052e-07
-1.40923894041513e-07
4.46898944206489e-06
-8.50717295162275e-07
-3.06446812557508e-07
5.12288064868366e-06
-8.52146304913223e-07
-5.01557872970608e-07
5.7122384083956e-06
-8.1753566064489e-07
-7.24140783633056e-07
6.13197535225104e-06
-7.45753275957468e-07
-9.61046880643062e-07
7.30345157464538e-06
-6.59926461278855e-07
-1.31120091029163e-06
1.73600726362047e-05
-5.5909136723843e-07
-2.94332228499921e-06
3.66882106871141e-06
-9.82810121911173e-07
-1.1743911920847e-07
4.14938296847904e-06
-9.91057039670721e-07
-2.54539253911328e-07
4.72953889508254e-06
-1.01474468455538e-06
-4.12309080882319e-07
5.21026972372582e-06
-9.90733877880454e-07
-5.86778940762135e-07
5.49897864487331e-06
-9.11224867656615e-07
-7.68448527718274e-07
5.71784818419511e-06
-7.98485256512925e-07
-9.45814681520858e-07
6.82515803786282e-06
-6.75621333850176e-07
-1.22266434267731e-06
1.62336758275337e-05
-5.3787700245135e-07
-2.6205942611025e-06
3.42015239962135e-06
-9.81497553776803e-08
3.87077771393253e-06
-1.09977057509393e-06
-2.13138763268137e-07
4.40788860152826e-06
-1.14673293208894e-06
-3.44397528520833e-07
4.81264208168129e-06
-1.13867063322692e-06
-4.85077745449849e-07
5.00749116917229e-06
-1.06309909198529e-06
-6.26470723438022e-07
5.09275004338437e-06
-9.44401889885567e-07
-7.59659772094003e-07
5.23870932234053e-06
-8.04570408018434e-07
-8.7729579741027e-07
6.35242379741995e-06
-6.55151833153814e-07
-1.08311919216157e-06
1.52302763495375e-05
-4.89239476608097e-07
-2.24703401422348e-06
1.72058016091039e-05
3.59444212252892e-07
-1.25578103705212e-06
6.63401440353845e-06
2.86944664526507e-07
-4.71887124953686e-07
1.9527880960025e-05
8.61832532281002e-08
-2.38110066757926e-06
5.58318879067252e-06
7.74625510324228e-08
-3.5610108393997e-07
7.32015591661606e-06
6.46092972013186e-08
-8.99182918491113e-07
2.00698194548157e-05
-1.31909643205939e-07
-3.16004605644522e-06
5.21922629843622e-06
-1.75100763681175e-07
-2.90809032748847e-07
6.0725418985715e-06
-1.20002113172325e-07
-6.6567359834645e-07
7.78877754122291e-06
-1.6028457448046e-07
-1.23050570134495e-06
2.06047714668395e-05
-3.20315366195455e-07
-3.65497096357621e-06
4.91046152516728e-06
-4.23805896029986e-07
-2.39654584653721e-07
5.57720186405509e-06
-3.55241209808773e-07
-5.34855359071174e-07
6.50661667812142e-06
-3.40077787260431e-07
-9.06957861565718e-07
8.10718198726702e-06
-3.71052601992846e-07
-1.4560904812567e-06
2.04459963893108e-05
-4.68009917653168e-07
-3.86039659336215e-06
4.57300661480087e-06
-6.43537006709936e-07
-1.98001432715621e-07
5.15909572451572e-06
-5.88999828352244e-07
-4.34531070983728e-07
5.94866369417644e-06
-5.6619522991146e-07
-7.24150876498191e-07
6.6853023953926e-06
-5.44843222572939e-07
-1.06620160898646e-06
8.02707594955016e-06
-5.40514595731425e-07
-1.56504629103753e-06
1.95836526503302e-05
-5.54378333913995e-07
-3.80735869812168e-06
4.22758116740382e-06
-8.2520222444336e-07
-1.63460043403876e-07
4.7709743932877e-06
-7.95727968376279e-07
-3.56472829685085e-07
5.45757549859488e-06
-7.87563225455672e-07
-5.85573378113161e-07
6.06390780919517e-06
-7.54555414645119e-07
-8.50114292671692e-07
6.47133608012065e-06
-7.01052459219083e-07
-1.13749515444834e-06
7.64733560126782e-06
-6.46240769096487e-07
-1.56565192548854e-06
1.83402928957085e-05
-5.82579012590283e-07
-3.55321260214689e-06
3.90600396980039e-06
-9.67539390150388e-07
-1.35847295885233e-07
4.41870849477376e-06
-9.65277960709635e-07
-2.95688916683485e-07
5.03262781593925e-06
-9.80640347359217e-07
-4.81041702660338e-07
5.53404406062582e-06
-9.54581050614038e-07
-6.88287068710707e-07
5.82123435722205e-06
-8.83735033950807e-07
-9.08416710086623e-07
6.0167670937573e-06
-7.90227878862474e-07
-1.12966620587501e-06
7.12220354761275e-06
-6.93535872086109e-07
-1.47381226305484e-06
1.7037277811737e-05
-5.81473852301814e-07
-3.16546583668513e-06
3.6250449159218e-06
-1.07391854699822e-06
-1.13783857402167e-07
4.10688823453341e-06
-1.09719249347544e-06
-2.47413544393957e-07
4.67787999104186e-06
-1.13804773182603e-06
-4.0122706029443e-07
5.10446999112817e-06
-1.12688285700854e-06
-5.67987285897048e-07
5.30265989318454e-06
-1.05430083015204e-06
-7.3887131688206e-07
5.37648566436389e-06
-9.45613212475801e-07
-9.05055972047716e-07
5.49759269553362e-06
-8.22422914846579e-07
-1.05789700752153e-06
6.60340043874975e-06
-6.9544316348898e-07
-1.31607952195672e-06
1.58634501041693e-05
-5.488716312973e-07
-2.70489018477616e-06
3.83770082229831e-06
-2.07908009945527e-07
4.37779245855451e-06
-1.25969195517165e-06
-3.37726846574938e-07
4.76817394985208e-06
-1.26677614616128e-06
-4.76700240130718e-07
4.90711340220323e-06
-1.20060748500082e-06
-6.13509932783195e-07
4.90091133066402e-06
-1.08919734693174e-06
-7.41198798532033e-07
4.88732432251348e-06
-9.58516054998969e-07
-8.52549532907255e-07
5.00056816563145e-06
-8.16472617305946e-07
-9.41683161663288e-07
6.14426866075111e-06
-6.64952975707551e-07
-1.12221669609701e-06
1.49073100146024e-05
-4.91412724314095e-07
-2.231034744471e-06
1.80258346579058e-05
7.43725318063461e-07
-1.56375887757517e-06
6.89458388775846e-06
6.39824318888368e-07
-5.40950932437097e-07
2.08164305310422e-05
3.70213533852964e-07
-2.91453231594815e-06
5.90404198960879e-06
3.71472904495801e-07
-4.05380822430481e-07
7.62525509266429e-06
3.48524515707372e-07
-1.03932676655866e-06
2.14695248944194e-05
5.95303874398094e-08
-3.84032958170068e-06
5.57834539750671e-06
5.22872385163742e-08
-3.33943535606114e-07
6.42260211055188e-06
1.23873724885228e-07
-7.65423866423559e-07
8.12508736752241e-06
6.14045898244116e-08
-1.42880328691198e-06
2.20755630659566e-05
-2.00783834285988e-07
-4.43005337405447e-06
5.27190029456763e-06
-2.59430326616695e-07
-2.77108877185205e-07
5.95050811851893e-06
-1.65681234153152e-07
-6.18435784590167e-07
6.87794806537956e-06
-1.46627028359535e-07
-1.05066214566453e-06
8.47060526600553e-06
-2.14879407532659e-07
-1.69936374242986e-06
2.18672970057589e-05
-4.08251697923646e-07
-4.66801542591734e-06
4.91225392808621e-06
-5.33057452346739e-07
-2.2999567383851e-07
5.5222607347018e-06
-4.53731162943951e-07
-5.04329743996828e-07
6.33269531391038e-06
-4.17276633675636e-07
-8.4168803165806e-07
7.05905849052888e-06
-4.07528778981398e-07
-1.24423835555833e-06
8.39063649254654e-06
-4.49167991414889e-07
-1.83849433664607e-06
2.08576826623647e-05
-5.3966505407479e-07
-4.59475607103114e-06
4.53203259096754e-06
-7.5830139235764e-07
-1.89687213925244e-07
5.10640613172737e-06
-7.08270184522875e-07
-4.1416330348215e-07
5.82304731214794e-06
-6.84650632558845e-07
-6.81547119085136e-07
6.43904418868759e-06
-6.51140243890827e-07
-9.92990541418234e-07
6.82136536801674e-06
-6.19998432748851e-07
-1.33674934048125e-06
7.98858092410562e-06
-6.06829570175178e-07
-1.85384864132757e-06
1.94162745242858e-05
-5.97611512698866e-07
-4.28573880512157e-06
4.17218659117829e-06
-9.34208914580271e-07
-1.57175797895674e-07
4.71897839627361e-06
-9.16401024082791e-07
-3.43057312915666e-07
5.36662146014567e-06
-9.18370845598374e-07
-5.59658941198479e-07
5.88508776584303e-06
-8.87368904308977e-07
-8.03803424855933e-07
6.16326983256197e-06
-8.26028185331955e-07
-1.06717416171145e-06
6.32651585670181e-06
-7.55407028838563e-07
-1.338082057264e-06
7.42445849183373e-06
-6.89460064895584e-07
-1.76103713979165e-06
1.79120094710763e-05
-6.08520143133192e-07
-3.81945324186614e-06
3.85452089992959e-06
-1.06580720308481e-06
-1.31207999908074e-07
4.37037083911945e-06
-1.0782164741521e-06
-2.86391603760826e-07
4.97659893177876e-06
-1.10893081754931e-06
-4.66117500045705e-07
5.42339404714022e-06
-1.09203634779227e-06
-6.62511060321468e-07
5.61974211501528e-06
-1.02237033611698e-06
-8.66733726989875e-07
5.67436659216815e-06
-9.26030865288245e-07
-1.07049553507604e-06
5.76216107614192e-06
-8.22928898441434e-07
-1.26484136736003e-06
6.85772884805083e-06
-7.21023214260224e-07
-1.58859931885279e-06
1.65615635923878e-05
-5.97051285617939e-07
-3.26654492498946e-06
3.58279365220065e-06
-1.16000664012084e-06
-1.1001866551609e-07
4.06557867964741e-06
-1.19843068520444e-06
-2.40422555740042e-07
4.64086684765386e-06
-1.25703666634908e-06
-3.9149845218599e-07
5.05392082860916e-06
-1.25898559702728e-06
-5.54870527102261e-07
5.19507382199499e-06
-1.19221680847268e-06
-7.18031229192407e-07
5.17681984872724e-06
-1.08617593536574e-06
-8.7421652164429e-07
5.14290930645676e-06
-9.66649121471663e-07
-1.01641369973643e-06
5.22598065594277e-06
-8.41415596708697e-07
-1.13733725081518e-06
6.35695745745771e-06
-7.11397935850383e-07
-1.36624104761105e-06
1.54392847377905e-05
-5.5274064903397e-07
-2.68411496553716e-06
4.35124143735763e-06
-3.30350494433008e-07
4.74607903609743e-06
-1.38850882233095e-06
-4.68803013519576e-07
4.87176464975059e-06
-1.33129916536938e-06
-6.0490873771375e-07
4.80859563375408e-06
-1.22483134211912e-06
-7.28911318303956e-07
4.70249495237435e-06
-1.10008774687887e-06
-8.36732822003493e-07
4.64483412184277e-06
-9.67666543931205e-07
-9.21278429958859e-07
4.74544624550722e-06
-8.2470950450644e-07
-9.77232888870988e-07
5.94006915718139e-06
-6.69362195561411e-07
-1.12536735127316e-06
1.4567066251437e-05
-4.85726448821162e-07
-2.12887986727491e-06
1.86741897021387e-05
1.32173335754252e-06
-1.97009502503156e-06
7.12530045315787e-06
1.13471840855417e-06
-6.21713445174736e-07
2.20669919109936e-05
8.19501497197733e-07
-3.63383022006182e-06
6.22664773709271e-06
7.78355678953156e-07
-4.6113610282379e-07
7.89816495179521e-06
7.54433532792386e-07
-1.19808005305863e-06
2.2893825610911e-05
3.65881910821166e-07
-4.70471653953872e-06
5.96549503668732e-06
3.66784764440704e-07
-3.82460994877223e-07
6.77621183507706e-06
4.64868741532934e-07
-8.75333688621929e-07
8.4290388775277e-06
3.72356042317659e-07
-1.65609714982541e-06
2.36310938808108e-05
-4.95922461309674e-09
-5.39089085771968e-06
5.67425472044313e-06
-2.98161258335196e-08
-3.20250617615002e-07
6.35287394745656e-06
1.00516538280666e-07
-7.12951399781278e-07
7.25603405399201e-06
1.28534556298609e-07
-1.21063837260102e-06
8.80763573810104e-06
1.17607000357877e-08
-1.97837352458933e-06
2.33982610108435e-05
-3.01145105794471e-07
-5.65986766544969e-06
5.29545835035974e-06
-3.75360407779996e-07
-2.67274207932e-07
5.92441739494136e-06
-2.60440070054465e-07
-5.84506397147848e-07
6.74479869740193e-06
-2.02414743225352e-07
-9.74750197697873e-07
7.44067281950323e-06
-2.04002368786084e-07
-1.44315214441025e-06
8.73524186818048e-06
-3.03771851147565e-07
-2.14844744159287e-06
2.22389488982008e-05
-4.95561734020748e-07
-5.55371742018857e-06
4.87752417700295e-06
-6.58172542682288e-07
-2.20376603001765e-07
5.48223834787192e-06
-5.78596661117473e-07
-4.80962347922701e-07
6.2242739499229e-06
-5.31505619673804e-07
-7.91326660102395e-07
6.83888095887203e-06
-4.94330998146575e-07
-1.15472212758625e-06
7.17813914833299e-06
-4.89893514211483e-07
-1.56028705911447e-06
8.31636867052248e-06
-5.28435326071893e-07
-2.17750931665851e-06
2.0584617050937e-05
-5.94622219230226e-07
-5.16847808777065e-06
4.47402393592149e-06
-8.77993470776648e-07
-1.82145403254065e-07
5.05674552016358e-06
-8.37723039739004e-07
-3.98001829748896e-07
5.73712651109562e-06
-8.19376326768552e-07
-6.49942975212233e-07
6.26704380450797e-06
-7.79371909019389e-07
-9.35272120456491e-07
6.52541723390094e-06
-7.28627283334881e-07
-1.24651050889856e-06
6.64208394981634e-06
-6.86881802768608e-07
-1.5722658289976e-06
7.72011198944443e-06
-6.6231286850464e-07
-2.0848070864228e-06
1.88562052756089e-05
-6.2938284672325e-07
-4.60056777982942e-06
4.11370080333849e-06
-1.04203471613569e-06
-1.51354151464302e-07
4.66669161436475e-06
-1.03848905490231e-06
-3.31408677317464e-07
5.30937443350539e-06
-1.05360282462976e-06
-5.40601117192961e-07
5.77379119787067e-06
-1.02707734085389e-06
-7.70348154880851e-07
5.96151702674364e-06
-9.5980440496598e-07
-1.01180307118829e-06
5.98760795460291e-06
-8.78353257403104e-07
-1.25747054065203e-06
6.03273054842637e-06
-7.99427121916662e-07
-1.49868716092968e-06
7.11254919240578e-06
-7.25964783340022e-07
-1.89842112117296e-06
1.73082888135626e-05
-6.30182191265813e-07
-3.93601472498406e-06
3.8032878169866e-06
-1.15973745345608e-06
-1.26563810103796e-07
4.32146469683155e-06
-1.18793159418562e-06
-2.77378705275393e-07
4.93429265798982e-06
-1.23561526598217e-06
-4.53133196388569e-07
5.36918416779569e-06
-1.22920917586135e-06
-6.44207740407956e-07
5.50819751674783e-06
-1.16098128772441e-06
-8.37023939097995e-07
5.47091076391236e-06
-1.06165976720664e-06
-1.02519685568171e-06
5.40812375613334e-06
-9.56218735498827e-07
-1.20242023563235e-06
5.45232041995388e-06
-8.51158233248239e-07
-1.36104723838921e-06
6.56737093487034e-06
-7.446951566755e-07
-1.65137844252112e-06
1.6017186814915e-05
-6.06152885261022e-07
-3.23830506363923e-06
3.5383620369374e-06
-1.24040390999859e-06
-1.05919033305899e-07
4.02285718778561e-06
-1.29458124878554e-06
-2.3287380646021e-07
4.60598721516952e-06
-1.37087433264394e-06
-3.813301884702e-07
5.02549258307343e-06
-1.38702461220028e-06
-5.42871879006592e-07
5.15473911468183e-06
-1.32649002330807e-06
-7.03570493135846e-07
5.07871322241242e-06
-1.22162533539675e-06
-8.5269875883531e-07
4.95221291233496e-06
-1.10376013885152e-06
-9.8682187868996e-07
4.8692435675141e-06
-9.83204913659264e-07
-1.09903286695786e-06
4.93598051454231e-06
-8.57034013395888e-07
-1.18223501139228e-06
6.11593656681775e-06
-7.2211576011627e-07
-1.37273459875085e-06
1.49898553544758e-05
-5.49241088559463e-07
-2.55766549226067e-06
4.72721889955201e-06
-4.59362822911338e-07
4.86072305272006e-06
-1.45597316905839e-06
-5.96225247903665e-07
4.78493022642302e-06
-1.3539922391369e-06
-7.20930104078753e-07
4.62231570670119e-06
-1.23244573783643e-06
-8.26723094239047e-07
4.47194894759548e-06
-1.10594474484335e-06
-9.10717821176234e-07
4.38841677783293e-06
-9.73166073911987e-07
-9.64801752337172e-07
4.48791758773887e-06
-8.27251900488353e-07
-9.84191341264113e-07
5.76127695809646e-06
-6.65162580615905e-07
-1.09397361972322e-06
1.42027371630015e-05
-4.68775445962983e-07
-1.94431447049468e-06
1.90523445322497e-05
2.15054877797481e-06
-2.52871061267591e-06
7.35059893298192e-06
1.81727159149767e-06
-7.20843212416594e-07
2.31205020393321e-05
1.51071200598606e-06
-4.53434606495408e-06
6.55141516727394e-06
1.33546170182229e-06
-5.25511348984968e-07
8.1471766554461e-06
1.32725746775684e-06
-1.37848341669916e-06
2.42274793013626e-05
8.6758839545719e-07
-5.83507175077399e-06
6.38510614223782e-06
7.96611086969233e-07
-4.37866272930224e-07
7.13147880280051e-06
9.36456553096182e-07
-9.98425776063787e-07
8.69043397750173e-06
8.15472508733526e-07
-1.90906034996881e-06
2.52019283403766e-05
3.25866369578219e-07
-6.60140752188851e-06
6.12580661126484e-06
2.85503112976025e-07
-3.70270417140718e-07
6.78765879496398e-06
4.6779368631792e-07
-8.20169525521275e-07
7.63296548836348e-06
5.10861899716298e-07
-1.39076989350757e-06
9.10208888168175e-06
3.35605028793477e-07
-2.29111018052371e-06
2.50027072236001e-05
-1.09223764449824e-07
-6.88610716988724e-06
5.73274034317925e-06
-1.5634561803574e-07
-3.10752302125937e-07
6.37314110971537e-06
8.61653322711352e-09
-6.77073590469745e-07
7.18746728081363e-06
9.84364352331915e-08
-1.1255210394822e-06
7.8229025616819e-06
8.47771114008712e-08
-1.66588283434504e-06
9.045832481831e-06
-9.03785769392278e-08
-2.49972492786393e-06
2.37119658254707e-05
-4.06238909896381e-07
-6.72663234345687e-06
5.27419726654996e-06
-5.15407011646609e-07
-2.56626553979994e-07
5.90745059346452e-06
-3.94161616565159e-07
-5.58764920325606e-07
6.66759539638198e-06
-3.13016143283353e-07
-9.17225591409287e-07
7.26530207322935e-06
-2.67835892981404e-07
-1.3373384131308e-06
7.53646818708931e-06
-2.95909216708572e-07
-1.80934302858005e-06
8.61941072391298e-06
-4.0418615321877e-07
-2.5428655707863e-06
2.18324169474705e-05
-5.67014988430573e-07
-6.23449228208891e-06
4.82032921069369e-06
-7.92875527092108e-07
-2.11602369641565e-07
5.4407093828877e-06
-7.20748617876914e-07
-4.62188882611641e-07
6.15151801045127e-06
-6.72740829329245e-07
-7.54118500780503e-07
6.68455940855447e-06
-6.18106663889429e-07
-1.08506617157702e-06
6.90821203237308e-06
-5.78951127060414e-07
-1.44845951809225e-06
6.95955442901004e-06
-5.72959101112134e-07
-1.83323395811212e-06
7.99771486975256e-06
-6.01950139551703e-07
-2.44778011572884e-06
1.98614277245832e-05
-6.39307665974458e-07
-5.5344003504277e-06
4.40970184513925e-06
-9.98902804990038e-07
-1.75091832322981e-07
5.0033121675716e-06
-9.72562990302386e-07
-3.83926318935094e-07
5.68320589191868e-06
-9.645783697934e-07
-6.26631333469255e-07
6.16117804601585e-06
-9.23026570180404e-07
-8.93675204430536e-07
6.33095260626243e-06
-8.5717263101143e-07
-1.17616302808096e-06
6.31577756704888e-06
-7.93924784772657e-07
-1.46763746007535e-06
6.30413540657069e-06
-7.4578040125237e-07
-1.76020560395885e-06
7.35610298568148e-06
-7.10819956890724e-07
-2.24693009895524e-06
1.80940242410404e-05
-6.57660955920966e-07
-4.728657892268e-06
4.05344697089417e-06
-1.14657508767558e-06
-1.45618803588125e-07
4.61130691426806e-06
-1.15950637068597e-06
-3.20179379738959e-07
5.26400069384563e-06
-1.19057328002922e-06
-5.24146609937369e-07
5.71937568399492e-06
-1.17137581924225e-06
-7.46494920566058e-07
5.85035017225142e-06
-1.09996998530441e-06
-9.72336315978736e-07
5.78523749714274e-06
-1.00864193354209e-06
-1.19584264046256e-06
5.68362185952226e-06
-9.20553074547504e-07
-1.41184369587066e-06
5.67997219840466e-06
-8.39476663949048e-07
-1.61282697029961e-06
6.77275171745509e-06
-7.59339484363354e-07
-1.9746546503472e-06
1.66204201909841e-05
-6.45821604780455e-07
-3.8934488557891e-06
3.74843986036415e-06
-1.24824194412682e-06
-1.21573125963203e-07
4.26944995354133e-06
-1.29315222415869e-06
-2.67935571596813e-07
4.89192181910707e-06
-1.35906504876143e-06
-4.3986333991192e-07
5.33636072793254e-06
-1.36532054437585e-06
-6.27889797812225e-07
5.46547663228135e-06
-1.29979318459295e-06
-8.16133436257351e-07
5.37036541447249e-06
-1.19708863967225e-06
-9.93247935136661e-07
5.21566407447577e-06
-1.08819301381109e-06
-1.15667499078433e-06
5.09853557070856e-06
-9.82635583727499e-07
-1.3002354853329e-06
5.12277841032441e-06
-8.76429494111142e-07
-1.41611149386795e-06
6.28337372326669e-06
-7.63444109339223e-07
-1.66153685185503e-06
1.54387094530617e-05
-6.06722815412155e-07
-3.08044359802026e-06
3.48766488774917e-06
-1.31420455017326e-06
-1.01448893757957e-07
3.97441599889197e-06
-1.38483464734869e-06
-2.24398316091024e-07
4.56643934010441e-06
-1.47951270067206e-06
-3.69897266546803e-07
4.99862737412859e-06
-1.51008847186656e-06
-5.29674284755e-07
5.13835028758443e-06
-1.45718004439493e-06
-6.89808229959936e-07
5.05137848770769e-06
-1.35374341023498e-06
-8.3790032051014e-07
4.86792407205579e-06
-1.23545766011925e-06
-9.66609377308647e-07
4.6927722165991e-06
-1.11691918116786e-06
-1.07392955058009e-06
4.58051462647434e-06
-9.96488991580274e-07
-1.15167374095874e-06
4.64345880266413e-06
-8.67153571659606e-07
-1.19273775466171e-06
5.90103335517646e-06
-7.24529293843573e-07
-1.3372049163508e-06
1.45078710475296e-05
-5.34405911696197e-07
-2.32838587799697e-06
4.85089392714123e-06
-5.85077661440933e-07
4.78474256172025e-06
-1.47740367807408e-06
-7.12191068621446e-07
4.61005886355126e-06
-1.3583872744666e-06
-8.20540371965961e-07
4.40525076219235e-06
-1.23472599157089e-06
-9.04910501150245e-07
4.22889412975695e-06
-1.10807381889923e-06
-9.62307873807599e-07
4.12764541567857e-06
-9.72739219303306e-07
-9.8332741354002e-07
4.23986008297908e-06
-8.20957863791511e-07
-9.64004158653792e-07
5.62750491467608e-06
-6.48142382292685e-07
-1.03192694535422e-06
1.37700707978767e-05
-4.35975263631622e-07
-1.68414470804218e-06
1.90640535319936e-05
3.24980546142111e-06
-3.26154687127551e-06
7.62217583042586e-06
2.7348679401915e-06
-8.55913047316868e-07
2.37390541118968e-05
2.51480725476783e-06
-5.66212170258433e-06
6.88059778326476e-06
2.08990090530642e-06
-6.01813339144792e-07
8.39927322639962e-06
2.12567501468165e-06
-1.58791120940512e-06
2.53205247245424e-05
1.60927265717329e-06
-7.23667933218314e-06
6.84300506987327e-06
1.3799748741174e-06
-5.0241277082694e-07
7.49101011369811e-06