/*--------------------------------*- C++ -*----------------------------------*\
  =========                 |
  \\      /  F ield         | OpenFOAM: The Open Source CFD Toolbox
   \\    /   O peration     | Website:  https://openfoam.org
    \\  /    A nd           | Version:  12
     \\/     M anipulation  |
\*---------------------------------------------------------------------------*/
/*   Windows 32 and 64 bit porting by blueCAPE: http://www.bluecape.com.pt   *\
|  Based on Windows porting (2.0.x v4) by Symscape: http://www.symscape.com   |
\*---------------------------------------------------------------------------*/
FoamFile
{
    format      ascii;
    class       volVectorField;
    location    "300";
    object      U;
}
// * * * * * * * * * * * * * * * * * * * * * * * * * * * * * * * * * * * * * //

dimensions      [0 1 -1 0 0 0 0];

internalField   nonuniform List<vector> 
10142
(
(-1.57562229524221e-05 0.00179020697403337 0.000132081689667004)
(-1.69711164481318e-05 0.00192901329089889 0.000142060666134986)
(-1.93371789306147e-05 0.00167238321333036 0.000195287716808288)
(-4.95237242004087e-05 0.0015119867385054 0.000141435516786495)
(-1.8590847821636e-05 0.00207901040127502 0.000153155196128818)
(-2.23011696569056e-05 0.00179796489691254 0.000203599713840509)
(-5.66092896326169e-05 0.0016153455175356 0.000158020643093326)
(-2.00175550594682e-05 0.0017438070665288 0.000267120856284122)
(-5.75209962931577e-05 0.00152238835973389 0.000204633432442235)
(-8.75765996214525e-05 0.00141370154496119 0.000148230790033464)
(-2.31531886196656e-05 0.00223690721569966 0.00016071276688063)
(-2.62099973479243e-05 0.0019292758173853 0.000209745565698293)
(-6.71150631401131e-05 0.00173930415061812 0.000176111305889587)
(-2.35941935346657e-05 0.00187021503052385 0.000271318511105356)
(-6.73721875036991e-05 0.0016251631827954 0.000215587087775832)
(-0.000105436062467906 0.00149963177485934 0.000168509384430326)
(-1.97525800450932e-05 0.00179169965134686 0.000335403797767241)
(-6.08805174358377e-05 0.00167383153238514 0.000275977399095406)
(-9.38760948947132e-05 0.00145364869645837 0.000211017502090175)
(-0.000125967363602481 0.00135590168137722 0.000151887026406447)
(-2.90752063826048e-05 0.0023990291458563 0.00016341813592255)
(-3.16365718354448e-05 0.00206642735662139 0.000208232927864754)
(-8.3626795646078e-05 0.00187025252952954 0.000187234082573852)
(-2.78957969170529e-05 0.00200332249988817 0.000269707511867665)
(-8.0124950479692e-05 0.00173688330076232 0.000224398283837025)
(-0.000129669805657318 0.00161061419362977 0.000189850642210914)
(-2.33117553994817e-05 0.0019154909002156 0.000335845697226423)
(-7.20538456194864e-05 0.00178822182676032 0.000281589783638055)
(-0.000112975742391378 0.00154314108661621 0.000224064612821371)
(-0.000155739757282712 0.0014329244397614 0.00017382514156355)
(-1.96579388482124e-05 0.00182913394118932 0.000398604254599333)
(-6.07951042551421e-05 0.00174495706393763 0.000343671062038954)
(-0.000101450106991215 0.00162583720670479 0.000281516557797169)
(-0.000131729438199796 0.0013906701316731 0.000216700179977536)
(-0.000165777287138927 0.00128760935170786 0.000157536295570206)
(-3.64524937806556e-05 0.00255435047830771 0.000161460374795391)
(-3.79788971683842e-05 0.0022070147308945 0.000196799141504928)
(-0.000103585368318347 0.00200167368337141 0.000195187493837011)
(-3.3105677156933e-05 0.0021436930476658 0.000258555062480782)
(-9.65904006609693e-05 0.00185447109129458 0.000224745354052202)
(-0.000161083225993642 0.00172832883577665 0.000203198601241512)
(-2.74492713852199e-05 0.00204744670581314 0.00032887566957931)
(-8.54684704499929e-05 0.00191109438388194 0.000281119327846755)
(-0.000136280702345476 0.00164306053923665 0.000234829797258868)
(-0.000193721387399572 0.00153566802150092 0.000196840671508786)
(-2.307201768169e-05 0.00195038335589738 0.00039670108297858)
(-7.17535008731406e-05 0.00186105434857857 0.00034508928818748)
(-0.00012139404458675 0.0017314005406765 0.000288379074721079)
(-0.0001608093606797 0.00147014803605167 0.000231455854765108)
(-0.000207258530901736 0.00135556673735818 0.000180810785968489)
(-1.95727322768633e-05 0.00185854859592903 0.000458508232903883)
(-6.0544513021681e-05 0.0017910730386175 0.000405042820828149)
(-0.000103716380293675 0.00170525468744341 0.000348593186436698)
(-0.000143685901269843 0.0015694537026534 0.000285902220572407)
(-0.000169118904222782 0.00131380473960583 0.000222099701189205)
(-0.000201020200928777 0.00120086377243697 0.000164013825558276)
(-4.53599659912432e-05 0.00269116327305024 0.000154294788797385)
(-4.53681252182253e-05 0.00234612344667307 0.000173060522578151)
(-0.000126819766474973 0.00212136693998001 0.000199697263595484)
(-3.90685974382611e-05 0.00229045990641328 0.000234498046076012)
(-0.000115487962210329 0.00197240304179891 0.000215866431490339)
(-0.000197560977624959 0.00184565430908473 0.000213921644341417)
(-3.22202291369033e-05 0.00218836951604074 0.000310889915897129)
(-0.000101346450059984 0.00204156552367664 0.00027123748328156)
(-0.000164199157940088 0.00174892098624192 0.000236734611714408)
(-0.00024027601015965 0.00164507479995844 0.000210951809750938)
(-2.69932614027674e-05 0.00208119416881053 0.000386298829889502)
(-8.45491649894431e-05 0.00198629583862189 0.000339001257230501)
(-0.000144766506416915 0.00184617523951315 0.000288991566580007)
(-0.000195102085025331 0.00155997251652199 0.000244258918740759)
(-0.000258858428702367 0.00144858595560938 0.000205280135165106)
(-2.28243252026803e-05 0.00197739170500214 0.000455856533481972)
(-7.10093927840174e-05 0.00190637625174027 0.000403933273029525)
(-0.000122974770932066 0.00181477187773698 0.00035097262945646)
(-0.000173024028354361 0.00166688526519009 0.000294060682584165)
(-0.000207837053267615 0.00138331376982707 0.000238528348576004)
(-0.000252856262383387 0.00125827591108527 0.000188823716904438)
(-1.93975911019629e-05 0.00188069739268406 0.000515349192959461)
(-6.01670326240514e-05 0.00182476384704295 0.000462458348028446)
(-0.000104554003066114 0.00175542361808419 0.000408751809816105)
(-0.000148797777503964 0.00165475207180332 0.000351861239742447)
(-0.000184901193604173 0.00149830724864683 0.000289983027086411)
(-0.000202316921445718 0.00122411339247523 0.000227460265184469)
(-0.000226734925368921 0.00109476493878578 0.000167736379582047)
(-5.74534594890982e-05 0.00279112688383182 0.000140497167741979)
(-5.38993037180454e-05 0.00247818412426362 0.000132677411244653)
(-0.00015314529700935 0.00221587806806606 0.000199224799338692)
(-4.58353860681052e-05 0.00244218656191516 0.000193270018186766)
(-0.000137022296250731 0.00208418054590694 0.000194769342120586)
(-0.000238793739913481 0.00194973740878297 0.000221761810871848)
(-3.76312258011707e-05 0.0023383994474577 0.00027794823969517)
(-0.000119315311085494 0.00217708299891158 0.000248963995915499)
(-0.000195791971434623 0.00185365872999535 0.000229840650860721)
(-0.000293436130574532 0.00175414503882217 0.000222784655292875)
(-3.14561725071006e-05 0.0022226811556584 0.000364103906605139)
(-9.92003542048703e-05 0.00212071397505867 0.000322173152702795)
(-0.000171733253475834 0.00196860847076019 0.000280280116560871)
(-0.000234652864389237 0.00165533791292392 0.000248085367567158)
(-0.000320098080250179 0.00154769623561079 0.000220253853467772)
(-2.65556556970749e-05 0.00210691864310862 0.000444300701607517)
(-8.30545500643392e-05 0.00203177376929196 0.000394373291166721)
(-0.000145180130884002 0.00193377473856378 0.000345784490794889)
(-0.000206788581526558 0.00177318687170507 0.000296158905981854)
(-0.000252896321516923 0.00146217809937917 0.000253467963451127)
(-0.000316574406459104 0.00133949812317154 0.000215455749509473)
(-2.24934000901677e-05 0.00199688599090487 0.000513317724957029)
(-7.00897095236811e-05 0.00193854637680028 0.000460438787760602)
(-0.00012289050122031 0.00186526194750513 0.000408451163997658)
(-0.000176974191496934 0.0017574484333075 0.000355435749228637)
(-0.000223486087154345 0.00158682144324719 0.000299678327615812)
(-0.000249744917418598 0.00128295460294807 0.000245953777920128)
(-0.000286698527213305 0.00114044048941083 0.000193728652471266)
(-1.9110573843782e-05 0.00189571102716084 0.000569062241168388)
(-5.9540957300405e-05 0.00184938306336701 0.000516884987654639)
(-0.000104481396331794 0.00179149380447641 0.000464470992258355)
(-0.000151143797574565 0.00170874998207653 0.000410672750075846)
(-0.000192953553271101 0.00158935682874432 0.000354664900337355)
(-0.000221573838402106 0.00141510216492158 0.000293876333793363)
(-0.000228100091592803 0.00112364769508519 0.000232242996167134)
(-0.000240549258897552 0.000970116993560559 0.000168878423557892)
(-7.14505117249262e-05 0.00283416833809028 0.000113364562538211)
(-6.38473917506457e-05 0.00259538100921871 6.9288094893869e-05)
(-0.00018395481476468 0.00226614764374898 0.00019342367829029)
(-5.36052960993087e-05 0.00259728442129533 0.000129329502872559)
(-0.000161030890818433 0.00218330869742435 0.000156508238849282)
(-0.000284619038987822 0.00202710274502001 0.000224931736883936)
(-4.37222555523149e-05 0.00249787760933698 0.000225186186677912)
(-0.000139409346368202 0.00231551551154159 0.000209983214331669)
(-0.000230913026990418 0.00195004576428588 0.000211607109464007)
(-0.000352532419879665 0.0018498414627767 0.000231800482128915)
(-3.65168417894322e-05 0.00237582702498058 0.000326129078427504)
(-0.000115683232181478 0.00226344506725878 0.000290892203891779)
(-0.000202113099185936 0.00209512514069872 0.000259619018133564)
(-0.000278851561656309 0.00174846955733334 0.0002435223478774)
(-0.000388810825694461 0.00164679895819622 0.000233300393498776)
(-3.07926591728241e-05 0.00224857289725974 0.000420828314641568)
(-9.67409575252477e-05 0.00216787667578655 0.000373348671923152)
(-0.000170424302048962 0.00206189323969202 0.000330126356739801)
(-0.000245142475869676 0.00188667929661529 0.000289199141864527)
(-0.000303864466988271 0.00154570767189032 0.000259737300055604)
(-0.000390500832500693 0.00142547534146119 0.000232375775225521)
(-2.60502574403925e-05 0.002124567580245 0.000502526195400238)
(-8.15062147924456e-05 0.00206328671517638 0.000449660589504717)
(-0.00014380581756414 0.00198529684216325 0.000399784777007871)
(-0.000209043581819589 0.00186919619917682 0.000351603650872599)
(-0.000267490720076677 0.0016833291311271 0.000303716725462778)
(-0.000304617239402755 0.00135006567105572 0.000263295317610575)
(-0.000359824865402691 0.00120828582143577 0.000221882306208964)
(-2.20461295961325e-05 0.00200876702349314 0.000568708896751237)
(-6.89585806680087e-05 0.0019610521368757 0.000515272595101482)
(-0.000121842900603608 0.00190044410288403 0.000463119713690679)
(-0.000177876875265309 0.00181259235046456 0.000411447710448864)
(-0.000229937630933715 0.00168420423007113 0.000359762175904333)
(-0.000268558614200902 0.00149379394453093 0.000305410905025913)
(-0.000282605213640043 0.00117115040153036 0.000252357550962725)
(-0.000306310025950234 0.00100264635979617 0.000195935045132989)
(-1.87232413837228e-05 0.00190372157385865 0.000619615677384674)
(-5.86303062696028e-05 0.00186637649871102 0.000568614030011403)
(-0.000103663317600423 0.00181769540738371 0.000517181707289214)
(-0.000151689877257868 0.00174755851437574 0.000464878532876506)
(-0.000197090752660526 0.00164780321128829 0.000412083166132406)
(-0.000232701367306713 0.00151181818863941 0.000357391317121372)
(-0.000251162248079187 0.00132167748686295 0.000297309937770528)
(-0.000244342242590864 0.00101370229537047 0.000235112629331709)
(-0.000241677591013165 0.000829882417955411 0.000168058665331736)
(-8.61971707553418e-05 0.00280196014839454 7.06987801202456e-05)
(-7.54518648577111e-05 0.00269003245341235 -2.25727600918843e-05)
(-0.000217286259329203 0.00225098228174382 0.000179031267678651)
(-6.19546563451021e-05 0.00275316195551629 3.53405586568813e-05)
(-0.000186476526312396 0.00226132412429087 9.88115482926196e-05)
(-0.000333870185201847 0.00205835906993941 0.000221159511718155)
(-5.04092526355713e-05 0.00266729811989065 0.000146573195247483)
(-0.000161578794175085 0.0024548602940724 0.00014885360989751)
(-0.000268853809051854 0.00203105409348403 0.000175024586984612)
(-0.00041753576075096 0.00191970989812135 0.000236291348268751)
(-4.22459299858535e-05 0.00254217219381701 0.00026747751844163)
(-0.000134085023866185 0.00241445669717798 0.000240397327487982)
(-0.000235938561884715 0.00222311972964929 0.000222816846525707)
(-0.000327143416646518 0.00183179073439966 0.000227797746491095)
(-0.000464059734283487 0.00173256649783504 0.000243467179357945)
(-3.56005590567579e-05 0.00240406794011819 0.000381694296791235)
(-0.000112158844557568 0.00231495004363177 0.000337065203364683)
(-0.0001987793910943 0.00219754292526621 0.000300531132712367)
(-0.000288078197320191 0.00200318160496947 0.000270809917357666)
(-0.000360011620078893 0.00162585723299294 0.000258286198474522)
(-0.000472634680319222 0.00151143251585967 0.000247228063646853)
(-3.0098222647224e-05 0.00226553846741608 0.000480254941773436)
(-9.4461579036735e-05 0.00220003761499102 0.000427304019139965)
(-0.000167518649590458 0.00211580603018082 0.000379988855307825)
(-0.000245276644471287 0.00198950402362589 0.000337750343833361)
(-0.000316990034511006 0.00178607935864305 0.000299293955469857)
(-0.000365902036578127 0.0014207525083593 0.000271980408601071)
(-0.000443491187559746 0.00127915915608246 0.00024008001283302)
(-2.54308111014039e-05 0.0021338158890593 0.000560106719164786)
(-7.98049397269839e-05 0.00208433109188981 0.000505091905529798)
(-0.000141669203216523 0.00202029723853679 0.000453197249249019)
(-0.000208194327286949 0.00192611149961663 0.000404133074376823)
(-0.000271745395355037 0.00178716914925058 0.000357948818998894)
(-0.00032189895703019 0.00157926056953127 0.000311794364921388)
(-0.000345438336465155 0.00122558155263176 0.000271823416452222)
(-0.000386173726311307 0.00105579198783742 0.000224880015328921)
(-2.14892458728271e-05 0.00201290112132269 0.000621708886022658)
(-6.75331406845091e-05 0.00197510497316294 0.000568417147060185)
(-0.000120120009597163 0.00192496011801334 0.000516079317766715)
(-0.000177022578688093 0.00185101636253725 0.00046446405674556)
(-0.000232142457354218 0.00174445412443561 0.000414321405425623)
(-0.000277684715837987 0.00159774918700687 0.000364376383770689)
(-0.00030514710388625 0.00138980518790776 0.000310786763081077)
(-0.000304140317273701 0.00104958999419284 0.000257046794657961)
(-0.000309913213773049 0.00084778768180608 0.000195254761375174)
(-5.7447835385382e-05 0.00187626040951004 0.000617619570714041)
(-0.000102201920035086 0.00183608437932015 0.000567439892852155)
(-0.000150874696235446 0.00177583961964218 0.00051615451957917)
(-0.000198567680737123 0.00169013398835712 0.000464842767271408)
(-0.000239008767236142 0.00157501717152143 0.00041343761172549)
(-0.000265732833061884 0.00142440389055164 0.00035980391714139)
(-0.000272140690764535 0.00121950846603268 0.000299627561451876)
(-0.000250522873982865 0.000895537031144037 0.00023609293178228)
(-0.000228160650703345 0.000675633563461868 0.000164739478364659)
(-0.00010470147766441 0.00266679097618912 6.8765644116895e-06)
(-8.76747804372031e-05 0.00275417991694866 -0.00015269787257567)
(-0.000249373243683732 0.00214673588372994 0.000150282771311294)
(-7.11831250733125e-05 0.00290733350099744 -9.80650216228167e-05)
(-0.00021354605891953 0.00230885096070575 1.68728203711769e-05)
(-0.000383353687807888 0.0020220097224789 0.00020897336262595)
(-5.80928020664321e-05 0.00284723215851941 3.44609185073157e-05)
(-0.000185585376832922 0.00259233324949164 5.89574789715177e-05)
(-0.000308591425015857 0.00208801316543397 0.000118485371746645)
(-0.000486112930825852 0.00194642179699578 0.000235390000703986)
(-4.87083697411153e-05 0.00272373767421691 0.000182112162881351)
(-0.000154431701062129 0.00257398476330668 0.000164880116771576)
(-0.000273082246625332 0.00235036254888168 0.000164513641431148)
(-0.00037800894556612 0.00189846446498667 0.000194624657682304)
(-0.000546019587422712 0.00179328943505526 0.000249355405977164)
(-4.10696596139832e-05 0.002575824463894 0.000322299811974684)
(-0.000129474377613882 0.0024742247455008 0.000280808331583134)
(-0.000230430787963047 0.00234036797043503 0.00025240731603477)
(-0.000335614102452413 0.00211980218447585 0.000236996740848174)
(-0.000420092765766056 0.00169490953037602 0.000245057213330894)
(-0.000562106283118695 0.00158375550878938 0.000258870418988975)
(-3.47094978459363e-05 0.00242201603558145 0.000443146869197313)
(-0.000109091831277956 0.00234991406319739 0.000389795375177722)
(-0.000194187020919455 0.00225653683024645 0.000345474024984857)
(-0.000285840667808432 0.00211630550194426 0.000310626453783792)
(-0.000371951422434293 0.00189047665239555 0.000284194499309603)
(-0.000432442420233439 0.00148682586727735 0.000273375719648261)
(-0.000536509629902372 0.00134918886735749 0.000254904832723469)
(-2.92969925611263e-05 0.00227293594305508 0.000540901029834894)
(-9.2141338564644e-05 0.00222067645830273 0.000483753774648478)
(-0.000164130932554785 0.00215183854058503 0.000432038157017598)
(-0.000242396064061067 0.00204941388871506 0.000386175325915273)
(-0.000318696159658658 0.00189762244443331 0.000346764741126045)
(-0.000381472362673466 0.00166972340024035 0.000310385710471917)
(-0.000415116179784377 0.001282560220993 0.000282906106270656)
(-0.00047636263661078 0.00110969706245326 0.000241653561695022)
(-2.46954870001542e-05 0.00213437248760111 0.000616288875908723)
(-7.78334100960389e-05 0.00209600332373383 0.000560181304169631)
(-0.000138941582759318 0.00204369675157851 0.00050662194482939)
(-0.000205758767317891 0.00196481312329324 0.00045583490267399)
(-0.000271732104624503 0.00184982560267816 0.000409000429438052)
(-0.00032836313185404 0.00169057888995383 0.000365066538824596)
(-0.000366231021939499 0.00146341951442707 0.000319666775850241)
(-0.000372825115958568 0.00109108406135154 0.000278752624962143)
(-0.000393001816781657 0.000885636585970238 0.000223410022221261)
(-2.0836519185431e-05 0.00200928071749159 0.000672064379858364)
(-6.58249473902335e-05 0.00198141559819175 0.000619655634513987)
(-0.000117758268637536 0.00194063445391121 0.000567556138502602)
(-0.000174885113184936 0.00187800230212354 0.000515843429171645)
(-0.000231803048449687 0.00178691100662517 0.000465794790528064)
(-0.000281688167140784 0.00166338290152874 0.0004175261324135)
(-0.000317471872274819 0.00150058192462568 0.000368894970733863)
(-0.000331470715520461 0.00127659015427954 0.000315181815583746)
(-0.000313619752551416 0.000919891177939699 0.000259737444592153)
(-0.000295951245255116 0.000678455024976222 0.000191489111331826)
(-0.000100184107615084 0.00184739498290683 0.000615252893398972)
(-0.000148973289224556 0.00179606420090432 0.000565163146138294)
(-0.000198004995338091 0.00172133095978215 0.000514739891822589)
(-0.000241784230642555 0.00162141070977209 0.000464774461369244)
(-0.000274681961417658 0.00149273500590873 0.00041449216727948)
(-0.000290837395171376 0.00132883002166811 0.000361193717721217)
(-0.00028384061077531 0.00111006434312295 0.000300189911174258)
(-0.000246364408734198 0.000770319631810295 0.000234374384130116)
(-0.000200016415697102 0.000507107008774386 0.000157491482899915)
(-0.000128703971924553 0.00239590817741074 -8.22630583268544e-05)
(-0.000100823565057154 0.00278014498031062 -0.000335148376827902)
(-0.00028340121181546 0.00193094577445024 9.79546620047338e-05)
(-8.16293473612689e-05 0.00305748427633499 -0.000283012096014194)
(-0.000241020989678612 0.00231717051217589 -0.000101722022114351)
(-0.00042927023413795 0.00189428839611007 0.00018136821597005)
(-6.67999962473555e-05 0.00303835235781757 -0.000120845217213335)
(-0.000211446445129509 0.00272487767262451 -6.8596576427431e-05)
(-0.000350571951644117 0.00211169083569707 4.56555298316936e-05)
(-0.000552615002704765 0.00190850115953208 0.000225735887625488)
(-5.60427966995073e-05 0.00292296419565254 6.24676865053803e-05)
(-0.000176896641526018 0.00274224379040775 5.71634640010873e-05)
(-0.000313269806524153 0.00247387161814571 7.87295291768565e-05)
(-0.000432438355226559 0.00194012283026664 0.000147725997064661)
(-0.000631357695809798 0.00181366417719442 0.000249828708980134)
(-4.73163182457074e-05 0.00276701087705756 0.000236943577899126)
(-0.000148843643806371 0.00264744065606557 0.000198858929090299)
(-0.000265491487882653 0.00249040174407763 0.000180225165351484)
(-0.000387464951869084 0.00223415999728699 0.000182802351894524)
(-0.000483449781492877 0.00174675641948535 0.000218918200525029)
(-0.000659282197508882 0.00163185903266664 0.000264827584179967)
(-3.99975723024305e-05 0.00259709136694714 0.00038708186555439)
(-0.000125638093338578 0.00251499950959952 0.000332748880820647)
(-0.000224090045952738 0.0024084081775427 0.000291742525669003)
(-0.000330973466865502 0.00224893604567205 0.000265893192539347)
(-0.000432269493477944 0.00199346466957634 0.000254552844218082)
(-0.000502514975111763 0.00154064556074669 0.000263310194652992)
(-0.000637949493761894 0.00140454625838241 0.000265663407880761)
(-3.3721842473008e-05 0.00242871461120784 0.000508195946834491)
(-0.000106141253815906 0.00237175541688615 0.000448037332166515)
(-0.000189467892005524 0.00229570223164143 0.000396258113210795)
(-0.000280755257297791 0.00218189391064731 0.000354212900789291)
(-0.000370985928754651 0.00201318313246884 0.000323207630129908)
(-0.000447053480021722 0.00176038538234116 0.000299197166408919)
(-0.000490157436260922 0.00133411852797969 0.000287090686482727)
(-0.000575830339313076 0.00116153204561807 0.000256150764984845)
(-2.83808033382627e-05 0.00227034296338389 0.000601434890456496)
(-8.95955494059894e-05 0.00223071541733051 0.00054163108426007)
(-0.000160306896860021 0.00217510361990625 0.00048633967913661)
(-0.000238195606776737 0.00208957479579568 0.000436445025357803)
(-0.000316153020463043 0.00196390728453949 0.00039371505690457)
(-0.000384953718018252 0.00178954992767332 0.000357174107434606)
(-0.00043410760638469 0.00154075513402495 0.000321473407271013)
(-0.000448495507772463 0.00113419527130011 0.000292013674531587)
(-0.000485816512893031 0.000922148454322787 0.00024148853804941)
(-2.38541580271825e-05 0.00212610764924972 0.000670473673252247)
(-7.55554580865465e-05 0.002098617201191 0.000614300294043004)
(-0.000135622741643153 0.00205725074758056 0.000559854793157919)
(-0.000202159007088306 0.00199104612214683 0.000507518270449218)
(-0.000269319623926798 0.00189306809407823 0.000459026435320671)
(-0.000329666882704476 0.00175925291912271 0.000414712740701715)
(-0.000375561452487201 0.00158231270775191 0.00037238319134963)
(-0.000398353860568932 0.00133778591379173 0.000326709230581409)
(-0.000385738758791653 0.000948545914516357 0.000283674029980473)
(-0.000378363865807753 0.000700376946398852 0.000220043578031217)
(-2.00733752850813e-05 0.00199756563724494 0.000719367836399564)
(-6.3834053173481e-05 0.00197974180988791 0.000668575845674589)
(-0.000114849952811058 0.00194865348740552 0.000617431823411808)
(-0.000171676604359975 0.00189576718022128 0.000565890231563766)
(-0.000229516329248156 0.00181723233919251 0.000515627133499647)
(-0.000282267826315099 0.00171041491086588 0.0004674750465412)
(-0.00032384561994465 0.00157197144334882 0.000420712824827852)
(-0.000347851673239249 0.0013946911324598 0.00037256499435427)
(-0.000346745764437595 0.00115585578014084 0.000317883018403791)
(-0.000310551352608783 0.000783236480258361 0.000259669377920187)
(-0.00026376549871838 0.000495058155879526 0.000184819709215399)
(-0.000146145448876258 0.00180902723829063 0.000611901436211168)
(-0.000195855774955934 0.00174412770833137 0.000562507439990014)
(-0.000241810791107914 0.00165613794758534 0.000513285343660618)
(-0.000279207568532279 0.00154362771209041 0.000464395414481377)
(-0.000303025394780295 0.00140275335700176 0.000414553594683137)
(-0.000307464755830943 0.0012266153148557 0.000360702151321026)
(-0.000286176951175709 0.000994782690981253 0.000298010478141898)
(-0.000232236923851325 0.000639347665525867 0.000228809589707482)
(-0.000159319503538079 0.000322983888622818 0.000145854595940016)
(-0.000157935791039317 0.00195722726618495 -0.000199792129485156)
(-0.00011498711296276 0.00275955485121724 -0.000582184969842893)
(-0.000310818151413109 0.00155103717623055 1.52881930120057e-05)
(-9.32670187275074e-05 0.00320147153850212 -0.000533081681633433)
(-0.000266575057970319 0.00227937540676817 -0.000270673194401316)
(-0.000468854264464314 0.00165843324226139 0.000129564856067526)
(-7.6522480925595e-05 0.00324194847596161 -0.000331340063267932)
(-0.000239064238501847 0.00285023536939161 -0.000245040554475944)
(-0.000390874310344605 0.0020924402577992 -6.00151502978061e-05)
(-0.000610207602216674 0.00178103236691635 0.000197677387273146)
(-6.44059818371641e-05 0.00314298785030245 -0.00010098539803032)
(-0.000201589175924001 0.00291969658828411 -9.17152519535171e-05)
(-0.000356357944145187 0.00259024712385485 -4.2413510553148e-05)
(-0.000487350070648284 0.00194676756028771 8.19201795714935e-05)
(-0.000713690298077245 0.00177359664790591 0.00024009009546049)
(-5.45052986506913e-05 0.00298155030205899 0.000118491565694173)
(-0.000170518230761353 0.00283667834508944 8.41550084145242e-05)
(-0.000304036325887488 0.00264757932227091 7.728833924364e-05)
(-0.000443337793231006 0.00234293415491051 0.000102925666715519)
(-0.000550087371356 0.00177306930912702 0.000180730451078434)
(-0.000759135175325036 0.00164307268476559 0.000267148265293245)
(-4.60953600108104e-05 0.00279480201593805 0.00030694496292103)
(-0.00014437494669797 0.00269809995789455 0.000250804583528224)
(-0.000257535115570304 0.00257289467286813 0.000213385639528558)
(-0.000380799054004999 0.00238719512385209 0.000198413973853988)
(-0.000497580541103414 0.00209259236399961 0.000206211822235034)
(-0.000577034071296681 0.00157706680309021 0.000245414170498235)
(-0.000746290842260903 0.00143716215620577 0.000274924313704038)
(-3.88279731441199e-05 0.00260470423650441 0.000458473370336586)
(-0.000122090017569683 0.00254029073834864 0.000394021068062722)
(-0.000218073545737804 0.00245365969762868 0.00034168225594536)
(-0.000323639315643533 0.00232412622479162 0.000304019540710333)
(-0.000428810555368679 0.00213290472393417 0.000283203598959543)
(-0.000518300423383407 0.00184806083345213 0.000274638267218019)
(-0.000569066368279915 0.00137276501049364 0.000282733043364193)
(-0.000683985828137786 0.0011980927647716 0.000269694130403575)
(-3.2615388913695e-05 0.00242358789838938 0.00057475987520624)
(-0.000103007395987341 0.00238128637861322 0.000509951544528281)
(-0.000184518029553771 0.00232040610057941 0.000452158988823688)
(-0.000274693634700547 0.00222555407782727 0.000403130761122768)
(-0.000365746960931508 0.00208572015533244 0.000365364618522961)
(-0.000447581166643675 0.00189203209513839 0.000337970309068745)
(-0.000508318437975772 0.0016168910493705 0.000314528709689341)
(-0.000529522019342444 0.0011713227029558 0.000298770704564203)
(-0.000586629913472563 0.000954692707877645 0.000257218255085858)
(-2.73465348980448e-05 0.00225752474971501 0.000660765262176266)
(-8.67527266486347e-05 0.00223035647694125 0.000599775227356141)
(-0.000155969902102319 0.0021872688820206 0.000542145839366635)
(-0.000233016045219013 0.00211600992423967 0.00048882696760775)
(-0.000311475848535466 0.00200907019606638 0.000442183202028973)
(-0.000383253300048544 0.0018624496064252 0.000402770897073728)
(-0.000440112264875326 0.00166872681947148 0.000368166329396643)
(-0.000472341893430865 0.00140143024335892 0.000331785598845879)
(-0.000464687920964604 0.000977794692560237 0.00029933130483603)
(-0.000469345367888664 0.000718505820640025 0.000239485857545996)
(-2.29086332565519e-05 0.00210893384547146 0.000721970069371929)
(-7.29796579765956e-05 0.00209240945383612 0.000666801118941267)
(-0.000131723191096581 0.0020615924537216 0.00061238017588705)
(-0.000197561906175913 0.00200700102782157 0.00055911379756455)
(-0.000265120522476485 0.00192305502941865 0.000508978155259543)
(-0.000327763932513549 0.00180758956399985 0.000463094630334325)
(-0.000378898924465939 0.00165735445288578 0.000420775404977582)
(-0.000411633005746943 0.00146468729886368 0.000379071470691562)
(-0.000417382315357321 0.00120440064154576 0.000332197628676158)
(-0.000383798375483433 0.000799495521326244 0.000285946711742941)
(-0.000341577988029557 0.000501147786075182 0.000214401825642154)
(-1.92128773222371e-05 0.00197809713221707 0.000763178329891171)
(-6.15024142210594e-05 0.00196947082079367 0.000714630270777358)
(-0.00011139862505459 0.00194861188452091 0.000665213116967116)
(-0.000167590211970888 0.00190585240105903 0.000614532546239875)
(-0.000225660448446297 0.00183789544402705 0.000564232402655541)
(-0.000280216493388221 0.00174470698747908 0.000515752621207016)
(-0.000325904254906065 0.00162401787363249 0.000469147077070903)
(-0.000357344565492968 0.00147227946342741 0.000423104777208748)
(-0.000368182415487824 0.00128185231644431 0.000374440417339397)
(-0.000350783383025515 0.00102923348590578 0.000317852802203619)
(-0.000295169648484903 0.000641154176736342 0.000255758154327376)
(-0.000215283401849098 0.00029639147718939 0.000173900383176706)
(-0.000192357120284782 0.00175938759185721 0.000608127411501022)
(-0.000239695785481661 0.00168209185543499 0.000559762146591291)
(-0.000280216543043844 0.001582355493938 0.000511489763157132)
(-0.000309799870459944 0.00145856244985494 0.000463014131305659)
(-0.000323547607572656 0.00130661149397714 0.000412687140526343)
(-0.000315503772925712 0.00111921464373722 0.000357210006491003)
(-0.000279531002695058 0.000874938925674866 0.000291773925167571)
(-0.000209286867219644 0.000503401814122458 0.000217591003201774)
(-0.0001095878555202 0.000119318463315459 0.000128987550454263)
(-0.000189010499835201 0.0013592196425453 -0.000347836854729777)
(-0.000128390290481864 0.00268540569703821 -0.00089497036229001)
(-0.000322273471786055 0.000970609819011337 -0.000103945728184367)
(-0.000106280715294235 0.00333662861982806 -0.000861820034080749)