/*--------------------------------*- C++ -*----------------------------------*\
  =========                 |
  \\      /  F ield         | OpenFOAM: The Open Source CFD Toolbox
   \\    /   O peration     | Website:  https://openfoam.org
    \\  /    A nd           | Version:  12
     \\/     M anipulation  |
\*---------------------------------------------------------------------------*/
/*   Windows 32 and 64 bit porting by blueCAPE: http://www.bluecape.com.pt   *\
|  Based on Windows porting (2.0.x v4) by Symscape: http://www.symscape.com   |
\*---------------------------------------------------------------------------*/
FoamFile
{
    format      ascii;
    class       volScalarField;
    location    "100";
    object      nut;
}
// * * * * * * * * * * * * * * * * * * * * * * * * * * * * * * * * * * * * * //

dimensions      [0 2 -1 0 0 0 0];

internalField   nonuniform List<scalar> 
10052
(
0.000108761053641814
0.000108504703737712
0.000896614119252024
0.00011094537060654
0.000108064296312176
0.000893653919522953
0.000110703919346195
0.000910293994603682
0.000113478748760257
0.00010742573772945
0.000888934666824588
0.000110255393569142
0.00209779527632235
0.000907282924598281
0.000113240915444132
0.000927242982330981
0.000114928412372403
0.000106555647346938
0.000882466074509159
0.000109593377894368
0.00208610713101437
0.00090247447232429
0.00011277175699991
0.00338974725520657
0.00211528411978516
0.000924130542422899
0.000114688442800226
0.000937508995666671
0.000105396404104573
0.000873902244215701
0.000108697893523323
0.00207019817961633
0.000895859648171254
0.000112078314881581
0.00336968062797231
0.00210349127521307
0.000919174408846791
0.000114208482864238
0.00461493352859919
0.00340266828425265
0.00213506971640186
0.000934281106051852
0.00011433078915509
0.000103877337596047
0.000862672438585643
0.000107502893796688
0.00204917165581868
0.000887101584921842
0.000111141340374174
0.00334261253249068
0.00208740917325213
0.000912356092065789
0.000113485167292013
0.00458581282096192
0.00338250938362418
0.00212306046530101
0.000929184779562012
0.000113832018379136
0.00571040289457881
0.00461931706966905
0.0034124648746438
0.00214476353843184
0.000932429622201688
0.000112651311564323
0.000102248267446432
0.000847766927884231
0.000105938377970776
0.00202170111976369
0.000875611335069696
0.000109898508251908
0.00330703310601631
0.00206615672980754
0.000903332169967341
0.000112514219254894
0.00454692115617696
0.00335530058951269
0.00210669761027261
0.000922192894697639
0.000113099833219403
0.00567216483071356
0.00459015311809986
0.00339208442168044
0.00213251125287395
0.000927229461838545
0.000112153257140284
0.00666065303711855
0.00570616741345054
0.00461389969699501
0.00340927356542644
0.0021364863383982
0.000920617580951626
0.000110446925602051
0.000100340552358706
0.000825733955169241
0.000104302369029465
0.00198568423916513
0.000860342828502574
0.000108276206112117
0.00326088027763688
0.00203838481711227
0.00089151207674429
0.000111234278329188
0.00449617304281449
0.00331953925515911
0.00208509327765145
0.000912961577413894
0.000112116467926798
0.00562151254080629
0.00455119108426142
0.0033646108941538
0.00211588952700937
0.000920158598966816
0.000111421195590693
0.00661357183805749
0.00566794866201661
0.00458455842919163
0.00338862178559623
0.00212405763423256
0.000915394505639187
0.000109943984930917
0.00747221807365669
0.00665050198153056
0.005685822749947
0.0045918259437812
0.00338625936822817
0.00211134548696746
0.000903460268760106
0.000108025195153887
9.80092874593192e-05
0.000796783258986175
0.000102346580346895
0.0019368008715968
0.000837661026296007
0.000106576743360478
0.00320134273285801
0.00200195584295929
0.00087581867945982
0.000109571504365541
0.00443086370815649
0.00327315751071792
0.00205689570529281
0.000900915314123236
0.000110827378470183
0.00555584735469016
0.00450035281997108
0.00332854678887009
0.00209400098015016
0.000910864332430565
0.000110439559662295
0.00655161057526503
0.00561730722172172
0.00454540266273592
0.00336088718932034
0.00210730468176952
0.000908335141625564
0.000109208077875468
0.0074167374943121
0.00660348715271946
0.00564748884892124
0.00456224614584133
0.00336539361381533
0.00209883736890719
0.000898246534423063
0.000107511431836969
0.00815988317203526
0.0074589974568046
0.00661901884551726
0.00564487946267177
0.0045485553120602
0.00334318467414102
0.00207424008269539
0.000883402840492003
0.000105336433628064
9.52043038461823e-05
0.000759974849922831
9.99573159337381e-05
0.00187411034971752
0.000807867535322708
0.000104551488382442
0.00312418487512885
0.00195238048490272
0.000852540082360747
0.000107787465336227
0.00434763967278052
0.00321332698522551
0.00201994075152344
0.000885003395079333
0.00010915977207227
0.00547188110575785
0.00443493870955704
0.00328183565746518
0.0020655203921656
0.000898805191800935
0.00010915514933964
0.00647170228161686
0.00555165487190916
0.00449437233845372
0.00332458057926054
0.00208533876145691
0.000899106700001568
0.000108226088976889
0.00734410390620607
0.0065415983210563
0.00559674134560764
0.00452289037812252
0.00333752128070411
0.00208209588020148
0.000891244812754373
0.000106771253907036
0.00809653441175446
0.00740360815637272
0.00657193785458527
0.00560636269722643
0.00451879096529371
0.00332222936181099
0.00206174515564812
0.000878217566914584
0.000104812137762726
0.0087395781123988
0.00814520939273101
0.00742056211748661
0.00656289197950284
0.00558062720244754
0.00448333704242549
0.00328288374307004
0.00202818449560515
0.000860556035886454
0.000102245972414017
9.17599190374933e-05
0.000714154586532549
9.70553622612885e-05
0.00179548428481737
0.000769961291607752
0.000102084077321552
0.00302686348076691
0.00188899666382459
0.000821897638487511
0.000105699921443912
0.00424229163586304
0.00313571370136171
0.00196970147722876
0.000861718796869499
0.000107268139590744
0.00536568041877629
0.00435158669238147
0.00322164760879913
0.00202833379398456
0.000883039743375919
0.000107500275841483
0.006370007840322
0.00546771346945047
0.00442879029525117
0.00327768625173771
0.00205689722660954
0.000887211293316314
0.00010695463319385
0.00725081319629671
0.00646177829984023
0.0055310178746404
0.00447172549397046
0.00330118840154739
0.00206026606339143
0.000882142578555549
0.000105792887456448
0.00801395264548418
0.00733108085161323
0.00651001117891887
0.00555550148818009
0.00447935668893574
0.00329439756767013
0.00204512762312088
0.000871298056559152
0.000104066214899327
0.00866894294370009
0.00808196202737239
0.00736513241964433
0.00651567916589144
0.00554198422606989
0.00445352509582411
0.00326197224319761
0.00201577435136083
0.000855420801966518
0.000101714415838255
0.00922574712236572
0.00872404252813958
0.00810258174182404
0.00735349932073978
0.00648020869427979
0.00549215611569526
0.00439684193993855
0.00320697616412206
0.00197347711846754
0.000834189018760621
9.8660281996247e-05
8.78681633573644e-05
0.000658318193204429
9.35535158662144e-05
0.00169837878751894
0.00072271555194864
9.90798644770081e-05
0.00290617314698274
0.00180952440862478
0.000782918465595838
0.000103162388543031
0.00410992895729369
0.00303802706855065
0.00190551977928647
0.000830751289577004
0.00010512462402945
0.00523250900334786
0.00424597482902027
0.00314364039048748
0.00197809273111728
0.000860694187087112
0.000105506121640033
0.006241984996798
0.00536155511363226
0.00434531218672407
0.00321743697517095
0.00202003340015914
0.00087186888005122
0.000105326253599482
0.00713250125932515
0.00636020133226997
0.00544706803403484
0.00440612143316314
0.00325444797053139
0.00203217319610448
0.000870493244370681
0.000104531614391998
0.00790822535392906
0.00723791887327679
0.00643021018430278
0.00548976699251892
0.00442826801710981
0.00325829282778769
0.00202358230553456
0.000862357116414296
0.000103088381330424
0.00857718710173462
0.00799950271374868
0.00729260520473535
0.00645371588010566
0.00549113724416733
0.00441421349102409
0.0032343540757776
0.00199936725016531
0.000848610000672175
0.000100967005258681
0.00914844488339486
0.00865351411085943
0.00803930428069176
0.00729797563313246
0.00643293758126435
0.00545354522738184
0.00436715314821321
0.00318623374635026
0.00196121638891697
0.000829127482706127
9.81254876464863e-05
0.00963097054709067
0.00920947863245285
0.00867860399447181
0.0080276961677637
0.00725580712535003
0.00636994440340677
0.00537859303025075
0.0042887466078784
0.0031149884749499
0.00190897382566527
0.00080350825985418
9.45125506044788e-05
8.2826272713804e-05
0.000592454859352675
8.94474754250647e-05
0.00157999654529848
0.000665245672774918
9.54669489063475e-05
0.00275812888402953
0.00171138711654396
0.000734487838597
0.000100073841225695
0.00394693222409471
0.00291693681240041
0.00182513141211406
0.000791459366146887
0.000102544380478146
0.00506655337412107
0.00411355892981323
0.00304558592915349
0.00191381295730923
0.000830429702462521
0.000103328951276956
0.0060822237619483
0.00522843252465488
0.0042396338308625
0.00313962651256984
0.00197090395158283
0.000851169515877937
0.00010326852570863
0.00698401323002033
0.00623233412586213
0.00534099058955239
0.00432279895112435
0.00319469084511121
0.00199612009172924
0.000855666506204905
0.000102926699166048
0.00777449890650485
0.00711977294444668
0.00632874192741135
0.00540595957000325
0.0043629676828562
0.00321207187352981
0.00199603520810898
0.000850984588936247
0.000101838039821653
0.00846002500746226
0.00789392401809878
0.00719951348499614
0.00637401042326209
0.00542561086579517
0.00436348758892364
0.00319870550772045
0.00197821236116688
0.000839856394165733
9.99941667044113e-05
0.00904832968082471
0.00856189180243845
0.00795686351617728
0.00722546982899466
0.00637109025358792
0.00540294517948837
0.00432819469664316
0.00315899009298125
0.00194509942094583
0.0008224529737877
9.73823533807903e-05
0.0095476510276401
0.00913228935188384
0.00860805155111924
0.00796435498737017
0.00720029563466679
0.00632281041233284
0.00534023031285815
0.00425936406054414
0.00309453769431951
0.00189692796222062
0.000798548773460679
9.39799222921304e-05
0.00996628553010374
0.00961398556756442
0.00916186471837413
0.00859781643088723
0.00791793801749058
0.0071263092486111
0.00623038941822277
0.00523793935422594
0.00415716773617404
0.00300493790268346
0.00183289353895059
0.000767749690922644
8.97473154044381e-05
9.28006460156931e-05
0.00051731515037181
8.45716333492393e-05
0.001438418088012
0.000597465325855675
9.11992018187833e-05
0.00257841391443992
0.00159192775988564
0.000675946929879903
9.63623195121171e-05
0.00374751246247397
0.0027685379390536
0.00172605616494907
0.000742969535268332
9.94132153669811e-05
0.00486192690203863
0.00395049678043626
0.00292419120920371
0.00183346154251875
0.000792125955629288
0.000100733401866716
0.00588415378464302
0.00506246612077138
0.00410725400285222
0.00304186300218519
0.00190776649692312
0.000822401268905716
0.000101048495854725
0.00679919939141626
0.00607277299670114
0.00520806343722792
0.00421758953315875
0.00311807120916328
0.00194901470396988
0.000836535052608473
0.000100910920593873
0.00760703463081748
0.00697149802395443
0.006201099345053
0.00530023321231481
0.00428029598164688
0.00315334778613438
0.00196104732184811
0.000836635248907986
0.000100259183478698
0.0083121595916455
0.00776038661134239
0.00708154172917105
0.00627281803093926
0.00534227583255479
0.00429888859925111
0.00315329960954264
0.00195132180931953
0.000828784131449057
9.87587423385695e-05
0.00892078281054279
0.00844489197466475
0.00785138247713717
0.00713255366745032
0.00629173046593911
0.00533795475223033
0.00427813684126318
0.00312400008255505
0.00192442849464803
0.000813918981034692
9.64220261920199e-05
0.0094400226490133
0.00903231946767639
0.00851646102614975
0.00788198262211922
0.00712800778375304
0.00626136136391838
0.00529017113851773
0.00422100146501828
0.00306782762500069
0.00188118385327907
0.000792045583295503
9.32493889469147e-05
0.00987761583717733
0.00953078654534819
0.00908465977546694
0.00852723083268064
0.00785468329410236
0.00707105785543967
0.00618366571159812
0.00520007342840192
0.00412828378313954
0.00298490365605917
0.00182113175428933
0.000762925758884666
8.92252635650711e-05
0.0102415155516516
0.00994861647960928
0.00956455536282831
0.00907637143421508
0.00847823405707296
0.00777190443816427
0.00696294926377024
0.00605842380750915
0.00506684481654755
0.00399880370585895
0.00287367895778487
0.00174289113991989
0.000725994683105193
8.43052871756461e-05
7.53275860423348e-05
0.000451809565361282
7.90217888889927e-05
0.0012731435888644
0.00052041001327733
8.62359091417511e-05
0.0023623260782382
0.00144903856707694
0.000607354658756654
9.19857872044461e-05
0.00350517529108745
0.00258850703468999
0.00160582578537769
0.000684690353156567
9.5651353215045e-05
0.00461152491182875
0.00375114382936234
0.00277565407170258
0.00173477082472431
0.000745004572365876
9.75916047016102e-05
0.00563958132234218
0.00485809417768635
0.00394441588727417
0.00292104157498723
0.00182898474623252
0.000785885667400732
9.8441524173287e-05
0.00657055289862554
0.00587495330583751
0.00504245185106303
0.00408585450419692
0.00302162386061056
0.00188803722541155
0.00080970269201806
9.85776787967318e-05
0.00739896269812742
0.00678695441725136
0.00604191169157176
0.00516794475206358
0.00417630265769389
0.00307882224349329
0.0019163969081268
0.000818457145100768
9.82884848551334e-05
0.00812732801168398
0.00759316204279363
0.00693357396081929
0.00614568713188135
0.00523737859079873
0.00421740749495978
0.00309596313306836
0.00191742924002456
0.000814914171911017
9.72110597474089e-05
0.00876012255951141
0.00829723141502184
0.00771805613505505
0.00701496073062709
0.00619118168766898
0.00525553691640319
0.00421463460560211
0.00307964934556494
0.00189829300529809
0.000803178018733234
9.52106369962497e-05
0.00930318233892928
0.00890495010717262
0.00839957992631182
0.00777674297608482
0.00703557311634819
0.00618273808399366
0.00522610583414847
0.00417192384498832
0.00303369410334269
0.00186109587273269
0.000783771664291533
9.23126187966742e-05
0.00976334117013192
0.00942331810631778
0.00898473750334322
0.00843575482051109
0.00777263314631819
0.00699933809988643
0.0061229845393699
0.00515088747140033
0.00409077278327068
0.00295889268601911
0.0018058522313758
0.000756639910810469
8.85217837113102e-05
0.0101481658188606
0.00986007603497178
0.00948135269804329
0.00899916818957299
0.00840781504535095
0.00770904667912933
0.00690829912522687
0.00601243325694938
0.00502974824258255
0.00397062014206471
0.00285418995004353
0.00173148824375915
0.000721358403576172
8.3816073397866e-05
0.0104654614106757
0.0102232302077136
0.00989766643140874
0.00947521099069176
0.00894869441197256
0.00831814603638027
0.00758740526008246
0.00676197735712172
0.00584951303183579
0.00486060922764344
0.00380891360564071
0.00271675330171389
0.00163560591768524
0.00067668012415128
7.79236220092567e-05
5.8534221208944e-05
0.000355505315339465
7.92771899485642e-05
0.0010896639717709
0.000439043267550784
8.04145728041454e-05
0.00210496849700031
0.00128146413778287
0.000529941693823265
8.68979603614265e-05
0.00321202735385259
0.00237208912421208
0.00146231231733265
0.000616821539915463
9.12150592450458e-05
0.00430609915598782
0.00350900719824779
0.00259571561993812
0.00161544728256267
0.000688597877567683
9.38181843641071e-05
0.00533958659797486
0.00460806677568563
0.00374559597737666
0.00277351201305593
0.00173253224777106
0.000741105348743494
9.52990733675991e-05
0.00628866687881983
0.00563067847876988
0.00483869329480384
0.00392405257129515
0.00290269093938973
0.00181201860677643
0.000775368820435416
9.59448858131546e-05
0.00714184814457647
0.0065586533031269
0.00584466364784197
0.00500337489805736
0.00404619140756385
0.00298461623459463
0.00185807437669975
0.000794128969165204
9.58593002600912e-05
0.00789802546455201
0.0073853922377964
0.00674950623332012
0.00598731171040308
0.00510640445741844
0.0041153114014711
0.0030238188940129
0.0018747236983776
0.000797605809048986
9.52924276036461e-05
0.00855964386941213
0.0081126574016128
0.00755118645559289
0.00686762893053455
0.0060650732724015
0.00515205613049465
0.00413484147526507
0.00302394638878336
0.00186556994985817
0.000789798839019613
9.37026667645558e-05
0.00913112790137964
0.00874451213383255
0.00825216004154452
0.00764388191916645
0.00691879417314231
0.0060833537227699
0.00514510754490821
0.00410990749174722
0.00299063168429135
0.00183582251863376
0.000773403880318087
9.11394211847061e-05
0.00961832282998255
0.00928667299759268
0.008857511009742
0.00831917951947383
0.00766801298206342
0.00690786095763543
0.00604558451300276
0.00508817858289294
0.00404300287347895
0.00292582401473691
0.00178645971202543
0.000748677172071733
8.76264721427901e-05
0.0100281129160676
0.00974597680495034
0.00937395200153855
0.00889941052085691
0.00831677060166353
0.00762774846785624
0.00683760475858232
0.00595295068825554
0.00498180005271808
0.00393423267030765
0.00282905509847637
0.00171678235896007
0.000715376498829153
8.31640396210396e-05
0.0103680877502581
0.0101300184136159
0.00980913679016861
0.00939204903259882
0.00887174334547937
0.00824827092031555
0.00752536032695093
0.00670833259516277
0.00580461671485081
0.00482457470839167
0.00378164055068655
0.00269794260275786
0.00162465916718374
0.000672528778881027
7.76626774335077e-05
0.0106459925293107
0.0104466485223775
0.0101710519486219
0.00980518233340036
0.00934085540511551
0.00877676035288862
0.00811527498149277
0.00736035780299681
0.00651803755906621
0.00559777612892479
0.00461301169229952
0.00358099633505226
0.00252776898692286
0.00150563616901987
0.000616566475753676
7.01920104112759e-05
3.92092726716731e-05
0.000250090338203883
6.06434410281474e-05
0.000869391368543586
0.000361233599148366
8.22211623123454e-05
0.001800911901013
0.00109079179537211
0.000447150224086899
8.09394028881098e-05
0.00285855010632743
0.00211399779301516
0.00129407345513687
0.000540607105346485
8.60644554145571e-05
0.00393451565651307
0.00321626787204494
0.00237958274875835
0.00147344138091152
0.000623219293382396
8.93658532043508e-05
0.00497230713152641
0.00430332118806444
0.00350437752290949
0.00259511187028918
0.00161631342567301
0.000687733540347772
9.15268882741195e-05
0.00594151764119716
0.00533131504118421
0.00458970773736829
0.00372678350241778
0.00275776076031992
0.00171921826677333
0.000733390124624383
9.28020315125895e-05
0.00682505117925737
0.00627722164170428
0.00560127418003458
0.00480100757006967
0.00388655842193666
0.00286873031888901
0.00178549691314199
0.000762197812502671
9.32006068678822e-05
0.00761502347873563
0.00712866815718177
0.00652191587198684
0.00579127929903924
0.00494382431495981
0.00398787747966144
0.00293281303306497
0.00181994255888879
0.000775699534076682
9.29313904444665e-05
0.00831133481414285
0.0078836775947288
0.00734395566637406
0.00668452432694752
0.00590820153035259
0.00502315391473849
0.00403525918386539
0.00295433633934449
0.00182479364388402
0.000773249453201457
9.18443735121985e-05
0.00891680549490968
0.00854431018931341
0.00806798026021843
0.00747775785167772
0.00677268893027641
0.0059589422796222
0.0050436753153313
0.00403226931800297
0.00293681556457991
0.00180434980092645
0.000760545641830757
8.96847239462551e-05
0.00943630693227658
0.0091148610628648
0.00869734672803278
0.00817231024292425
0.00753614123874061
0.00679252106020388
0.00594798974686461
0.00500914577379033
0.00398287803415937
0.0028842982101447
0.00176217557941338
0.00073873447933735
8.65105409583423e-05
0.00987603365273639
0.00960117255438833
0.0092374782901132
0.00877255823694176
0.00820095823120967
0.00752432301761387
0.00674768301459707
0.00587733328125167
0.00492091971848881
0.00388812179765092
0.00279727947744465
0.00169822002828925
0.000707803592016733
8.2331976115304e-05
0.0102431052298407
0.0100101559054211
0.00969512751801837
0.00928486656537249
0.00877253098664497
0.00815817167638106
0.00744536616554855
0.00663919955654803
0.00574681444637678
0.00477825893684669
0.00374666645828943
0.00267387861068706
0.00161069124674448
0.000666874362038404
7.70701567800924e-05
0.0105452198722587
0.0103494204442806
0.0100778655701925
0.00971673400105132
0.00925803377005284
0.00870050520662512
0.0080464361339064
0.00729961431849905
0.00646585253190008
0.00555436665058846
0.0045783480300624
0.00355485077205721
0.00250978200080886
0.0014954496597393
0.0006140974900013
8.42671952331909e-05
0.0107900959485401
0.010626745777897
0.010393524661271
0.0100760658730685
0.00966536923699653
0.00915903754881887
0.00855819080497632
0.00786534808749265
0.00708487958317068
0.00622438594246107
0.00529583920576997
0.00431596204990109
0.00330618884994166
0.00229731127510107
0.00134405954120219
0.00054023704803119
6.10875870601159e-05
1.83032764392905e-05
0.000142997472577895
4.09444818149593e-05
0.000610787907783491
0.000257999036100677
6.28377356372963e-05
0.00143591240528757
0.000876073572902759
0.000371709013405707
8.44627031901407e-05
0.00243266356601465
0.00180785734540839
0.00110167572243955
0.000459089239614035
8.00526942528917e-05
0.00348323595706683
0.00286335321179689
0.00212159833294588
0.00130722138898594
0.000549964349160201
8.4201654044869e-05
0.00452316926872936
0.00393291113235259
0.0032130205558198
0.00238101316881921
0.00147840886631478
0.000626057997426805
8.70811354825418e-05
0.00551503807212409
0.00496512505595856
0.00428665703161747
0.0034877180002844
0.0025827735987555
0.00160775723959787
0.000683548055740189
8.90434745670688e-05
0.00643489712742481
0.00593080015107457
0.00530337146639862
0.00455406304133861
0.00369215071259214
0.00272773485401124
0.00169711367777449
0.000723102500212883
9.00667026987992e-05
0.00726666405599915
0.00681242168190847
0.00624158884048646
0.00554969119524585
0.00474388301310429
0.00383150670135721
0.00282081059717746
0.00175125062783727
0.000746262401028276
9.01527596710611e-05
0.00800538778555586
0.00760109340446188
0.00708803837532673
0.00645834543996844
0.00571429803288769
0.00486355159286955
0.00391146400425786
0.00286727160776059
0.00177378183584854
0.000752759066122783
8.95709185986364e-05
0.0086518390942155
0.00829634400950271
0.00783959264090009
0.00727163274300045
0.0065913270740432
0.00580442681452783
0.00491761554357439
0.003935744924236
0.00286998277644608
0.00176542374804306
0.000744737070798399
8.78973989014622e-05
0.00920998442617786
0.00890083683370773
0.00849758157581771
0.00798898632373032
0.00737146179372726
0.00664844140092119
0.0058260593806969
0.00491043613843323
0.00390787843651964
0.00283263593168794
0.00173207351086073
0.000726447374670869
8.51252194044977e-05
0.00968549057408298
0.00941942004450742
0.00906597734065796
0.00861303397252564
0.00805526109982644
0.00739418733529016
0.00663454574046246
0.00578223861114063
0.0048444489282153
0.00383032728724111
0.00275756912458239
0.00167507966200774
0.000698361709412615
8.13102627086918e-05
0.010085057683337
0.00985830848162039
0.0095505246765848
0.00914883810781223
0.00864658877738449
0.00804380132740009
0.00734385201362844
0.00655152703942238
0.00567360479985613
0.00471972155554957
0.00370259551462059
0.00264365291525466
0.00159313933101266
0.000659734320006786
7.63411528250458e-05
0.0104161152954505
0.0102246413644205
0.00995811425373458
0.00960299650201192
0.00915151075175072
0.00860243433313792
0.00795793020886533
0.00722156778303835
0.00639888337290078
0.00549877078242193
0.00453408637562657
0.00352159951433258
0.00248702056083023
0.00148236944267382
0.000607960620669819
6.94583457855961e-05
0.0106865018921613
0.0105261246727553
0.0102963347091408
0.00998299962860481
0.00957734764693314
0.00907706306658593
0.00848319831935123
0.00779811775538036
0.00702598561485716
0.00617415654383618
0.0052543335689289
0.0042829902624861
0.00328139731444621
0.00228036859824249
0.00133513403514261
0.00054845266636987
6.01320889591457e-05
0.0109039129838466
0.0107705033370352
0.0105729331887457
0.0102966098276559
0.0099318715371582
0.00947541361591837
0.00892725856797149
0.00828858474265614
0.00756215263907796
0.00675365569784638
0.00587286570605149
0.00493457642011301
0.00395907461698004
0.00297251440022249
0.00201189679123478
0.00113743035316659
0.000434075679474815
3.27853277697229e-05
3.6552853558935e-05
1.80727685490719e-05
0.0003239061098076
0.000151918008486121
4.16876086693861e-05
0.000996777949265609
0.00061914920777397
0.000269817181956286
6.41348367269231e-05
0.0019185774349847
0.0014429845056406
0.000888317110868987
0.00038570931957191
8.40777322783908e-05
0.00293603548043515
0.0024377471450416
0.00181482724380654
0.00111669625808432
0.000471161947914686
7.81964484127469e-05
0.00397447285378937
0.00348352748220435
0.00286169922672099
0.00212524382790648
0.00131705456735307
0.000556904308012562
8.19315551860704e-05
0.00499070971395783
0.00451800815229153
0.00391885331771308
0.00319909181521674
0.0023728468122069
0.00147576007989157
0.000626047458228955
8.46292658554429e-05
0.00595365433480469
0.00550580942928437
0.00493964658801032
0.00425389093860666
0.00345668802318287
0.00255764552459456
0.00159121106419091
0.000676821088503976
8.63425074091533e-05
0.00683793240811925
0.00642317955225379
0.00589700768385617
0.00525435397007688
0.00450015880569976
0.00364116166906632
0.00268462773831895
0.00166759873509569
0.000710056585382258
8.70156939517613e-05
0.00762949711382485
0.00725333334623845
0.00677307146028871
0.00618012777223858
0.00547568841277845
0.00466714606817847
0.00375920803296744
0.00275972094897649
0.00170909201691581
0.000726568391484391
8.6812401278257e-05
0.00832607458211231
0.00799083522785865
0.00755789594413349
0.00701732964239748
0.00636756442766494
0.00561370414335649
0.00476185556313929
0.00381630072236858
0.00278720411614991
0.00171734645390835
0.000725401725695741
8.57222917546122e-05
0.00893074909846548
0.00863623316698224
0.00825026101539095
0.00776184950885303
0.00716735380989708
0.00646981938580966
0.00567485856742065
0.0047880296305462
0.00381495443367817
0.00276879511002284
0.00169504649034714
0.000711404513056104
8.34201441973393e-05
0.00944900799812887
0.00919341649993525
0.00885243536426744
0.00841423824947325
0.00787361181384685
0.00723189889239397
0.00649344522681663
0.00566367251459394
0.00474919792785845
0.00375849359951001
0.00270837834148385
0.0016465109067343
0.000686714466894919
8.00249358667547e-05
0.00988739092734674
0.00966804744253364
0.00936912044102938
0.00897806751483628
0.00848842252022776
0.00790015018405309
0.00721636259751785
0.00644147260224943
0.00558180491540381
0.00464646728764465
0.00364761495527117
0.00260607858539334
0.00157133404907729
0.000651037970488399
7.55998617855053e-05
0.0102531402074652
0.0100668404099726
0.009806495453274
0.00945890744747626
0.00901653721052121
0.00847818260060509
0.00784583755903904
0.00712279436339136
0.00631424023475408
0.00542865468657856
0.00447844744744222
0.003479982948478
0.00245864476929655
0.00146598295646668
0.000601348346889247
6.86028032258748e-05
0.0105540203300343
0.0103972337433807
0.0101716842719552
0.00986356903187524
0.00946437839757407
0.00897187313798012
0.00838700946689565
0.00771195395417944
0.00695060865759875
0.00611001031408522
0.00520150605735558
0.00424122758860011
0.00325020415372868
0.00225915997325294
0.00132274463153841
0.000531988040694384
5.89964275698151e-05
0.0107980124656881
0.0106670647078308
0.010472359578517
0.0101995740095845
0.0098393122584928
0.0093883835906935
0.00884676757142455
0.00821550658324097
0.00749716901660858
0.00669720851021213
0.00582511912868955
0.00489540873327521
0.00392812796782961
0.00294933497918906
0.00199621902570851
0.00113082452112386
0.000430320103128552
3.21887477111056e-05
0.0109927774613899
0.010884052017454
0.0107162212172664
0.0104745898985553
0.0101489787939111
0.00973532396866061
0.00923268909816777
0.00864101793817331
0.00796151965690719
0.0071980212081882
0.00635806169926518
0.00545380052057846
0.00450293869353464
0.0035294353054214
0.00256493033840782
0.00165540822328002
0.000867437391096509
0.000275326548971262
1.07556837870045e-05
6.53384173761757e-05
3.88202999805721e-05
1.76151622083645e-05
0.000490577023585957
0.000331688981867182
0.000160997588202972
4.12116309063496e-05
0.00130646451922142
0.00100403755483796
0.000632932012859057
0.000282712217130788
6.29604191139539e-05
0.00227853050340931
0.00192418867526059
0.00145019998874265
0.00090477670260372
0.000399396863852739
8.16009454873353e-05
0.00330492651553788
0.00293910544894864
0.00243749760430076
0.00182017568775715
0.00113105651340126
0.000481816610403562
7.5915632288078e-05
0.00434407810119311
0.00397321815971652
0.00347312332698609
0.00285076126117059
0.00212159817028166
0.00132106788544884
0.000561385612007242
7.95352471265875e-05
0.00535849473033579
0.00498462086348173
0.00449664306408909
0.00388994775770106
0.00317226126598027
0.00235345517958919
0.00146583718576725
0.000623507614662052
8.19828442232342e-05
0.00630919732115879
0.00594377699061879
0.00547532890658869
0.00489444348046442
0.00420408185101065
0.00341055145061039
0.00252031996853503
0.00156743445049464
0.000667175958295476
8.3335992164878e-05
0.00716796132266974
0.00682563410505861
0.00638606878431709
0.00583877979640925
0.00518412592288529
0.00442782414331186
0.00357390923302323
0.00262892013916443
0.00163027879899978
0.000693335797467306
8.36167000940891e-05
0.0079269488069377
0.0076155661014094
0.00721156212852376
0.00670479478362659
0.0060927010139668
0.00537932163554351
0.00457020869251427
0.00366908038103036
0.00268463782440885
0.00165744406361014
0.000701692578181205
8.31010312571265e-05
0.00858829754167478
0.00831091943414482
0.00794570809269044
0.00748197247580544
0.00691583200840663
0.0062496819523126
0.00548845070951715
0.00463705206526532
0.00370034724494109
0.00269020643180699
0.00164971376812839
0.000693132297353111
8.13543884535633e-05
0.00915786457522469
0.0089145600198275
0.008588528133522
0.0081683116013306
0.00764878495694818
0.00703098081310006
0.00631872510101933
0.00551685846390463
0.00463133017351493
0.0036697741777735
0.00264784826732959
0.00161151994905691
0.000672493594447479
7.84181010498223e-05
0.00964254644012559
0.00943190050237763
0.00914364145901959
0.00876560526346157