/*--------------------------------*- C++ -*----------------------------------*\
  =========                 |
  \\      /  F ield         | OpenFOAM: The Open Source CFD Toolbox
   \\    /   O peration     | Website:  https://openfoam.org
    \\  /    A nd           | Version:  12
     \\/     M anipulation  |
\*---------------------------------------------------------------------------*/
/*   Windows 32 and 64 bit porting by blueCAPE: http://www.bluecape.com.pt   *\
|  Based on Windows porting (2.0.x v4) by Symscape: http://www.symscape.com   |
\*---------------------------------------------------------------------------*/
FoamFile
{
    format      ascii;
    class       volScalarField;
    location    "100";
    object      omega;
}
// * * * * * * * * * * * * * * * * * * * * * * * * * * * * * * * * * * * * * //

dimensions      [0 0 -1 0 0 0 0];

internalField   nonuniform List<scalar> 
10052
(
4.45814666853124
4.44663292812877
1.51763940790107
4.38975851107611
4.4286115913178
1.51361647197815
4.37848700945137
1.49616037428338
4.31204513679523
4.40293301287017
1.50779290332172
4.3612645092925
0.939050734511736
1.49218480276304
4.30072905525441
1.46676379992361
4.23320751607878
4.36788960695118
1.50008390624811
4.33661411138512
0.935465522064813
1.48646543738615
4.28389884783232
0.726513850199993
0.93099946340451
1.4627961379445
4.22170257564997
1.43874838284952
4.32125214082355
1.49014179015675
4.30253111356304
0.931069523750153
1.47890418196356
4.25967259106844
0.724037067935184
0.927450103857152
1.45712673138765
4.20489456963748
0.624710682893215
0.723169329269158
0.917961183220707
1.43477913053956
4.15489755469186
4.26017737212394
1.47763126384287
4.25722413888818
0.925681687050834
1.46914976587096
4.22629730402699
0.721065761164709
0.923084511409893
1.4496555419261
4.18086181385383
0.622880664980495
0.720709329573375
0.914417567656707
1.42904696935099
4.13743270274417
0.56925197871691
0.623274799630384
0.716620112262379
0.903742317222334
1.41199197488747
4.09367412757597
4.18092812852291
1.4626632290587
4.19790292672435
0.91921283220104
1.45689200507
4.18185084598368
0.717542220499411
0.917731755563284
1.4400451410521
4.147810176563
0.620732596554328
0.717742782289686
0.910056918638651
1.42156386477474
4.11352303170887
0.567857204075134
0.621453580879762
0.714147560813823
0.900165233409033
1.40600665390402
4.07573050428101
0.536735686144667
0.568594657647684
0.619561914592909
0.708340737645184
0.890432797756993
1.39164277796041
4.02560553282974
4.08055019723861
1.44917949451916
4.12131118959193
0.911832398215068
1.44228539312699
4.12373780317149
0.713457030204385
0.911311921590999
1.42799256666938
4.10402325791308
0.618258656811261
0.714221198440949
0.904716486856379
1.41197560658316
4.08062471415513
0.566264393813106
0.619301409377091
0.711160202980531
0.895759785968377
1.39838465420155
4.05160377011346
0.535665196474436
0.567204840905509
0.617720420607649
0.705822774407859
0.886784941088108
1.3854991244913
4.00721877400388
0.516796952268573
0.536349358210334
0.566155216303538
0.614177100842524
0.69948331625846
0.877704300672475
1.36969939872775
3.94425390002009
3.95581432675063
1.43559607655344
4.02452187706244
0.90461682023843
1.4295239445669
4.04872582193551
0.708924041524509
0.904004223749525
1.4136820564515
4.04701568943411
0.615484881343835
0.710138049806791
0.898319728224808
1.39998369036457
4.03707720951543
0.564492464713981
0.616818315009797
0.707611692732947
0.890371211741888
1.38868699347343
4.01855598116145
0.534486622972743
0.565603936391582
0.615537842149975
0.70277773060027
0.882278311114273
1.37767687861323
3.98274629286503
0.515983555189488
0.535282005922128
0.564741804135156
0.612284272969888
0.696889970025259
0.873946155439648
1.36334623681234
3.9255015238864
0.504237213300011
0.516484378680195
0.534451295514273
0.562228786380473
0.607795250955453
0.690317958115915
0.86423299663115
1.34377004678463
3.84807995740812
3.80237985543295
1.4218083018557
3.90392256572135
0.897407907549081
1.41675169346818
3.95376228851618
0.704328941044016
0.896942146379226
1.4012653199916
3.97314156703525
0.612509519985865
0.705609026342468
0.891050580559684
1.38574164553388
3.9804180164869
0.562592068978746
0.614031730739695
0.703495450886369
0.883917778394108
1.37657470516427
3.97509025394832
0.533238387819972
0.563818019355291
0.613014479757159
0.699157609744517
0.876769145564625
1.36775560006554
3.94966300274845
0.515133547837746
0.534093520257858
0.563106370815905
0.610038213507926
0.693748902264229
0.869296177904785
1.35528847585188
3.90077759486559
0.50363411113323
0.515673298916704
0.533358993932379
0.560761954557558
0.605824123991473
0.687622292246616
0.860333765444301
1.33719391161839
3.82902583563118
0.496222624313844
0.503944349539953
0.514811477709742
0.531260106424714
0.557287930705806
0.600811146895053
0.68055374341479
0.84904769348808
1.31319347834281
3.73602057303453
3.61781783558623
1.40836706970716
3.75575114811946
0.890402202038975
1.4040489041625
3.83517370816078
0.699832141015836
0.889838232962623
1.38903086550848
3.87955802117691
0.609546321773365
0.701034814322707
0.884029035899492
1.3729315023721
3.90762559339754
0.560674484812329
0.611040270098265
0.69892598927472
0.876561066870244
1.36205447480788
3.9192083950589
0.531993012347189
0.561898814818064
0.610176926862011
0.694950071891163
0.870160010020458
1.35538088620091
3.90646058120571
0.514301795082029
0.532829206912279
0.561274943911087
0.607434943814503
0.690007906770053
0.86361090138704
1.34511681356678
3.86760647205105
0.503052800593874
0.514812693686314
0.532134218179851
0.559060474742164
0.603482019489883
0.68435430062704
0.855516216037689
1.32890036532491
3.80410334734424
0.495793080014566
0.503343209182241
0.513975024257502
0.530113782616709
0.555742317104061
0.598740734070291
0.677737520600462
0.844996195717794
1.30640233146027
3.71675662410514
0.491104177238515
0.49594434875809
0.50238401651185
0.512013037038382
0.527185536773317
0.551739425245917
0.59331637846402
0.669870598774695
0.831740781230295
1.27776937189348
3.60621591994795
3.39719249042091
1.39593161623365
3.57676545379385
0.884113730589557
1.39208251843524
3.68993147856449
0.695696028216886
0.882949952678961
1.3770167382759
3.76340264426697
0.606925723453362
0.696525010708983
0.876970765878366
1.36064452883001
3.8161542220537
0.558944705354388
0.608066692831566
0.69429846417357
0.869319537915174
1.34783601291654
3.84794055903461
0.530885188277642
0.559956973578146
0.607121396751412
0.690256709061905
0.862551219314665
1.34039790162966
3.85121676535952
0.513581146395292
0.531562513371013
0.5592984072621
0.604496121749645
0.685643801314046
0.856772043530056
1.33244884000866
3.82449072666594
0.50256230280486
0.513964138313741
0.530822276316786
0.55714608592122
0.600758443296821
0.680454321938932
0.84962985006291
1.31847550727615
3.77090179806993
0.495433141891942
0.502751130964904
0.513077525989547
0.528821907999321
0.553944497905971
0.596276633843936
0.674323409023418
0.840004709631426
1.29789043820737
3.69175866765885
0.490816695387935
0.495516582860887
0.501757457509278
0.511122485265676
0.525960411937956
0.550095751244205
0.591132208007443
0.666925198214819
0.827539383832723
1.27078734975593
3.58687106379792
0.487867423595672
0.490844988344942
0.494464787208078
0.499831208810685
0.508496740156038
0.522625798096812
0.545810649648073
0.585294453677686
0.658118828079423
0.812191424352263
1.23717254620865
3.4559328841076
3.15182665589824
1.38420426641135
3.36418570380883
0.879338179419877
1.38147631357638
3.51517858404534
0.69242864391159
0.876796780626744
1.36577324356381
3.62202486957163
0.604941417408542
0.692358574427476
0.870119004085755
1.3484847451513
3.70299871759411
0.557747761284941
0.605408242056056
0.689709422383479
0.862044957390626
1.33453313745204
3.75839820803676
0.530146308619253
0.558197104563363
0.60406616154166
0.685439159279429
0.854743923890407
1.32412858405506
3.78120065275695
0.513132370298486
0.530427339107953
0.557285017017395
0.601309520695106
0.680729104865638
0.848795456947163
1.3169807884966
3.76967032765198
0.502273604002951
0.513221340831639
0.52949576081321
0.555065446760696
0.597666381104295
0.675883337623427
0.84253207957963
1.30552549575611
3.72797350785018
0.495223558833534
0.502243708941012
0.512180608691415
0.527425752488911
0.55191003017022
0.593400441360518
0.670242465569435
0.833913906911459
1.28724195888285
3.65867122868024
0.490637201245004
0.495145879698748
0.501128384625155
0.51015749114846
0.524571844628045
0.548177128379832
0.588528334949419
0.66335646040284
0.822380829532838
1.26209302947142
3.56195979917786
0.487693593032826
0.49055915889285
0.494011665343365
0.499150594861665
0.507527265868317
0.521302673089767
0.544054909810248
0.582987861869343
0.655043499843071
0.807852170292245
1.23003572193543
3.43668203625135
0.485860192471138
0.487630195667471
0.489438351722041
0.49209609569088
0.496712460864632
0.504655070441548
0.517849048255999
0.539626858045929
0.576780609128678
0.645327800264598
0.790399134537504
1.19088940934369
3.28138637331656
2.47684940487989
1.37177418292916
3.12031734697473
0.876898256842064
1.37236536324749
3.3085995872447
0.690787724501066
0.872147637002643
1.35570029536585
3.45263703484342
0.604218110767478
0.689025476690811
0.863949844172658
1.33669636127926
3.56560641983736
0.557558131698705
0.60337287268496
0.685424211913754
0.854882469645553
1.32102483789304
3.64788698159183
0.530156970187092
0.556966393356734
0.601299773890939
0.680618948873309
0.846884246195118
1.30913503749545
3.69327856081432
0.513223489052905
0.529653575237334
0.555435560112905
0.598075467863683
0.675554395157026
0.84018408456669
1.29892390716124
3.70075650309431
0.502372006003966
0.512744190937479
0.528286355026083
0.552920932189501
0.594278415128177
0.670674872112356
0.834156568272344
1.28969528212956
3.6737350972451
0.495290407877828
0.501932764226833
0.511377169300792
0.525994282398312
0.549678535587146
0.590113729886147
0.665438500244029
0.826563208629462
1.27405814255798
3.61615831059847
0.490655540002076
0.49491946769252
0.500572468028798
0.509175837254139
0.523055400606262
0.545991970151131
0.585477743764653
0.659086091322011
0.81609797420195
1.25126984631994
3.52917896662083
0.487657385991973
0.490368959002066
0.493604040226491
0.498453849548696
0.506465061626677
0.519792860685596
0.541997302199093
0.580233495861462
0.651320257011582
0.802543552030894
1.22120763852102
3.4120886371649
0.485773925834386
0.487457934724134
0.489127254340578
0.491588954479745
0.495952604707232
0.503586875879567
0.516413178812771
0.537749153104886
0.574348044865102
0.642128508524349
0.785942060245617
1.18364473595026
3.2625258419839
0.484650949861017
0.485644948629488
0.486292392498848
0.487224244973145
0.489287032172236
0.493421368828151
0.500765619166985
0.513045193943399
0.533341620565454
0.567949104536362
0.631714876224955
0.766501090773164
1.13832713081042
3.07742582238978
2.51405945095335
1.31184641136866
2.85615867697566
0.877628728466082
1.36404169085744
3.0706649890435
0.691987507389592
0.869974555090815
1.34683428740126
3.2531188452205
0.605722780222586
0.687286348179355
0.859168367221837
1.32557229716788
3.40160355330081
0.559126486234028
0.602569988657929
0.681906955831126
0.848207379144634
1.30735862245383
3.51416174906793
0.531533771298329
0.556718546016842
0.599116956985428
0.676019964919799
0.838955869383786
1.29365528348621
3.58537235219941
0.514292084387825
0.529619735347584
0.554090278371157
0.595087009800952
0.670325187237862
0.831478525612699
1.28185845418026
3.61486313444605
0.503161381136109
0.512798875536023
0.527419921945957
0.550903819966916
0.590766794118338
0.665021208399981
0.824691464591685
1.27088078306188
3.6061512365127
0.49583934291298
0.502002656161036
0.510824760708787
0.524653958212623
0.547342449345445
0.586470180444201
0.659908685637368
0.817838109847999
1.25795572924514
3.5627342955766
0.491009153861229
0.494964251223005
0.5002007242162
0.508266976209311
0.521473879313481
0.543570878165992
0.581969534143207
0.654042629913703
0.808516855218269
1.23792214246202
3.48728464483861
0.487854966459345
0.490370638635041
0.493329243044121
0.49781290565875
0.505362474460152
0.518125359935939
0.53963847675744
0.576995561287012
0.646862066648206
0.796092024072223
1.21027369920948
3.3799421809296
0.485846726121503
0.48741111560991
0.488900285741791
0.491113560884173
0.495157965865176
0.502402088074386
0.514762668861135
0.535539404638923
0.571438328594452
0.638258014552963
0.780508216607009
1.17474009617705
3.23865244480206
0.484628381458712
0.485560217710899
0.486094992850315
0.48685917733881
0.488700220327337
0.492561617055343
0.499582762151059
0.511484965782535
0.531335619986144
0.565391875361538
0.628403784152485
0.761952762700266
1.131017572616
3.05918309283853
0.483950360291041
0.484455941119126
0.484370665529068
0.48421356595002
0.484670530689748
0.486436914196066
0.490238410271503
0.497048597603284
0.508440630146016
0.527240391777635
0.559187247418791
0.617773849449039
0.740959610645605
1.07921753978668
2.84218475340678
2.46568133246824
1.32339163517741
2.41737311158234
0.879697528474962
1.34870200824756
2.81180465646513
0.698215382460089
0.871672958253468
1.33827414320086
3.02435124582779
0.611119084532548
0.688380246617926
0.856769581567978
1.31488300584444
3.20933636915631
0.563716958910229
0.603965242197337
0.679901989127932
0.84262621019694
1.29356728760921
3.35522642570133
0.535215171215075
0.55820800595849
0.59810771673322
0.672062766907864
0.831206003878726
1.27734698763938
3.45549305292094
0.517049270372541
0.530940048210563
0.553690782442782
0.592610901029887
0.665186414045731
0.822486075137226
1.2641748938796
3.51012886402844
0.505135976163592
0.513819887293632
0.527268077526416
0.549339865574792
0.587428040736371
0.659252969037864
0.815041907916352
1.25103939911663
3.52279988598216
0.497203498734432
0.502755183358936
0.510785147658857
0.52362268640348
0.545078162921512
0.582612752099352
0.653767781174612
0.807782116812593
1.23861944497066
3.49668320036023
0.491918340952523
0.495484924866896
0.500195053661748
0.507583409066211
0.519945523622676
0.54099378708106
0.578037852921745
0.648194416330792
0.799487561697486
1.22165838722449
3.43492817491418
0.48843117564569
0.490702500301281
0.493313390829653
0.497335384139428
0.504303125880351
0.516355065176704
0.536998980323752
0.573250871462788
0.641584252906353
0.788314492826108
1.196843842493
3.33903254538109
0.486178376784321
0.487592279978303
0.488853845045104
0.490753586437544
0.494395155264756
0.501146753291266
0.512919251897116
0.532990028416059
0.568006890595964
0.633621225158074
0.773919394127483
1.16377466285447
3.20760606609268
0.484778763735044
0.485622563093114
0.486011660386412
0.486564462112558
0.48812622622105
0.491642605285692
0.498254290255658
0.509678048394159
0.52896463385826
0.562327062379794
0.624399204456787
0.756422294049855
1.1220593206253
3.03639913643945
0.483970044788472
0.484434937859967
0.484261010160673
0.483962337474673
0.484225408559671
0.485748880038452
0.4892614866762
0.495737585606557
0.506746956599691
0.525103276137465
0.556511478589711
0.614368878691725
0.736344986521225
1.07153108521135
2.82441250865685
0.48356454982092
0.483773102501885
0.483238512320187
0.482410662691316
0.481876068736252
0.482183708549295
0.483829441218566
0.487400430154913
0.493775602828991
0.504399944854328
0.52183730467895
0.551223876205532
0.604506114215006
0.715037053872669
1.01472147563554
2.57032581012052
2.49631327127041
1.38572085063655
2.42906407789236
0.905600475417545
1.30936100756139
2.32324444283911
0.71420777633406
0.878811611419793
1.32588474516806
2.77612493281583
0.623558920587061
0.694591564683747
0.858275598305435
1.30350577225321
2.98989078880467
0.573491419710063
0.609211347096288
0.680653747689455
0.839039375928234
1.27906263757911
3.1699707070952
0.542782058316693
0.562683241198498
0.599221223715348
0.6694513699723
0.824094898964221
1.25989387336057
3.30215839747174
0.52266044687261
0.53453556770263
0.554971275312542
0.591209535856988
0.66050600965922
0.813302880267226
1.24495123293091
3.38481501418372
0.509102191550432
0.516512998220917
0.528431377124631
0.548661521437051
0.584505568295373
0.653414326192988
0.804865004981721
1.23105934381162
3.42164480992767
0.499922162935852
0.50468074087112
0.511684388138399
0.523258780264521
0.543189554093228
0.578819317125641
0.647355359467349
0.796979772592467
1.21633379601448
3.41609883390495
0.493735806271357
0.496812428699006
0.500852313167006
0.50737853458447
0.518676274291317
0.538419382182427
0.573795434568264
0.64159764032479
0.788940255259142
1.20209693176911
3.37071189933344
0.489614765720591
0.491583937341241
0.493758662812062
0.49719799256146
0.503431637589545
0.514589891682846
0.534145234947609
0.569015156399231
0.635430846410883
0.779039734996825
1.18053207550583
3.28827904558954
0.486917256570545
0.488147193543469
0.489125522521916
0.490631787708167
0.493766030206511
0.499896977435301
0.510928837057646
0.530111049045644
0.564018746239883
0.628122226405469
0.765986819415121
1.15036614156035
3.16825413400519
0.485202979769375
0.485938147165446
0.486145174615144
0.48643294305184
0.48764346512376
0.490724718486867
0.496819160351462
0.507638200313046
0.526212355204282
0.558701234740762
0.619598575697598
0.749731787674332
1.11113429170524
3.00699563843495
0.484169752180311
0.484575109405234
0.484287259693804
0.483811502839651
0.483831573085885
0.485048669518779
0.488195258596987
0.49424716729129
0.504770686482039
0.522565502821552
0.553296286319126
0.610247407939511
0.730731504253552
1.06265511246241
2.8034302262625
0.483607752337847
0.483794453563019
0.48319292310489
0.482247495630363
0.481544598025347
0.481636153877126
0.483021599325692
0.486290969125708
0.492324670721633
0.502566165605455
0.519569825506534
0.548440524082781
0.601029022070788
0.710291159637492
1.00504400200553
2.18721725254364
0.483365252255474
0.483402427147569
0.482605318360086
0.481381876842168
0.480257610482235
0.479692909290657
0.480051560953942
0.481712808070185
0.485208551671746
0.491366427235866
0.501529066477926
0.518023670635544
0.545391054289372
0.593939289254466
0.691869566542788
0.948646671814358
2.21610950095319
2.92571830771153
1.57752363892542
2.45521530268858
0.990418478624232
1.36395464786258
2.36164666010506
0.755608414833175
0.899673530504226
1.27841353815923
2.25286426569232
0.649935556920782
0.710938386086581
0.865945842153541
1.28796247750064
2.75192544049413
0.592513037641136
0.621431443529632
0.686506068981848
0.838883127554391
1.26272345591298
2.95942959227987
0.556972327580492
0.572274738499412
0.604085761741911
0.669403498888143
0.818342686623623
1.24053217398738
3.12417237568097
0.533044314940857
0.541967775777159
0.559148455537319
0.591802927533933
0.656928485693162
0.804219675811343
1.22363409067764
3.23738034551235
0.516395069671551
0.522029032615023
0.531803430165184
0.549567906856004
0.582525568859179
0.647823732102168
0.794127381295791
1.20911740979755
3.3010124474758
0.504875866895958
0.5085778017542
0.514210633028236
0.524139298019592
0.542106351801608
0.575339128298313
0.640738320451188
0.78558277772769
1.19413767862504
3.31862053608653
0.497028074952095
0.499481767527996
0.50265278788681
0.508063304760543
0.518006097608471
0.536124639383652
0.569481276466457
0.634490139732082
0.777048282753862
1.17907643112198
3.29290059429603
0.491767606041672
0.493365524123437
0.494990728189632
0.497688428709718
0.502989373157241
0.513021563789918
0.531217779079991
0.564372471146956
0.628408321947628
0.768138648376005
1.16095441042279
3.22630685493365
0.488294752137253
0.489303847080084
0.489932289581305
0.490945038686057
0.493439254232171
0.498787511388246
0.508887927623613
0.526955202543078
0.559472665626163
0.621686471009262
0.756527304879984
1.13415297725901
3.11953912259452
0.486049426373453
0.486656379610161
0.486640744418336
0.486598969119626
0.487368949054947
0.48990233899993
0.495344813044981
0.505401568746836
0.52307793599084
0.554468011273601
0.613896370866914
0.741690667359039
1.09787958976624
2.96983737298519
0.484649192844633
0.484983746964282
0.484555951157929
0.483860454444595
0.483576715938875
0.484408489844866
0.487093011717555
0.492608330072811
0.502516774787574
0.519601374136476
0.549479025258786
0.605300651063473
0.723967853830249
1.05195930205515
2.77613922260602
0.483832108680307
0.483984294329939
0.483297627815983
0.482206815967208
0.481294513407069
0.481114558321417
0.482170654382943
0.485056815643604
0.490655808336311
0.500409864961185
0.516862830554653
0.545083260353064
0.596806508126291
0.704619008291188
0.997646976020525
2.58885969663913
0.483416227380979
0.483447471305079
0.482602567232356
0.481283329117175
0.480014328796815
0.479258123093858
0.4793817872102
0.480768023679197
0.483952252110441
0.489765307806078
0.499550931718565
0.515630191776996
0.542515753424763
0.590400491807261
0.686819555451158
0.922440811837593
2.21610644747653
0.483269740421557
0.48321580722437
0.482277189863755
0.480837477541551
0.479385783082537
0.478329437277966
0.477955935952405
0.47853113625756
0.480408768198255
0.484121374262929
0.490492659446283
0.500832773740577
0.517348782135247
0.544179582662196
0.590312549004538
0.679161511922416
0.901507773603581
2.28699618918283
2.94890122564635
2.93624882338112
1.26236599801526
1.53936387506853
2.41074142755003
0.867034050125788
0.981231165557
1.3220748478518
2.30196954031021
0.7078457292709
0.751445850064012
0.884379760568052
1.23409835851487
2.22312126698079
0.629461155612053
0.647451822094845
0.702540909381321
0.844513563879164
1.24175319535477
2.73065871041898
0.582991842986039
0.590955096242511
0.615800952180876
0.674260844143657
0.815259272583701
1.21818223034816
2.9222287578449
0.551645086398389
0.555908650577237
0.568295706228596
0.595992695845219
0.655618830416239
0.795786806909652
1.19933082252692
3.06619326257946
0.52930402820242
0.532244957384223
0.538891389011
0.553234949620975
0.582373549281067
0.643063748651782
0.782976108533837
1.18424754434036
3.15920666561785
0.513531781564418
0.515761852433647
0.519476691149039
0.527123013396615
0.542485073063318
0.572655640769625
0.634166912254807
0.773340345287746
1.16970698860609
3.20270837538083
0.502715241812778
0.504364219159653
0.506372795839161
0.51029658217239
0.518482559821288
0.534542114629837
0.565387699756625
0.627079690161104
0.764511482959057
1.15376339621535
3.19947601909919
0.495464765773451
0.496609551381204
0.497533368100215
0.499269386191704
0.503367350296457
0.511969651650519
0.528469594435937
0.55951466068064
0.620642334610442
0.755610604872736
1.13774675067202
3.1514598531076
0.490672647918872
0.491422250597502
0.491619532380655
0.492009279424188
0.493689566022073
0.498045652936295
0.50697340898926
0.523645263043263
0.554427772799064
0.614286205247535
0.745379893674649
1.114741032015
3.0601400173984
0.487547077142003
0.488008109147979
0.487724224849394
0.48727433080122
0.487491329879472
0.489334070505689
0.49395500472066
0.503052657590205
0.519600444919776
0.549610774037707
0.607203535078528
0.732109938516345
1.08192449641023
2.92381080075097
0.485553666426017
0.485810421239806
0.485216181605261
0.484251418637727
0.483589566974941
0.48393784437097
0.486040422891182
0.490878885846841
0.500010792126873
0.516198613412601
0.545001935812346
0.599414939654099
0.715866709739
1.03879418826924
2.74216251159804
0.484334165478171
0.484448797688504
0.483660479629194
0.482392023447961
0.481220252292917
0.480700470264198
0.481341652461589
0.48374314479481
0.48879097170683
0.497926125356661
0.513680219179437
0.541079658300258
0.591729757547323
0.697837503012172
0.98735287326773
2.56778395384899
0.483644539977725
0.483662405195525
0.482757804949323
0.481322078622142
0.479874813400692
0.478879314582253
0.478706397764369
0.479743368203349
0.482530410639452
0.487902683461669
0.497205771013061
0.512754062806348
0.539026662405592
0.586094622669226
0.681278899966777
0.933079746868426
2.21609202484968
0.483315953012606
0.483268867985155
0.482298761863534
0.480782585601442
0.479207638388186
0.477982430885709
0.47739699691257
0.477720399804057
0.479310403025912
0.482704612741157
0.488732397722211
0.498708320196689
0.514837227739944
0.541230891227666
0.586731902218584
0.673216139198647
0.895306807211992
2.28699231025751
0.48322673434238
0.483130763256802
0.4821264985835
0.480584686434864
0.478974040269684
0.477671378653452
0.476921328133531
0.476929308008792
0.477959395476028
0.48040386063626
0.484857667445113
0.492238763807417
0.504006063406063
0.522601002423289
0.552500917959335
0.603020978729901
0.698759745005355
0.95401022714214
2.38168062169014
2.93278370268114
2.963430438256
2.91000420680932
1.24002246113662
1.24936043159879
1.48831604534145
2.3762849872843
0.848732525766413
0.861055057272957
0.960546674833388
1.27105198928666
2.27469648339922
0.705153510041843
0.704409435128046
0.741867933504379
0.859993355897404
1.18455313940579
2.22173501302294
0.632201599435886
0.627140624156931
0.641101221678554
0.689117704834706
0.817321676774093
1.1905075047729
2.70449687446029
0.585429448685926
0.581348822267924
0.586274670807637
0.606858959971062
0.658895756821147
0.789207421343305
1.17088661980449
2.87197927213239
0.552092035773176
0.550477399408564
0.552253408198873
0.561678002006318
0.585627673255578
0.64024806993203
0.771841811518866
1.15536290991358
2.99495569958176
0.52844806386536
0.528462910403567
0.529272350344061
0.533645908012547
0.545462871607187
0.571623981619338
0.628171882509966
0.760264594748179
1.14179922100333
3.06717612034434
0.512324936889277
0.512903183614567
0.513276531302672
0.515135674994908
0.520933260288814
0.534289755575247
0.561943983479918
0.61953755898181
0.750895593460721
1.12698833278236
3.08869379653785
0.50163036734035
0.50222683536985
0.502232459921558
0.502681495494805
0.505189710105399
0.511952113549198
0.526321896744058
0.554774951709273
0.612448895853026
0.741810657794766
1.11079382845262
3.06232581490276
0.494619204430652
0.495073787884456
0.494738312553563
0.494328898207866
0.494956824370639
0.498041021112231
0.505485172358156
0.520412030762156
0.549040998831557
0.605982124872269
0.732440176418208
1.09169347057818
2.98887375049963
0.490050253013517
0.490353701003293
0.48975099644048
0.488794756412491
0.488312831474348
0.489279654003103
0.492862390084716
0.500753559535744
0.515885624484776
0.544167173657593
0.599467529437491
0.720807952129524
1.06285692079249
2.86777304271073
0.487105444666408
0.4872838539003
0.486497132258835
0.485205518422282
0.484073807070539
0.483815075200388
0.485184854210938
0.489170830824381
0.497324620911983
0.512382383104313
0.539833796378081
0.592488961287501
0.706230602627158
1.0232476119759
2.70123082620236
0.485253404329822
0.485334611473454
0.484431065562111
0.482949647389548
0.48145873992058
0.480515190445157
0.480635268910315
0.482425826927887
0.486777250778703
0.495128815148642
0.509997252550193
0.536360074017894
0.585678668524078
0.68968677588816
0.972646532905447
2.1872970841072
0.484141901534177
0.484150316275332
0.48317800391556
0.481603178211468
0.479937825242631
0.478644954687702
0.478099769702733
0.478695602279071
0.480978859250302
0.48579013707098
0.494477345440818
0.509347309354951
0.534841581620036
0.580909180245777
0.674526608796684
0.924656021668937
2.21612432856736
0.483531819718645
0.483488287679688
0.482480186662962
0.480873271749863
0.47914860104577
0.477713997809441
0.476862120741706
0.47686619745478
0.478089311163925
0.481075549489147
0.486661348861206
0.496166702724032
0.511793565903759
0.537622100023496
0.582392056083067
0.668848480143838
0.891417254085751
2.28697740177517
0.483258952049554
0.483179356824719
0.482156847041555
0.48055519597471
0.478840487806918
0.47738965578622
0.476448875148379
0.476226050497125
0.47698895961783
0.479135228727413
0.483267083059981
0.490311318565813
0.50173525262156
0.519982470709389
0.549507747978491
0.599482180513884
0.695355279530283
0.952224459901451
2.38167743220718
0.483206407160587
0.483096300419955
0.482071398705796
0.480497172010765
0.478832402748691
0.477437927645313
0.47653617261548
0.476303000191439
0.476961502518196
0.478843562483287
0.48245151262177
0.488558997901169
0.49839897741106
0.514030473157191
0.53911440487558
0.58076186459844
0.655414271589697
0.820182965043821
1.32984056856542
3.68516474725932
3.92220309358463
2.99996955259655
2.96251132142292
2.95949579870825
1.30224866294596
1.2287662295872
1.22157780563171
1.43482489749773
2.35262318028456
0.877542078822606
0.843075684298272
0.848438591469224
0.931649261694571
1.21661839816814
2.27190043232195
0.731576199388211
0.700932062987815
0.696638952814571
0.726800090510934
0.829496382622606
1.13193308751268
2.22780179852484
0.650977866266919
0.628893554399995
0.621235028287613
0.631090832618897
0.671900024480993
0.787142330412565
1.1365396174479
2.66015099136574
0.594285968504591
0.583177591202257
0.576615950700157
0.578670417137825
0.595367234954638
0.641682046719677
0.761863481317554
1.12135192193895
2.8089321040093
0.554603786424317
0.550714846485743
0.546704159623719
0.546145058004207
0.553012431290001
0.573809141496536
0.623835091965701
0.746694815278083
1.10921081864841
2.91158910470317
0.528514756481708
0.527580725163261
0.525468603892872
0.524262575209512
0.52672310651669
0.536475328185222
0.559988874427907
0.612359762976071
0.736139360314529
1.0966196556579
2.95977109906396
0.511779713357531
0.511720940562761
0.510470783051053
0.509114859933049
0.509452245557878
0.513773960229121
0.525381954691548
0.550555325149946
0.603983751789217
0.726923915972258
1.08124037768356
2.95732959284454
0.501036346370096
0.501174555852478
0.500173771931984
0.498709160072795
0.497939461894935
0.499363947599933
0.504913347763776
0.517654226187668
0.543624559449
0.596988770763588
0.71774601635484
1.06458533771969
2.90496828407609
0.494109606188011
0.494258634067088
0.493282409469511
0.49169179157108
0.490312787013879
0.490154779447705
0.492416165054809
0.498786092363068
0.512143903254081
0.538264479557517
0.590703503601268
0.707622798148175
1.04015723455253
2.80140344765845
0.489645549979005
0.489757494652892
0.488755490290493
0.48706932680459
0.48535145642808
0.484326556209639
0.484770508638307