/*--------------------------------*- C++ -*----------------------------------*\
  =========                 |
  \\      /  F ield         | OpenFOAM: The Open Source CFD Toolbox
   \\    /   O peration     | Website:  https://openfoam.org
    \\  /    A nd           | Version:  12
     \\/     M anipulation  |
\*---------------------------------------------------------------------------*/
/*   Windows 32 and 64 bit porting by blueCAPE: http://www.bluecape.com.pt   *\
|  Based on Windows porting (2.0.x v4) by Symscape: http://www.symscape.com   |
\*---------------------------------------------------------------------------*/
FoamFile
{
    format      ascii;
    class       volScalarField;
    location    "100";
    object      p;
}
// * * * * * * * * * * * * * * * * * * * * * * * * * * * * * * * * * * * * * //

dimensions      [0 2 -2 0 0 0 0];

internalField   nonuniform List<scalar> 
10052
(
83333.3293323911
83333.3292124768
83333.3293287325
83333.3293345241
83333.3290861057
83333.3292085672
83333.3292149146
83333.3293310563
83333.3293394262
83333.3289531109
83333.3290820085
83333.3290888336
83333.3292044691
83333.3292112551
83333.3292205901
83333.3293360388
83333.3293476908
83333.3288131256
83333.3289489064
83333.328956254
83333.3290768212
83333.3290850068
83333.3290953021
83333.3292039632
83333.3292072755
83333.3292170756
83333.3292301915
83333.3293445662
83333.3286659278
83333.3288089117
83333.3288167843
83333.328942097
83333.3289522928
83333.3289636904
83333.3290736587
83333.3290799445
83333.3290916205
83333.329106282
83333.3292078904
83333.3292069389
83333.3292131458
83333.3292270412
83333.3292441846
83333.3285114227
83333.3286618074
83333.3286702092
83333.328800001
83333.3288128068
83333.3288253954
83333.3289352499
83333.3289455076
83333.3289598607
83333.3289763201
83333.3290735287
83333.3290769227
83333.3290866123
83333.3291030191
83333.3291223675
83333.3292185086
83333.3292112747
83333.3292130984
83333.329223393
83333.3292414066
83333.3292624368
83333.3283498826
83333.328507532
83333.3285164417
83333.3286501485
83333.3286663076
83333.328680227
83333.3287879083
83333.3288037703
83333.328821527
83333.3288400003
83333.3289292034
83333.3289387732
83333.3289530934
83333.3289729348
83333.3289947003
83333.3290790787
83333.3290772614
83333.3290840031
83333.3290983416
83333.3291195272
83333.3291434759
83333.3292374251
83333.3292222452
83333.3292180634
83333.3292238949
83333.3292383486
83333.3292600092
83333.3292847467
83333.3281820467
83333.328346349
83333.3283558192
83333.3284921579
83333.3285127469
83333.3285281149
83333.3286307655
83333.3286543443
83333.3286764129
83333.3286971807
83333.3287734945
83333.3287916697
83333.3288124157
83333.3288366098
83333.3288612652
83333.3289274398
83333.3289332025
83333.3289467873
83333.3289665692
83333.3289918594
83333.3290190141
83333.3290927871
83333.3290832881
83333.3290850769
83333.3290965082
83333.3291155843
83333.3291410134
83333.3291691519
83333.3292658313
83333.329241394
83333.3292297553
83333.329229769
83333.3292397862
83333.3292578376
83333.3292827087
83333.3293104764
83333.3280089063
83333.3281789008
83333.3281890757
83333.3283256457
83333.3283523876
83333.3283694423
83333.3284627325
83333.3284968222
83333.3285244839
83333.3285478164
83333.3286048492
83333.3286347929
83333.3286642295
83333.328693854
83333.3287218317
83333.3287615202
83333.3287777998
83333.3288007365
83333.3288279293
83333.3288584542
83333.3288893376
83333.3289335734
83333.3289320958
83333.3289420861
83333.3289611642
83333.3289864137
83333.3290166177
83333.3290485865
83333.3291166902
83333.3290973888
83333.3290920345
83333.3290987006
83333.3291149237
83333.3291381243
83333.3291671354
83333.3291986483
83333.3293046164
83333.3292699448
83333.3292495474
83333.3292425172
83333.3292469746
83333.3292606264
83333.3292815447
83333.3293088062
83333.3293388309
83333.3278319733
83333.3280059224
83333.3280172232
83333.328150336
83333.3281858644
83333.3282049613
83333.3282823403
83333.3283308218
83333.3283660254
83333.3283923126
83333.3284211011
83333.3284670704
83333.3285081403
83333.3285446665
83333.3285763972
83333.3285786827
83333.3286094884
83333.328645149
83333.3286820746
83333.3287191258
83333.3287542786
83333.3287569465
83333.3287667135
83333.3287880332
83333.3288173308
83333.3288508514
83333.3288870405
83333.3289234382
83333.3289507701
83333.3289388428
83333.3289422282
83333.3289579202
83333.3289824814
83333.3290124327
83333.3290466853
83333.329082475
83333.3291523764
83333.329121582
83333.329107022
83333.3291070345
83333.3291187693
83333.3291390524
83333.3291653964
83333.3291970373
83333.3292310564
83333.3293544305
83333.3293088361
83333.3292786055
83333.3292633421
83333.3292611847
83333.3292695073
83333.3292858823
83333.3293087566
83333.3293375729
83333.3293689755
83333.3276534879
83333.3278287695
83333.3278419031
83333.3279662716
83333.3280140226
83333.3280357337
83333.3280882692
83333.3281561008
83333.3282017062
83333.3282314851
83333.3282192826
83333.3282872841
83333.3283438119
83333.3283894024
83333.3284253917
83333.3283754496
83333.3284261627
83333.3284789842
83333.3285287076
83333.3285739524
83333.3286139346
83333.3285591664
83333.3285845103
83333.3286213476
83333.3286644053
83333.3287086172
83333.3287521534
83333.3287936359
83333.3287644709
83333.3287630367
83333.3287786015
83333.3288065503
83333.3288421633
83333.3288809259
83333.328921628
83333.3289624109
83333.3289815612
83333.3289565338
83333.3289502059
83333.3289598988
83333.328981427
83333.3290104787
83333.3290438551
83333.3290809827
83333.3291195834
83333.3292010267
83333.3291574799
83333.3291319466
83333.3291234037
83333.329128987
83333.3291450013
83333.3291681805
83333.3291965605
83333.329229857
83333.3292654001
83333.3294156221
83333.3293587308
83333.3293178686
83333.3292933035
83333.3292834593
83333.3292855739
83333.3292967344
83333.3293148103
83333.3293386946
83333.3293681528
83333.32940007
83333.3274771679
83333.3276494852
83333.3276656461
83333.3277739078
83333.3278383507
83333.3278635321
83333.3278790323
83333.3279728159
83333.3280324886
83333.3280664893
83333.3279962885
83333.3280940072
83333.3281711776
83333.3282288029
83333.3282697163
83333.328147307
83333.3282252627
83333.3283010402
83333.3283677156
83333.328423266
83333.3284687464
83333.3283352415
83333.3283821057
83333.3284400495
83333.3285014663
83333.3285595408
83333.3286120543
83333.3286593587
83333.3285530003
83333.3285663706
83333.3285985596
83333.3286432025
83333.3286934218
83333.3287434159
83333.3287919257
83333.3288384604
83333.3287879534
83333.328771361
83333.3287765664
83333.3287995609
83333.3288341829
83333.3288747583
83333.3289171486
83333.3289609815
83333.3290049299
83333.3290278514
83333.3289876851
83333.3289689447
83333.328969756
83333.328985861
83333.3290121177
83333.3290441898
83333.3290796255
83333.3291184784
83333.3291587634
83333.3292633462
83333.3292062753
83333.3291683933
83333.3291495548
83333.3291472602
83333.3291575866
83333.329176576
83333.3292014055
83333.329230717
83333.3292646301
83333.3293006942
83333.3294881468
83333.3294199616
83333.3293680004
83333.3293332755
83333.3293147246
83333.3293096952
83333.3293149805
83333.3293278627
83333.3293466086
83333.329370536
83333.3293997374
83333.3294312859
83333.3273078713
83333.3274707065
83333.3274920558
83333.3275736966
83333.327660964
83333.3276908837
83333.3276529492
83333.3277815001
83333.3278598245
83333.3278990955
83333.3277481573
83333.3278857429
83333.3279904649
83333.3280638159
83333.3281105754
83333.3278885294
83333.3280034732
83333.3281100311
83333.3281991038
83333.3282677712
83333.3283196487
83333.3280786362
83333.3281550827
83333.3282416329
83333.3283274822
83333.3284035614
83333.3284670937
83333.3285210527
83333.3283099311
83333.3283438973
83333.328398968
83333.3284660593
83333.3285355409
83333.3285998504
83333.328657799
83333.3287108844
83333.3285658745
83333.328561406
83333.3285828471
83333.328623735
83333.3286759281
83333.3287314934
83333.3287852172
83333.3288370923
83333.328887173
83333.3288302837
83333.3287954179
83333.3287863979
83333.3288001549
83333.3288304759
83333.3288702765
83333.3289138877
83333.3289582644
83333.3290038482
83333.3290496351
83333.3290908323
83333.3290342115
83333.3290008951
83333.3289901742
83333.3289982589
83333.329019624
83333.3290489281
83333.3290824881
83333.329118678
83333.3291580667
83333.3291988606
83333.3293394651
83333.3292686633
83333.329217544
83333.3291869744
83333.3291751423
83333.3291782521
83333.3291919186
83333.3292125141
83333.3292377809
83333.3292669126
83333.3293004093
83333.3293359788
83333.3295715128
83333.3294924606
83333.329429321
83333.3293838721
83333.329355741
83333.3293426283
83333.3293412712
83333.3293485394
83333.3293620504
83333.3293804451
83333.3294034557
83333.3294314888
83333.3294618196
83333.3271573422
83333.3272966086
83333.3273267483
83333.3273666882
83333.3274843888
83333.3275211951
83333.3274083587
83333.327582676
83333.3276856087
83333.3277316469
83333.3274702146
83333.327660883
83333.3278020439
83333.3278957541
83333.3279496354
83333.3275917705
83333.3277569058
83333.3279045897
83333.3280230338
83333.3281085122
83333.3281678694
83333.3277808338
83333.3278978352
83333.3280230448
83333.3281413549
83333.3282407719
83333.3283180781
83333.3283796542
83333.3280267001
83333.3280892542
83333.3281756559
83333.3282728963
83333.3283677001
83333.3284502987
83333.3285196603
83333.3285802026
83333.3283077113
83333.3283203792
83333.3283640939
83333.3284295702
83333.3285051405
83333.3285801869
83333.3286481569
83333.3287096142
83333.3287666479
83333.328602069
83333.3285751563
83333.3285798682
83333.328611505
83333.3286609177
83333.3287186125
83333.328777054
83333.3288325597
83333.3288861207
83333.3289381629
83333.3288933152
83333.3288381157
83333.3288116204
83333.3288122856
83333.3288345203
83333.3288706057
83333.3289133998
83333.3289581619
83333.3290029816
83333.3290489323
83333.3290951834
83333.3291708655
83333.3290973026
83333.3290479445
83333.3290234689
83333.3290210078
83333.3290351723
83333.3290599813
83333.3290906296
83333.3291242339
83333.3291598978
83333.3291986276
83333.3292387627
83333.3294288797
83333.3293447544
83333.329280078
83333.329236774
83333.3292139632
83333.3292083201
83333.3292153667
83333.3292309028
83333.329251801
83333.3292763258
83333.3293041819
83333.3293362226
83333.3293703284
83333.3296647868
83333.3295757201
83333.3295017451
83333.329445376
83333.3294070305
83333.329384981
83333.3293761561
83333.329377233
83333.3293853389
83333.3293984234
83333.329415485
83333.3294366301
83333.329462591
83333.3294908281
83333.3270242654
83333.3271340701
83333.3271773037
83333.3271557337
83333.3273123711
83333.3273594701
83333.3271443938
83333.3273773422
83333.3275122794
83333.3275672981
83333.3271575109
83333.3274178891
83333.3276064521
83333.3277264453
83333.3277890672
83333.3272483642
83333.3274810332
83333.3276832533
83333.327839881
83333.3279467933
83333.3280149643
83333.3274307153
83333.3276034435
83333.3277807039
83333.3279419346
83333.3280715106
83333.3281661255
83333.3282364536
83333.3276919313
83333.3277941893
83333.3279233827
83333.3280610586
83333.3281890762
83333.3282950503
83333.3283783372
83333.3284472935
83333.3280032143
83333.3280399708
83333.3281145517
83333.3282133506
83333.3283199848
83333.32842029
83333.3285062049
83333.3285790578
83333.3286439442
83333.3283348082
83333.3283194821
83333.3283436277
83333.328399618
83333.3284747829
83333.3285559751
83333.328633413
83333.3287027099
83333.3287656487
83333.3288247474
83333.3286643447
83333.3286119086
83333.3285953658
83333.328611914
83333.3286533911
83333.3287090436
83333.3287693954
83333.3288283806
83333.3288838192
83333.3289374525
83333.3289898688
83333.3289777155
83333.3289013171
83333.3288550838
83333.3288393739
83333.3288498301
83333.3288788636
83333.3289183566
83333.3289620038
83333.3290061894
83333.3290499736
83333.3290949176
83333.329140293
83333.3292674168
83333.3291773068
83333.3291112623
83333.3290714274
83333.3290562049
83333.3290608285
83333.3290791532
83333.3291055592
83333.3291359813
83333.329168264
83333.3292021521
83333.3292390376
83333.3292773919
83333.3295304716
83333.3294340317
83333.3293560881
83333.3292995814
83333.3292647087
83333.3292489143
83333.3292479695
83333.3292574039
83333.3292734255
83333.3292933952
83333.3293160583
83333.3293415628
83333.3293711241
83333.3294027979
83333.3297666542
83333.3296688037
83333.3295847548
83333.3295176786
83333.3294688104
83333.3294371519
83333.3294200601
83333.329414258
83333.3294165771
83333.329424429
83333.3294360942
83333.3294509019
83333.3294692866
83333.3294922701
83333.3295174923
83333.3269245623
83333.326980348
83333.3270463851
83333.3269472139
83333.3271494149
83333.3272118552
83333.3268629893
83333.3271680959
83333.3273432536
83333.3274104346
83333.3268061872
83333.3271560892
83333.3274048339
83333.3275582798
83333.3276317652
83333.3268484931
83333.327171166
83333.32744473
83333.3276503874
83333.3277843833
83333.3278629938
83333.3270141015
83333.3272633776
83333.3275105474
83333.3277280792
83333.3278963107
83333.3280125139
83333.3280929252
83333.3272903908
83333.3274480799
83333.3276357647
83333.3278275172
83333.3279988966
83333.328134623
83333.3282349537
83333.3283134535
83333.3276385682
83333.3277092281
83333.3278265303
83333.3279705073
83333.3281183418
83333.3282513176
83333.3283598101
83333.3284461914
83333.3285198967
83333.3280171659
83333.3280184642
83333.3280697127
83333.3281592238
83333.3282689665
83333.3283809935
83333.3284827024
83333.3285690711
83333.3286429869
83333.3287100247
83333.3283952799
83333.3283474138
83333.3283451761
83333.3283837765
83333.3284513255
83333.3285329989
83333.3286161211
83333.3286930641
83333.3287614732
83333.3288240489
83333.328883369
83333.3287537708
83333.3286744389
83333.3286332404
83333.3286300001
83333.3286582008
83333.3287071792
83333.3287659501
83333.3288262978
83333.3288837511
83333.3289374128
83333.328989564
83333.3290408155
83333.3290828817
83333.3289856845
83333.328918627
83333.3288841158
83333.3288795288
83333.3288980921
83333.3289313951
83333.3289719572
83333.3290145556
83333.3290565817
83333.3290979146
83333.3291405005
83333.3291837161
83333.3293790951
83333.3292736808
83333.3291911791
83333.3291351467
83333.3291054655
83333.3290984081
83333.3291081463
83333.3291286646
83333.3291549787
83333.329183734
83333.329213422
83333.3292443176
83333.3292781936
83333.3293136412
83333.3296425963
83333.3295353764
83333.3294450497
83333.3293754596
83333.3293279175
83333.3293008525
83333.3292906062
83333.3292927622
83333.3293031269
83333.3293183455
83333.3293362501
83333.3293560135
83333.3293781631
83333.3294042668
83333.3294325404
83333.3298755137
83333.3297704039
83333.3296774172
83333.3296002575
83333.3295409382
83333.3294992736
83333.3294732381
83333.3294598385
83333.3294558301
83333.3294582537
83333.3294648282
83333.3294741606
83333.3294858829
83333.3295006991
83333.3295198313
83333.3295410496
83333.3268698433
83333.3268501172
83333.326946537
83333.3267462783
83333.3269961004
83333.3270851549
83333.3265719716
83333.3269603281
83333.3271822154
83333.32726663
83333.3264168672
83333.3268776276
83333.3271996974
83333.3273943813
83333.3274816586
83333.3263826245
83333.3268239063
83333.3271886729
83333.3274559875
83333.3276235334
83333.3277146684
83333.3265139953
83333.3268682511
83333.3272085424
83333.3274990066
83333.3277161594
83333.3278589232
83333.3279510528
83333.3268016987
83333.3270376027
83333.3273052667
83333.3275689922
83333.3277965081
83333.3279697289
83333.3280907835
83333.3281801722
83333.327194891
83333.3273136872
83333.3274903735
83333.3276956329
83333.3278979348
83333.3280729241
83333.3282095755
83333.3283121104
83333.3283957524
83333.3276337296
83333.3276588439
83333.3277481037
83333.3278836796
83333.3280397975
83333.3281921584
83333.3283247501
83333.3284321526
83333.3285188584
83333.3285948462
83333.3280744851
83333.3280336656
83333.3280517804
83333.3281209935
83333.3282239624
83333.3283401146
83333.3284526735
83333.3285521893
83333.3286363724
83333.3287092829
83333.3287763525
83333.3284907305
83333.3284082599
83333.3283747367
83333.3283891007
83333.3284416252
83333.328517322
83333.3286013419
83333.3286830422
83333.3287570074
83333.3288225795
83333.3288830114
83333.3289408235
83333.328869606
83333.3287638218
83333.3286962768
83333.3286696862
83333.3286799127
83333.3287173408
83333.3287704638
83333.3288293679
83333.3288874102
83333.3289415072
83333.32899181
83333.3290409267
83333.329089577
83333.3292070161
83333.3290906132
83333.3290028951
83333.3289482414
83333.3289260758
83333.3289310266
83333.3289550669
83333.3289901214
83333.3290296827
83333.329069549
83333.3291079816
83333.3291454901
83333.3291844154
83333.3292241461
83333.3295037857
83333.3293850378
83333.3292871482
83333.3292149181
83333.3291697625
83333.3291492954
83333.3291484457
83333.3291612495
83333.3291821616
83333.3292068588
83333.3292326506
83333.3292585837
83333.3292853677
83333.3293151517
83333.3293465529
83333.3297632219
83333.3296471558
83333.3295458534
83333.3294638805
83333.3294036057
83333.3293645565
83333.3293438997
83333.3293375912
83333.32934133
83333.3293512679
83333.3293645036
83333.3293793154
83333.3293952546
83333.329413171
83333.3294349009
83333.3294589973
83333.3299895898
83333.3298789335
83333.3297784421
83333.3296921954
83333.3296228885
83333.3295711607
83333.3295357264
83333.329514077
83333.3295031188
83333.3294997157
83333.3295011645
83333.3295055124
83333.3295116813
83333.3295195656
83333.329530065
83333.3295444836
83333.3295596151
83333.3268522977
83333.3267593885
83333.3268908173
83333.3265731236
83333.3268645965
83333.3269864127
83333.3262881679
83333.3267615993
83333.3270332013
83333.3271450996
83333.3260008522
83333.3265901427
83333.326996066
83333.3272381974
83333.3273440546
83333.3258476649
83333.3264403377
83333.3269173347
83333.3272592648
83333.3274672096
83333.3275736875
83333.325912388
83333.3264100732
83333.3268720826
83333.3272550243
83333.3275326789
83333.32770751
83333.3278134214
83333.3261996139
83333.3265471228
83333.3269238937
83333.3272825563
83333.3275817835
83333.3278015086
83333.327947414
83333.3280493559
83333.3266459979
83333.3268344181
83333.3270943272
83333.3273826586
83333.3276565107
83333.327884986
83333.3280563586
83333.3281781005
83333.3282730697
83333.3271631259
83333.3272227691
83333.3273657898
83333.3275648659
83333.3277831332
83333.3279880026
83333.3281595865
83333.3282926644
83333.3283943752
83333.3284803318
83333.3276861468
83333.3276558989
83333.3277030477
83333.3278148863
83333.3279659562
83333.3281276996
83333.328278134
83333.3284058496
83333.3285090839
83333.3285939116
83333.3286696759
83333.328177513
83333.3280915323
83333.3280693878
83333.3281085407
83333.3281944286
83333.3283058964
83333.3284228813
83333.328531742
83333.3286261258
83333.3287059431
83333.3287758516
83333.328840993
83333.3286201545
83333.3285036425
83333.3284363218
83333.3284212747
83333.3284520654
83333.3285149888
83333.3285942808
83333.3286768509
83333.3287543533
83333.3288232713
83333.3288842594
83333.3289407989
83333.3289955278
83333.3290094363
83333.3288793259
83333.3287855351
83333.3287335613
83333.3287221241
83333.3287434969
83333.3287866061
83333.3288406294
83333.3288971284
83333.3289509141
83333.3290000657
83333.3290454835
83333.3290901576
83333.3291346718
83333.329347325
83333.3292143176
83333.3291072879
83333.3290323411
83333.3289910258
83333.328979807
83333.3289916559
83333.3290185206
83333.3290530942
83333.3290898538
83333.3291255244
83333.329159084
83333.3291915303
83333.329225612
83333.3292603336
83333.3296388556
83333.3295092816
83333.3293978016
83333.3293101943
83333.3292493231
83333.3292143013
83333.3292011684
83333.3292044433
83333.3292184189
83333.3292381009
83333.3292598263
83333.3292815119
83333.3293026765
83333.3293243991
83333.3293490523
83333.3293760357
83333.3298900904
83333.3297673576
83333.3296568928
83333.329563759
83333.3294912426
83333.3294399832
83333.3294081393
83333.3293923073
83333.3293883796
83333.329392271
83333.329400528
83333.3294107108
83333.3294215126
83333.329432809
83333.3294456851
83333.3294622763
83333.3294786266
83333.3301070437
83333.3299926336
83333.3298862699
83333.3297922362
83333.3297137708
83333.3296522867
83333.3296072933
83333.3295769108
83333.3295583962
83333.3295486455
83333.3295446964
83333.329544144
83333.3295453736
83333.329547606
83333.3295509213
83333.329556261
83333.3295644869
83333.3295721609
83333.3267225188
83333.3268673534
83333.326459541
83333.3267752581
83333.3269287138
83333.3260421442
83333.3265900974
83333.3269031226
83333.3270503501
83333.3255886112
83333.3263102242
83333.3268034073
83333.3270961442
83333.3272279296
83333.3252570456
83333.3260317045
83333.3266382016
83333.3270652351
83333.3273190433
83333.3274450446
83333.32519472
83333.3258856873
83333.3265027481
83333.3269989123
83333.3273487116
83333.3275612174
83333.3276836181
83333.3254518131
83333.3259603962
83333.326485166
83333.326967007
83333.3273557897
83333.3276317639
83333.3278070604
83333.3279234524
83333.3259559532
83333.3262476294
83333.3266251402
83333.3270256785
83333.3273924794
83333.3276879985
83333.3279014653
83333.3280458875
83333.3281536465
83333.3265749293
83333.3266860412
83333.3269062625
83333.3271933721
83333.327494693
83333.3277673349
83333.3279875834
83333.3281516549
83333.3282709708
83333.3283679974
83333.3272082958
83333.3271939554
83333.3272830219
83333.327454608
83333.3276710907
83333.3278929323
83333.3280917619
83333.3282543978
83333.3283804616
83333.3284789793
83333.3285643594
83333.3277992114
83333.3277091184
83333.3277037197
83333.3277779079
83333.3279096711
83333.3280689718
83333.3282288079
83333.328371989
83333.3284914313
83333.3285881524
83333.328668902
83333.3287421687
83333.3283247595
83333.328194438
83333.3281283324
83333.3281299472
83333.3281892815
83333.3282866535
83333.3284004094
83333.3285133687
83333.3286152233
83333.3287021828
83333.3287757476
83333.3288407847
83333.328902224
83333.3287801892
83333.3286325868
83333.3285315261
83333.3284840663
83333.3284878147
83333.3285315987
83333.3286000755
83333.3286787555
83333.3287567815
83333.3288278616
83333.328890013
83333.3289447321
83333.3289959719
83333.3290459076
83333.3291694704
83333.3290185624
83333.3289003032
83333.3288226067
83333.3287871694
83333.3287887964
83333.3288177159
83333.3288630479
83333.3289152005
83333.3289671851
83333.3290150928
83333.3290579207
83333.329097101
83333.3291361101
83333.329174573
83333.3295003291
83333.3293540338
83333.3292300545
83333.3291358203
83333.3290748798
83333.3290457606
83333.3290429326
83333.3290589579
83333.3290862719
83333.3291184252
83333.3291508444
83333.3291810715
83333.3292086678
83333.3292350475
83333.3292630027
83333.329292327
83333.3297813867
83333.3296438074
83333.3295210844
83333.3294196461
83333.3293435986
83333.3292935704
83333.3292669418
83333.3292590814
83333.329264522
83333.3292779413
83333.3292949417
83333.3293125043
83333.3293290896
83333.3293446155
83333.329360403
83333.3293794132
83333.3293974786
83333.3300208725
83333.3298937463
83333.329776195
83333.329673538
83333.3295897812
83333.3295265996
83333.3294832163
83333.3294570626
83333.3294444894
83333.329441447
83333.3294441437
83333.3294495578
83333.3294557044
83333.329461655
83333.3294675112
83333.3294744909
83333.329483655
83333.3294915087
83333.3302260709
83333.3301096825
83333.3299991748
83333.3298988676
83333.3298123801
83333.3297417964
83333.3296874129
83333.3296480621
83333.3296215061
83333.3296048628
83333.3295950952
83333.3295894724
83333.3295859135
83333.3295831425
83333.3295806168
83333.329578415
83333.3295773114
83333.3295784518
83333.3295809764
83333.326419229
83333.326733825
83333.3268998517
83333.3259007395
83333.3264813035
83333.3268150786
83333.3269914314
83333.3252289866
83333.3260686295
83333.3266381485
83333.3269720655
83333.3271396495
83333.3246496665
83333.3256269268
83333.3263685366
83333.3268843573
83333.3271855495
83333.3273361454
83333.3243666935
83333.3253071509
83333.326111471
83333.3267383855
83333.3271693638
83333.327423837
83333.3275664947
83333.3245197216
83333.3252643796
83333.3259877423
83333.3266253019
83333.3271219571
83333.3274636011
83333.3276727085
83333.3278056079
83333.3250748373
83333.325524716
83333.3260699217
83333.3266209745
83333.3271062555
83333.3274837115
83333.3277469417
83333.3279176289
83333.3280397688
83333.3258252352
83333.3260162953
83333.3263496737
83333.3267594518
83333.3271709769
83333.3275298446
83333.3278097592
83333.3280106628
83333.3281503142
83333.3282596017
83333.3266093921
83333.3266198156
83333.3267707881
83333.3270270997
83333.327332704
83333.3276333118
83333.3278932917
83333.3280986179
83333.3282517368
83333.3283659896
83333.3284617645
83333.3273353539
83333.3272403103
83333.3272597906
83333.3273840176
83333.3275791119
83333.3278022845
83333.3280174872
83333.3282036335
83333.328353517
83333.3284701377
83333.3285631858
83333.3286453141
83333.3279705477
83333.3278219416
83333.3277585191
83333.3277841997
83333.3278832832
83333.3280272227
83333.3281862243
83333.3283379481
83333.3284700127
83333.3285787386
83333.3286669906
83333.3287417067
83333.3288104373
83333.328511377
83333.3283409613
83333.3282309481
83333.3281906269
83333.3282158052
83333.328290165
83333.3283923215
83333.3285029073
83333.328608104
83333.3287004799
83333.328778231
83333.3288437832
83333.3289025185
83333.3289584383
83333.32896555
83333.3287917764
83333.3286594186
83333.3285789686
83333.3285522642
83333.3285716524
83333.3286234565
83333.3286929484
83333.3287675895
83333.3288386411
83333.3289015565
83333.3289555021
83333.3290025464
83333.3290472482
83333.3290903528
83333.3293450245
83333.3291777893
83333.3290382535
83333.3289361281
83333.3288759042
83333.3288552518
83333.3288664259
83333.3288993062
83333.3289438779
83333.3289918611
83333.3290376187
83333.3290783267
83333.3291136905
83333.3291456032
83333.3291774507
83333.3292090441
83333.3296622046
83333.3295063241
83333.3293684956
83333.3292569903
83333.3291770464
83333.3291292741
83333.3291099687
83333.3291128172
83333.3291305391
83333.3291562169
83333.3291842876
83333.3292110677
83333.3292348034
83333.3292555402
83333.3292748935
83333.3292962198
83333.3293166165
83333.3299283951
83333.3297857286
83333.3296544483
83333.3295412912
83333.3294513169
83333.3293865525
83333.329345819
83333.3293256013
83333.3293210302
83333.3293268151
83333.3293381059
83333.329351125
83333.3293634627
83333.3293740581
83333.3293831016
83333.3293921788
83333.3294027509
83333.3294110729
83333.3301533039
83333.3300240162
83333.3299015702
83333.3297913114
83333.3296977366
83333.3296234081
83333.3295685973
83333.3295316831
83333.3295096804
83333.3294988262
83333.3294952273
83333.3294954456
83333.3294969064
83333.3294980588
83333.3294982643
83333.3294976532
83333.3294971421
83333.3294982709
83333.3295011895
83333.3303449854
83333.3302282931
83333.3301153698
83333.3300104191
83333.3299172729
83333.3298385505
83333.3297752725
83333.3297270092
83333.3296921302
83333.3296681318
83333.3296520758
83333.3296410601
83333.3296326202
83333.3296250113
83333.3296172479
83333.3296088564
83333.329599749
83333.3295912989
83333.3295868477
83333.3295856796
83333.3258685098
83333.3264369022
83333.3267706302
83333.3269617688
83333.3250274742
83333.32593083
83333.3265373105
83333.3268874404
83333.3270812235
83333.3241031656
83333.3252741283
83333.3261400676
83333.3267310157
83333.327071863
83333.3272565209
83333.3234666067
83333.3247150604
83333.3257256333
83333.3264903658
83333.3270045566
83333.3273009341
83333.3274678744
83333.3233796646
83333.3244628509
83333.3254438227
83333.326268802
83333.3268881273
83333.3273020724
83333.3275482026
83333.3277008229
83333.3239302453
83333.3246331347
83333.3254201141
83333.3261704542
83333.3268023062
83333.3272760726
83333.3275958976
83333.3277960165
83333.3279338982
83333.3248473699
83333.3251701298
83333.3256737521
83333.3262552885
83333.3268113031
83333.3272773409
83333.3276283297
83333.3278717502
83333.3280344423
83333.3281573321
83333.3258430782
83333.3258941863
83333.3261397099
83333.3265179588
83333.3269449225
83333.3273475701
83333.3276834453
83333.3279399004
83333.328124503
83333.3282565983
83333.3283636078
83333.3267568805
83333.3266560956
83333.3267135951
83333.3269105327
83333.3271935832
83333.3275018291
83333.3277879068
83333.3280271152
83333.3282134414
83333.3283532071
83333.3284600492
83333.3285517815
83333.3275402895
83333.3273668579
83333.3273085023
83333.3273693214
83333.3275241373
83333.3277310736
83333.3279491866
83333.3281499088
83333.3283190143
83333.3284537039
83333.3285589637
83333.3286445384
83333.3287208509
83333.328192927
83333.3279921364
83333.3278708193
83333.3278415101
83333.3278970025
83333.3280131317
83333.3281599061
83333.3283115348
83333.3284507211
83333.3285690443
83333.3286653184
83333.3287433901
83333.3288105498
83333.3288729469
83333.3287297948
83333.3285263362
83333.3283759047
83333.3282927615
83333.328278833
83333.3283227397
83333.3284051638
83333.3285061297
83333.3286093467
83333.3287040576
83333.328785179
83333.3288523101
83333.3289084667
83333.3289596317
83333.3290081186
83333.3291698205
83333.3289760104
83333.3288167906
83333.3287050959
83333.3286467317
83333.3286380733
83333.3286681918
83333.3287232568
83333.3287900246
83333.3288579462
83333.3289201767
83333.3289735943
83333.3290181982
83333.3290565851
83333.3290931891
83333.3291279249
83333.3295310249
83333.3293523856
83333.3291957481
83333.3290719011
83333.3289876495
83333.3289435598
83333.3289343897
83333.3289515037
83333.3289851972
83333.3290265066
83333.3290684539
83333.3291066145
83333.3291390642
83333.329166079
83333.3291897351
83333.3292136175
83333.3292365392
83333.3298290896
83333.329667409
83333.3295192576
83333.329393263
83333.3292959256
83333.3292297592
83333.3291930244
83333.3291809081
83333.3291869034
83333.3292041028
83333.3292263261
83333.3292488899
83333.3292689188
83333.3292852576
83333.3292982663
83333.3293098429
83333.3293222069
83333.3293316447
83333.3300770146
83333.3299320918
83333.3297950702
83333.3296726774
83333.3295706004
83333.3294920476
83333.3294372503
83333.3294039648
83333.3293881993
83333.3293850299
83333.3293894634