/*--------------------------------*- C++ -*----------------------------------*\
  =========                 |
  \\      /  F ield         | OpenFOAM: The Open Source CFD Toolbox
   \\    /   O peration     | Website:  https://openfoam.org
    \\  /    A nd           | Version:  12
     \\/     M anipulation  |
\*---------------------------------------------------------------------------*/
/*   Windows 32 and 64 bit porting by blueCAPE: http://www.bluecape.com.pt   *\
|  Based on Windows porting (2.0.x v4) by Symscape: http://www.symscape.com   |
\*---------------------------------------------------------------------------*/
FoamFile
{
    format      ascii;
    class       surfaceScalarField;
    location    "100";
    object      phi;
}
// * * * * * * * * * * * * * * * * * * * * * * * * * * * * * * * * * * * * * //

dimensions      [0 3 -1 0 0 0 0];

internalField   nonuniform List<scalar> 
28563
(
2.05428325526633e-05
-4.17158528197057e-07
-8.13673823768665e-07
2.19170057572941e-05
-4.30821029556312e-07
-9.43355182372415e-07
7.2010972646796e-06
-3.2019531553789e-07
2.50974056593677e-05
-4.8007175167162e-07
-1.78766364345203e-06
2.34153288344464e-05
-4.21058801172306e-07
-1.07726504758218e-06
7.76079941431905e-06
-6.23697960709582e-07
-3.66825152860189e-07
2.6730705964613e-05
-5.03317697319002e-07
-2.07334267832972e-06
8.95166718603381e-06
-6.97563213778068e-07
2.81301664400954e-05
-5.44266896061617e-07
-2.83643292056568e-06
2.50383076283325e-05
-3.86214936605599e-07
-1.23676454245963e-06
8.36487190281716e-06
-6.12262068552788e-07
-4.12867800553879e-07
2.85279460063313e-05
-4.88446396359775e-07
-2.38605339806005e-06
6.25356931115045e-06
-8.11523835135337e-07
-2.90358234063902e-07
9.59866899099248e-06
-7.16130679075116e-07
-8.01015236461244e-07
2.99245045800088e-05
-5.80592448176505e-07
-3.28708829044298e-06
1.02919114903678e-05
-1.09691282133828e-06
3.12934998728199e-05
-6.05532235818106e-07
2.67890955297919e-05
-3.19486505016518e-07
-1.43129635884502e-06
9.00840903975087e-06
-5.64861714317755e-07
-4.64885823005816e-07
3.04850249684685e-05
-4.39354583406281e-07
-2.75447746824118e-06
6.76858171126493e-06
-7.99994577302664e-07
-3.27279495269008e-07
1.03022720474168e-05
-6.96163821608162e-07
-9.08749127013624e-07
3.19021932699877e-05
-5.6202207662506e-07
-3.801718676411e-06
5.92464037388497e-06
-1.01909781685371e-06
-2.5445082184453e-07
7.56738402401757e-06
-9.34432345172814e-07
-6.2455675649425e-07
1.10011129252803e-05
-8.27816888483901e-07
-1.26299253735514e-06
3.32349588482572e-05
-6.54246578259541e-07
-4.57430147179763e-06
1.14880588291754e-05
2.8660967807931e-05
-2.06496682922277e-07
-1.66536742447447e-06
9.68651777151095e-06
-4.7288943102461e-07
-5.24699211089254e-07
3.26057260078288e-05
-3.54661256560136e-07
-3.19731557376628e-06
7.31793370539035e-06
-7.48100931222536e-07
-3.66112011221043e-07
1.10585290226417e-05
-6.28646077222106e-07
-1.03184610592795e-06
3.40519328237834e-05
-5.02691395889004e-07
-4.40151702014352e-06
6.42420893543936e-06
-1.01224148738126e-06
-2.87321074571649e-07
8.16414106160599e-06
-9.13579536308239e-07
-7.06619626088132e-07
1.17780867526543e-05
-8.0501668691128e-07
-1.4427265604593e-06
3.53781444070941e-05
-6.44719632044166e-07
-5.30018415595718e-06
5.8295421461123e-06
-1.24367016274843e-06
-2.32533525323442e-07
7.00474087881201e-06
-1.17577695903156e-06
-5.44366062246154e-07
8.76409626122163e-06
-1.09202205474994e-06
-9.81343001569384e-07
1.22477850631176e-05
-9.33138902098615e-07
-1.7438276725054e-06
3.53817107377477e-05
-7.10721646097677e-07
-5.8497009913476e-06
3.06350844227367e-05
-2.7645066894163e-08
-1.94646295118995e-06
1.03905191090192e-05
-3.19432397088043e-07
-5.91056455422194e-07
3.48847538230043e-05
-2.15644568274313e-07
-3.72872376181607e-06
7.89935764204226e-06
-6.4518891951401e-07
-4.09123016410105e-07
1.18590373252864e-05
-5.07051697437657e-07
-1.17280925158752e-06
3.63788020444228e-05
-4.04600130175551e-07
-5.11957013462792e-06
6.96321534310584e-06
-9.64716512385073e-07
-3.22390061879792e-07
8.80450544344345e-06
-8.38001589190435e-07
-7.9711815706902e-07
1.26154566067333e-05
-7.26067927170462e-07
-1.64583328872369e-06
3.76995138457526e-05
-5.76498697676643e-07
-6.14638104488653e-06
6.32971761365632e-06
-1.2492148225381e-06
-2.63201489523547e-07
7.57870995286401e-06
-1.15733674798906e-06
-6.17531433795456e-07
9.43328405051092e-06
-1.06530203627327e-06
-1.11552037400968e-06
1.30698910043887e-05
-9.10661710830011e-07
-1.99888881068825e-06
3.75607515648394e-05
-7.13089427141063e-07
-6.76613288431632e-06
5.76836911837642e-06
-1.4796759697666e-06
-2.17595705184253e-07
6.7397128162196e-06
-1.43346954352372e-06
-4.93943288746167e-07
8.07106809488742e-06
-1.37581159439725e-06
-8.59421696287909e-07
9.66550231094889e-06
-1.23230276397007e-06
-1.34709135020555e-06
1.28517133852121e-05
-1.00787885206965e-06
-2.21985011480282e-06
3.59766575803282e-05
-7.54366917416694e-07
-7.02740440088787e-06
3.26802959674947e-05
2.41125093779433e-07
-2.28632657214864e-06
1.11081643532042e-05
-8.18828154509297e-08
-6.63398656104855e-07
3.73071615729478e-05
-3.32609252128719e-11
-4.36880367347178e-06
8.50800337410691e-06
-4.72302537205355e-07
-4.55774536639314e-07
1.26948140411265e-05
-3.10667836328403e-07
-1.33179853889694e-06
3.88765926155497e-05
-2.46433200601778e-07
-5.98005850300428e-06
7.54072380471225e-06
-8.62322338250637e-07
-3.60374113445649e-07
9.48691380928511e-06
-7.01674446260972e-07
-8.96905284599663e-07
1.35013122436951e-05
-5.84566988566038e-07
-1.87868846140027e-06
4.02048981647592e-05
-4.68829819107977e-07
-7.15610968870032e-06
6.87509648784715e-06
-1.21430937119769e-06
-2.95785260183337e-07
8.20229975183201e-06
-1.08838453401332e-06
-6.95594448843388e-07
1.01531194180518e-05
-9.77906008078035e-07
-1.26511215884325e-06
1.39624580137875e-05
-8.26100135572016e-07
-2.28879333363751e-06
3.99275812113719e-05
-6.59792690870391e-07
-7.85341102039384e-06
6.26971300150679e-06
-1.5041053189e-06
-2.46452762402465e-07
7.30839741746347e-06
-1.42908148787397e-06
-5.60139441799098e-07
8.7173780472119e-06
-1.3526652194887e-06
-9.76476133139145e-07
1.03777821000641e-05
-1.20224998357077e-06
-1.53621007473726e-06
1.36788035485549e-05
-9.92439483515286e-07
-2.54662681670192e-06
3.80754826409767e-05
-7.6542005156636e-07
-8.09953511586134e-06
5.69746535122144e-06
-1.72087157427184e-06
-2.06975342606481e-07
6.58149475088495e-06
-1.70028058022865e-06
-4.62212890885897e-07
7.67633615639213e-06
-1.66943337422913e-06
-7.81226923794062e-07
8.81712109997977e-06
-1.54451476910635e-06
-1.18478632465824e-06
9.9403538131261e-06
-1.31742103406837e-06
-1.7013057065282e-06
1.28397211548163e-05
-1.04909191448111e-06
-2.66772253740677e-06
3.5376429967747e-05
-7.74223040252439e-07
-8.02600383068364e-06
3.47482214249715e-05
6.32007989354494e-07
-2.6999236885667e-06
1.18248110711556e-05
2.68543714307752e-07
-7.44056717630086e-07
3.9840687927856e-05
3.22867018333744e-07
-5.14269002239507e-06
9.13811336729102e-06
-2.06150694056666e-07
-5.0584048971075e-07
1.35545408581178e-05
-1.2051793546937e-08
-1.51109528054103e-06
4.15262418799134e-05
-3.18535670038047e-09
-7.01524417289467e-06
8.15673706058448e-06
-6.86342034977635e-07
-4.01972696933991e-07
1.02060569523542e-05
-4.79097714509531e-07
-1.0064837313171e-06
1.44250517733677e-05
-3.5836883295619e-07
-2.14359143075445e-06
4.28851415177579e-05
-2.98620203347684e-07
-8.36165887657397e-06
7.46868753711678e-06
-1.12426781073995e-06
-3.31644692820748e-07
8.87424014890564e-06
-9.52214819663928e-07
-7.81771365776883e-07
1.09207703933633e-05
-8.18459774470112e-07
-1.4306605174282e-06
1.49057977272119e-05
-6.71611647792154e-07
-2.61923780722675e-06
4.24670706015822e-05
-5.53927119741952e-07
-9.14165569892669e-06
6.82285208708229e-06
-1.48993753406413e-06
-2.77510190561043e-07
7.93150098077385e-06
-1.37538572075965e-06
-6.31885270617912e-07
9.41916216143546e-06
-1.27125685805855e-06
-1.10402504529911e-06
1.1143218118384e-05
-1.1103581543427e-06
-1.7462877044534e-06
1.45651940831141e-05
-9.15117995166453e-07
-2.91985344703058e-06
4.03274487219171e-05
-7.23906980244174e-07
-9.38145866339378e-06
6.19705800963551e-06
-1.76924863981643e-06
-2.3444888921565e-07
7.14785038966967e-06
-1.71797017560503e-06
-5.23917981782961e-07
8.31164869732055e-06
-1.66218034512253e-06
-8.85934650815333e-07
9.50436449723659e-06
-1.51958734092424e-06
-1.34637946682136e-06
1.06450939615119e-05
-1.29247862527316e-06
-1.94090993945404e-06
1.36236168623611e-05
-1.04142217992283e-06
-3.05451634472735e-06
3.7289193171538e-05
-7.93591077496963e-07
-9.21869885864828e-06
5.61551637095951e-06
-1.96189130678676e-06
-1.99112829033764e-07
6.46921021142704e-06
-1.97045640461877e-06
-4.41873012398028e-07
7.43770690051206e-06
-1.96753339394404e-06
-7.32997314033937e-07
8.30556652063274e-06
-1.85934228742878e-06
-1.08122982124405e-06
8.96692657701735e-06
-1.63320079665633e-06
-1.49978801754587e-06
9.70581574915298e-06
-1.34987845678119e-06
-2.0267595015248e-06
1.24455203322445e-05
-1.06542527579481e-06
-3.05686363666273e-06
3.41400267911796e-05
-7.8100918990885e-07
-8.80882382244381e-06
3.67623300013153e-05
1.19665350339864e-06
-3.21075169902271e-06
1.25238422188109e-05
7.68656009422778e-07
-8.35673001759473e-07
4.24282754659666e-05
7.97163027661904e-07
-6.08464682662998e-06
9.78228361665782e-06
1.85279876989416e-07
-5.60904799204484e-07
1.44246122772838e-05
4.24325432833202e-07
-1.71557503794437e-06
4.42863118777547e-05
3.60243933136307e-07
-8.26297743158531e-06
8.81202508750269e-06
-4.13062831405225e-07
-4.48374616402973e-07
1.09568309934906e-05
-1.41886587018384e-07
-1.12677529244832e-06
1.53735575250904e-05
-1.71093214445044e-08
-2.44566486503196e-06
4.57144274434818e-05
-3.8858202077935e-08
-9.80564222370646e-06
8.11453069897791e-06
-9.60558366788896e-07
-3.71625702971896e-07
9.59584567622632e-06
-7.25525301338536e-07
-8.77147509764197e-07
1.17296491145755e-05
-5.6004194756704e-07
-1.61368526159871e-06
1.58867979631493e-05
-4.27181048657651e-07
-2.99601820636011e-06
4.51545647782913e-05
-3.85880060922873e-07
-1.0663246679512e-05
7.43386407235113e-06
-1.42299002770187e-06
-3.12289066804786e-07
8.61378694403804e-06
-1.25458558859449e-06
-7.11557344073469e-07
1.0175950927178e-05
-1.11227759019328e-06
-1.24473909439153e-06
1.19575916510014e-05
-9.36699236500725e-07
-1.97994312065836e-06
1.55008707694704e-05
-7.64593736593e-07
-3.34423815794845e-06
4.27061198744669e-05
-6.28336244001975e-07
-1.08919716992536e-05
6.75412604283385e-06
-1.78263244550929e-06
-2.64372553515299e-07
7.77561655273471e-06
-1.68907977340172e-06
-5.91580320760217e-07
9.00751495968999e-06
-1.59821262219571e-06
-1.00079302319376e-06
1.02477279813735e-05
-1.43352909205261e-06
-1.52421389791956e-06
1.13967386972447e-05
-1.2053011237474e-06
-2.20774536349733e-06
1.44554525090145e-05
-9.7617658358463e-07
-3.49941203615674e-06
3.93099127868282e-05
-7.59994824942188e-07
-1.06421740442012e-05
6.10957203607027e-06
-2.03775893393872e-06
-2.25544925588682e-07
7.03353761913024e-06
-2.01610620464484e-06
-5.00638803133827e-07
8.0666771197162e-06
-1.98487779378578e-06
-8.30188832980276e-07
8.97636112304479e-06
-1.85121830045088e-06
-1.22509529275412e-06
9.64241627273707e-06
-1.61196608031457e-06
-1.70237801872512e-06
1.03625449029915e-05
-1.33201073529579e-06
-2.30704745593961e-06
1.31551854412461e-05
-1.06571712201484e-06
-3.4920513338532e-06
3.58086330933929e-05
-8.05401099168626e-07
-1.00819006411283e-05
5.52349417534896e-06
-2.19822091915685e-06
-1.92698238007898e-07
6.3700803728983e-06
-2.2396302973497e-06
-4.27122450189201e-07
7.29425703831076e-06
-2.26728842804212e-06
-7.03313327137426e-07
8.00444305805517e-06
-2.17455945832631e-06
-1.01751565414362e-06
8.38888940418575e-06
-1.94639132887045e-06
-1.37133606340426e-06
8.66658947392266e-06
-1.65161802072924e-06
-1.78429148332682e-06
9.20501730156753e-06
-1.3502928033579e-06
-2.30433363906093e-06
1.18612221587191e-05
-1.07195221920377e-06
-3.3732368902872e-06
3.26525890794632e-05
-7.90554630033993e-07
-9.35639418909107e-06
3.8600854300808e-05
2.01313721396706e-06
-3.85165653689697e-06
1.31852924077831e-05
1.4731219799107e-06
-9.37912832661469e-07
4.49758516558795e-05
1.48679552151008e-06
-7.24510472171831e-06
1.04316743595967e-05
7.41625091629904e-07
-6.22358464142704e-07
1.52905470885037e-05
1.04626693848754e-06
-1.95070229734442e-06
4.70811833697344e-05
8.96341525096814e-07
-9.77584094767067e-06
9.50480044492532e-06
-1.1184678658426e-08
-4.96309748880326e-07
1.17337797688215e-05
3.46772807244175e-07
-1.2602968965238e-06
1.63310680982587e-05
4.78959242773535e-07
-2.79178820379971e-06
4.86322464249433e-05
3.54751009709646e-07
-1.15355213766497e-05
8.81914456175397e-06
-7.000487242689e-07
-4.17627011122085e-07
1.03681206769839e-05
-3.790202999557e-07
-9.8351310553773e-07
1.25735153470948e-05
-1.70630198670495e-07
-1.81711677757184e-06
1.68893775478753e-05
-6.05539551366736e-08
-3.42653558794356e-06
4.79427847625002e-05
-1.25686474057902e-07
-1.24681441195811e-05
8.11058617653095e-06
-1.28579235906297e-06
-3.5148729566013e-07
9.36121636777433e-06
-1.04356792950545e-06
-8.01009751970572e-07
1.09890800577006e-05
-8.49189007136904e-07
-1.40112584162579e-06
1.28129635611584e-05
-6.56943085344314e-07
-2.23929075071054e-06
1.64680490519396e-05
-5.24008637549178e-07
-3.82505591985018e-06
4.51753511507085e-05
-4.70376596304576e-07
-1.26620784115587e-05
7.37714249617085e-06
-1.74792093458304e-06
-2.98084835093269e-07
8.47353428549076e-06
-1.59708471159597e-06
-6.67705379474622e-07
9.76991017100011e-06
-1.4573344661272e-06
-1.12889228868056e-06
1.10471133020729e-05
-1.25964748846832e-06
-1.72117263259179e-06
1.21918606983114e-05
-1.03638601464553e-06
-2.50326745210641e-06
1.5325602061741e-05
-8.40808317615992e-07
-4.00190278345005e-06
4.14004860599206e-05
-6.76780826417129e-07
-1.23057389124556e-05
6.66518114026875e-06
-2.08357651601086e-06
-2.54664567599957e-07
7.66585783153074e-06
-2.0200323284866e-06
-5.65738528284591e-07
8.7635075522457e-06
-1.94878200797378e-06
-9.37839035717446e-07
9.70816943784249e-06
-1.78183607006533e-06
-1.38429078505996e-06
1.03673593142233e-05
-1.52831954485957e-06
-1.9261338728162e-06
1.10553490923112e-05
-1.25660230585997e-06
-2.6201195803184e-06
1.39010669972364e-05
-1.0133086259278e-06
-3.99196906211828e-06
3.75393171644297e-05
-7.82936705597526e-07
-1.15899041778987e-05
6.00766395805527e-06
-2.30363169130904e-06
-2.18296809146265e-07
6.92957213824741e-06
-2.31725765133263e-06
-4.83884311528449e-07
7.92032815524485e-06
-2.3155598506039e-06
-7.96026413382274e-07
8.66578143226645e-06
-2.19201562166128e-06
-1.15072751752279e-06
9.04399709457284e-06
-1.94102996899246e-06
-1.55113492136711e-06
9.29064283158511e-06
-1.63728965557637e-06
-2.02114785223529e-06
9.78999604740396e-06
-1.34133694136186e-06
-2.61640274806291e-06
1.24879335344422e-05
-1.08139814318727e-06
-3.84276144071837e-06
3.40575746832488e-05
-8.20885296040556e-07
-1.06659928348533e-05
5.41458886443879e-06
-2.42555797372364e-06
-1.86598954444052e-07
6.26472338321952e-06
-2.50386288519314e-06
-4.14274660688116e-07
7.18658236591812e-06
-2.56591870797906e-06
-6.81706457704926e-07
7.84101793315052e-06
-2.4907385494685e-06
-9.78588411934216e-07
8.06402046002481e-06
-2.25884850795893e-06
-1.29254877963471e-06
8.07068136168823e-06
-1.94978221726781e-06
-1.63227122883068e-06
8.14773308791463e-06
-1.63371564349863e-06
-2.02534574781397e-06
8.59346037062623e-06
-1.33964921660875e-06
-2.52674145282359e-06
1.11800543286091e-05
-1.07550879558486e-06
-3.60749744341533e-06
3.11239586490503e-05
-8.03301473556163e-07
-9.66415883944312e-06
4.00799703080056e-05
3.17782208745814e-06
-4.65693254501343e-06
1.3788801018322e-05
2.46004599685048e-06
-1.0504136823183e-06
4.73229889068351e-05
2.48810483743419e-06
-8.68687948342982e-06
1.10781948451686e-05
1.51720516443609e-06
-6.90602658251398e-07
1.61371473940654e-05
1.92335511629791e-06
-2.22106641517537e-06
4.97833754468506e-05
1.67940429325408e-06
-1.16266765300961e-05
1.02364460498103e-05
5.59421493830302e-07
-5.4944108156885e-07
1.25307291686917e-05
1.03794263350468e-06
-1.41098065186175e-06
1.72820198581706e-05
1.18568837623134e-06
-3.19098994636096e-06
5.15291435278463e-05
9.40633535933208e-07
-1.36133496018305e-05
9.58789300499419e-06
-3.13713799237718e-07
-4.66218350551926e-07
1.1195866099723e-05
1.25557270742138e-07
-1.10283711208202e-06
1.34461744164858e-05
3.92152430795087e-07
-2.04614498196591e-06
1.78963091624939e-05
4.75061356902293e-07
-3.91901832889675e-06
5.07471360758512e-05
2.69943978686012e-07
-1.46097907700145e-05
8.86394560507188e-06
-1.05608434437665e-06
-3.97322916650891e-07
1.01815256200045e-05
-7.1368688378062e-07
-9.03266821350373e-07
1.18605205279779e-05
-4.49022613208424e-07
-1.57655754793318e-06
1.37008576211595e-05
-2.36841075718857e-07
-2.52871833103461e-06
1.74477948550368e-05
-1.61964391486257e-07
-4.36998905951679e-06
4.76718623158416e-05
-2.2990763503846e-07
-1.47347221142203e-05
8.07785122956108e-06
-1.64896490583615e-06
-3.37535510956445e-07
9.2517251723951e-06
-1.41893524580281e-06
-7.54308565700363e-07
1.06053251006449e-05
-1.21295394309426e-06
-1.27265687046267e-06
1.19038935002558e-05
-9.75640730367117e-07
-1.93920433327608e-06
1.3020788909502e-05
-7.62431425680053e-07
-2.82979057121718e-06
1.62170721251275e-05
-6.21315733801288e-07
-4.56557232226581e-06
4.35130577326613e-05
-5.42204557777184e-07
-1.42324196492514e-05
7.292960088272e-06
-2.08770777279172e-06
-2.87991584585466e-07
8.3768108634995e-06
-1.96658176648612e-06
-6.39538916614083e-07
9.53874927232619e-06
-1.84198684275574e-06
-1.05829219480636e-06
1.05085918502844e-05
-1.62882986270997e-06
-1.5601277806226e-06
1.11429711965603e-05
-1.36083703477243e-06
-2.17232806765949e-06
1.17812110568924e-05
-1.10492219198642e-06
-2.96501035818828e-06
1.46733850484086e-05
-8.97931864809961e-07
-4.55305874476975e-06
3.92835502906676e-05
-7.16492466442594e-07
-1.33334597896435e-05
6.5556824382364e-06
-2.38482845746836e-06
-2.46766190517218e-07
7.56181613680766e-06
-2.35953253791979e-06
-5.47407028840593e-07
8.62165043949679e-06
-2.31609596265313e-06
-8.99745124440184e-07
9.39660198484843e-06
-2.15174307851063e-06
-1.29874959982153e-06
9.75546480366658e-06
-1.8745316487006e-06
-1.74954164611299e-06
9.95479672702999e-06
-1.56483362372895e-06
-2.28205100826869e-06
1.04008225290918e-05
-1.28051461771473e-06
-2.96373538440945e-06
1.31360941235668e-05
-1.0433002880766e-06
-4.37975588725095e-06
3.54795336814856e-05
-8.0730952690006e-07
-1.22045425866808e-05
5.88346884948456e-06
-2.56108369926487e-06
-2.11427767013821e-07
6.81441621859489e-06
-2.61579061557805e-06
-4.6945601778969e-07
7.80817590994749e-06
-2.64952198824442e-06
-7.7151480450937e-07
8.49905746327967e-06
-2.540304777618e-06
-1.1057750277597e-06
8.70899329252793e-06
-2.27783566536003e-06
-1.45889203748598e-06
8.67408783326048e-06
-1.94962037909086e-06
-1.84220615383119e-06
8.70157037847715e-06
-1.62774558112788e-06
-2.288571301067e-06
9.09753099154539e-06
-1.34074342674893e-06
-2.86112524979671e-06
1.17096449237668e-05
-1.09545574281201e-06
-4.0977751250148e-06
3.22670876054839e-05
-8.40836450553134e-07
-1.09682794892598e-05
5.27746968078182e-06
-2.63938103660704e-06
-1.79933776538896e-07
6.13866470736302e-06
-2.75873043696936e-06
-4.01198211936987e-07
7.07586743454453e-06
-2.85970468402677e-06
-6.62017546041249e-07
7.73001905042632e-06
-2.80650473946227e-06
-9.49688834529221e-07
7.90068161085983e-06
-2.57268968586278e-06
-1.24446414084246e-06
7.74971649692443e-06
-2.24714111073338e-06
-1.53953206722466e-06
7.5631849581525e-06
-1.91264458840324e-06
-1.85323133156032e-06
7.54471231187173e-06
-1.60377077735032e-06
-2.2177384577372e-06
7.94056222782635e-06
-1.32664878831397e-06
-2.69126391027819e-06
1.04889644276998e-05
-1.07992227312904e-06
-3.7619618301806e-06
2.96637267656902e-05
-8.20034379444951e-07
-9.7363129680061e-06
4.09231230600608e-05
4.79574095443342e-06
-5.63888638046272e-06
1.43232714336452e-05
3.82111151242025e-06
-1.17775562328363e-06
4.91831097004267e-05
3.92476208798355e-06
-1.04418046923987e-05
1.17187435623449e-05
2.58627674271762e-06
-7.66778656414933e-07
1.69536847412106e-05
3.15405803705832e-06
-2.53289734650188e-06
5.21722642940818e-05
2.80920699869419e-06
-1.38849534949551e-05
1.10110971064309e-05
1.35380216848071e-06
-6.11247462327698e-07
1.33444947197471e-05
2.00176034053944e-06
-1.58277061010575e-06
1.82135683370979e-05
2.18109036019647e-06
-3.65429462222022e-06
5.42352354769926e-05
1.78509859286301e-06
-1.61178508472284e-05
1.04326017589455e-05
2.3883887321202e-07
-5.24125134529873e-07
1.2085251832979e-05
8.40008440791462e-07
-1.24089018421854e-06
1.43420874644891e-05
1.18559213285965e-06
-2.30679418183448e-06
1.88931060870427e-05
1.23725044743376e-06
-4.48439524400584e-06
5.34359060079751e-05
8.43665061437681e-07
-1.71457599476856e-05
9.70887710909828e-06
-7.05657096703897e-07
-4.52987355349256e-07
1.10889380797848e-05
-2.26341878195443e-07
-1.02172889748289e-06
1.27951616059676e-05
1.31316172467916e-07
-1.7766383674336e-06
1.46145988691548e-05
3.69251617238964e-07
-2.85407194598543e-06
1.84234926857258e-05
3.64333292690481e-07
-4.98909226925864e-06
5.00947103906519e-05
1.24345111923763e-07
-1.71569601201859e-05
8.87184212280178e-06
-1.46589616115242e-06
-3.84178306962809e-07
1.01256405397685e-05
-1.12891858773752e-06
-8.56004064953605e-07
1.15234758202619e-05
-8.33317005079997e-07
-1.43712003327853e-06
1.28191522571023e-05
-5.45067883007229e-07
-2.18358488851116e-06
1.38731893337321e-05
-3.51089010298233e-07
-3.19198861291459e-06
1.71099465328701e-05
-2.91730864188175e-07
-5.2010250530546e-06
4.5570184599236e-05
-3.33853050812206e-07
-1.64579717565811e-05
8.00730595336712e-06
-2.03609621745516e-06
-3.27213950359269e-07
9.18260950311226e-06
-1.83597152143063e-06
-7.26295771195418e-07
1.04026789535223e-05
-1.63459834949808e-06
-1.19659100880652e-06
1.1383171484104e-05
-1.3656365056062e-06
-1.7572362834798e-06
1.19682680839027e-05
-1.08334504140632e-06
-2.44358203266704e-06
1.25294735991309e-05
-8.56320145241261e-07
-3.34304325124222e-06
1.54534159660201e-05
-7.08660434723676e-07
-5.17913255767874e-06
4.09827921397453e-05
-6.01124197197364e-07
-1.5330508994317e-05
7.17957253383835e-06
-2.43188371964862e-06
-2.79713790854216e-07
8.28033081247658e-06
-2.35269316416648e-06
-6.20393331504611e-07
9.40917935324696e-06
-2.2512570354314e-06
-1.01779557400517e-06
1.02066748105821e-05
-2.03300492227327e-06
-1.46418677820093e-06
1.0528261059107e-05
-1.72553414986578e-06
-1.96822212962532e-06
1.06589599984896e-05
-1.41428019180534e-06
-2.56712706584546e-06
1.1033069750099e-05
-1.15133236240199e-06
-3.34385232212632e-06
1.37955468004596e-05
-9.49582083769705e-07
-4.97941059497409e-06
3.6863642214376e-05
-7.54135405281224e-07
-1.3963408313874e-05
6.41652831990312e-06
-2.67863986610609e-06
-2.39247881740278e-07
7.43962785876878e-06
-2.69974109620734e-06
-5.31768390251813e-07
8.51026793551928e-06
-2.69270108713954e-06
-8.72892580018242e-07
9.23395089404765e-06
-2.53815297914103e-06
-1.24822656061455e-06
9.41808944028491e-06
-2.23921507991707e-06
-1.64315874269846e-06
9.32457382575431e-06
-1.89222313144881e-06
-2.07263297777118e-06
9.28520344164259e-06
-1.56940216063743e-06
-2.57679064927759e-06
9.61746983353109e-06
-1.29589285498797e-06
-3.23107669206946e-06
1.22514643024204e-05
-1.0730812184e-06
-4.65579462305316e-06
3.33876436406722e-05
-8.37544776560786e-07
-1.24875365109586e-05
5.72441862633804e-06
-2.80411118016872e-06
-2.03921358576733e-07
6.6718996725724e-06
-2.90561131832601e-06
-4.54841580685478e-07
7.68768410990995e-06
-2.98127601350867e-06
-7.49518085252162e-07
8.38416660774016e-06
-2.89289170697245e-06
-1.07307442241853e-06
8.54281985457523e-06
-2.62244685452874e-06
-1.40330021986049e-06
8.34368407856145e-06
-2.26888003653774e-06
-1.73359668176012e-06
8.09846964037033e-06
-1.91894297560402e-06
-2.08628888023831e-06
8.02173491493587e-06
-1.60704009940307e-06
-2.499292606587e-06
8.36153575016214e-06
-1.33852491049536e-06
-3.03902483996778e-06
1.09207308658007e-05
-1.11048355906802e-06
-4.25988771610863e-06
3.05577012575316e-05
-8.65267949953787e-07
-1.09969746177376e-05
5.1022809566607e-06
-2.83491139038194e-06
-1.72161058921e-07
5.97897026213183e-06
-2.99907874978781e-06
-3.86540399844649e-07
6.93957645159145e-06
-3.14371283807665e-06
-6.41203838081791e-07
7.6176404992772e-06
-3.11808574485025e-06
-9.2257278682962e-07
7.79620760181799e-06
-2.88684784178197e-06
-1.20830835314336e-06
7.59714499753289e-06
-2.54608734369958e-06
-1.48307140044396e-06
7.2590567014866e-06
-2.19014533039326e-06
-1.7489926934877e-06
6.98462398633264e-06
-1.86205228887848e-06
-2.03027707919923e-06
6.91070981345907e-06
-1.57060880244644e-06
-2.36053974508114e-06
7.28140243084008e-06
-1.31388006234155e-06
-2.79878924436725e-06
9.83020479848341e-06
-1.08739959471037e-06
-3.83989812317923e-06
2.83250534283716e-05
-8.41884130747027e-07
-9.57895093129524e-06
4.06158719559516e-05
7.07335807416537e-06
-6.7661015606583e-06
1.47741721537491e-05
5.66754180656256e-06
-1.32269622964024e-06
5.00787735422949e-05
5.94695289808989e-06
-1.24814814878544e-05
1.23519521254056e-05
4.04496986541562e-06
-8.57065804841554e-07
1.77298831108316e-05
4.86225280475148e-06
-2.89143885434863e-06
5.38963202032529e-05
4.40366697155575e-06
-1.65695082084147e-05
1.18371845694568e-05
2.44711851735837e-06
-6.86928493317207e-07
1.41781824309597e-05
3.33397731886086e-06
-1.78038342647573e-06
1.91153666440234e-05
3.56832626418158e-06
-4.19380737563618e-06
5.64822179821432e-05
2.9747503631436e-06
-1.91066713537839e-05
1.1369837810488e-05
1.01290294714959e-06
-5.96335938604798e-07
1.30471788829627e-05
1.83442841344088e-06
-1.40584015519949e-06
1.52601179994061e-05
2.28676393402735e-06
-2.60647255329277e-06
1.98663344062095e-05
2.30096741456913e-06
-5.14338001345094e-06
5.58068955151336e-05
1.65284709051944e-06
-2.01416655687113e-05
1.06673482551229e-05
-1.96829921616007e-07
-5.22801418922013e-07
1.21013261968551e-05
4.68519875510937e-07
-1.16502228959092e-06
1.38009605724353e-05
9.49140523623812e-07
-2.01023463090152e-06
1.5549040926003e-05
1.21986942325846e-06
-3.22385145060956e-06
1.93785558034545e-05
1.10604633892251e-06
-5.70182804859495e-06
5.22919336988904e-05
6.37809454801367e-07
-1.99807697993353e-05
9.78134261553267e-06
-1.17333059363815e-06
-4.41826174908553e-07
1.11167628375671e-05
-6.9126211356865e-07
-9.79186789227191e-07
1.25392004691421e-05
-2.76240468640707e-07
-1.62989378792243e-06
1.37969870077357e-05
7.68340253458946e-08
-2.4620513908639e-06
1.47405368976008e-05
2.39867411872211e-07
-3.59694782016357e-06
1.79832730535957e-05
1.84050409340027e-07
-5.92211095445461e-06
4.74619670694637e-05
-2.46114013067632e-08
-1.90241067391832e-05
8.82805729568586e-06
-1.91170386215048e-06
-3.74942946483252e-07
1.01032760776471e-05
-1.6047131375218e-06
-8.29048083311866e-07
1.13728483003565e-05
-1.30125759007826e-06
-1.35822985891272e-06
1.23413430620912e-05
-9.58478330873669e-07
-1.98187681272071e-06
1.28423760349875e-05
-6.63311063554562e-07
-2.74546533569206e-06
1.32876982409504e-05
-4.82871772482863e-07
-3.75906605122575e-06
1.62209347475574e-05
-4.22714214089394e-07
-5.87966784433995e-06
4.25517979567041e-05
-4.20920800693848e-07
-1.76060307489726e-05
7.89562733028059e-06
-2.43316240524552e-06
-3.18988134471634e-07
9.10350361267744e-06
-2.28006088691416e-06
-7.06295793534101e-07
1.03029636665882e-05
-2.10120339661006e-06
-1.15347255829487e-06
1.11074798479193e-05
-1.8108870448294e-06
-1.65214202603972e-06
1.1367087818789e-05
-1.46831799709874e-06
-2.21108454583104e-06
1.140002129418e-05
-1.16257300136447e-06
-2.87838401169781e-06
1.1674614581912e-05
-9.36250657094831e-07
-3.75699222675337e-06
1.44497188512509e-05
-7.90751948968529e-07
-5.64366231938489e-06
3.81447235300333e-05
-6.58865502531174e-07
-1.59526945158691e-05
7.02645972564697e-06
-2.77010870172699e-06
-2.71706132510224e-07
8.15555932399984e-06
-2.74416356896349e-06
-6.0417370962305e-07
9.30799835988323e-06
-2.67994514032596e-06
-9.89434239149573e-07
1.00580416064273e-05
-2.46550533197804e-06
-1.40938336965336e-06
1.01992153850702e-05
-2.12291813717805e-06
-1.84792496890004e-06
1.00247862919368e-05
-1.75808742593724e-06
-2.32462192058777e-06
9.89670387525588e-06
-1.44100268758851e-06
-2.8889514364381e-06
1.0147451277123e-05
-1.19077300088452e-06
-3.63263718845459e-06
1.27930330731515e-05
-1.00115553307455e-06
-5.27394559761488e-06
3.44267865306265e-05
-7.97972706556886e-07
-1.42045549957587e-05
6.2338092299402e-06
-2.95708787115589e-06
-2.3094249260159e-07
7.28110179112078e-06
-3.03233582794071e-06
-5.15854731945266e-07
8.38315961756218e-06
-3.07083069668446e-06
-8.49113273218345e-07
9.1209262748491e-06
-2.93533382248666e-06
-1.21247008949771e-06
9.25622503725218e-06
-2.6203361947639e-06
-1.58050828282078e-06
8.99194479554791e-06
-2.23643478973322e-06
-1.94720404174236e-06
8.67009419129548e-06
-1.87347832471322e-06
-2.34017614131352e-06
8.51831426784413e-06
-1.56404951975232e-06
-2.80520794671262e-06
8.78875804354568e-06
-1.31031004323739e-06
-3.42106549807022e-06
1.13541211046009e-05
-1.10362697600687e-06
-4.82309310790858e-06
3.13955956377207e-05
-8.72911568582971e-07
-1.24525029403627e-05
5.51987258872936e-06
-3.0265653019835e-06
-1.95137496459872e-07
6.4877468515531e-06
-3.17989849637602e-06
-4.38410609476721e-07
7.53389411531419e-06
-3.30406324999934e-06
-7.26371727128016e-07
8.26232778277424e-06
-3.24419977576449e-06
-1.04289660363087e-06
8.43523924151474e-06
-2.97212409756484e-06
-1.36242775018073e-06
8.18898184079487e-06
-2.59573142395994e-06
-1.66828384704481e-06
7.78636614877221e-06
-2.21556767034212e-06
-1.9642781941163e-06
7.44627298627246e-06
-1.87560647240227e-06
-2.27936722017342e-06
7.30943005895998e-06
-1.58366423343913e-06
-2.65286875231499e-06
7.62016498275553e-06
-1.33684066862654e-06
-3.15142585266279e-06
1.01675800976764e-05
-1.12894440294909e-06
-4.33357851633449e-06
2.89846927607025e-05
-8.95407860845108e-07
-1.07611896110321e-05
4.88387855706466e-06
-3.00742720958174e-06
-1.63067107817145e-07
5.77597770321952e-06
-3.21930074574534e-06
-3.69496709998854e-07
6.76249554104072e-06
-3.41199968115779e-06
-6.17544708262556e-07