/*--------------------------------*- C++ -*----------------------------------*\
  =========                 |
  \\      /  F ield         | OpenFOAM: The Open Source CFD Toolbox
   \\    /   O peration     | Website:  https://openfoam.org
    \\  /    A nd           | Version:  12
     \\/     M anipulation  |
\*---------------------------------------------------------------------------*/
/*   Windows 32 and 64 bit porting by blueCAPE: http://www.bluecape.com.pt   *\
|  Based on Windows porting (2.0.x v4) by Symscape: http://www.symscape.com   |
\*---------------------------------------------------------------------------*/
FoamFile
{
    format      ascii;
    class       volVectorField;
    location    "100";
    object      U;
}
// * * * * * * * * * * * * * * * * * * * * * * * * * * * * * * * * * * * * * //

dimensions      [0 1 -1 0 0 0 0];

internalField   nonuniform List<vector> 
10052
(
(-4.69758751720781e-05 0.00369541382671406 0.000193579183330278)
(-5.36289050597585e-05 0.00402100409781127 0.000208751377747046)
(-3.8638730154129e-05 0.00268007672364063 0.00028753831367446)
(-0.000144911285954708 0.00356778677456392 0.000212717257963088)
(-6.12500529967375e-05 0.00438179667209075 0.000221669343288457)
(-4.39814250557727e-05 0.00291906158441772 0.000302596491492776)
(-0.000166420134439668 0.00385708458697845 0.000234556056095508)
(-0.00011348874522466 0.00254255365999834 0.000303257873490857)
(-0.00025498535856074 0.00349274659271413 0.000221753348111231)
(-7.20618848017764e-05 0.0047686487613157 0.000229686595963987)
(-5.01756032483958e-05 0.00318029002637557 0.00031215227360727)
(-0.000191434040780583 0.00419745668634908 0.000253071303800682)
(-4.17681465851985e-05 0.00288104964676003 0.000413376042397421)
(-0.000129078510026068 0.00275479346542871 0.000321699764320246)
(-0.000295443677968447 0.00374930102152885 0.0002479386543517)
(-0.00019265122041653 0.00246985660899202 0.000313685343017287)
(-0.000375229423954525 0.00346493589957128 0.000221042922305336)
(-8.53837249234721e-05 0.00517869853361639 0.000231556390327269)
(-5.7597922892863e-05 0.00345817171241429 0.000311085566471484)
(-0.000224389108684024 0.00456522264156774 0.000265417463685361)
(-4.74807734599971e-05 0.00313213947050274 0.000419983999435737)
(-0.000146739081817361 0.00299033953110517 0.00033479999704483)
(-0.000341349108250155 0.00407075606577803 0.000268872437795475)
(-3.90422358213657e-05 0.00287937706161566 0.000535610432112224)
(-0.000126728803618646 0.00281255916577396 0.000429799661738523)
(-0.000220169250287071 0.0026566749068943 0.00033428104872352)
(-0.000438792350452484 0.00369682507905251 0.000248556638778371)
(-0.000275538206807667 0.00239450900686201 0.000318351772978986)
(-0.000100741647263041 0.00560573434440681 0.000224693505928407)
(-6.60632336096004e-05 0.00374827403246459 0.000295394473949025)
(-0.000264357817738948 0.00495461081083393 0.000274089482165928)
(-5.38400093922934e-05 0.00340130364174068 0.000411868192287071)
(-0.00016782557688594 0.00324731469892339 0.000337196816052829)
(-0.000398529377860487 0.00441953204744738 0.000283715998283943)
(-4.42188270925872e-05 0.00312780536145669 0.000543215625506238)
(-0.000143391395774363 0.00304772786739568 0.000438637678375426)
(-0.000250404175341971 0.00287229387031255 0.000349655880593813)
(-0.000507661698516383 0.00399687130037366 0.000274022356608747)
(-3.74116234360681e-05 0.002898974873869 0.00066208604257396)
(-0.000120415742467688 0.00283496022404605 0.000550104753286581)
(-0.000217436305523736 0.00274504112190892 0.000440619166158378)
(-0.00031847547991766 0.0025743762439268 0.000340196289237202)
(-0.000582350524037932 0.00359560241207339 0.000244951227611989)
(-0.000118293229058477 0.00603091366901665 0.000204974988832551)
(-7.51754154656868e-05 0.00404389917678139 0.000258749109137871)
(-0.000310615809213484 0.00535720605083616 0.000276379037551959)
(-6.07654197591751e-05 0.00368477904384414 0.000383160729771894)
(-0.000191466382355239 0.0035152384623542 0.000326133838842251)
(-0.000467061584104119 0.00478817583579324 0.000295678132876961)
(-4.9853271139889e-05 0.0033953391055812 0.000533140839242479)
(-0.0001619529070208 0.00330347719671515 0.000433343685533734)
(-0.000285752248336706 0.00311193722834415 0.000354424368413044)
(-0.000588817141174406 0.00432719965600225 0.000287967155557053)
(-4.21953382526059e-05 0.00314725154708742 0.000674041884432016)
(-0.000135741766494166 0.00307206160742764 0.000559695406840968)
(-0.00024606209133309 0.00296521030922679 0.00045113690819727)
(-0.00036108445577922 0.00276249849516315 0.000358043345829145)
(-0.000674910922773675 0.00385659042808185 0.000271993742341999)
(-3.63526336039323e-05 0.00292605213724956 0.000793419558548641)
(-0.000115696044493314 0.00285740854279331 0.000672969374558457)
(-0.000208749079203352 0.00277496261211015 0.00055878952548275)
(-0.000313769952152031 0.00265450748051956 0.000444088271919443)
(-0.000412117165716422 0.00243864498714013 0.000338892240907508)
(-0.000709869088979547 0.00341143252488172 0.000247824251354437)
(-0.000139238253985848 0.00642807442274299 0.000167704364929133)
(-8.47595649719093e-05 0.00433485801238333 0.000193506856814683)
(-0.000363547047669953 0.00575213646384921 0.000270997320579505)
(-6.81194216935023e-05 0.00397804060132633 0.000326601363996314)
(-0.000216723337150845 0.00378581247938492 0.000295273408477905)
(-0.00054731312905244 0.0051671864621472 0.000302148980545796)
(-5.58181079399641e-05 0.00368032466947449 0.000498772809320735)
(-0.000181881726623957 0.0035740363955902 0.000408339935938037)
(-0.0003249798113225 0.00336149322569703 0.00034610120764982)
(-0.000687682619541166 0.00467731156762567 0.000300301949746993)
(-4.73086807377184e-05 0.00341680849075405 0.000666810942062598)
(-0.000152236395470676 0.00332943393907927 0.000552206310606283)
(-0.00027779783985459 0.00320693846096608 0.000447813189285506)
(-0.000410495958889132 0.00298328139638164 0.000364188689099288)
(-0.000782378091958039 0.00416139448177053 0.000292585914895108)
(-4.08562265831836e-05 0.0031752253088702 0.000813088037110578)
(-0.000129883451016565 0.0030959915265212 0.000686536675308571)
(-0.000235344134762323 0.00299986112361448 0.000569800606193416)
(-0.000355042832740255 0.00285876979409778 0.000456167670325401)
(-0.000469326797174816 0.00261178981939987 0.000359108359169226)
(-0.000824027015114589 0.00364359764612388 0.000274591817403875)
(-3.55717737010022e-05 0.00294973421156569 0.000927405208074682)
(-0.000112253546063318 0.00288233589016655 0.000799049061726994)
(-0.000201535873219799 0.00279662604960631 0.000677970191315786)
(-0.000303211908247722 0.00268577845091592 0.000559299623018865)
(-0.000407265488427889 0.00251875025291893 0.000440032273194787)
(-0.000496424540569916 0.0022627447504755 0.000335748642362257)
(-0.000816203832232132 0.00316330240230994 0.00024564985662668)
(-0.000165366333330898 0.00677383123802027 0.000108195436376931)
(-9.53313071122148e-05 0.00460828411910081 9.24859799807078e-05)
(-0.000424466592271626 0.00611133282809245 0.000252367850160624)
(-7.58124020002732e-05 0.00427561735038633 0.000233387004042836)
(-0.000243202473349799 0.00404794231511366 0.000237921094889992)
(-0.000640219388667932 0.00553547682366094 0.000302582869819189)
(-6.21159576705007e-05 0.00398037401380517 0.00043216603837511)
(-0.00020265072462933 0.00385314155201259 0.000356576038872035)
(-0.000366941120446198 0.00361161204943324 0.000319024076639438)
(-0.000802218010759441 0.0050350944828161 0.000307348157673607)
(-5.27458584511717e-05 0.00370736228023742 0.000633567155743209)
(-0.000169467503909011 0.00360436048544477 0.000521324277196059)
(-0.000311796392571405 0.00346336782990404 0.000425428392596909)
(-0.000465162170747438 0.00321344780138624 0.000357408944323143)
(-0.000910408895474717 0.00448449683092984 0.000303762978954952)
(-4.56611836992303e-05 0.00344811757963371 0.000813436436503698)
(-0.000144925567546198 0.00335607066669355 0.000681542477026866)
(-0.000263794702916408 0.00324511986140991 0.000564181792773044)
(-0.000400068252216011 0.00308363712112813 0.000454243400006978)
(-0.000532352870423854 0.00280680861981228 0.000369137492660418)
(-0.000958189718308917 0.00391601153073682 0.000296688066684429)
(-3.98758701577709e-05 0.00319940078929316 0.000957680934149349)
(-0.000125669414107006 0.00312203147471704 0.000819617661366729)
(-0.000226168997010621 0.00302390429906084 0.000692515571552863)
(-0.000341575138009358 0.00289652692910196 0.000571258701315799)
(-0.000460982802480229 0.00270507503086947 0.000453664304285657)
(-0.000565894138079852 0.00241523836864361 0.000355921754156864)
(-0.000945589013415358 0.00336498349930317 0.000271269129464295)
(-3.48496684412231e-05 0.00296176381531532 0.00106181930542919)
(-0.000109525562309326 0.00290264546817152 0.000927122624753332)
(-0.000196001261469629 0.00281863982750433 0.000798865385110841)
(-0.000293661102720959 0.00270618630232508 0.000674180574855828)
(-0.000395761666078316 0.00255310401338256 0.000551129645850306)
(-0.000491396924048149 0.00234397196136128 0.000431113456954237)
(-0.000567605140600402 0.00205636145501577 0.000328722301462782)
(-0.000896819896119816 0.00287665665123699 0.000237385485477576)
(-0.00019607169232303 0.00704579169605755 1.93932202261261e-05)
(-0.000107122159745183 0.00485169437578255 -5.21871604385121e-05)
(-0.000492859455423884 0.00641138984438306 0.000212032282470149)
(-8.38345332143659e-05 0.00457118522922438 9.2478851664007e-05)
(-0.000271051970504334 0.00428844267090826 0.000147156736648162)
(-0.000741929211523961 0.00586546760149999 0.000290878053333767)
(-6.87350726004847e-05 0.00429293819257718 0.000323740956063809)
(-0.000223900342131452 0.00413490718079561 0.00026970257993893)
(-0.000411345697611498 0.00385094798524456 0.000267306313274898)
(-0.00093274980202592 0.00538297427053208 0.000309132059914674)
(-5.84733500792154e-05 0.00401840127906493 0.000566087873068066)
(-0.000187258581411142 0.00389328973112648 0.000459455158184612)
(-0.000347209551821326 0.00372694842337036 0.00037729055546656)
(-0.000523555339548782 0.00344272865797496 0.000333884044075633)
(-0.00105576619412456 0.00481303663644366 0.000310103774621934)
(-5.07575420759623e-05 0.00374564389049091 0.000787618975788648)
(-0.000160695826226157 0.00363672736546051 0.000651552019927779)
(-0.000293651657205043 0.00350734912142423 0.000536095935240384)
(-0.000448148113251071 0.00332229485498214 0.000433886148457)
(-0.000601244342368105 0.0030127509942572 0.00036442738283437)
(-0.00111148870580636 0.00420020513733974 0.000307102778371992)
(-4.4476685057379e-05 0.00347501728445615 0.000969515285362436)
(-0.000139899658456417 0.00338516840384546 0.000821549598605745)
(-0.000252283685812263 0.00327212171503615 0.000689143791505091)
(-0.000382365878303239 0.00312626384150328 0.000567058610605321)
(-0.000518619543775395 0.00290905430155898 0.000453946422206709)
(-0.000642001443431014 0.00258558991665531 0.000368059350424617)
(-0.00109938809806755 0.00359907687895981 0.00028983660871845)
(-3.90114161905051e-05 0.00321027536973763 0.00110486251117502)
(-0.000122401900747784 0.00314267732873539 0.000957355466541797)
(-0.000219251778822852 0.00304707119553095 0.000819749589916312)
(-0.000329280879425173 0.00291971970754515 0.000689095992369854)
(-0.000445420888299512 0.0027466660942282 0.000563931031493919)
(-0.000555852505600944 0.00251033213163638 0.00044558546002643)
(-0.000646092280159314 0.00218659037024505 0.00034907529542241)
(-0.00103601336115673 0.00304344898379533 0.000259802955923026)
(-3.40508410403312e-05 0.00295595619796748 0.00119457750296987)
(-0.000107029890240872 0.00291169899344988 0.00105574236909839)
(-0.00019134249181073 0.00283584750480103 0.00092104548134056)
(-0.000285927918711237 0.00272606050859496 0.000789592243334149)
(-0.00038443214291601 0.0025750627357095 0.000660777567448521)
(-0.000479376921966882 0.00238399073210595 0.000536308290110755)
(-0.000562189134957633 0.00214168939879369 0.000417993089637391)
(-0.000622777202546493 0.00182969926705816 0.000317810061591646)
(-0.000948074438252678 0.00256743403648712 0.000225300630085937)
(-0.000231802297409639 0.00720103725915939 -0.000111499212080587)
(-0.000119415117191343 0.00505154636597346 -0.000256675776021255)
(-0.000568357214925948 0.00662863217632512 0.000144593051757095)
(-9.22855751787449e-05 0.00485762440683189 -0.000109340812398092)
(-0.000299833102079336 0.00449423210774044 1.47968795860821e-05)
(-0.000851640154952795 0.00613161272277604 0.000256917269874907)
(-7.58195610121925e-05 0.00461508783222498 0.000161974897686733)
(-0.000245376865753582 0.0044128837487425 0.000137628442035981)
(-0.000457051475742396 0.00406622049636719 0.000184259491238792)
(-0.00107435835319324 0.00569141344012816 0.000297373620825917)
(-6.45433469486832e-05 0.0043497149484498 0.000454577141660967)
(-0.000205403052812039 0.00419331774458064 0.00035766207401651)
(-0.000383605285891244 0.00399145604697589 0.000295581160250143)
(-0.000584355518862118 0.00365944830636606 0.000287938812228051)
(-0.00121980253436587 0.0051272825020923 0.000308247773359499)
(-5.6156255588997e-05 0.004068941774386 0.000727391831747305)
(-0.000176942403487863 0.00393657090276717 0.000588726858982642)
(-0.000324507031036071 0.00378215933600165 0.000478310442527962)
(-0.000498075524455782 0.00356636974053371 0.000389127159926618)
(-0.000673369333680423 0.00321656454247665 0.000343643780901206)
(-0.00128272876555543 0.0044831455118871 0.000307445118923596)
(-4.93704510562663e-05 0.003778567876614 0.000956250093837936)
(-0.000154840425133351 0.00367208860131469 0.000798292263148699)
(-0.00027962321554863 0.00353994870593105 0.000661817532721445)
(-0.000425158337943088 0.00337151743787419 0.000541312323166794)
(-0.000579450439005092 0.00312472800529217 0.000436248833883173)
(-0.000722699636448374 0.00276423511982399 0.000365848744472426)
(-0.00127084224488623 0.00383879552043002 0.000298301288807765)
(-4.34829019895666e-05 0.00348646905364969 0.00113111744928786)
(-0.000136115950033293 0.00340804698289266 0.000969761726427791)
(-0.000243907855993041 0.00329804039489491 0.000822671772791372)
(-0.000366922972879745 0.00315263434572517 0.000686830217094633)
(-0.000497834716946056 0.00295647678946772 0.000561529912551533)
(-0.000624427982140184 0.00269053187020359 0.000447988622735375)
(-0.000732015872008313 0.00233086323212249 0.000362363906723034)
(-0.00120064781060385 0.003237752974256 0.00027759147158322)
(-3.80991169852587e-05 0.00320069904108017 0.00125179369116888)
(-0.000119504192485035 0.00315039837546515 0.00109766658889024)
(-0.000213608367050988 0.00306445199629153 0.000950677337523846)
(-0.000319501273444334 0.0029407523462682 0.000810153104695462)
(-0.000430498270177384 0.0027713744417472 0.000675948120603785)
(-0.000538738744848279 0.00255727971722113 0.00054978598834341)
(-0.000634663783603749 0.00228534825233559 0.00043320281342214)
(-0.000707173107646769 0.00193632140777006 0.000338402573309345)
(-0.00109127960300214 0.00269869344966486 0.000246790679594281)
(-3.30967033621007e-05 0.00292783151172899 0.00132357955344492)
(-0.000104404201731904 0.00290398442619561 0.00118314093274245)
(-0.000186889038481498 0.00284249010412465 0.00104368097395802)
(-0.000279153202396699 0.00274134656360759 0.000905722285722425)
(-0.00037478855896739 0.00259552318646428 0.000770167533625086)
(-0.000466761317565363 0.00240959412097362 0.000639779359280058)
(-0.000549801353939845 0.00218808309061221 0.000516567623171918)
(-0.000617180434562771 0.00192017988546493 0.000401382145566557)
(-0.000660042613885341 0.00158909830480451 0.000303638894494493)
(-0.000969008061667761 0.00224658446987949 0.000210214181184838)
(-0.000265653165774893 0.00719143865497492 -0.000298946158533384)
(-0.000131078936819925 0.00519144656542631 -0.00054350958035617)
(-0.000652963471284759 0.00671920973099276 3.88391261497374e-05)
(-0.000101080089797556 0.0051266796703709 -0.00038764801678925)
(-0.000327254643634793 0.00465174330272528 -0.0001735529882776)
(-0.000971469939839857 0.0063067306718569 0.000192037246086962)
(-8.33677700892548e-05 0.00494373555958195 -6.651573812271e-05)
(-0.000266883989807381 0.00467960645043073 -5.16695233167292e-05)
(-0.000501805050690455 0.00424356672286929 6.0121923076629e-05)
(-0.00122737589678839 0.00592782205529491 0.000257054149892166)
(-7.11915479617235e-05 0.00470117383692762 0.000287540904474635)
(-0.000223844022363992 0.0045014549814144 0.000205616302294534)
(-0.000420595403610937 0.00425020131052332 0.000170895967989955)
(-0.000644328170423615 0.00385005631234723 0.000209405055700677)
(-0.00139819498744233 0.00539530098704436 0.000287823951971856)
(-6.196587420873e-05 0.00441971197204679 0.000623130365042705)
(-0.000193639815768885 0.00425488928904361 0.000484032957169519)
(-0.000356071216629932 0.00406646889477787 0.000382543926407539)
(-0.000549087369313163 0.00380910477559318 0.000312606859381645)
(-0.000746325957745808 0.00340617476103384 0.00030143407847138)
(-0.00147212100150613 0.00474892488088333 0.000301641271775338)
(-5.46377872474125e-05 0.00411256060952779 0.000909999283524481)
(-0.000170348116006967 0.00398303754935658 0.000742088773501874)
(-0.000307851452083915 0.00382533259485481 0.000603067963904672)
(-0.000469174770856913 0.00362735875004522 0.000487442092527922)
(-0.000641895917544724 0.00334353457505924 0.000395687938148621)
(-0.000805087095001988 0.00293887462358899 0.000348750301132957)
(-0.00145679057573255 0.00407260736394508 0.000302567715533815)
(-4.82884520986097e-05 0.00379314530377257 0.00113430463687829)
(-0.000150575066519767 0.0037000596838348 0.000957927347532712)
(-0.000269744978122255 0.00357147713307131 0.000801364771525158)
(-0.000406099331072074 0.00340338945217026 0.000661666060292445)
(-0.000552351600380973 0.00317943030130066 0.000538721022591035)
(-0.000695581407866456 0.00287963170799117 0.000433595891250279)
(-0.00082128790920557 0.00248078315797979 0.000362679717091031)
(-0.00137977661367222 0.00343163563688961 0.000288287565122186)
(-4.24771215203102e-05 0.00347413423987352 0.0012944212399755)
(-0.000132874338707147 0.00341591284712409 0.00112327912406313)
(-0.000237312798305472 0.00331724770103029 0.000963076549946267)
(-0.00035496937243103 0.00317624709901081 0.000813464198107468)
(-0.000478868609726441 0.00298467553467567 0.00067494967450286)
(-0.000600950476230277 0.00274389181310295 0.000549349849827069)
(-0.000711340023071508 0.00243983547156195 0.000437625170625255)
(-0.000799163138807021 0.00205417562017973 0.000352793702138355)
(-0.00125902017352339 0.00285254741321113 0.000263943760652505)
(-3.70346206263566e-05 0.00316549678168925 0.00139563693020134)
(-0.000116538881959419 0.00313887066238065 0.0012381189748309)
(-0.000208414070202779 0.00306963089845522 0.00108394373424334)
(-0.000311241973634505 0.0029561250876975 0.000934121262119149)
(-0.000418145449431375 0.00279306957533808 0.000790220332795475)
(-0.000521754411822271 0.00258580572333507 0.00065515521086478)
(-0.000616575984065126 0.00233898136030002 0.000530722008786367)
(-0.0006949648855524 0.00203970638635943 0.000417400040805006)
(-0.000747274426825565 0.00167103362972032 0.000324523880300498)
(-0.00111091495403441 0.00234290986847704 0.000230689200079417)
(-3.19426415666155e-05 0.00287442298651366 0.00144648383858824)
(-0.000101389966940535 0.00287520415483544 0.00130723843102703)
(-0.00018214847633437 0.00283349293782612 0.0011653038199887)
(-0.000272541053043339 0.00274683839847966 0.00102214435860624)
(-0.000366065556660037 0.00261141937483042 0.000879830205850267)
(-0.000455699563927 0.00243296501958754 0.000742572128620218)
(-0.000536436072652271 0.00221891343051443 0.000613180176723512)
(-0.000605012565174829 0.00197364916006311 0.000492882880510574)
(-0.000655421976056694 0.00168652974342505 0.000381543597937504)
(-0.00067925364300855 0.00134194082266637 0.000286425460242129)
(-0.00096021335062 0.00192226332123173 0.000192965281145149)
(-0.000312635018410174 0.00692477712843273 -0.00053738760974564)
(-0.000140591003454871 0.00525421587198398 -0.000924221451335137)
(-0.000742641227629827 0.0066267640086823 -0.000119812822243563)
(-0.000109736287701151 0.00536990312930352 -0.000760788618607859)
(-0.000349798226292971 0.00474524175508878 -0.000436604260246159)
(-0.00109919218930747 0.00634834352381139 8.60334028306921e-05)
(-9.14120126803873e-05 0.00527589990498927 -0.000377445722538615)
(-0.000287575289726367 0.00492703403447715 -0.000312226137511819)
(-0.000541998133634299 0.00437046565741631 -0.000118601232621902)
(-0.0013911320933933 0.00606736264530408 0.000185844489213376)
(-7.84580514527803e-05 0.00507315287216337 5.13457488483097e-05)
(-0.000242305986153513 0.00481457413282163 -8.72808729113069e-06)
(-0.00045741125506105 0.00449566153421552 -7.88222244233317e-06)
(-0.000700266797904609 0.00400113748706881 9.00756237934012e-05)
(-0.00158474201277989 0.00558761783142193 0.000248055656279666)
(-6.83220772678891e-05 0.00480044000692888 0.000463566205554534)
(-0.000210968174167193 0.00459133489628483 0.000327009176587826)
(-0.000388041495134412 0.00435710527296187 0.000239314022428205)
(-0.000600166481331123 0.00404366794100224 0.000195303655339238)
(-0.000816493649185538 0.00356811847422435 0.000229824016695367)
(-0.00167284849566554 0.00496720840841808 0.000290056400556957)
(-6.03946264625453e-05 0.00448042616434912 0.000821552650384863)
(-0.000186601720716478 0.00431915340588155 0.000644032654253029)
(-0.000336889518568581 0.00412720945342125 0.000504651034190121)
(-0.000514001458730355 0.00389034183173451 0.000397804551708901)
(-0.000704681984508072 0.00355840484388713 0.000325756454732829)
(-0.000886649604669598 0.00309822679560915 0.000313032287511342)
(-0.00165565481058741 0.00428392297733781 0.000300812890923525)
(-5.35239874195797e-05 0.0041339616089393 0.00110712167529569)
(-0.000165937184241193 0.0040203179855543 0.000914408213057768)
(-0.00029661379423587 0.00386688058320015 0.000748671340527383)
(-0.000446424671440677 0.00366940124701537 0.000606722582974231)
(-0.000607877142878605 0.00341029930565514 0.000489722046681303)
(-0.000767386805624966 0.00306919562904451 0.000398315590200243)
(-0.000910350451338455 0.00262476223414416 0.000349952939233827)
(-0.00156956500113149 0.00361447336530402 0.000292682265804927)
(-4.72298564931434e-05 0.00377965615619878 0.00131670305705129)
(-0.000147130650820209 0.00371033601990134 0.00112648681804316)
(-0.000262320602766593 0.00359494022782748 0.000952103411450373)
(-0.00039195142082189 0.00343213754189383 0.00079362413907901)
(-0.000528819215310044 0.00321322436616943 0.000652384798582093)
(-0.000664805673709748 0.00294075343601854 0.000530089383035847)
(-0.000789751352169812 0.00260038031394592 0.000426911223642705)
(-0.000893178928298641 0.00217503040126544 0.000355409625455456)
(-0.00143796963807147 0.00300119954260672 0.000274019922949348)
(-4.13206468761384e-05 0.00343201482416277 0.00145562691082647)
(-0.000129635358248282 0.00340142768795014 0.00127880270659281)
(-0.000231467298916444 0.0033222272025715 0.0011083484008288)
(-0.00034527149307479 0.00319314650625291 0.000945887748933167)
(-0.000463642757698816 0.00300892289768418 0.000793945685266708)
(-0.000579019258932548 0.00277619310460387 0.000655613072291128)
(-0.000686007936199932 0.00250035258002472 0.000532352174888778)
(-0.000776656057526758 0.00216745367427419 0.000423871464970515)
(-0.000841776446058688 0.00176220705515695 0.000339865729056657)
(-0.00127540717971763 0.00245797908043949 0.000247033960464905)
(-3.57550838366953e-05 0.00310127091474187 0.0015333223306507)
(-0.000113186907091713 0.00310316608589318 0.00137595367313503)
(-0.000203050869711825 0.00305683613574661 0.00121749697470632)
(-0.00030350425927655 0.00296012805249193 0.00106012859772947)
(-0.000407441057197935 0.00280910185805985 0.000906779865337618)
(-0.000507410266816777 0.00261060819651084 0.000762107754163299)
(-0.000598309945991878 0.00237310819218965 0.00062881982701349)
(-0.000676837010206775 0.00210098935471459 0.00050779254865489)
(-0.000736062961871267 0.00178161923104096 0.000398417447097278)
(-0.000766913385409594 0.00139970487969102 0.000307520275434049)
(-0.00109611945356105 0.00198542656118191 0.000212447944549931)
(-3.05657007713659e-05 0.00279427309179858 0.00156068953483032)
(-9.78191633572933e-05 0.002822391998301 0.00142565156842272)
(-0.000176750521674523 0.00280474157553369 0.00128393394132645)
(-0.000265477452374989 0.0027378195359179 0.00113760205507047)
(-0.000357399070075218 0.00261807354187236 0.000989572955910241)
(-0.000445459663817221 0.00245172652280047 0.00084533532334504)
(-0.00052455244007921 0.00224694559799604 0.000708896278416524)
(-0.000591636887270225 0.00201095752852094 0.000582185427159659)
(-0.000644349604216701 0.00174768361536413 0.00046567707539262)
(-0.000676852118086897 0.00144700108597895 0.000358556281795706)
(-0.000680794335203436 0.00109362203803081 0.0002661129390452)
(-0.000923508791586599 0.00159959906566928 0.000172639206002479)
(-0.000336328673682988 0.00635461800768363 -0.00087371147049633)
(-0.000147166799003513 0.00521950339718504 -0.00141161606765055)
(-0.000826483863222214 0.00626878640408294 -0.00033503768948737)
(-0.000117695877425351 0.00557873077696226 -0.00124804221321074)
(-0.000363644730674194 0.00476077106970315 -0.0007861569892245)
(-0.00121665781218861 0.00620193473656726 -5.65152095095956e-05)
(-9.985678244437e-05 0.00560887218206888 -0.000789037821442853)
(-0.000305432585522367 0.00514770865735973 -0.000660124701470101)
(-0.000572476102086384 0.00443376555195944 -0.000364623309996058)
(-0.00155214396292795 0.00607381187680802 8.93988267776883e-05)
(-8.65272791571958e-05 0.00546697464574437 -0.000269892700874014)
(-0.000260344396224835 0.00512966058842047 -0.000299102200018798)
(-0.000492244598542857 0.0047206005291635 -0.000253298449427747)
(-0.000748682346124434 0.00410233846999697 -7.8139311885148e-05)
(-0.00177318235372851 0.00568019341270457 0.000190992885783551)
(-7.54428165578426e-05 0.00521482125910092 0.000235383400226631)
(-0.000228806002359996 0.00494603127695907 0.00010570774059728)
(-0.00042009022999797 0.00465079261879693 3.77811499334053e-05)
(-0.000649819239168774 0.00426295745606945 2.74599096224428e-05)
(-0.000879661266699406 0.00369012632708036 0.000122684556289476)
(-0.00187412842585023 0.00510527117859095 0.000262944698549588)
(-6.68443661260527e-05 0.00488696513279421 0.000680223852803032)
(-0.000203784146169023 0.00468234671190805 0.000493919986154356)
(-0.000366678712918397 0.00444489547815501 0.000357200754378648)
(-0.000559232178009058 0.00415705955913024 0.000263682884182195)
(-0.00076620465516088 0.00376234768464764 0.000218813715856397)
(-0.000963228046364042 0.00322918045918282 0.000252163131999268)
(-0.00186360391890385 0.00444591055318171 0.000292297445362381)
(-5.93481466431327e-05 0.00451376934648705 0.00104108406372939)
(-0.00018228844658238 0.0043715388279839 0.000830695483716167)
(-0.000324693744863911 0.00418481672927449 0.000656322529470284)
(-0.000487729665619644 0.00394917248892778 0.000514522064690218)
(-0.00066372900053022 0.00364515242610514 0.000407792558699219)
(-0.000838190809521857 0.00325201966080564 0.000336817508572752)
(-0.000996236369411684 0.0027523213952667 0.000320749061747085)
(-0.00176793608144439 0.00376942798971636 0.000290596436514023)
(-5.24760779739878e-05 0.00412170461344448 0.00131202634385242)
(-0.000162423321767169 0.00403632707642108 0.00110030099882391)
(-0.000288677572843511 0.00389843133734385 0.000910822930602883)
(-0.000430297697247846 0.00370728774202156 0.000743957536496219)
(-0.000579714679818035 0.0034538885651046 0.000602135978631478)
(-0.00072893467446996 0.00314238488900969 0.000486974132235396)
(-0.000867486864123113 0.00275860474530428 0.000397545727350981)
(-0.000985152263179357 0.00228819566795839 0.000345741319943895)
(-0.00162345115626959 0.00313424495457847 0.000277764589863695)
(-4.60168339111099e-05 0.00373111610216221 0.00149838250842328)
(-0.000143752245119143 0.00369431322813435 0.00129953409229138)
(-0.000256013850484383 0.00360178464109429 0.00111106179026311)
(-0.000381034623441001 0.00345278368494716 0.000935257977560514)
(-0.000510723286677255 0.00324231024392666 0.000775907957146731)
(-0.000637525843073492 0.00297874988848225 0.000636172615582929)
(-0.000756310027584451 0.00266896139308032 0.000516987762477891)
(-0.000859019638981633 0.00229861253618179 0.000416785525303339)
(-0.000936904897651205 0.0018546028420893 0.000344116587538799)
(-0.00144721348063565 0.00256408888190689 0.000256190223296079)
(-3.99267884866027e-05 0.00335622584903505 0.0016107232565106)
(-0.000126002347836541 0.00335889379372661 0.00143269706233039)
(-0.000225589495829092 0.00330635484106249 0.00125566619001421)
(-0.000336532956596223 0.00319678673711974 0.00108269157332122)
(-0.000451012072333417 0.00302638858473268 0.000917886339440641)
(-0.000561205302470056 0.00280365845619642 0.000766455333274522)
(-0.000662130298196685 0.00253857305721417 0.000630908002586101)
(-0.000750798660125264 0.00223609871223707 0.000511555361760151)
(-0.000819937273807522 0.00188258684298384 0.00040690049350819)
(-0.00086095100208605 0.001464896634036 0.000323688448607713)
(-0.00125191585286927 0.00206430577228769 0.000227846825371883)
(-3.42264073911436e-05 0.00300641145887141 0.00166153708228856)
(-0.000109235578710017 0.00303991433925754 0.00150810048019738)
(-0.000197046200988889 0.0030213824873643 0.00134873539702479)
(-0.000295498620522588 0.00294744015367383 0.00118639469467104)
(-0.000397266428583007 0.00281439286983915 0.00102501595023073)
(-0.000494757506847794 0.00262969588862164 0.00087082948881677)
(-0.000582724732321564 0.00240288435258989 0.000727993693066112)
(-0.000658256493760083 0.0021420760068956 0.00059815769099522)
(-0.000719005683958612 0.00185108435406423 0.000481362912816056)
(-0.000758134198180186 0.00151792940312334 0.000376260246489065)
(-0.000766608025174899 0.00112809618640989 0.000287408391704393)
(-0.00104895946822155 0.00163153116477229 0.000191404661061139)