/*--------------------------------*- C++ -*----------------------------------*\
  =========                 |
  \\      /  F ield         | OpenFOAM: The Open Source CFD Toolbox
   \\    /   O peration     | Website:  https://openfoam.org
    \\  /    A nd           | Version:  12
     \\/     M anipulation  |
\*---------------------------------------------------------------------------*/
/*   Windows 32 and 64 bit porting by blueCAPE: http://www.bluecape.com.pt   *\
|  Based on Windows porting (2.0.x v4) by Symscape: http://www.symscape.com   |
\*---------------------------------------------------------------------------*/
FoamFile
{
    format      ascii;
    class       volScalarField;
    location    "100";
    object      omega;
}
// * * * * * * * * * * * * * * * * * * * * * * * * * * * * * * * * * * * * * //

dimensions      [0 0 -1 0 0 0 0];

internalField   nonuniform List<scalar> 
10142
(
4.47942847087573
4.47155325384602
1.52332862195825
4.4085448056969
4.45919539566933
1.52015612662801
4.40078311320908
0.944151849491162
1.50159531532234
4.32919655389827
4.44059032949882
1.5157595971893
4.38872174787708
0.942063062496459
1.49846699961861
4.32141427211953
0.729850391148604
0.936070690170826
1.47197641472808
4.24898039051935
4.41420445235231
1.50982051593221
4.37050509791684
0.93937099647852
1.49413114580698
4.30932520582701
0.728305228939723
0.934005052982699
1.4688439546363
4.24110164537427
0.627097523572371
0.726512990985077
0.923039051015956
1.44381232108738
4.1810241440664
4.378206227947
1.50198158801179
4.34457745453118
0.935930413185964
1.48828152937219
4.29104687159273
0.726385239611897
0.93132703148682
1.46451750249419
4.2289601422348
0.625895934490985
0.724981611539236
0.920964573300236
1.44062451892833
4.17282395980222
0.571044127735543
0.625676081963866
0.720016157396819
0.908894692725799
1.42090236748625
4.11920998122843
4.33022630666527
1.4918721507376
4.30920842815022
0.931593438713773
1.48056846081212
4.26523065251077
0.724014212354944
0.927905395281792
1.45869876860015
4.21057275283655
0.624441796387759
0.723064414777798
0.918276702354424
1.43625193901111
4.16060637326324
0.57009189366023
0.624484539279723
0.718472867585984
0.906776963451666
1.41759982409035
4.11059342228681
0.538118742239305
0.570403665679994
0.622021381969485
0.711840322373989
0.895741160585015
1.4007434653888
4.05094938406877
4.26657630861495
1.47914398757385
4.26189382433894
0.926234659243695
1.47064015757156
4.230408932251
0.721120133574858
0.923595881167735
1.45105475910925
4.18466847818386
0.622693523702177
0.720694387666201
0.91484871986388
1.4303904680844
4.142037623623
0.5689649336371
0.623028673808721
0.716537858785949
0.904044199266166
1.41312221117378
4.0979642139269
0.537365749357736
0.569459439003473
0.620816663144031
0.710258236267874
0.893548259136829
1.39728028641816
4.04187597054101
0.517880773827355
0.537750036401634
0.56802116875708
0.616738139971856
0.70313455129241
0.883223304177824
1.3790652981419
3.96962578362178
4.18359426734483
1.46376418860024
4.19922320800102
0.919799702360491
1.45817667439617
4.18334986662455
0.717657789614396
0.918278089754381
1.44126098551857
4.14993604198377
0.620618089871913
0.717801903548757
0.9105404780447
1.42271700959026
4.11582213457073
0.567643882965035
0.621274940740393
0.714146156521838
0.900568383042654
1.40713708090225
4.07907237502938
0.536489856469082
0.568328542213551
0.619339803873895
0.708278852534293
0.890734108144618
1.39263130773262
4.02877372416599
0.517303573783103
0.537003906860252
0.56706305440875
0.615496706800678
0.701490988437046
0.880931190266655
1.37541410999255
3.96010104799903
0.505092122142958
0.51758574307527
0.535906733981511
0.564190835281535
0.610494566169627
0.694151395324723
0.869982456878558
1.35342673810811
3.87352468943627
4.07786333338764
1.44794569382287
4.1182225180702
0.912438267888917
1.44335797929148
4.12122110960055
0.713637999367331
0.91190763171226
1.42898564435033
4.10324103638524
0.618208893121846
0.714342683858232
0.90523625122076
1.41292378859557
4.08077654903415
0.566121287353951
0.6191919883274
0.711229468740478
0.896210695500357
1.39932460068108
4.05262590960327
0.535490430100703
0.566999015162871
0.61755846129348
0.705835058087067
0.887165200815461
1.38646014344525
4.00944754753201
0.516626955836119
0.536122953469079
0.565909564782606
0.613975677111484
0.699441196116638
0.878006100655394
1.37056317674959
3.94653062874332
0.504703843487863
0.517014815217897
0.535146295303888
0.563196976684909
0.609197512026822
0.692430179839891
0.867576616217036
1.34958458454349
3.86361203823514
0.504816866048322
0.515965397175308
0.532806929242352
0.559379089814644
0.603674641576989
0.684585476262599
0.8550334379744
1.32314612975846
3.76154570940712
3.94470908724811
1.4330551442225
4.01508205996486
0.904856840641704
1.42951675106608
4.04125438171514
0.709178342491081
0.904681130891902
1.41456279384409
4.04157343611685
0.615504920569878
0.710329705681837
0.8988982939783
1.40068820232239
4.03405865223886
0.564416499752407
0.616773175292658
0.707743582396486
0.89085599304794
1.38937833762197
4.01706435452447
0.534381228660714
0.565464799301657
0.615441680473175
0.702857442212
0.882700552353567
1.37844574580018
3.98263842232097
0.515879402956931
0.535113580915481
0.564549605490151
0.612140107366974
0.696914141179216
0.874309862882853
1.36418024437119
3.92677440237548
0.50417059356692
0.516332508140971
0.534241903583821
0.56199920843475
0.607610577833004
0.690290090442884
0.864524021049273
1.34453301819661
3.84969517738513
0.496766497430575
0.504432707202879
0.515380089066688
0.532011191044545
0.558332246511389
0.602308826131993
0.682776608637383
0.852508291299596
1.31911874559906
3.75132674329371
0.50330780081594
0.513254612695493
0.528855479014388
0.553984896660944
0.596361454077019
0.674109065119881
0.837962775469982
1.28800862723172
3.63168840919942
3.78110481594969
1.41775881370439
3.88628409257263
0.89766812732449
1.41598920330978
3.93982000030643
0.704571450157401
0.897503004673668
1.40207317609493
3.96261732046459
0.612618000133812
0.705888169664933
0.891755581650185
1.38635597470485
3.9730707240118
0.562591801565243
0.614057221171813
0.70370291143699
0.884463842958619
1.37698640661625
3.97053312475032
0.533203169073444
0.563744956390077
0.61298195154898
0.699299681638685
0.877219161925322
1.3682648581311
3.94705131352704
0.51509586838553
0.533990807165257
0.562977174471291
0.609957161753123
0.693836690562518
0.869696767862803
1.35594111393365
3.8997129047323
0.503617185773624
0.51557440215605
0.533200668973842
0.560583690409382
0.605694897220533
0.687655676813499
0.860682530721242
1.33793159091804
3.82966391884696
0.496274521982136
0.503894319286881
0.514673814401569
0.531062321701247
0.557070238549792
0.600639495300384
0.680533972174793
0.849322934191863
1.31387500289657
3.73717404273484
0.491565978534664
0.496497797754693
0.502907734650928
0.512634349128326
0.528007872545645
0.552873054794548
0.594918448018699
0.67220756055831
0.835318815434
1.28380594843712
3.62130034002729
0.500840330850339
0.509857347196409
0.524444573171649
0.548229762041979
0.588533342668401
0.662568437726918
0.818647864195674
1.24768444693957
3.48113508592372
3.59262221870611
1.40238710739285
3.72815671934145
0.890740033435947
1.40214753084673
3.81348828288071
0.700276033323985
0.890502495929043
1.38947880138438
3.86316295544015
0.609766025420315
0.701341569088234
0.884812871481169
1.37412755250882
3.89536734666882
0.560774663881864
0.611155940326189
0.699235385608217
0.877259227000058
1.36241216438786
3.91031313687489
0.532041118426888
0.561900882738084
0.610216363311332
0.695169851297758
0.870666969847099
1.35562430044744
3.90095616349533
0.514335839501146
0.532795157484819
0.561210140378416
0.607416284795476
0.690156137122643
0.864034754325427
1.34551923680337
3.8641282115168
0.503095037534024
0.514776513471966
0.532037496530589
0.558942315702482
0.603413614652132
0.684448255270583
0.855900630695258
1.3294646359675
3.80245984140866
0.49586625332384
0.503330452144289
0.513883186146561
0.529964644803979
0.555575281773926
0.598623378028815
0.677777521492352
0.845330725532536
1.30707242015604
3.71703690087212
0.491221920270887
0.496009682532453
0.50234537661843
0.511883256449371
0.526995153611683
0.551531469391197
0.593155784837325
0.669856533868628
0.832002860259467
1.27839261461195
3.60702931462358
0.488255484738068
0.491315248916151
0.495045331952073
0.500404476527822
0.509185615711958
0.523533313162885
0.547044852860665
0.587008310556631
0.660573512016924
0.815889516524647
1.24332195291246
3.47075284003362
0.497837986892361
0.506161290728411
0.519837940495593
0.542235144287346
0.580222018862354
0.649991311268473
0.79709521736117
1.2016990418038
3.30657263332431
3.36858722022458
1.38879319082833
3.53792387533986
0.884675749848346
1.38838828945783
3.65911931494144
0.696437164089865
0.883755648848348
1.37648920952742
3.74022639064218
0.607318246558907
0.697060946911053
0.877937355476439
1.36156413402835
3.79812074366688
0.559188347917167
0.608289084362315
0.694677618940682
0.870226962845271
1.34920104856648
3.83393091307012
0.531048112160974
0.560058941115194
0.607254285857376
0.690587687273597
0.863220454893208
1.34058074944699
3.84182458696245
0.513705249972533
0.531610477364269
0.559307678055755
0.604549376837538
0.685868388863314
0.85724585799315
1.33259108803005
3.81831438922413
0.502675456957897
0.513997861344406
0.530791576174862
0.557089835603428
0.600750336970879
0.680605647557477
0.850034380221985
1.31880736193507
3.76700927335313
0.495556825112619
0.502793779418497
0.513043899029284
0.528730865012522
0.55383525551941
0.596218121758578
0.674422140414647
0.840375313577211
1.29840106214243
3.68988809213021
0.490962846095295
0.495592606140413
0.501748967567761
0.51103553202164
0.525817702264597
0.549937941465895
0.591025464366071
0.666971247018784
0.827864319454629
1.27142168384788
3.58693653894221
0.488031920142673
0.490974815597956
0.494537285983328
0.499796853256023
0.508370329788255
0.52244150802567
0.545612853480051
0.585145906517549
0.658113475038521
0.812451398210266
1.23775885177843
3.45655724842464
0.486202456467326
0.488026155412517
0.489933143662942
0.49272103073206
0.497350109003001
0.505426005327848
0.518854712109406
0.540971978876797
0.578613407769406
0.647906068374243
0.794229833487789
1.1971869884774
3.29584892268209
0.494690509441754
0.502440553195083
0.515222627148118
0.536151582671385
0.571599097044044
0.636597216813053
0.773465239963955
1.14962007065766
3.10504205533129
3.11184669702348
1.37591985841703
3.3186686181268
0.880363253792135
1.37543383236931
3.47413693703697
0.693651432278011
0.877785410249472
1.36332503839711
3.59078168440011
0.605664894082486
0.69320462504135
0.871239130575524
1.34842311409383
3.67855740870228
0.55819713082002
0.605830431663161
0.690334764954584
0.863166571513372
1.3357603700265
3.739131087891
0.530481190307718
0.558441254340497
0.604312103518794
0.685865618573175
0.855707745650691
1.3256202903863
3.76670039697977
0.513385033413507
0.530588268498086
0.557392848973232
0.601457914414913
0.681067662032035
0.849421820037432
1.3170088850454
3.76042385647274
0.502481255511833
0.513343256063925
0.529544357065846
0.55508065815256
0.597727734562701
0.676106298808616
0.842974780146131
1.3056060598487
3.72179559918419
0.495416938612079
0.502355239388724
0.51221349023752
0.527397037190325
0.551859550357203
0.593399306889708
0.670394888625069
0.834302289085025
1.28754052284379
3.65471530929141
0.490836574004316
0.495268887849512
0.501170553125098
0.510124546671891
0.524484228394186
0.548075017632615
0.588478803086292
0.66346009506778
0.82274281976548
1.26258530762468
3.5600213243304
0.487902389430276
0.490707109257082
0.494088948840649
0.49914291259114
0.507441967558169
0.52116510109412
0.543906743271916
0.582893131925664
0.655098954823916
0.808178910215323
1.23065613820342
3.43669096373694
0.486069498576542
0.487805780330335
0.489572616758311
0.49216838322464
0.496677420716456
0.504530877041778
0.517672452070659
0.53944226504592
0.576648827092673
0.64534116697398
0.790680561953646
1.1915006568298
3.28196966397149
0.484974719394934
0.485994404607617
0.486711034181425
0.487760021125533
0.489972638985992
0.494138300892556
0.501632798407427
0.51416153129397
0.534807639596347
0.56990890053222
0.634428878963918
0.770501736047593
1.14490587605978
3.09386546821094
0.491675731593242
0.498913230990703
0.510822621158672
0.530261589723907
0.563050368806984
0.622886095801476
0.748251905114394
1.09136294915203
2.8697797419916
2.47684900258225
1.35953220935192
3.06415149376013
0.878588468995513
1.36342683254611
3.25679948782207
0.692754386324847
0.873438481504771
1.35005305505684
3.41201419670783
0.605461058915661
0.69034451976836
0.865152397783567
1.33475367717571
3.53370825692761
0.558381275838386
0.604122929289179
0.686356092061684
0.856138828870688
1.32147539512736
3.62282757725941
0.530759806770786
0.557412596633857
0.601752134457875
0.681300215336962
0.848097828017658
1.31073790347405
3.67414508280291
0.513674345755021
0.529983333931491
0.555682905335913
0.598345110836742
0.676005564617836
0.841121525702257
1.30000337797617
3.68715622060885
0.502718709953372
0.512991830066726
0.528443639370149
0.553030699986762
0.594432595499351
0.671009928328026
0.834724660943298
1.2895798248332
3.6649340501048
0.495580956126916
0.502136505908297
0.511494205672488
0.526039936018142
0.549694858264102
0.590177212354745
0.665654298602741
0.826974942347114
1.27412883846267
3.61016773959691
0.490927202273003
0.49510999226434
0.500679555716854
0.509204583373417
0.523025638220653
0.545944941202868
0.585482178493417
0.659239548579078
0.816475752845375
1.25156546256967
3.52532561900907
0.487928790323562
0.49056657718322
0.49372360447178
0.498492022286537
0.506429866642986
0.519707550132944
0.541902886901461
0.580194596978736
0.651432187943587
0.802907953237351
1.22170376189513
3.41026219267053
0.486043714213168
0.487667509583523
0.489273719906626
0.491662714615157
0.495941714373058
0.503502017530007
0.516282186311111
0.537613728861914
0.574270057187582
0.642202715171116
0.786291236804782
1.18430162199967
3.26261226422202
0.484909421186336
0.485864329407341
0.486470021912649
0.487354409980846
0.489353952669219
0.493384239711005
0.500645598119561
0.512880344014401
0.533176035911015
0.567843711725463
0.631767608326621
0.766855229719221
1.13909610262488
3.07898596087825
0.484279835403613
0.484786038298819
0.484740702398305
0.48467005963317
0.485263190693697
0.487198824947113
0.491049661039689
0.498026173814004
0.509679912210389
0.528837355848494
0.561284800637797
0.62064717478415
0.745200970134348
1.08648210775505
2.85903935274046
0.489029113445745
0.495849216484628
0.506999915972165
0.525076433449216
0.555303687514594
0.609859837238791
0.722698652770868
1.02736565061193
2.59746123481157
2.51405902630846
1.29508075903884
2.4006579023158
0.879453622007239
1.34712363026627
3.00995670190683
0.695048998020628
0.871552663145234
1.336342980103
3.20199010879009
0.607802250732251
0.689321125294774
0.860369229171272
1.32024365525732
3.36114684040205
0.560562361590919
0.603831558529866
0.683262220848735
0.84947307909269
1.30609818408956
3.4823324082826
0.532571877700103
0.557539059632064
0.599889944789782
0.676990467971221
0.840315744684491
1.29463608355748
3.56138554174609
0.515064242395049
0.53021182175204
0.554535095518221
0.595552458292642
0.67102877091736
0.832741736301544
1.28353884517526
3.59730279469474
0.503727201523533
0.513239761706098
0.527738427733608
0.551146258253697
0.591044941941036
0.665510717227722
0.825584551594199
1.27088950027586
3.59401994665812
0.49627511118883
0.502341872771767
0.511061058462526
0.524800332840272
0.547445850764354
0.586619442178104
0.660223289925528
0.818326483641064
1.25779231537551
3.55455456157138
0.491380777237123
0.495249337552537
0.500394989972923
0.508373080778201
0.521511532379051
0.543584403783182
0.582031909520417
0.654249064755343
0.808906102864642
1.2379946745696
3.48162311182773
0.488205256957415
0.490638194642236
0.49351192881214
0.49791021918223
0.505383139292895
0.518093000372674
0.539595266933675
0.577007119909907
0.647019986768233
0.796469625564868
1.2105835302128
3.37633860937353
0.486191754472171
0.487679608405426
0.489091442360459
0.491224394787268
0.495188107395354
0.502363498946092
0.51468123293151
0.535455977121825
0.571414857956899
0.638387130177507
0.780894422650979
1.17529102394814
3.23697347074812
0.484963159909199
0.485829672105099
0.486300266130705
0.486997761507915
0.488765481500046
0.492545895087319
0.499500101937045
0.51136461527762
0.531218789309112
0.565339886526322
0.62851553695069
0.762369041034946
1.13183421126723
3.05955808039794
0.484264408174106
0.48472337764876
0.484589518135994
0.484383216791649
0.48479047467183
0.486496748116176
0.49020099704379
0.496937085328941
0.508293773652174
0.527102941509425
0.559124929452265
0.617903147523386
0.741472184121616
1.08042926688999
2.84478893584246
0.483920648314755
0.484107895778841
0.483586700203888
0.482814987555
0.482385345451844
0.48284882844006
0.484683388689162
0.488321369364627
0.494877724694821
0.505774240210277
0.523576040047737
0.553474503177806
0.607571854553123
0.719597679240231
1.0225807831282
2.58726097040693
0.487050815410147
0.493666416865769
0.50435766608863
0.521484566350601
0.54968659643404
0.599516058827073
0.699711805711737
0.961818721084886
2.21610854576862
2.46568095716546
1.30223281819549
2.4173727128663
0.880209059380999
1.28347256810689
2.74399042987312
0.702662273695832
0.872406120061816
1.32033432524402
2.96276210038707
0.614555258274962
0.691414696514333
0.857696561073259
1.30405335581054
3.15995899058624
0.566223871954953
0.606047023294121
0.681870293380553
0.843667189112594
1.28911771131182
3.31665871079247
0.537054979033321
0.559626607265588
0.599364523232478
0.673399119371981
0.832562158689323
1.27681456567384
3.42632168901795
0.518374889975464
0.531957311650335
0.554494974856298
0.593375571817411
0.666157816628874
0.823910992631757
1.2653962430759
3.48853022638865
0.5060672937532
0.514572556599098
0.527834942575686
0.549765967042815
0.587877474579703
0.659948208730938
0.816262949369486
1.25242075574774
3.50686111899747
0.497870376511753
0.503307167420849
0.511203251174662
0.523916228330192
0.545302305217195
0.582878073840221
0.654236930921206
0.808478703474375
1.23839819201066
3.48590421969085
0.492437770346944
0.495911119898444
0.500516656925627
0.507797600333583
0.520072323744955
0.541084040123447
0.578174634233464
0.648477287340315
0.799913900984975
1.22148486106512
3.42741168380718
0.488886030842837
0.491067148844318
0.493584839454988
0.497511534020246
0.504392044130094
0.51638195320818
0.537009292020776
0.573312883116036
0.641785171572435
0.788693076550398
1.19694100001244
3.33377041303275
0.486612786089736
0.48793710432788
0.489110066305736
0.490920941289742
0.494477327899222
0.501157723003304
0.512885874799016
0.532954103129202
0.568030562803873
0.633792627707744
0.774316474128151
1.16415248191161
3.20419127231423
0.485204000574907
0.485963373432951
0.486270397151664
0.486741893053232
0.488222886525163
0.4916629849988
0.498214184838697
0.509604804705366
0.528898271766514
0.562328206187711
0.624563601574359
0.756874632772561
1.12282661562673
3.03510739847388
0.484376888189483
0.484768128973425
0.484523032416665
0.484155054256896
0.484349779986462
0.485803317633448
0.489242482902265
0.495661489116338
0.506643646592801
0.525014152141449
0.55650150072795
0.614552733752457
0.736912249374417
1.07280229397476
2.82658407153089
0.483940976815251
0.484094894314241
0.483502517646673
0.482617254473908
0.482030229574251
0.482290883657185
0.483883593168214
0.487366879556616
0.493678798755448
0.504279620200479
0.521741562529817
0.551231165880676
0.604766255370629
0.715810478172425
1.01625279895876
2.57411632053323
0.483765537477398
0.4837627021305
0.482955319216276
0.481760163881025
0.480709922091511
0.480270017806148
0.480805108707355
0.48267508180439
0.486254852335303
0.49260713133841
0.503050498238488
0.519916765805106
0.54781354876578
0.597218864892194
0.696700422525845
0.957284702908011
2.21610814409181
0.486198404933851
0.493034461529034
0.503898153015807
0.521031896580836
0.548674995132495
0.596017219782589
0.68679584132318
0.908074986096788
2.28699453242711
2.49631298205334
1.34743661412749
2.42906369191476
0.903939500179787
1.2771266086891
2.32324422011512
0.720016806157302
0.873775069970566
1.29397152792464
2.70705828828998
0.629164648538519
0.698783764308556
0.85798568270346
1.2848952734708
2.93190463351396
0.577961868750021
0.612591183643202
0.68341871761387
0.839434276243881
1.26961290814654
3.12461410937425
0.546146461794371
0.565133479695046
0.601234790934431
0.671268211747169
0.82517174741769
1.25667546954995
3.26774963277137
0.525025977723187
0.536323688968528
0.556338121151233
0.592408472600731
0.661792226169411
0.814732400411011
1.24496851501395
3.3588458749318
0.51069003318216
0.517798342719923
0.52939703318248
0.549413749032256
0.585224083930535
0.654347121050141
0.806251415305839
1.2322570028752
3.402112777462
0.500980401050673
0.505585752673469
0.512393106602496
0.523775148634469
0.543577578442494
0.579224424901041
0.647997943783557
0.798041547146221
1.21723638652956
3.40196106200792
0.494488341509271
0.497462437616018
0.501372271875769
0.507754936922865
0.518930446604009
0.538614280167792
0.57403288293006
0.642000925582181
0.789491483700741
1.20171618212163
3.36102990457735
0.490219054128765
0.492091929723809
0.49416187408887
0.497487750718597
0.503613509078543
0.514692266616645
0.534220299215262
0.569137868949084
0.635686604892589
0.779424388333082
1.18039807972475
3.28118598583212
0.48746483230938
0.488593475732176
0.489472394275774
0.490878302072922
0.493916016960127
0.499965969383203
0.510946343573567
0.530121684949062
0.564085781130196
0.628328135115649
0.766378858555802
1.15055015985958
3.16316683534507
0.485732806229529
0.486365536687273
0.486474802639409
0.486667981244565
0.487788346115769
0.490789403479564
0.496822426442352
0.507608544218697
0.526190263234575
0.558746655080537
0.619802292641599
0.750195177424857
1.11172856358539
3.00406992428392
0.484685424632388
0.484994623153804
0.484614560479054
0.484050977783997
0.483988116383908
0.485128445950546
0.488207495256276
0.494210235603264
0.504712424956655
0.522525590784738
0.553338059567914
0.610481723787494
0.731349370593318
1.06369465679461
2.80454124136428
0.484095030690213
0.48419829519138
0.48351512079901
0.482491704510566
0.481716748491901
0.481742921846451
0.48306621240558
0.486272863296588
0.492261575321012
0.502488658675228
0.519521980483965
0.548498497330664
0.601339076347538
0.711145420348254
1.00647080464735
2.18721720707518
0.483810409517715
0.483785268180188
0.482920412770553
0.48162877026825
0.480442787304018
0.47982785078721
0.480146623520391
0.481764940441767
0.485184664747044
0.491292177118168
0.501446612361507
0.517989336405302
0.54550510514096
0.594387992460439
0.692889789180864
0.949826833824592
2.21610744847733
0.483728262533208
0.483619014144206
0.482649422331495
0.481212733708503
0.479806395479375
0.478843981210097
0.478616724604881
0.479389924292713
0.481496255010288
0.485308866945948
0.49188598798085
0.502514382090107
0.519411528691582
0.54679001223658
0.593786558188811
0.684000927722627
0.905228131380119
2.28699433563476
0.487189815035549
0.495036628572954
0.507315436995632
0.526503816153994
0.557162877503262
0.608693064632682
0.704397281506732
0.948675254516922
2.38167841478807
2.9257182698255
1.52320753546504
2.45521496417358
0.980670386540486
1.32679902291183
2.36164640503656
0.76256080452026
0.895016976395085
1.24391535641836
2.25286416828756
0.65876875832289
0.715929237860994
0.862171976583686
1.25891950619604
2.68809497843871
0.600622844514815
0.626844865630942
0.690128321192679
0.83776920212486
1.24627967235594
2.90743787858173
0.563432930438635
0.576588553790604
0.607264084189927
0.671798123898126
0.818683400243519
1.23314859241962
3.08416837866001
0.537569988425813
0.545203820324064
0.561461686782313
0.593649968896709
0.658587213092992
0.805410718170259
1.22149566264645
3.2069476314528
0.519282268747739
0.524306872855186
0.533479611206
0.550817371580101
0.583615618535447
0.649023951331894
0.795535571542237
1.20936425661558
3.2778212733502
0.506653897759007
0.510111923732301
0.515410325495012
0.525006216121339
0.54276988914804
0.575979591575381
0.641587609142055
0.786833125888307
1.19506894891116
3.30127381760638
0.498173543297613
0.500508751738909
0.503498779562762
0.508694679351382
0.518448432023945
0.536462204150142
0.569833413100707
0.635031358960628
0.777887783751101
1.1787327224318
3.28061828093224
0.492600493392913
0.494098855213721
0.495601316090879
0.498152474190514
0.503307422376408
0.513228577994011
0.531378628847758
0.564576499757688
0.628750661328896
0.768570204037535
1.16057300828942
3.21719695996878
0.488997059911013
0.48989487020962
0.4904123433264
0.49130766184627
0.493684665464865
0.498932536636264
0.508966953792444
0.527018531065358
0.559587070578518
0.621928692743266
0.756908964431079
1.13411280402368
3.1125362872865
0.486707933540298
0.487193558063641
0.487064767343796
0.486913966991914
0.487580302587904
0.490022607510179
0.495395997796931
0.505415091717021
0.523096279770658
0.554550985114067
0.614129063612286
0.742149810403019
1.09827656389732
2.9651035343283
0.485290706752466
0.485504725090413
0.484963687921227
0.484162382794825
0.483781346405236
0.484527351578685
0.487141957351101
0.492609188811373
0.502498367152244
0.51960324019253
0.5495631520983
0.605573468073193
0.724596957087484
1.05295641256784
2.77739088833543
0.484450412655854
0.484492506715973
0.483699294825987
0.482508522067127
0.481505541473891
0.481246191134198
0.482234503983423
0.485065451361486
0.490629010979504
0.500375860066624
0.516863390803475
0.545192247467183
0.597170132679473
0.705493955662197
0.997549276030757
2.18722116427642
0.483992261085928
0.483930170017506
0.482991377352748
0.48158171803858
0.480230754560149
0.47940495098018
0.479471092726263
0.480806470300148
0.483941131537112
0.48972342012548
0.499510887973004
0.515643594244092
0.542679461540817
0.590905749033194
0.687887377218939
0.921766233220744
2.21610681721688
0.483788945508748
0.483665955432462
0.482649715826476
0.481129994890289
0.47960455103082
0.47848806579633
0.478071309270147
0.478617001828228
0.480464039897451
0.484114181946373
0.490450586880095
0.500803544666912
0.517403647546829
0.544445412774786
0.590983814368499
0.680185948749735
0.901229704826222
2.28699422060006
0.483753882689508
0.483590867833008
0.482538093579516
0.480976707249401
0.479385054323846
0.478147529622139
0.477513576790743
0.477690802789189
0.478941131502664
0.481633941628284
0.486202490182728
0.493799744678968
0.505864177039754
0.524854049924832
0.555316692913915
0.606640137377522
0.702495249489613
0.947501352363433
2.38167751245985
0.491167183411644
0.501468984370727
0.517595968931744
0.543246293604035
0.585596498031679
0.660733353866217
0.819684304280787
1.27474325585194
3.68516580399512
2.94890112223629
2.93624876935594
1.24464734028491
1.50739631953448
2.41074114632021
0.874208003204022
0.972639067268074
1.28550534885106
2.30196937991196
0.720924809869873
0.757637103798723
0.877715690286799
1.20460823302869
2.2231212117153
0.643890565776739
0.6558375632759
0.706753250565177
0.840486308251832
1.21606816310961
2.67850076961989
0.595755409699774
0.598670550006877
0.620738526995278
0.677217625546587
0.81414339237385
1.20509887591388
2.87685988108269
0.560867095908994
0.562046276091266
0.572275232719809
0.598807701731907
0.65769462736674
0.796359936498484
1.19388543500061
3.03175280420926
0.535007780463261
0.53655801482518
0.541872157150347
0.555291773076496
0.583989774609125
0.644560870480649
0.784218269203588
1.18282773306857
3.1327287783336
0.516776646444295
0.518528674997069
0.521576444139667
0.528600383214698
0.543559133276355
0.573601144771945
0.635238332478717
0.774636077415432
1.16997706538451
3.18252944315598
0.504583650765543
0.5060791271634
0.507792985706155
0.511350557154403
0.51921173796704
0.535094649273464
0.565930967515695
0.627810924172779
0.765558316953009
1.15419229895013
3.18430269847852
0.496671966051463
0.497720760151357
0.498490083684411
0.500015143724432
0.503894126334746
0.51232692895824
0.528745344913456
0.559822409976227
0.621110615845958
0.756177431974426
1.13716134147724
3.14028951115613
0.491600947725902
0.49223400827266
0.492307436031693
0.492552038072157
0.494077976679515
0.49829846513014
0.507134342812482
0.523775384577477
0.55460261388868
0.614580606166094
0.745761529518733
1.11445010279223
3.0512411386916
0.488375401019247
0.488695102607712
0.488282243826922
0.4877054953127
0.487798168238369
0.489529822298731
0.494065729577187
0.503114882087431
0.519660729474852
0.549729948450206
0.607460503912343
0.732554400067067
1.08210513899472
2.91716232258215
0.486349384960919
0.486456326277784
0.485725910509375
0.484635982304138
0.483859977069848
0.484109100548239
0.486133005708858
0.490918629015826
0.500029146103396
0.516236253102118
0.545120085956281
0.599715963285593
0.716495568094024
1.03965696298384
2.74179664948685
0.48510673934844
0.485079292867569
0.484156559677571
0.482764523240753
0.481482846705883
0.480869592990192
0.48143552835214
0.483781620962015
0.488797342190545
0.497929233668393
0.513721198104001
0.541231007312275
0.592134550798786
0.698748180622845
0.98887435218717
2.57285446154549
0.484377858899652
0.484271268290335
0.483243178357453
0.481690825395265
0.480139387446392
0.479056270303075
0.478813105029566
0.479795309917327
0.482542147161581
0.487894898916259
0.497208374911624
0.512816012180793
0.539243272141498
0.586653957267471
0.682242662786999
0.914017587007576
2.21609764042036
0.483987904458227
0.483838596142272
0.482761917738771
0.481140782707509
0.479470003865356
0.478164706928295
0.477517542472012
0.477795121203197
0.479348140853301
0.482707937422419
0.488721803776235
0.498721668770966
0.514940654046418
0.541549284527232
0.587458653944733
0.674076755862394
0.894430895017282
2.28700500471907
0.483823838410971
0.483653469629936
0.482562404241836
0.480928573683523
0.479230892004668
0.477855308958485
0.477051881092366