/*--------------------------------*- C++ -*----------------------------------*\
  =========                 |
  \\      /  F ield         | OpenFOAM: The Open Source CFD Toolbox
   \\    /   O peration     | Website:  https://openfoam.org
    \\  /    A nd           | Version:  12
     \\/     M anipulation  |
\*---------------------------------------------------------------------------*/
/*   Windows 32 and 64 bit porting by blueCAPE: http://www.bluecape.com.pt   *\
|  Based on Windows porting (2.0.x v4) by Symscape: http://www.symscape.com   |
\*---------------------------------------------------------------------------*/
FoamFile
{
    format      ascii;
    class       volScalarField;
    location    "100";
    object      p;
}
// * * * * * * * * * * * * * * * * * * * * * * * * * * * * * * * * * * * * * //

dimensions      [0 2 -2 0 0 0 0];

internalField   nonuniform List<scalar> 
10142
(
83333.3211508053
83333.3210664556
83333.3211466341
83333.3211526381
83333.3209766584
83333.3210619233
83333.3210684662
83333.3211448197
83333.3211488009
83333.3211566612
83333.3208810643
83333.320971879
83333.3209789011
83333.3210592971
83333.3210642919
83333.3210730023
83333.3211520267
83333.3211472801
83333.3211529092
83333.3211633894
83333.3207791812
83333.3208760426
83333.3208836796
83333.3209683043
83333.3209745417
83333.3209840659
83333.3210652096
83333.3210619517
83333.3210688801
83333.3210806694
83333.3211697131
83333.321154923
83333.3211516782
83333.32115988
83333.3211732279
83333.320670652
83333.3207739704
83333.3207822488
83333.3208712639
83333.3208790599
83333.3208896445
83333.320972349
83333.3209712288
83333.3209798055
83333.3209928399
83333.3210810462
83333.3210683005
83333.3210668291
83333.3210767305
83333.3210918806
83333.3211984185
83333.3211729587
83333.3211597901
83333.3211590217
83333.3211700028
83333.3211862832
83333.3205552377
83333.3206653609
83333.3206742407
83333.320767656
83333.3207773841
83333.3207891575
83333.3208726741
83333.3208745099
83333.3208851344
83333.320899739
83333.3209854371
83333.3209756675
83333.3209767375
83333.3209887792
83333.3210056875
83333.3211077527
83333.3210845776
83333.3210736817
83333.3210751217
83333.3210882653
83333.321106765
83333.3212379746
83333.3212016311
83333.321178328
83333.3211676678
83333.3211696593
83333.3211833888
83333.3212023356
83333.3204329886
83333.3205500114
83333.3205594223
83333.3206569783
83333.3206692065
83333.3206822598
83333.3207653335
83333.3207712267
83333.3207843824
83333.3208008001
83333.3208817629
83333.3208762265
83333.3208807849
83333.3208954568
83333.3209144985
83333.3210089989
83333.3209892226
83333.3209816894
83333.3209861708
83333.3210018949
83333.3210227161
83333.3211456659
83333.3211113663
83333.3210905308
83333.321082576
83333.3210872596
83333.3211035446
83333.321125042
83333.3212882584
83333.3212410217
83333.321207282
83333.3211867841
83333.3211790149
83333.3211836922
83333.3211998098
83333.3212209458
83333.3203043026
83333.3204279632
83333.320437866
83333.3205389172
83333.3205543621
83333.3205687123
83333.3206496252
83333.3206608597
83333.3206772169
83333.3206957213
83333.3207687799
83333.320769092
83333.320778343
83333.3207962992
83333.3208177873
83333.3209005988
83333.3208857923
83333.3208830021
83333.3208915823
83333.3209105143
83333.3209340285
83333.3210439648
83333.3210129561
83333.3209958986
83333.3209918095
83333.3210000297
83333.3210193356
83333.3210435891
83333.3211949464
83333.321149103
83333.3211176946
83333.3211001228
83333.3210955286
83333.3211032728
83333.3211222478
83333.3211461926
83333.3213490505
83333.3212910347
83333.3212466985
83333.321216187
83333.3211988868
83333.3211939391
83333.3212008924
83333.3212188092
83333.3212415767
83333.3201698387
83333.3202995987
83333.3203099706
83333.320413204
83333.3204328665
83333.3204486362
83333.3205245583
83333.3205431173
83333.3205635872
83333.3205843091
83333.3206450534
83333.3206535852
83333.3206689409
83333.3206909622
83333.3207153095
83333.3207807439
83333.3207730335
83333.320776749
83333.3207907184
83333.3208136601
83333.3208402514
83333.3209309177
83333.3209049083
83333.3208933211
83333.3208945881
83333.3209074844
83333.3209304728
83333.3209579142
83333.321091044
83333.3210478379
83333.3210201461
83333.3210068844
83333.3210066594
83333.3210183493
83333.3210406939
83333.3210676904
83333.3212557334
83333.3211981134
83333.3211555733
83333.3211278893
83333.3211140037
83333.3211125956
83333.3211228688
83333.3211438476
83333.3211695763
83333.3213515837
83333.321296613
83333.3212558928
83333.3212289771
83333.3212147803
83333.3212121823
83333.3212207879
83333.3212398688
83333.3212636687
83333.3200306377
83333.3201655756
83333.3201764548
83333.3202798184
83333.3203051258
83333.3203224387
83333.3203891448
83333.3204177285
83333.320443498
83333.3204667008
83333.320508841
83333.3205286282
83333.3205522812
83333.3205794292
83333.3206069449
83333.3206472381
83333.3206494968
83333.3206622089
83333.320683177
83333.3207110439
83333.3207411589
83333.3208041186
83333.3207854313
83333.320781525
83333.3207900894
83333.3208090683
83333.3208365475
83333.3208676476
83333.3209742172
83333.3209352944
83333.3209131491
83333.3209059912
83333.3209116947
83333.3209285037
83333.3209549109
83333.3209854252
83333.3211508595
83333.3210947294
83333.3210553297
83333.3210319564
83333.3210229146
83333.3210262543
83333.3210407464
83333.3210652942
83333.3210942652
83333.321328153
83333.3212586713
83333.3212045747
83333.3211662234
83333.321142668
83333.3211322687
83333.3211334282
83333.321145474
83333.3211677091
83333.3211945365
83333.3213570354
83333.3213059757
83333.321269252
83333.3212458065
83333.3212341855
83333.3212332731
83333.3212428432
83333.3212624583
83333.3212866354
83333.3198882842
83333.3200268754
83333.3200383933
83333.3201388622
83333.3201717506
83333.3201908719
83333.3202421866
83333.3202847093
83333.3203173932
83333.3203433371
83333.3203580599
83333.3203932855
83333.3204281598
83333.3204617881
83333.3204928725
83333.3204973388
83333.3205134767
83333.3205382841
83333.32056869
83333.3206026304
83333.3206367285
83333.3206605568
83333.3206523244
83333.3206590509
83333.3206775239
83333.3207044069
83333.3207374257
83333.3207726352
83333.3208414818
83333.3208090942
83333.3207949265
83333.3207962393
83333.3208098844
83333.320833289
83333.3208645272
83333.3208990985
83333.3210317841
83333.3209785443
83333.3209440686
83333.3209269485
83333.3209246232
83333.3209342833
83333.3209541559
83333.3209829586
83333.321015676
83333.3212239398
83333.3211543717
83333.321102353
83333.3210678306
83333.321049184
83333.3210440227
83333.3210501321
83333.3210664932
83333.3210923798
83333.321122539
83333.3214122106
83333.3213309422
83333.3212650579
83333.3212155353
83333.3211817896
83333.3211621332
83333.3211545289
83333.3211574407
83333.3211704424
83333.3211931981
83333.3212203932
83333.321366465
83333.3213197572
83333.3212868963
83333.321266351
83333.3212566085
83333.3212566656
83333.3212665104
83333.3212859786
83333.3213098564
83333.3197445191
83333.3198847587
83333.3198973035
83333.3199905426
83333.3200335655
83333.3200550369
83333.320082327
83333.3201440965
83333.3201858435
83333.3202150049
83333.3201899383
83333.3202464892
83333.3202966196
83333.3203384623
83333.3203735453
83333.3203275268
83333.320362846
83333.3204042462
83333.3204471352
83333.3204885195
83333.3205271857
83333.32049637
83333.3205029489
83333.3205245079
83333.3205560706
83333.3205933215
83333.3206330219
83333.3206729144
83333.3206890538
83333.3206662685
83333.3206633693
83333.320676291
83333.3207005492
83333.3207324319
83333.3207694399
83333.3208086182
83333.3208950419
83333.3208466097
83333.320819456
83333.3208111896
83333.3208180391
83333.3208360476
83333.3208627243
83333.3208965179
83333.3209335649
83333.3211046578
83333.3210360348
83333.3209876605
83333.3209588889
83333.3209471954
83333.3209491555
83333.3209617457
83333.3209835423
83333.3210137309
83333.3210477494
83333.3213105774
83333.3212273226
83333.3211620177
83333.3211153741
83333.3210861547
83333.3210718595
83333.3210696836
83333.3210775635
83333.3210948189
83333.3211211996
83333.3211517205
83333.32150766
83333.3214148902
83333.3213372249
83333.3212761843
83333.3212317187
83333.3212023398
83333.3211858375
83333.3211801645
83333.3211839736
83333.3211971277
83333.3212196402
83333.3212464305
83333.3213804865
83333.3213380195
83333.3213084376
83333.3212900683
83333.3212814676
83333.3212817802
83333.3212911932
83333.3213097924
83333.3213327154
83333.3196020592
83333.3197407483
83333.3197552687
83333.3198350119
83333.3198918902
83333.3199164555
83333.3199084122
83333.31999591
83333.3200496121
83333.3200828236
83333.3200010996
83333.3200871716
83333.3201576089
83333.3202099864
83333.3202497873
83333.3201332699
83333.3201950942
83333.3202590196
83333.3203185024
83333.3203691219
83333.3204130207
83333.320306578
83333.3203337625
83333.3203756383
83333.3204249538
83333.3204756544
83333.3205234299
83333.3205687059
83333.3205120397
83333.3205030173
83333.3205159665
83333.3205447395
83333.3205830078
83333.3206257098
83333.3206696725
83333.3207141121
83333.3207362092
83333.3206952121
83333.3206786322
83333.3206827345
83333.3207019992
83333.3207309945
83333.3207662394
83333.3208060041
83333.3208479353
83333.3209665239
83333.3209002366
83333.3208576225
83333.3208372043
83333.3208351823
83333.3208467252
83333.3208677464
83333.3208963097
83333.3209315493
83333.3209699807
83333.3211934995
83333.3211088332
83333.3210453309
83333.3210033049
83333.3209806659
83333.3209738028
83333.3209788834
83333.32099318
83333.3210157342
83333.3210463599
83333.3210807284
83333.3214106962
83333.3213138524
83333.3212349145
83333.3211753622
83333.3211345969
83333.3211102929
83333.3210993811
83333.321099123
83333.3211077509
83333.3211249727
83333.3211509886
83333.3211809951
83333.3216140022
83333.3215102124
83333.3214210056
83333.3213483587
83333.3212927559
83333.321253131
83333.3212273516
83333.3212130996
83333.3212084709
83333.3212123418
83333.3212248478
83333.3212463183
83333.3212719197
83333.3213991037
83333.3213603102
83333.3213332711
83333.3213163253
83333.3213081349
83333.321308004
83333.3213162646
83333.3213332944
83333.321354575
83333.3194640029
83333.3195964794
83333.3196146954
83333.319672643
83333.3197483145
83333.3197770923
83333.3197189207
83333.3198404423
83333.319909875
83333.3199482103
83333.319787855
83333.3199138381
83333.3200111502
83333.320077106
83333.3201226963
83333.3199087907
83333.3200072143
83333.3201014332
83333.3201827803
83333.320245041
83333.3202950423
83333.3200845206
83333.3201404061
83333.3202101133
83333.3202832683
83333.3203514288
83333.3204090978
83333.3204605681
83333.3203039793
83333.3203144828
83333.3203492656
83333.3203996962
83333.3204565784
83333.3205130456
83333.3205654158
83333.320615839
83333.320549548
83333.3205195614
83333.3205179522
83333.320539202
83333.3205752179
83333.3206185698
83333.3206645762
83333.3207114413
83333.3207589317
83333.3208046774
83333.3207426379
83333.3207086768
83333.3207001425
83333.3207114173
83333.3207357663
83333.3207677087
83333.3208046732
83333.3208458541
83333.3208892858
83333.3210570682
83333.3209717288
83333.3209116659
83333.3208766308
83333.3208633382
83333.3208666445
83333.3208813468
83333.3209038742
83333.3209329603
83333.3209685371
83333.3210072787
83333.3212984512
83333.3211975821
83333.3211181654
83333.3210615405
83333.3210263806
83333.3210092615
83333.3210059612
83333.3210128398
83333.3210276207
83333.3210498576
83333.321079967
83333.3211136936
83333.3215238146
83333.3214138316
83333.3213212916
83333.3212483581
83333.3211951949
83333.3211599452
83333.3211395511
83333.3211308935
83333.3211314849
83333.3211398861
83333.3211561701
83333.3211809341
83333.3212095246
83333.3217304529
83333.3216163807
83333.3215160614
83333.3214319498
83333.3213650348
83333.3213147125
83333.3212791736
83333.3212560664
83333.3212431492
83333.3212387028
83333.3212418347
83333.3212528921
83333.3212725027
83333.3212961325
83333.3214218121
83333.3213859645
83333.3213607051
83333.3213444341
83333.3213359473
83333.3213347002
83333.3213411192
83333.3213559142
83333.3213748031
83333.3193386444
83333.3194540012
83333.3194788963
83333.319504246
83333.3196044411
83333.3196391044
83333.3195122834
83333.3196782824
83333.3197681488
83333.3198128601
83333.3195456596
83333.3197250493
83333.3198576589
83333.3199410016
83333.3199935214
83333.3196465787
83333.3197952767
83333.3199302267
83333.3200401593
83333.3201171185
83333.3201743125
83333.3198215719
83333.3199172444
83333.3200249841
83333.3201300169
83333.3202208602
83333.3202907382
83333.3203493067
83333.3200563826
83333.3200942166
83333.3201593082
83333.3202390516
83333.3203205567
83333.320394606
83333.3204571564
83333.3205143401
83333.3203274829
83333.3203133837
83333.3203329766
83333.3203776619
83333.3204361688
83333.3204982608
83333.3205577895
83333.3206130863
83333.3206668881
83333.3206128133
83333.3205576413
83333.3205362828
83333.3205444244
83333.32057385
83333.3206152173
83333.3206612416
83333.3207086015
83333.3207568161
83333.3208058851
83333.3208962279
83333.3208112378
83333.3207568669
83333.3207320684
83333.3207318426
83333.3207489316
83333.3207763129
83333.3208093513
83333.3208464422
83333.32088781
83333.3209314744
83333.3211670753
83333.3210622099
83333.3209833421
83333.3209315911
83333.3209046329
83333.320897523
83333.3209044798
83333.3209206932
83333.3209432732
83333.3209716362
83333.3210064845
83333.3210444247
83333.3214190703
83333.3213023801
83333.3212067905
83333.3211346285
83333.3210855507
83333.3210566742
83333.3210437475
83333.3210425938
83333.3210499837
83333.3210641138
83333.321085022
83333.3211136267
83333.3211457061
83333.3216490535
83333.3215267469
83333.3214209803
83333.3213345735
83333.3212684338
83333.3212213658
83333.3211906303
83333.3211729747
83333.3211654567
83333.3211658837
83333.3211731438
83333.3211876025
83333.3212101978
83333.3212364651
83333.3218559368
83333.3217325995
83333.3216218412
83333.3215265845
83333.3214483939
83333.3213871421
83333.3213413912
83333.3213090123
83333.3212876392
83333.3212751664
83333.3212700861
83333.3212717212
83333.3212805431
83333.3212975212
83333.3213183499
83333.3214478998
83333.3214142342
83333.321389987
83333.3213736615
83333.3213642085
83333.3213612281
83333.3213651851
83333.3213770527
83333.3213927457
83333.3192227983
83333.3193162236
83333.3193526335
83333.3193314795
83333.3194621463
83333.3195057635
83333.3192871078
83333.3195102732
83333.3196262697
83333.3196788667
83333.3192692922
83333.3195193731
83333.3196977478
83333.3198032108
83333.3198638406
83333.3193378189
83333.3195548676
83333.3197442005
83333.31989118
83333.3199865488
83333.3200520012
83333.319506311
83333.3196573255
83333.3198168141
83333.3199642491
83333.3200843684
83333.3201692934
83333.3202359643
83333.3197576321
83333.3198339006
83333.3199408693
83333.3200602814
83333.3201742801
83333.3202707823
83333.3203456253
83333.3204104615
83333.3200598528
83333.3200684131
83333.320117579
83333.3201945047
83333.3202831375
83333.3203696254
83333.3204461551
83333.3205114743
83333.3205723393
83333.3203826188
83333.3203378773
83333.3203345725
83333.3203659402
83333.3204200162
83333.3204839086
83333.3205480345
83333.32060825
83333.3206647229
83333.3207201581
83333.3207044552
83333.3206212174
83333.3205756337
83333.320565498
83333.3205833533
83333.3206189886
83333.320662984
83333.3207093807
83333.3207562483
83333.3208043909
83333.3208535834
83333.3210115795
83333.3209027772
83333.3208258744
83333.3207816837
83333.320766452
83333.3207731125
83333.3207937749
83333.3208221213
83333.3208545341
83333.3208903339
83333.3209306738
83333.3209733251
83333.3212961387
83333.3211720507
83333.3210737572
83333.3210037538
83333.3209609942
83333.3209412021
83333.3209385034
83333.3209473215
83333.320963496
83333.3209848142
83333.3210113253
83333.3210443462
83333.3210803679
83333.3215543512
83333.3214227564
83333.3213112716
83333.321223148
83333.3211590948
83333.321117066
83333.3210931362
83333.3210829149
83333.3210825484
83333.3210892605
83333.3211017051
83333.3211203088
83333.3211463991
83333.3211758111
83333.321785155
83333.3216517065
83333.3215334436
83333.3214338016
83333.3213544627
83333.3212949319
83333.3212530041
83333.3212255993
83333.3212095264
83333.3212020902
83333.3212014144
83333.3212066863
83333.3212184485
83333.3212379781
83333.3212610118
83333.3219891411
83333.321857794
83333.3217375432
83333.321631699
83333.3215424268
83333.3214701954
83333.3214139737
83333.3213718966
83333.3213417294
83333.3213211693
83333.3213082922
83333.3213018176
83333.3213012577
83333.3213071364
83333.3213206951
83333.3213378418
83333.3214765734
83333.3214443069
83333.3214203082
83333.3214032237
83333.3213921798
83333.3213868983
83333.3213878039
83333.3213961195
83333.3214071624
83333.3191243549
83333.3191778015
83333.3192371379
83333.3191570882
83333.3193228697
83333.319380723
83333.3190433265
83333.3193379637
83333.3194860901
83333.3195494502
83333.3189533266
83333.3192957013
83333.3195324187
83333.3196655368
83333.3197357925
83333.318971392
83333.3192811088
83333.3195421659
83333.3197365938
83333.3198548502
83333.3199297473
83333.3191239644
83333.3193520127
83333.3195817345
83333.3197851169
83333.3199426021
83333.3200459718
83333.3201217714
83333.3193922878
83333.3195227194
83333.3196876368
83333.3198605827
83333.3200171976
83333.3201422247
83333.3202317642
83333.3203052085
83333.319732932
83333.3197736101
83333.319864195
83333.3199853039
83333.3201141813
83333.3202323371
83333.3203301677
83333.320407379
83333.3204761258
83333.3201029426
83333.3200735423
83333.3200958607
83333.3201594624
83333.3202469531
83333.3203405844
83333.3204278917
83333.3205039792
83333.3205700935
83333.3206326366
83333.3204731849
83333.3203935888
83333.3203610686
83333.3203716697
83333.3204143809
83333.3204748667
83333.3205405353
83333.3206038344
83333.320662615
83333.3207186323
83333.3207740235
83333.3208255669
83333.3207129173
83333.3206399472
83333.3206070087
83333.3206082809
83333.320633712
83333.3206725578
83333.3207165772
83333.3207613127
83333.3208060925
83333.3208527922
83333.3209006847
83333.3211503323
83333.3210179485
83333.3209174395
83333.3208515188
83333.3208181403
83333.320811078
83333.320822237
83333.3208441952
83333.3208716409
83333.3209019221
83333.3209351813
83333.3209732613
83333.3210136446
83333.3214430723
83333.3213008195
83333.3211832501
83333.3210941574
83333.3210339275
83333.3209993503
83333.3209849216
83333.320984731
83333.3209937495
83333.3210084981
83333.3210273945
83333.3210509809
83333.321081076
83333.321114027
83333.321702784
83333.3215576938
83333.3214311108
83333.3213271231
83333.3212475079
83333.3211912012
83333.3211549298
83333.3211344256
83333.3211254824
83333.3211246496
83333.3211296144
83333.3211394371
83333.321154792
83333.3211773634
83333.3212031414
83333.3219305524
83333.3217874543
83333.3216577828
83333.3215454892
83333.3214530326
83333.3213807128
83333.3213269233
83333.3212889748
83333.3212637193
83333.3212481238
83333.3212397863
83333.3212371525
83333.3212396616
83333.3212479268
83333.3212635091
83333.3212823995
83333.3221285817
83333.3219906583
83333.3218620988
83333.3217464971
83333.3216465624
83333.3215634308
83333.3214966276
83333.3214445947
83333.3214052522
83333.3213763493
83333.3213557075
83333.3213416231
83333.3213330524
83333.3213296632
83333.3213319364
83333.3213413899
83333.3213532453
83333.3215069736
83333.3214753068
83333.3214507947
83333.3214322645
83333.3214190289
83333.3214108955
83333.3214082102
83333.3214120241
83333.3214174068
83333.3190571467
83333.3190470738
83333.3191382124
83333.3189806019
83333.3191848254
83333.3192674396
83333.3187852787
83333.3191636492
83333.3193485451
83333.3194277987
83333.3185948919
83333.319054407
83333.3193632532
83333.3195297978
83333.3196124363
83333.3185348194
83333.31896918
83333.3193233516
83333.3195775143
83333.3197236455
83333.3198095906
83333.3186552184
83333.3189911128
83333.3193155718
83333.319591925
83333.3197963993
83333.3199220936
83333.3200082506
83333.318939314
83333.3191468304
83333.3193920581
83333.3196369322
83333.3198488975
83333.3200096911
83333.3201167352
83333.3201998152
83333.3193280218
83333.3194143837
83333.3195631515
83333.3197448414
83333.3199272752
83333.3200862641
83333.3202106029
83333.3203017438
83333.3203792499
83333.3197586721
83333.319751537
83333.3198101446
83333.3199185135
83333.3200512052
83333.3201839283
83333.3203007779
83333.3203963787
83333.3204737077
83333.3205440968
83333.3201910146
83333.3201176116
83333.3201041183
83333.3201438934
83333.3202206816
83333.3203143465
83333.3204081572
83333.320492718
83333.3205659574
83333.3206310658
83333.3206933448
83333.32060072
83333.3204843172
83333.3204180067
83333.3204014205
83333.320425699
83333.320476563
83333.3205393988
83333.3206035472
83333.3206636309
83333.3207192144
83333.3207732395
83333.320826977
83333.3209757025
83333.3208338294
83333.3207318133
83333.320672649
83333.3206528354
83333.3206633837
83333.3206931485
83333.3207322864
83333.3207740878
83333.3208154647
83333.3208567894
83333.3209006682
83333.3209458462
83333.3213110221
83333.3211563367
83333.3210322287
83333.3209432168
83333.3208892034
83333.3208653568
83333.3208640066
83333.3208772079
83333.3208984303
83333.3209233715
83333.32095024
83333.320979781
83333.321014409
83333.3210512201
83333.3216060141
83333.3214473232
83333.3213113695
83333.3212030952
83333.321124353
83333.3210732568
83333.3210450982
83333.3210340622
83333.3210346116
83333.3210423512
83333.3210544686
83333.321069921
83333.3210895822
83333.3211156416
83333.3211444695
83333.3218624579
83333.3217056868
83333.3215652888
83333.3214460422
83333.3213507618
83333.3212794651
83333.3212297129
83333.321197689
83333.3211791344
83333.3211701446
83333.3211677156
83333.3211699839
83333.3211763446
83333.3211875756
83333.3212056666
83333.3212269464
83333.322083457
83333.3219324332
83333.3217927518
83333.3216687445
83333.3215635799
83333.3214784115
83333.321412367
83333.3213632179
83333.3213280666
83333.3213038122
83333.3212876499
83333.321277504
83333.3212721362
83333.3212711819
83333.3212752149
83333.3212861306
83333.3212989061
83333.3222726669
83333.3221297176
83333.3219942166
83333.3218699291
83333.3217600199
83333.3216662729
83333.3215888748
83333.3215267423
83333.3214779916
83333.3214404233
83333.3214118419
83333.3213902469
83333.3213741869
83333.3213628557
83333.3213560295
83333.3213541087
83333.3213584258
83333.3213640027
83333.3215381761
83333.321506286
83333.3214804844
83333.3214598054
83333.3214437383
83333.3214321203
83333.3214250605
83333.3214234041
83333.3214243907
83333.3190368371
83333.3189456856
83333.3190703367
83333.3188153463
83333.319056382
83333.3191691353
83333.3185240265
83333.3189891214
83333.3192136335
83333.3193188939
83333.31820086
83333.318799705
83333.3191919198
83333.3193968466
83333.319496528
83333.3180179024
83333.3186169321
83333.3190884357
83333.3194155015
83333.3195947908
83333.3196944592
83333.318075203
83333.3185630326
83333.3190144854
83333.319384479
83333.3196469691
83333.3197993318
83333.3198973414
83333.3183694489
83333.3186885976
83333.3190454471
83333.3193863218
83333.319669251
83333.3198740215
83333.3200018756
83333.3200957531
83333.3188192303
83333.3189712319
83333.3192024162
83333.3194671869
83333.3197204209
83333.3199314532
83333.3200883268
83333.3201956984
83333.3202829456
83333.3193291528
83333.3193542878
83333.3194644515
83333.3196351414
83333.319828889
83333.3200126954
83333.3201668844
83333.3202862919
83333.320376543
83333.3204555199
83333.3198425965
83333.3197788837
83333.319792894
83333.3198736854
83333.3199971596
83333.3201349689
83333.3202651041
83333.320376217
83333.3204669355
83333.3205424041
83333.3206122572
83333.3203260986
83333.3202059909
83333.3201501466
83333.3201570351
83333.3202132401
83333.3202984361
83333.3203927664
83333.3204825948
83333.320561657
83333.3206301571
83333.3206925434
83333.3207527506
83333.3207646212
83333.3206116187
83333.3205091018
83333.3204604201
83333.3204599062
83333.3204946121
83333.3205491859
83333.3206106288
83333.3206705714
83333.3207255854
83333.320776498
83333.3208270105
83333.3208775346
83333.3211529547
83333.3209834996
83333.3208522962
83333.3207648608
83333.3207203659
83333.3207116753
83333.3207281163
83333.320759024
83333.3207959723
83333.3208337252
83333.3208703588
83333.3209069625
83333.320946717
83333.3209877484
83333.3214912818
83333.3213164781
83333.3211698148
83333.3210573904
83333.3209811174
83333.3209379406
83333.3209211919
83333.3209229778
83333.3209360258
83333.32095478
83333.3209758809
83333.3209982385
83333.3210230091
83333.3210529759
83333.3210849512
83333.3217825847
83333.3216097097
83333.3214569265
83333.321330104
83333.3212324974
83333.3211636876
83333.3211200738
83333.3210963543
83333.321086859
83333.3210865653
83333.3210917417
83333.321100193
83333.3211113147
83333.3211261271
83333.3211471104
83333.3211710942
83333.3220311823
83333.3218648384
83333.3217123162
83333.3215788977
83333.3214683329
83333.3213817663
83333.3213177466
83333.3212731001
83333.3212438297
83333.3212258338
83333.3212155868
83333.3212105504
83333.3212092826
83333.3212114269
83333.3212177362
83333.3212306466
83333.321244642
83333.3222419451
83333.3220848675
83333.321936814
83333.3218023468
83333.3216852311
83333.3215874562
83333.3215089871
83333.3214482143
83333.3214025535
83333.3213690248
83333.3213446625
83333.3213269449
83333.3213141427
83333.3213053176
83333.3213002415
83333.3212994264
83333.3213044552
83333.3213101386
83333.3224197556
83333.3222733912
83333.3221324417
83333.3220007324
83333.3218817812
83333.3217779618
83333.3216901374
83333.3216178247
83333.3215595153
83333.3215130941
83333.3214763203
83333.3214471149
83333.3214236987
83333.3214048913
83333.321390104
83333.3213791627
83333.3213722109
83333.3213703517
83333.3213711902
83333.3215691862
83333.3215362055
83333.3215082851
83333.3214846585
83333.3214649343
83333.3214488948
83333.3214364921
83333.3214291672
83333.3214252977
83333.3189172857
83333.3190472666
83333.3186900453
83333.3189631065
83333.3191015011
83333.3182903156
83333.3188275546
83333.319089433
83333.3192238226
83333.3177974906
83333.3185434389
83333.3190215041
83333.3192682383
83333.3193929824
83333.317426295
83333.3182309152
83333.3188414127
83333.3192519857
83333.3194691476
83333.3195868652
83333.3173575696
83333.318058925
83333.3186770561
83333.3191639763
83333.3194958904
83333.3196796539
83333.3197917806
83333.3176407388
83333.3181259187
83333.3186385789
83333.3191064391
83333.3194787226
83333.3197365666
83333.3198888927
83333.3199948618
83333.3181693006
83333.3184177636
83333.3187672268
83333.3191459673
83333.3194919349
83333.3197682787
83333.3199643014
83333.3200905941
83333.3201886283
83333.3187855762
83333.3188577405
83333.319042
83333.3192999368
83333.3195759408
83333.3198259152
83333.3200266839
83333.3201747103
83333.3202797403
83333.3203681077
83333.3194070739
83333.3193579778
83333.3194118328
83333.3195504631
83333.3197378937
83333.3199341876
83333.3201107649
83333.3202548306
83333.3203664248
83333.3204536254
83333.3205316479
83333.3199871789
83333.3198633106
83333.319823348
83333.319863804
83333.3199642625
83333.3200956767
83333.3202311115
83333.3203533863
83333.3204557666
83333.3205395963
83333.3206113983
83333.3206786619
83333.3205072325
83333.3203407699
83333.320239175
83333.3202062179
83333.3202329238
83333.320300603
83333.3203880766
83333.3204782759
83333.3205609394
83333.3206325534
83333.3206947874
83333.3207528173
83333.3208092373
83333.320962268
83333.3207748993
83333.3206358944
83333.3205521662
83333.3205217559
83333.3205341982
83333.3205746282
83333.3206287521
83333.3206857869
83333.3207394965
83333.3207879802
83333.3208329061
83333.3208785024
83333.3209243652
83333.3213542131
83333.3211600342
83333.3210009444
83333.3208846426
83333.3208130761
83333.3207815083
83333.3207805463
83333.3207994871
83333.3208288124
83333.3208615678
83333.3208938335
83333.3209245734
83333.3209553492
83333.320989704
83333.3210250884
83333.3216880822
83333.3214960251
83333.3213287519
83333.3211936062
83333.3210944084
83333.3210300902
83333.3209954401
83333.3209831702
83333.32098576
83333.3209967735
83333.321011624
83333.3210277841
83333.3210447206
83333.321063778
83333.3210879298
83333.321114224
83333.3219700593
83333.3217856201
83333.3216180968
83333.321474019
83333.321357886
83333.3212707856
83333.3212104404
83333.3211723871
83333.3211512098
83333.3211415728
83333.3211390453
83333.3211405523
83333.3211444549
83333.3211504631
83333.321159595
83333.321174876
83333.3211905013
83333.322206606
83333.3220329757
83333.3218703256
83333.321724237
83333.3215992398
83333.3214975701
83333.3214188698
83333.3213607902
83333.3213197778
83333.3212918233
83333.3212730885
83333.321260476
83333.3212519147
83333.3212463418
83333.32124357
83333.3212443269
83333.3212503692
83333.3212563356
83333.3224040345
83333.3222428474
83333.3220882206
83333.3219447988
83333.3218168074
83333.3217069997
83333.3216162051
83333.3215435639
83333.3214869754
83333.321443628
83333.32141056
83333.3213850104
83333.3213647789
83333.3213484868
83333.3213354626
83333.3213255595
83333.3213189916
83333.3213170233
83333.3213174868
83333.3225682068
83333.3224200492
83333.3222752158
83333.322137488
83333.3220106282
83333.321897522
83333.321799682
83333.3217172641
83333.3216492751
83333.3215938701
83333.3215487818
83333.3215117954
83333.3214809932
83333.3214548476
83333.3214324317
83333.3214133152
83333.3213972571
83333.3213842581
83333.3213761039
83333.3213715656
83333.3215989262
83333.3215639072
83333.3215329133
83333.3215053377
83333.3214808357
83333.3214594044
83333.3214418615
83333.3214311792
83333.3186425097
83333.3189367752
83333.3190769606
83333.3181642448
83333.3187118708
83333.3190030382
83333.3191574064
83333.3174462166
83333.3183195347
83333.3188676651
83333.3191509826
83333.3193037967
83333.3167942449
83333.3178368069
83333.3185955743
83333.3190911971
83333.319348828
83333.3194908179
83333.3164884616
83333.3174826718
83333.3183094126
83333.3189344792
83333.3193444793
83333.3195638874
83333.3196941219
83333.3166980266
83333.3174351246
83333.3181646177
83333.3187974109
83333.3192790075
83333.3195990359