/*--------------------------------*- C++ -*----------------------------------*\
  =========                 |
  \\      /  F ield         | OpenFOAM: The Open Source CFD Toolbox
   \\    /   O peration     | Website:  https://openfoam.org
    \\  /    A nd           | Version:  12
     \\/     M anipulation  |
\*---------------------------------------------------------------------------*/
/*   Windows 32 and 64 bit porting by blueCAPE: http://www.bluecape.com.pt   *\
|  Based on Windows porting (2.0.x v4) by Symscape: http://www.symscape.com   |
\*---------------------------------------------------------------------------*/
FoamFile
{
    format      ascii;
    class       surfaceScalarField;
    location    "100";
    object      phi;
}
// * * * * * * * * * * * * * * * * * * * * * * * * * * * * * * * * * * * * * //

dimensions      [0 3 -1 0 0 0 0];

internalField   nonuniform List<scalar> 
28893
(
1.33074291635221e-05
-4.55783432347446e-07
-5.88145793332582e-07
1.4456009221744e-05
-4.76414597775209e-07
-6.72153139465234e-07
5.19460319842389e-06
-7.07914677688517e-07
-2.52176597655307e-07
1.6680267890119e-05
-5.1997101260347e-07
-1.30955747582768e-06
1.5716093959204e-05
-4.8953595457935e-07
-7.7054330043966e-07
5.74411784652121e-06
-7.38228547730086e-07
-2.87692177316164e-07
1.80500107154665e-05
-5.39648047961332e-07
-1.50222114332026e-06
4.38424517490069e-06
-9.45041652846947e-07
-2.07235665164541e-07
6.54193669610008e-06
-8.22817582438021e-07
-5.45006574033195e-07
1.86708108005346e-05
-5.77219769491716e-07
-2.08987527070416e-06
1.70922867631964e-05
-4.85783778963903e-07
-8.9039743304524e-07
6.33730919939865e-06
-7.53903438463921e-07
-3.28817358755976e-07
1.95601320022361e-05
-5.49277827396596e-07
-1.7313604809279e-06
4.86735373749106e-06
-9.8420635125351e-07
-2.37129155052354e-07
7.19157717619908e-06
-8.51054501512748e-07
-6.25917390348873e-07
2.01701786665336e-05
-5.99132721313717e-07
-2.40243560220501e-06
4.24349035555965e-06
-1.18743023885401e-06
-1.86624351225652e-07
5.32335673053931e-06
-1.10836678716907e-06
-4.41082226954801e-07
7.52545754544504e-06
-9.40332291871872e-07
-8.52170713975604e-07
2.06491986555148e-05
-6.30493839889134e-07
-2.92300150344508e-06
1.85847380415899e-05
-4.59067975925588e-07
-1.0333759382801e-06
6.97394906427194e-06
-7.4609967711892e-07
-3.76315689647534e-07
2.12103000881458e-05
-5.36144761407433e-07
-2.00439204506763e-06
5.38911563374784e-06
-1.00523447110501e-06
-2.70429460259846e-07
7.89344769420338e-06
-8.59866536281249e-07
-7.20089402118742e-07
2.18196996649095e-05
-6.05726524248862e-07
-2.77512931594724e-06
4.71127242760814e-06
-1.23804067500082e-06
-2.13946894230945e-07
5.88834090073874e-06
-1.14606174893729e-06
-5.07102779076689e-07
8.254757424556e-06
-9.70506141829226e-07
-9.83832666079324e-07
2.22660465088428e-05
-6.60508345746091e-07
-3.35874988208806e-06
4.20018771096691e-06
-1.43568033469515e-06
-1.73284976609817e-07
5.00759317474841e-06
-1.39332582226201e-06
-3.95710515196752e-07
6.1664929618446e-06
-1.28709799995299e-06
-6.86357460482492e-07
8.31791481663248e-06
-1.04534341309789e-06
-1.16430793600522e-06
2.19086205045865e-05
-6.83417149738456e-07
-3.74587145319336e-06
2.01877757889987e-05
-4.01051663644793e-07
-1.2019737157883e-06
7.65092543089414e-06
-7.06491837994175e-07
-4.29542634520208e-07
2.29986699272207e-05
-4.94615852281158e-07
-2.32709707763836e-06
5.94953928192611e-06
-9.99062709978654e-07
-3.07459249518663e-07
8.64724651851051e-06
-8.38641046063384e-07
-8.27607892122278e-07
2.36151530159424e-05
-5.84619113339628e-07
-3.21519911167142e-06
5.21867198462839e-06
-1.26882369843001e-06
-2.43809404052542e-07
6.49929291015861e-06
-1.16019505925554e-06
-5.8104978722847e-07
9.04176061761432e-06
-9.76494893431543e-07
-1.13631379227347e-06
2.40383295770879e-05
-6.66714028350496e-07
-3.88067789725647e-06
4.66196631715933e-06
-1.50159291607147e-06
-1.98225587643929e-07
5.54678912221599e-06
-1.44453784739773e-06
-4.54664589642011e-07
6.80955192067714e-06
-1.32794018476407e-06
-7.92724490589202e-07
9.10344748493032e-06
-1.07872774316302e-06
-1.35113703769146e-06
2.35635858876251e-05
-7.11641329982314e-07
-4.30204873465409e-06
4.14886084019475e-06
-1.68647488329035e-06
-1.63586853421833e-07
4.84575570645343e-06
-1.67911257546784e-06
-3.66051946330736e-07
5.76804240670882e-06
-1.6237481865248e-06
-6.21090559728627e-07
6.76656167029966e-06
-1.43642997761093e-06
-9.34251407822475e-07
8.67911359383367e-06
-1.11114035503601e-06
-1.47563716848097e-06
2.22304838363078e-05
-7.09997500956259e-07
-4.5046187642727e-06
2.18891251278918e-05
-3.0093926251496e-07
-1.40039690932662e-06
8.36209569904919e-06
-6.23906431603289e-07
-4.88304516180924e-07
2.49177591832306e-05
-4.14059897853922e-07
-2.70696285399122e-06
6.5461806095897e-06
-9.5540583006632e-07
-3.47725777983978e-07
9.44962427163404e-06
-7.78009914894678e-07
-9.48515071037989e-07
2.55524897402214e-05
-5.31694488548035e-07
-3.73271181243491e-06
5.76619087252942e-06
-1.27014895093803e-06
-2.76431596315988e-07
7.15658706432217e-06
-1.14015265391792e-06
-6.63238883175945e-07
9.88580277075212e-06
-9.46589102367627e-07
-1.3096683310565e-06
2.59594790185132e-05
-6.41969807059349e-07
-4.49435406392554e-06
5.16595326570251e-06
-1.54699631175353e-06
-2.25813725381236e-07
6.13263534040971e-06
-1.4700915491642e-06
-5.19756643672217e-07
7.50402864843052e-06
-1.34030664712018e-06
-9.11711240807371e-07
9.9495049892539e-06
-1.0846421128543e-06
-1.56443163958275e-06
2.53712597297762e-05
-7.22674993584245e-07
-4.96565582633555e-06
4.60493848427171e-06
-1.77137406250814e-06
-1.86295774125391e-07
5.3707230068751e-06
-1.74803596716732e-06
-4.19692862875446e-07
6.38077166092494e-06
-1.68009826783603e-06
-7.15233448522319e-07
7.45847049611938e-06
-1.48097097969854e-06
-1.08238692019558e-06
9.47703589795756e-06
-1.147488747394e-06
-1.71320035669953e-06
2.38332432568654e-05
-7.39214226509396e-07
-5.16557562769817e-06
4.07569654602919e-06
-1.9370074611757e-06
-1.55190434243286e-07
4.72565828892163e-06
-1.96296897610425e-06
-3.46416311128724e-07
5.52210912263844e-06
-1.95114250819487e-06
-5.78339382450775e-07
6.27937629475975e-06
-1.80740359417067e-06
-8.53403947546725e-07
6.93704924913601e-06
-1.51298282019788e-06
-1.17506872832609e-06
8.63596612854361e-06
-1.13248923935748e-06
-1.76652052438726e-06
2.18432836351984e-05
-7.13438532083588e-07
-5.16223970772974e-06
2.36697300118194e-05
-1.42391545055138e-07
-1.63819891165399e-06
9.09779709995577e-06
-4.8340942335288e-07
-5.53219988164109e-07
2.69535765729404e-05
-2.80632777940114e-07
-3.1555390263037e-06
7.17459779679717e-06
-8.6127956036297e-07
-3.91042173451953e-07
1.02949151788106e-05
-6.63829289999679e-07
-1.08381176787674e-06
2.76213045338694e-05
-4.34294986435612e-07
-4.34145160608447e-06
6.35326374647313e-06
-1.23073675291084e-06
-3.11740932577647e-07
7.85798854668498e-06
-1.07355534527191e-06
-7.53578077156841e-07
1.07825505702726e-05
-8.71309531556707e-07
-1.50563481373869e-06
2.80206643083337e-05
-5.81591164886831e-07
-5.21227870533782e-06
5.71383684010195e-06
-1.56229248691041e-06
-2.55739326123502e-07
6.76626882694127e-06
-1.45886766742669e-06
-5.91347274222918e-07
8.25052422587536e-06
-1.31213339656093e-06
-1.0441866652575e-06
1.08546032664671e-05
-1.05026819802753e-06
-1.80645744190173e-06
2.7319404156681e-05
-7.00524628010126e-07
-5.74195186452705e-06
5.10603610410086e-06
-1.83602449454576e-06
-2.12068808767363e-07
5.94455385192102e-06
-1.79090717684449e-06
-4.78827060266867e-07
7.04589205727392e-06
-1.70589122317573e-06
-8.19289993580785e-07
8.20374324962483e-06
-1.49375299451793e-06
-1.24786934262692e-06
1.03320533059498e-05
-1.15701214570721e-06
-1.98510053338146e-06
2.55723656632629e-05
-7.54791061064802e-07
-5.94996228201382e-06
4.52478720389839e-06
-2.04314542748446e-06
-1.77318759749666e-07
5.24056839128683e-06
-2.05317138194533e-06
-3.96068980546353e-07
6.1135720601706e-06
-2.02763140967093e-06
-6.63620931721346e-07
6.93553352999828e-06
-1.86855661233299e-06
-9.83802959162248e-07
7.63060386671982e-06
-1.56105385002051e-06
-1.36237273515384e-06
9.40430481110546e-06
-1.17191336868014e-06
-2.04882815065766e-06
2.33295820406661e-05
-7.47002969571858e-07
-5.90485132687897e-06
3.98746983348998e-06
-2.18385667936384e-06
-1.49351474844063e-07
4.62169038379266e-06
-2.24225386586468e-06
-3.32711747841769e-07
5.34706763391328e-06
-2.27023656672674e-06
-5.50670417741908e-07
5.96319218543762e-06
-2.16020200684457e-06
-8.00987199857283e-07
6.37518193105264e-06
-1.88953147524524e-06
-1.07920656019135e-06
6.76237609819579e-06
-1.52341919200923e-06
-1.39632221795213e-06
8.33986077392043e-06
-1.1252034957088e-06
-2.0199664636233e-06
2.10761300126655e-05
-7.08932869423811e-07
-5.69486657704191e-06
2.54943545462438e-05
1.00456363257632e-07
-1.92506491180944e-06
9.8448997142163e-06
-2.63814210121077e-07
-6.25666485081714e-07
2.90817798355004e-05
-7.42487322026478e-08
-3.69210124046409e-06
7.82814981743458e-06
-6.99365803522843e-07
-4.37593494970653e-07
1.1173959997747e-05
-4.77020764471002e-07
-1.23586278613781e-06
2.98024944928456e-05
-2.75855269341592e-07
-5.06083685753818e-06
6.97852663315308e-06
-1.13650017963325e-06
-3.50041014006958e-07
8.5998718211007e-06
-9.44267248222471e-07
-8.5248232654471e-07
1.1725634300901e-05
-7.34240200124998e-07
-1.72693493596512e-06
3.0206875699351e-05
-4.7282735962282e-07
-6.054804209501e-06
6.30720822143744e-06
-1.53592972579961e-06
-2.88177547459707e-07
7.44783534187342e-06
-1.39711226352891e-06
-6.6974775182836e-07
9.0463077051813e-06
-1.22961199708064e-06
-1.19105504877852e-06
1.18134460538607e-05
-9.65683688795252e-07
-2.08037141520334e-06
2.93930587406474e-05
-6.40139633589341e-07
-6.64576327154506e-06
5.65515660166895e-06
-1.87134869365011e-06
-2.40063676344239e-07
6.57012182214786e-06
-1.79648649707368e-06
-5.43686331195205e-07
7.76480946672133e-06
-1.68832033591849e-06
-9.34075396368807e-07
9.00289419883079e-06
-1.46144417984389e-06
-1.43215828161064e-06
1.12428520176134e-05
-1.12506289520059e-06
-2.29270564474363e-06
2.74311081877031e-05
-7.38294135455055e-07
-6.86237677985457e-06
5.02106725320575e-06
-2.13079363829124e-06
-2.01510330076611e-07
5.80708069435535e-06
-2.11855110278596e-06
-4.5093532368028e-07
6.75967483789852e-06
-2.0732795574837e-06
-7.57539812512669e-07
7.64617464563701e-06
-1.89579236050738e-06
-1.12788939615242e-06
8.37437413665858e-06
-1.57697291566345e-06
-1.57167571592924e-06
1.02226038266149e-05
-1.18590282066657e-06
-2.37227671581837e-06
2.49287441421171e-05
-7.66387042367006e-07
-6.78271373769789e-06
4.42789845172067e-06
-2.31330653889057e-06
-1.70266896739342e-07
5.12800646132611e-06
-2.35706128746052e-06
-3.79743073188309e-07
5.92376480393853e-06
-2.37069941328333e-06
-6.29696395617752e-07
6.59248286173218e-06
-2.24262923538702e-06
-9.18836952495054e-07
7.0280466160702e-06
-1.95396860397806e-06
-1.2437504482716e-06
7.42014136543451e-06
-1.57432988725208e-06
-1.61771958420484e-06
9.05211288780268e-06
-1.16772966170405e-06
-2.3403428028112e-06
2.2410711045216e-05
-7.4509838753702e-07
-6.49431161408977e-06
3.88697257650016e-06
-1.44154696971618e-07
4.51781532213417e-06
-2.51648087631717e-06
-3.21830871284451e-07
5.21912379386114e-06
-2.58240722988641e-06
-5.32156344601598e-07
5.74951699299846e-06
-2.50019062912583e-06
-7.66793331862608e-07
6.02049460954317e-06
-2.24426318444381e-06
-1.01815119960451e-06
6.15924907516187e-06
-1.88743200823363e-06
-1.28537640539926e-06
6.40445701166389e-06
-1.49804782056689e-06
-1.58719084429445e-06
7.91908025383826e-06
-1.10811390951246e-06
-2.22739734465129e-06
2.01606084456195e-05
-7.0295824603778e-07
-6.09035784832883e-06
2.73056114864305e-05
4.61757759422746e-07
-2.27299841754883e-06
1.05873156133957e-05
6.54113600879415e-08
-7.07358080658953e-07
3.12542964282534e-05
2.38639564144585e-07
-4.33616696733042e-06
8.49936099371985e-06
-4.46917709960545e-07
-4.88105424385363e-07
1.20738720791315e-05
-1.91042330721694e-07
-1.40876764680143e-06
3.20604280979558e-05
-3.271032674311e-08
-5.91728347668712e-06
7.63976490118567e-06
-9.69797346492437e-07
-3.9080535586263e-07
9.37614692949136e-06
-7.29922925728598e-07
-9.60960533993876e-07
1.27048854362155e-05
-5.12897118177494e-07
-1.97805577950284e-06
3.24916415019743e-05
-2.97237661635192e-07
-7.04832262307707e-06
6.9474322510679e-06
-1.45352690881644e-06
-3.23196265954166e-07
8.17803488314144e-06
-1.26861065277104e-06
-7.55894122225306e-07
9.88754807139545e-06
-1.07442680877716e-06
-1.35353141740764e-06
1.28182820688804e-05
-8.1335523299007e-07
-2.3912280130748e-06
3.15694675298199e-05
-5.29934690924711e-07
-7.70124544141649e-06
6.25589866377893e-06
-1.8660125412464e-06
-2.70658541453188e-07
7.25046747752834e-06
-1.75083826292533e-06
-6.14794872452158e-07
8.53747035422371e-06
-1.61157237202733e-06
-1.06044508417672e-06
9.85262254901481e-06
-1.36927271199738e-06
-1.63719018706018e-06
1.22028613789209e-05
-1.04035631004687e-06
-2.64014987465613e-06
2.9389159634761e-05
-6.84129816994568e-07
-7.91965973159003e-06
5.56897738343529e-06
-2.19124166142631e-06
-2.28016613989602e-07
6.42974996781546e-06
-2.14797843649103e-06
-5.11239140649648e-07
7.4636638803133e-06
-2.07514232506283e-06
-8.60851365798693e-07
8.41266004021441e-06
-1.87518902271939e-06
-1.28681347184145e-06
9.16823149461514e-06
-1.5469240039245e-06
-1.80415029821419e-06
1.10889405166004e-05
-1.16010301435209e-06
-2.73722289202339e-06
2.66174744950132e-05
-7.5276670970841e-07
-7.79831999820121e-06
4.91714261636266e-06
-2.42681535224461e-06
-1.93221851762432e-07
5.68874459918151e-06
-2.44921116047421e-06
-4.31586724657842e-07
6.55789568945951e-06
-2.44164102005865e-06
-7.16703296005432e-07
7.27844951722437e-06
-2.29085142024199e-06
-1.04844543176915e-06
7.73236983154912e-06
-1.98387175390327e-06
-1.42531154353185e-06
8.1216489389435e-06
-1.59440127023739e-06
-1.86468110888951e-06
9.80555963207486e-06
-1.18621739816694e-06
-2.7058818457227e-06
2.38310963328127e-05
-7.6711085895181e-07
-7.43596454063959e-06
4.3168797845841e-06
-2.5791413842861e-06
-1.64071822960324e-07
5.01523219037145e-06
-2.65805851408551e-06
-3.66685014530415e-07
5.78568889749057e-06
-2.71007664324071e-06
-6.06929357488377e-07
6.36097185080873e-06
-2.60770399346462e-06
-8.76074758952432e-07
6.64377366284532e-06
-2.32931583293801e-06
-1.16676697642731e-06
6.77439552221656e-06
-1.95358122492975e-06
-1.47964338666442e-06
7.00658521788728e-06
-1.55127667636287e-06
-1.83629770933149e-06
8.56306099971221e-06
-1.15342176385734e-06
-2.5759904066672e-06
2.13286157389606e-05
-7.40852972255934e-07
-6.92144001188767e-06
4.4028432612032e-06
-3.11134452941605e-07
5.10496409061913e-06
-2.88874887829751e-06
-5.16486535026514e-07
5.60857271823895e-06
-2.83238985141946e-06
-7.4352224048022e-07
5.79488732451758e-06
-2.58530362665821e-06
-9.77696783190341e-07
5.79678205644162e-06
-2.22947156687257e-06
-1.21607573284494e-06
5.79109407391323e-06
-1.84329368450059e-06
-1.46288480027136e-06
5.96875296539868e-06
-1.46028783452073e-06
-1.74229614766462e-06
7.4407071414574e-06
-1.0889292498103e-06
-2.3852250057409e-06
1.92210116953684e-05
-7.00449085126206e-07
-6.34182424279616e-06
2.90109687564153e-05
9.9015690777486e-07
-2.69549841569655e-06
1.13044927835842e-05
5.4370549994446e-07
-7.99112063111251e-07
3.33923493051148e-05
6.99928129864527e-07
-5.11093248079307e-06
9.18055941246296e-06
-7.2185196665799e-08
-5.43599603321898e-07
1.29801204275908e-05
2.32346751101342e-07
-1.60729474622024e-06
3.433019918141e-05
3.36773873473288e-07
-6.94266719696547e-06
8.33605695852525e-06
-7.07007893271877e-07
-4.36200282704555e-07
1.01806216910656e-05
-4.02627424976015e-07
-1.08098939958134e-06
1.37056862117919e-05
-1.76626857149495e-07
-2.26563474213071e-06
3.48252822578091e-05
-2.65753214410211e-08
-8.22430581130441e-06
7.63726002013055e-06
-1.29715582599961e-06
-3.62468122412964e-07
8.95476592633953e-06
-1.04782922980033e-06
-8.49625852007695e-07
1.07673981286278e-05
-8.19442856422473e-07
-1.53425950947921e-06
1.38574975534585e-05
-5.69315848023087e-07
-2.74517745471113e-06
3.38095953632911e-05
-3.49793353245173e-07
-8.93862192725546e-06
6.91278996865181e-06
-1.80607553299584e-06
-3.04341862601886e-07
7.98786672374545e-06
-1.6364759988132e-06
-6.92727237100562e-07
9.36640255423231e-06
-1.4602575561896e-06
-1.19899207661343e-06
1.07478508042519e-05
-1.19708114160621e-06
-1.86502894033872e-06
1.32033064505299e-05
-8.87662327051528e-07
-3.03393173727376e-06
3.1411299984177e-05
-5.76581167867832e-07
-9.14677011321625e-06
6.17397177994428e-06
-2.21375072291951e-06
-2.57255433122669e-07
7.11387825265175e-06
-2.12786108875454e-06
-5.7776194687931e-07
8.22937835294877e-06
-2.01728494153183e-06
-9.74794548238217e-07
9.23497772187259e-06
-1.78991443578949e-06
-1.46211761920508e-06
1.0008577552264e-05
-1.45593881071963e-06
-2.06194889572822e-06
1.19958106941294e-05
-1.08368002944855e-06
-3.14745568993807e-06
2.83678712155519e-05
-7.02777804653956e-07
-8.96725041782011e-06
5.46076405963755e-06
-2.51628235242053e-06
-2.18580092585594e-07
6.30983478232439e-06
-2.50828866247771e-06
-4.88794899272617e-07
7.25445507883324e-06
-2.47043318628714e-06
-8.12505859744899e-07
8.02415736651687e-06
-2.29086646766499e-06
-1.19087997299404e-06
8.48882370656822e-06
-1.96520286198841e-06
-1.62498669488954e-06
8.8657311385053e-06
-1.57046736143347e-06
-2.1378649424187e-06
1.05976111416609e-05
-1.16711771767228e-06
-3.11491166471131e-06
2.53095664049465e-05
-7.60435210306947e-07
-8.51633426660872e-06
4.79655158364882e-06
-2.7204313541701e-06
-1.86055197518725e-07
5.56921710249613e-06
-2.78015163227615e-06
-4.16264545765986e-07
6.41263115639559e-06
-2.81082030372239e-06
-6.89347973309428e-07
7.03190892011843e-06
-2.68234999454424e-06
-9.96140188800183e-07
7.32065333497189e-06
-2.37938412344356e-06
-1.3298110330264e-06
7.43453137293883e-06
-1.98650954720433e-06
-1.69333721475383e-06
7.64445677014024e-06
-1.5757096172818e-06
-2.11305742065881e-06
9.23924119070275e-06
-1.176608579289e-06
-2.97255127530296e-06
2.25559846842949e-05
-7.68728787331003e-07
-7.8945817550963e-06
4.18575240930029e-06
-2.83804546954547e-06
-1.57746114874327e-07
4.8893074962284e-06
-2.95453809632501e-06
-3.54055106286279e-07
5.66229602677709e-06
-3.0460809054986e-06
-5.88011091832699e-07
6.20924228282023e-06
-2.96822781901176e-06
-8.47073313511322e-07
6.39970505159606e-06
-2.69460631703323e-06
-1.11560022101912e-06
6.38258680942478e-06
-2.31458495045471e-06
-1.39156650349442e-06
6.3518383418361e-06
-1.91040211943121e-06
-1.68126033668061e-06
6.50689517459749e-06
-1.51601378353022e-06
-2.0118453183704e-06
8.01498518061832e-06
-1.13834678295285e-06
-2.75276365526882e-06
2.02203279319083e-05
-7.42032252689335e-07
-7.17869647013788e-06
4.98020863220908e-06
-4.99845056104321e-07
5.49042104469489e-06
-3.15911908122541e-06
-7.22666448900887e-07
5.65621760026782e-06
-2.91909976549836e-06
-9.49608324118021e-07
5.57763808341026e-06
-2.55847588095722e-06
-1.16974458344483e-06
5.4396218085093e-06
-2.1671041824681e-06
-1.38683355148619e-06
5.36306417444252e-06
-1.78461359156717e-06
-1.60775723042341e-06
5.50221496011508e-06
-1.41911236532088e-06
-1.85977232537689e-06
6.9463512272812e-06
-1.06990156499184e-06
-2.49189642036757e-06
1.83201278184717e-05
-7.02782435933684e-07
-6.4460123029745e-06
3.04527982300766e-05
1.74898452285537e-06
-3.19080141490981e-06
1.19713801470456e-05
1.22152073455084e-06
-8.98239566102094e-07
3.53755761237965e-05
1.36089702676256e-06
-6.03958051167345e-06
9.86321075535972e-06
4.65427853577362e-07
-6.0437129761554e-07
1.38749016319746e-05
8.40327449097434e-07
-1.83427377843242e-06
3.65105514857526e-05
8.75673385067583e-07
-8.16690878666724e-06
9.06593195805364e-06
-3.17554350878788e-07
-4.84504247770066e-07
1.10080717170529e-05
7.59649051599693e-08
-1.21466180364376e-06
1.47132482243664e-05
3.17960881190247e-07
-2.59602440702474e-06
3.71216289486707e-05
3.79954094755244e-07
-9.61892430443327e-06
8.38107812904521e-06
-1.04424783633626e-06
-4.06576892943481e-07
9.7789181616118e-06
-7.08448778747407e-07
-9.54526865780689e-07
1.16796923753363e-05
-4.33808090300987e-07
-1.73609576555083e-06
1.49152738128147e-05
-2.00079536549088e-07
-3.14988732607481e-06
3.60464802949549e-05
-7.41350224246176e-08
-1.03870149218273e-05
7.63220392451455e-06
-1.67437021691868e-06
-3.42198731572584e-07
8.78889240735477e-06
-1.43048978448635e-06
-7.8083017762635e-07
1.02473104003232e-05
-1.19535933651633e-06
-1.35461319504429e-06
1.16813009661278e-05
-9.17964379278712e-07
-2.11905521935503e-06
1.4231149806708e-05
-6.42196195453004e-07
-3.48059973819835e-06
3.34449286960456e-05
-4.0426364884585e-07
-1.05679519640322e-05
6.84306624528848e-06
-2.18527683542452e-06
-2.89892332426226e-07
7.86618148317232e-06
-2.04127956046217e-06
-6.51839115980015e-07
9.05813074077119e-06
-1.87990679147904e-06
-1.10182761203331e-06
1.011294200843e-05
-1.6183364271051e-06
-1.65569759223896e-06
1.08886481133309e-05
-1.28447014243282e-06
-2.34828701845081e-06
1.29338947065302e-05
-9.40092088044048e-07
-3.60848863442963e-06
3.01370690175567e-05
-6.09770495312316e-07
-1.03061692665096e-05
6.06563565707681e-06
-2.57180747460214e-06
-2.46814255933974e-07
6.998677406576e-06
-2.52158180626121e-06
-5.52375441608277e-07
8.01952726982065e-06
-2.44159594892866e-06
-9.18521161170917e-07
8.83281715953577e-06
-2.22558070010141e-06
-1.34778617123636e-06
9.29663444112179e-06
-1.88134365228242e-06
-1.84452137280381e-06
9.64759843361354e-06
-1.48834607535731e-06
-2.43914734754565e-06
1.14197645412245e-05
-1.10110994775887e-06
-3.57126298950176e-06
2.68158791372866e-05
-7.27364370886508e-07
-9.74617144533946e-06
5.33224409904924e-06
-2.84149383273619e-06
-2.10480386910855e-07
6.18688014951754e-06
-2.873257233228e-06
-4.71272925417715e-07
7.10656750526893e-06
-2.87274633291821e-06
-7.80416391147129e-07
7.76722573725841e-06
-2.71054490859076e-06
-1.12814252564938e-06
8.05341025838697e-06
-2.38046427161905e-06
-1.50837378584545e-06
8.13925733164226e-06
-1.9729353275014e-06
-1.92724224439257e-06
8.31595277741354e-06
-1.55926848941215e-06
-2.41720598125123e-06
9.94390189021813e-06
-1.16588929192827e-06
-3.41410534345451e-06
2.38128302240237e-05
-7.71829579694479e-07
-9.00133076655263e-06
4.65220983571098e-06
-3.00802530384476e-06
-1.78862884955746e-07
5.43356496630084e-06
-3.10870693233891e-06
-4.01755688947156e-07
6.28244840565849e-06
-3.18012110272431e-06
-6.67114400893237e-07
6.87248551010528e-06
-3.07391598244776e-06
-9.61023769229185e-07
7.06091378053092e-06
-2.77006071221958e-06
-1.26667072963662e-06
7.01549739994178e-06
-2.36586271808943e-06
-1.58336650725161e-06
6.94967625653313e-06
-1.94649207366686e-06
-1.92039084826807e-06
7.07248170694979e-06
-1.545361740859e-06
-2.30988765212887e-06
8.61070539150862e-06
-1.16796672244692e-06
-3.1690230317912e-06
2.12545588962665e-05
-7.75245220101256e-07
-8.15354523005817e-06
4.02402800670408e-06
-3.08689298886312e-06
-1.50503287795716e-07
4.73857551258413e-06
-3.24401917244831e-06
-3.40243967973631e-07
5.52611056680308e-06
-3.37757588263031e-06
-5.68460556428505e-07
6.0820068168305e-06
-3.32594392821814e-06
-8.21879052007423e-07
6.25080889193334e-06
-3.05585159972557e-06
-1.08041765632372e-06
6.14604270364786e-06
-2.66589684294018e-06
-1.33269109121374e-06
5.97318742086301e-06
-2.25128863232176e-06
-1.58424375867135e-06
5.86289922071645e-06
-1.85284704131655e-06
-1.84425987057339e-06
5.97309910853423e-06
-1.47808619772505e-06
-2.14298610726478e-06
7.44471020075337e-06
-1.1244280193244e-06
-2.86871582574476e-06
1.91542301311352e-05
-7.49257477013389e-07
-7.26352420983022e-06
5.36093366140643e-06
-6.99562505425253e-07
5.5430867245643e-06
-3.24803312398795e-06
-9.23616264080126e-07
5.4492283569758e-06
-2.88089183960966e-06
-1.13730580924731e-06
5.2353818549828e-06
-2.47837643512891e-06
-1.33596788442369e-06
5.03104998247861e-06
-2.08803412841673e-06
-1.52733842418798e-06
4.91150649568008e-06
-1.72105412341478e-06
-1.71902990869757e-06
5.02883926859385e-06
-1.3772223820823e-06
-1.93983539620048e-06
6.46850256869856e-06
-1.05346910192826e-06
-2.55006556292906e-06
1.74906212438929e-05
-7.1209588709263e-07
-6.39937215518997e-06
3.14332461625808e-05
2.81335219511233e-06
-3.79379141274689e-06
1.25660674029736e-05
2.16053947709455e-06
-1.00623402671027e-06
3.70157159999503e-05
2.30644242087339e-06
-7.13734276426369e-06
1.0537303707954e-05
1.21705943484469e-06
-6.69629397879607e-07
1.47351185060596e-05
1.69349905965062e-06
-2.09104078944872e-06
3.84496288927232e-05
1.6355104364625e-06
-9.61412210957739e-06
9.8289351395179e-06
2.38638970468885e-07
-5.36212624133607e-07
1.18523603899773e-05
7.55556037395529e-07
-1.36388237599632e-06
1.57088733945367e-05
1.02093239540784e-06
-2.97513612235195e-06
3.9252786802199e-05
9.59047940313312e-07
-1.12570639758092e-05
9.1844373626929e-06
-6.66061377908213e-07
-4.54850984133738e-07
1.06534042862142e-05
-2.10705207440501e-07
-1.07231581720966e-06
1.26191916159306e-05
1.26774596188139e-07
-1.96296759922798e-06
1.59751599042584e-05
3.3744164219217e-07
-3.6133748150886e-06
3.81778172114916e-05
3.25828343560416e-07
-1.20760427788759e-05
8.42319895870314e-06
-1.44961551069673e-06
-3.85626297291666e-07
9.65906829870205e-06
-1.10484561597291e-06
-8.80352572618582e-07
1.11837468289933e-05
-7.96406088791669e-07
-1.52836097517263e-06
1.26456200780347e-05
-4.9733379177135e-07
-2.40315445460235e-06
1.52696199950576e-05
-2.74493375679731e-07
-3.98798057211819e-06
3.54115919219585e-05
-1.50254646053677e-07
-1.22033766853523e-05
7.58580356885174e-06
-2.09002541769095e-06
-3.27081347887937e-07
8.69644062866222e-06
-1.86700095810538e-06
-7.35944020407125e-07
9.9601043290048e-06
-1.63586401962163e-06
-1.2422961341463e-06
1.10451881699111e-05
-1.33376049218256e-06
-1.87105943084768e-06
1.18004731938752e-05
-1.00705353799107e-06
-2.66601700110463e-06
1.38884095445821e-05
-7.11313451447089e-07
-4.12804719411735e-06
3.18662312635506e-05
-4.59292127939011e-07
-1.18377875000001e-05
6.74065479457124e-06
-2.58158103642678e-06
-2.7871418437951e-07
7.7650006741085e-06
-2.4734818977466e-06
-6.24011120545869e-07
8.86068234173404e-06
-2.33584760211914e-06
-1.03705093178226e-06
9.70782487221772e-06
-2.07353714370611e-06
-1.52163204468926e-06
1.01541191247175e-05
-1.7113898106117e-06
-2.08625943513973e-06
1.04602304138766e-05
-1.33002424560848e-06
-2.77098217451624e-06
1.22603694055172e-05
-9.75377944629503e-07
-4.08347014059696e-06
2.8296951553352e-05
-6.44088785827729e-07
-1.11431228296486e-05
5.93181357192811e-06
-2.93346659623175e-06
-2.37909713598589e-07
6.87727271718835e-06
-2.92586907766827e-06
-5.32917768561114e-07
7.8758600097966e-06
-2.88143337115818e-06
-8.81828555291277e-07
8.57287791219432e-06
-2.67577406279657e-06
-1.2739779015752e-06
8.84423873230332e-06
-2.31571858947742e-06
-1.70423778515249e-06
8.88665115021284e-06
-1.89742310469567e-06
-2.18283556506866e-06
9.01530511304314e-06
-1.4893975896865e-06
-2.75020831696703e-06
1.06642830728502e-05
-1.11387204029504e-06
-3.90512300764379e-06
2.50610393647515e-05
-7.44529301653222e-07
-1.02498227379153e-05
5.1751502736118e-06
-3.1619852534099e-06
-2.02448404975594e-07
6.04360372220905e-06
-3.23877406183155e-06
-4.55000684426704e-07
6.97339030011457e-06
-3.27999419922865e-06
-7.549653926065e-07
7.6049140890175e-06
-3.13665734205248e-06
-1.08673087946903e-06
7.78256385987116e-06
-2.79811492886816e-06
-1.43214059603842e-06
7.69662723406142e-06
-2.37009536789833e-06
-1.79234144947675e-06
7.58312286386001e-06
-1.93943480764266e-06
-2.18052116488881e-06
7.66236443688692e-06
-1.53755225632447e-06
-2.63542257745014e-06
9.22160806869059e-06
-1.16711452598269e-06
-3.62971362957433e-06
2.22920172097731e-05
-7.86227065439323e-07
-9.25254105109053e-06
4.47220588227572e-06
-3.28549101315805e-06
-1.70711576956644e-07
5.26845872563425e-06
-3.43132401730857e-06
-3.86127458554533e-07
6.13634159846645e-06
-3.5473293128277e-06
-6.44777040844008e-07
6.73883707548778e-06
-3.46640686252592e-06
-9.31452176183224e-07
6.90492277236545e-06
-3.16126303444737e-06
-1.22393402906265e-06
6.76429102519611e-06
-2.74031694132388e-06
-1.51046306650121e-06
6.54598532520302e-06
-2.30370910929382e-06
-1.79894557307e-06
6.39161955897548e-06
-1.89262110231881e-06
-2.10184964750142e-06
6.46309448633298e-06
-1.51335754809101e-06
-2.45448963432432e-06
7.95620948830482e-06
-1.16164835344512e-06
-3.29411098350443e-06
2.00016964300199e-05
-7.88841267098842e-07
-8.21214619185013e-06
3.82197698846163e-06
-3.32193694562015e-06
-1.41839333458518e-07
4.5514092272083e-06
-3.52290300399282e-06
-3.24161083760658e-07
5.35952274805398e-06
-3.70180432316513e-06
-5.46231452435657e-07
5.94105895979646e-06
-3.6796737887262e-06
-7.94854216275613e-07
6.12934930722875e-06
-3.41494792214921e-06
-1.04904336244967e-06
6.00852795565852e-06
-3.01364163140287e-06
-1.29197031155511e-06
5.75342016436711e-06
-2.58258578415551e-06
-1.51943060372217e-06
5.5067916396002e-06
-2.1713808848204e-06
-1.74144957847344e-06
5.34803121775185e-06
-1.7909646703915e-06
-1.96790333391211e-06
5.43193068665016e-06
-1.44019739706832e-06
-2.23030374021174e-06
6.89143525121899e-06
-1.11384635250956e-06
-2.92704678111396e-06
1.81648658976838e-05
-7.64008535870411e-07
-7.17373784565624e-06
5.41699324311673e-06
-8.94241230188847e-07
5.3460355415912e-06
-3.19878711199132e-06
-1.10684101398747e-06
5.12013012581257e-06
-2.7833692149404e-06
-1.30023293400985e-06
4.8453392799698e-06
-2.37936205930932e-06
-1.47371549423687e-06
4.60237114610029e-06
-2.00272581527123e-06
-1.63690122826037e-06
4.45485271204341e-06
-1.65555651963109e-06
-1.79737950412281e-06
4.56759207844892e-06
-1.33652390490181e-06
-1.98479372195414e-06
6.02992369940604e-06
-1.04179384334041e-06
-2.56386256715947e-06
1.6742353269521e-05
-7.29013190499045e-07
-6.20036550176094e-06
3.16448479463357e-05
4.25522099916576e-06
-4.46682378858356e-06
1.30651509248122e-05
3.44375054708772e-06
-1.12947932723932e-06
3.79551928199479e-05
3.64264850186837e-06
-8.37590437739822e-06
1.11895516450017e-05
2.2508488455667e-06
-7.42555979232967e-07
1.55395751584015e-05
2.8755121454176e-06
-2.37974764839008e-06
3.99092279323107e-05
2.69278886153929e-06
-1.12896929187009e-05
1.06263957181235e-05
1.0148075421986e-06
-5.95207346918682e-07
1.27053770535936e-05