/*--------------------------------*- C++ -*----------------------------------*\
  =========                 |
  \\      /  F ield         | OpenFOAM: The Open Source CFD Toolbox
   \\    /   O peration     | Website:  https://openfoam.org
    \\  /    A nd           | Version:  12
     \\/     M anipulation  |
\*---------------------------------------------------------------------------*/
/*   Windows 32 and 64 bit porting by blueCAPE: http://www.bluecape.com.pt   *\
|  Based on Windows porting (2.0.x v4) by Symscape: http://www.symscape.com   |
\*---------------------------------------------------------------------------*/
FoamFile
{
    format      ascii;
    class       volVectorField;
    location    "100";
    object      U;
}
// * * * * * * * * * * * * * * * * * * * * * * * * * * * * * * * * * * * * * //

dimensions      [0 1 -1 0 0 0 0];

internalField   nonuniform List<vector> 
10142
(
(-5.19012994954081e-05 0.00351199085292981 0.000183510664199894)
(-5.89494009075089e-05 0.00388797283841552 0.000199035618185527)
(-3.35291610108972e-05 0.00226795102873524 0.000304293375881297)
(-0.000176613173055428 0.00380339174563583 0.000195368731040916)
(-6.78924396543255e-05 0.00429702369427627 0.000211930166452561)
(-3.88770386224007e-05 0.00254230159086323 0.000324669873621993)
(-0.000202168224071482 0.00418079049157333 0.000214742269876999)
(-3.07733268671766e-05 0.00216459599910866 0.00045047601731931)
(-0.000109840991647977 0.00237153121142092 0.000314094659517658)
(-0.000299759034882127 0.00377922697907698 0.000198951731785758)
(-8.07839223517516e-05 0.00474008812043987 0.00021816972107555)
(-4.53068001463936e-05 0.00283748368685282 0.000339400105474576)
(-0.000233980262990364 0.00459524170086456 0.000229921099818297)
(-3.58713442965357e-05 0.00242084031919371 0.000475540260310789)
(-0.000127476626843499 0.00264674517186175 0.000335377156156511)
(-0.000346871661666312 0.0041441900272299 0.000220561157374055)
(-2.94686123915355e-05 0.00215300547044896 0.000601451967683167)
(-9.97866772481119e-05 0.00221157344393907 0.000463295019884678)
(-0.000185649307426711 0.00235429580971073 0.000317507619280328)
(-0.000432374882006439 0.003729537695963 0.000195462686997569)
(-9.65203298962005e-05 0.00521847673895732 0.000217334059151771)
(-5.29024566530194e-05 0.00315367998080251 0.000344264353800181)
(-0.000275159662146057 0.00504253447728588 0.000234452533545606)
(-4.16199326149245e-05 0.00269701838288424 0.000492621350777882)
(-0.000148438125946972 0.00294318422397182 0.00035008725439019)
(-0.000404840003138444 0.00454505811568499 0.000235804198075786)
(-3.42128624063324e-05 0.00240081130411776 0.000632635937785221)
(-0.000115871603326504 0.00246828473992189 0.000488200944988295)
(-0.000216919760817303 0.00262279013342009 0.000339740827884822)
(-0.000501817373165031 0.00408131831377192 0.000218470260756126)
(-2.894966055081e-05 0.00215491761716183 0.000750754641085978)
(-9.60375944637882e-05 0.00217897671705375 0.000617125145687832)
(-0.000170852941475137 0.00218932035893237 0.000467159453006323)
(-0.000265248814639632 0.00229655110182859 0.000317535694794186)
(-0.000566178030664713 0.00363480098219146 0.000192272198775003)
(-0.00011484109865572 0.00572731194856854 0.000207347081352588)
(-6.15730972025035e-05 0.00348991544196263 0.000336758765202113)
(-0.000324254852429196 0.0055242283664993 0.000231610650201503)
(-4.80499002811043e-05 0.00299341941576147 0.000497349310724996)
(-0.000172570889670348 0.00326006056050191 0.000353142227471743)
(-0.00047448041884327 0.0049749374834054 0.000237328040494846)
(-3.94126095439783e-05 0.00266910049445351 0.000654205699578329)
(-0.000133951316147146 0.00274506186082848 0.000504233888762939)
(-0.000253354680894558 0.00291155379133864 0.000354613466403975)
(-0.000586562111715416 0.00446641486875493 0.000233983616954942)
(-3.33945084000753e-05 0.00239820555324298 0.000789528112820118)
(-0.000110842708455374 0.00242667642168462 0.000647863845312701)
(-0.000198884942270887 0.00244077291576673 0.00049226424394662)
(-0.000310729593891038 0.00255447185044235 0.000340218094636619)
(-0.000657045343543658 0.00396690101061433 0.000216033660000442)
(-2.86838118823893e-05 0.00215804521872024 0.000898727816932792)
(-9.4016962319935e-05 0.00217062683231492 0.00076634900082311)
(-0.00016658476107263 0.00215424347654026 0.000620952064596929)
(-0.000246023821598824 0.00212921349719697 0.000465733276399881)
(-0.000343817287376373 0.00220268005149899 0.000314246935528593)
(-0.000690511796220336 0.00349073608946114 0.000189588818211209)
(-0.000135566013067066 0.00625825830648696 0.000185932337118225)
(-7.12303172423423e-05 0.00384245114086356 0.000312548464153632)
(-0.000381451563667123 0.00603478700634944 0.000219122596693036)
(-5.51334437794595e-05 0.0033091168110382 0.000485133983126399)
(-0.000199829671219939 0.00359632031279978 0.000343146972713931)
(-0.000555332952425471 0.00543649259175989 0.000232565504464541)
(-4.50971200389106e-05 0.0029582508679639 0.000661370559439417)
(-0.000153978853324651 0.00304181532179652 0.000507277742675735)
(-0.000294571407106512 0.00321924180607063 0.00035688069682797)
(-0.000685098444032617 0.0048778061347473 0.000234265272748057)
(-3.81951477236649e-05 0.00266294639583808 0.000817765146217708)
(-0.000127034121287983 0.00269487340943294 0.000668339621506279)
(-0.000230086337565859 0.00271137893337368 0.000507917174128921)
(-0.000362794761367345 0.00283063023316327 0.00035536778337859)
(-0.000767026478056187 0.00432953010599935 0.000232498316180601)
(-3.28785009938619e-05 0.00239874326933039 0.000946919979128132)
(-0.00010784200191954 0.0024133124662144 0.000804531078526517)
(-0.000192355161258915 0.00239699875341607 0.000651444190554814)
(-0.000286586860691996 0.00237097790591238 0.000490929809063171)
(-0.0004030548619224 0.00244586946118769 0.000337052020858383)
(-0.000801084884242517 0.0037983537614353 0.000212789391603234)
(-2.84454357963036e-05 0.002156275290466 0.00104496775210267)
(-9.22763318944029e-05 0.00216629600451014 0.000911896537294257)
(-0.00016425528046762 0.002143610907414 0.000768324802261412)
(-0.000241909944882146 0.00209480849839408 0.0006170584368945)
(-0.000319912214241923 0.00203398332524463 0.000458628805047533)
(-0.000416248784573355 0.00207846007583434 0.000307784670089458)
(-0.000798026175577451 0.00330692744597759 0.000184586827955138)
(-0.000160254020268809 0.00680235845255704 0.00014886988856782)
(-8.20500769014187e-05 0.00420546900728316 0.000266502819867658)
(-0.000446559374175587 0.00656400066138366 0.000194906942979592)
(-6.28727273395943e-05 0.0036413335301322 0.000450521233119273)
(-0.000230070007196658 0.00394833691933354 0.00031572023196371)
(-0.0006488942200009 0.00592330109186754 0.000218271573158045)
(-5.1281618149509e-05 0.00326758944951584 0.000648651981732824)
(-0.00017586687894927 0.00335763286648559 0.000492782209115154)
(-0.000340754854262551 0.00354473810771759 0.000346126724271328)
(-0.000797490936874698 0.00531734983905163 0.000227754301769408)
(-4.33759569086303e-05 0.00294982205721374 0.000830441679137933)
(-0.000144599750530999 0.00298373345876715 0.000673852960609189)
(-0.00026453117479465 0.00300084378181471 0.000510284114080856)
(-0.000421410105010248 0.00312388993351395 0.000357552142101962)
(-0.000893459838390642 0.00471560746929464 0.000233996039767662)
(-3.73721184708061e-05 0.00266209049677394 0.000984324134841638)
(-0.000122760384639566 0.00267742867136817 0.000831643536504673)
(-0.000220447076751526 0.00265939702579082 0.000671374580461756)
(-0.000331395551624647 0.00263022458443638 0.000506485439304392)
(-0.000470143689445283 0.0027047573962553 0.00035260468875111)
(-0.000933480985331935 0.0041311660268957 0.000228754839449331)
(-3.24217646411316e-05 0.00239493491044174 0.00110418297908218)
(-0.000105338025525993 0.00240596194287986 0.000959220803374801)
(-0.000188301671883049 0.00238127583439168 0.000805902923954975)
(-0.000279217141092784 0.00232832423653873 0.000647108894521688)
(-0.000372539874251978 0.00226177087024333 0.000483720269803146)
(-0.000487805463675458 0.00230337666145846 0.000330691551728689)
(-0.000924443297049057 0.00358557983374865 0.000207470852847289)
(-2.80311950741934e-05 0.00214414939711663 0.00118889016446587)
(-9.05351798792404e-05 0.00215840428819916 0.00105480652283971)
(-0.000161885100764242 0.00213654981081227 0.000910353318228108)
(-0.000239570047323964 0.00208429991688349 0.00076070223592951)
(-0.000316400522668436 0.00200173839141901 0.000605373494035536)
(-0.000387569980271982 0.00191057464212722 0.000446580492603771)
(-0.000478248195232258 0.00193135225685439 0.000298576980906475)
(-0.000884024757906368 0.00309610151195484 0.000180396815231991)
(-0.000189568419215269 0.00733932927608866 8.79093252961916e-05)
(-9.41416575658834e-05 0.00457155231544548 0.000190050418065008)
(-0.000522523068537869 0.00710213700748511 0.00015353482676149)
(-7.13704301887949e-05 0.00398600235038187 0.000385756375451546)
(-0.000263855896363307 0.00431064120122311 0.00026543646363253)
(-0.000756474637776907 0.00642489632842153 0.000192764397024977)
(-5.7979453029473e-05 0.00359592214083635 0.00060934257321898)
(-0.000199698092261581 0.00368997351895578 0.000455049019150124)
(-0.000392021942170252 0.00388433828964984 0.000318080089313342)
(-0.000926268673176928 0.00577783108275474 0.000212115213871869)
(-4.89548379569836e-05 0.00325916705640264 0.000821646139770555)
(-0.000163572303028696 0.00329270812892776 0.000658857463241553)
(-0.000302222646646206 0.0033081926377675 0.000495203057245937)
(-0.000486440894207312 0.00343287409018425 0.000346667248796717)
(-0.00103666346215668 0.00512567025364501 0.000227502006979696)
(-4.21875946945915e-05 0.00294927463396474 0.00100589218835591)
(-0.000138759060630705 0.0029634784274509 0.000842674050088885)
(-0.00025094043167116 0.00294139628258473 0.000676193106836087)
(-0.000380682921855214 0.00290651970713851 0.000508655086546954)
(-0.000545162994848439 0.00297817287608833 0.000355323913129922)
(-0.00108422640614602 0.004483089946053 0.000231961966900488)
(-3.66816173076106e-05 0.00265741893798116 0.00115299428285861)
(-0.000119352458387275 0.00266817661383083 0.000995291379861211)
(-0.000214254143095905 0.00263950488296652 0.000832220531031427)
(-0.000319772351753156 0.00257996347989034 0.000666578769577614)
(-0.00043048013452301 0.00250481360989023 0.000499502389966384)
(-0.000568715925245198 0.00254107094882492 0.000346494930254755)
(-0.00107497332858192 0.00388452920172857 0.000223071314876083)
(-3.18329432549875e-05 0.00238024477700093 0.00126040919809342)
(-0.000102959686683634 0.00239566035751418 0.00111277840432038)
(-0.000184578148194025 0.00237095224863678 0.000956630775271844)
(-0.000274410865477808 0.00231286141695146 0.000797373111564875)
(-0.00036487629948511 0.00222180418006632 0.000634843177665713)
(-0.000450932384775523 0.00212086685151217 0.000471539917837767)
(-0.000560039656032556 0.002135268096729 0.000321681931880772)
(-0.00102230667987699 0.00334274915269504 0.000200705694296171)
(-2.73687459433963e-05 0.00211702037095856 0.00132994938478762)
(-8.85166255193016e-05 0.00214148921711269 0.00119544336877807)
(-0.000159020692954586 0.00212594502251594 0.00104904025499151)
(-0.000236626453930776 0.00207670973946157 0.000898067188558825)
(-0.000314448441363741 0.00199328572576394 0.000743710935267067)
(-0.00038484564287376 0.00188168294389456 0.000587240403816329)
(-0.000445481090617532 0.00176667617903186 0.000430832965642031)
(-0.000527395279630871 0.00176835837126302 0.00028780626660384)
(-0.000946094233380091 0.00287082524491229 0.00017593174277519)
(-0.000225505394047794 0.0078393446790994 -5.73374380222248e-06)
(-0.000107882328816293 0.00492973271391052 7.05741506467779e-05)
(-0.000611133060377379 0.00762774298698564 8.40494098950676e-05)
(-8.07307074406138e-05 0.00433820292713546 0.000280776552404727)
(-0.000301523087593964 0.0046764141785676 0.00018316537767192)
(-0.000880324216528698 0.00692963717176834 0.000148115551070775)
(-6.52156614241341e-05 0.00394149862742278 0.000534672049994352)
(-0.000225640900818425 0.00403524087928062 0.000385876904943244)
(-0.000449032307898764 0.00423264469353794 0.000267153057438869)
(-0.00107450839499855 0.00624899535361544 0.000184516560662424)
(-5.49680795462162e-05 0.00359109777073307 0.000783952838364221)
(-0.000183895304451936 0.00362093972841296 0.000616409100533201)
(-0.000343368035546498 0.00363092603425634 0.000456960154921064)
(-0.000558401031518167 0.00375385052968295 0.000318817414018535)
(-0.00119897174375769 0.00555106595995019 0.000211189970185883)
(-4.73512771418133e-05 0.00326147787760576 0.00100555499487638)
(-0.000155853218848555 0.00327194745097116 0.000831645898834253)
(-0.000283927608359861 0.00324253507272858 0.000660521213659152)
(-0.000434558449357398 0.00319879243805814 0.000493615494018582)
(-0.000627786794191241 0.00326497211752848 0.00034505914722403)
(-0.00125455558259317 0.00485473161584095 0.00022656532564709)
(-4.1236747415833e-05 0.00294539301064263 0.00118649970101682)
(-0.00013432850026355 0.00295395176181499 0.00101503751069949)
(-0.000242124145324274 0.00291863757666684 0.000842372735944222)
(-0.00036368837598511 0.00284945325433229 0.000671028991463981)
(-0.000493865874864165 0.00276236670629422 0.000502079978943453)
(-0.000658164555821414 0.00279032090262179 0.000350010036915246)
(-0.00124521864360739 0.00419704320507658 0.000224245115745296)
(-3.59171016870158e-05 0.00264107710391134 0.00132243982862948)
(-0.000116303870095703 0.00265651300866351 0.00115991088303286)
(-0.000208981126134547 0.00262695998984283 0.000991468369345095)
(-0.00031197041160728 0.00256050117664734 0.000822801828546654)
(-0.000417461552180602 0.00245793873369422 0.00065402783445836)
(-0.000520554183567139 0.00234387092746502 0.000487605799614722)
(-0.000652228851863316 0.00234898529401425 0.000337796068343012)
(-0.00118650248698188 0.00360485143665594 0.000213488455854644)
(-3.10127472371459e-05 0.00234906675716392 0.00141465270753356)
(-0.000100408733790236 0.00237579963579796 0.00126528610557078)
(-0.00018064290426556 0.00235764604071949 0.00110540424843747)
(-0.000269532903154041 0.0023019690296863 0.000942857841703198)
(-0.000359779233014622 0.00220872413509935 0.00077927692431373)
(-0.00044327533777618 0.00208496223970135 0.0006161478145321)
(-0.000517716151639177 0.00195703436052773 0.000455705253070518)
(-0.000617041121512737 0.00194964319534531 0.000310987755277681)
(-0.00109163179519071 0.00308366635591177 0.000194190505417349)
(-8.60502705535148e-05 0.00211082724383268 0.00133363125830894)
(-0.000155459115384109 0.00210681716137002 0.00118540252609175)
(-0.000232689346014784 0.00206540795363887 0.0010317507222145)
(-0.00031121089737243 0.00198725457293828 0.000875400117392867)
(-0.000383650064810973 0.00187667691446684 0.00071914252683038)
(-0.000443945248312495 0.00174220001034262 0.000564323007716117)
(-0.000491784256561107 0.00160884492299756 0.000412431920556209)
(-0.000562514340876402 0.00159492555023269 0.000275842052022331)
(-0.000983494368489988 0.00264022123107739 0.000170442876448043)
(-0.000270565760919784 0.00827226081175659 -0.000152819797490217)
(-0.000123495917334065 0.00526716912093862 -0.000107187343563477)
(-0.000716353170006837 0.0081076331493005 -2.45100984333285e-05)
(-9.1152703662483e-05 0.00469220989076628 0.000122027885599609)
(-0.000343876874447818 0.00503482664788382 5.55126364967196e-05)
(-0.00102458294731525 0.00741301026964675 6.73779983614941e-05)
(-7.30941836923542e-05 0.00430196123190747 0.000413796979129221)
(-0.000253970065112804 0.00438907335858976 0.000274770483187923)
(-0.000512547940185541 0.00458307742252966 0.000183940188056171)
(-0.00124588462448802 0.00671739865449283 0.000134310669607828)
(-6.15001100035394e-05 0.00394553072363502 0.000708584171582599)
(-0.000205613431802431 0.00396711698412402 0.000537469605256636)
(-0.00038815024144165 0.00396557732965353 0.000387261349343742)
(-0.000637762430802799 0.0040813329120593 0.000268216523950044)
(-0.00138521055352119 0.00598021021738488 0.000179978554720283)
(-5.29058782840852e-05 0.00359992926778415 0.000975988271326141)
(-0.000174074702460856 0.00360321567415239 0.000791004382185835)
(-0.000319240250806085 0.00356203838590709 0.000617453413865868)
(-0.000493159160010381 0.00350450090837339 0.000455814231773781)
(-0.000718680739477001 0.00356107736254489 0.00031809777271116)
(-0.0014474989139788 0.00523534455684698 0.00020690762107718)
(-4.61202212853719e-05 0.00326078804231977 0.00119877062442972)
(-0.000150325620525625 0.00326460488815784 0.00101237416590956)
(-0.000271964156502238 0.00321916543802057 0.000830507971441142)
(-0.000411062772434417 0.00313638131560683 0.000655356069271281)
(-0.000562792617859247 0.0030334102646613 0.000487845714334592)
(-0.000755896014720353 0.00305013842114234 0.000340749082173555)
(-0.00143619853370747 0.00452321030731646 0.000216376747007728)
(-4.02882635237005e-05 0.00292873307804973 0.0013703103773289)
(-0.000130574514844139 0.00294250250634762 0.00119125703051685)
(-0.000235096827573915 0.00290540614684972 0.00100990275959457)
(-0.000352267743963053 0.00282731431042824 0.000832227530246867)
(-0.000474167594922654 0.0027095668296739 0.000658579282592848)
(-0.000596138891968439 0.00257855734781224 0.000491058554657771)
(-0.000753122981759903 0.00257136821820882 0.00034197145285373)
(-0.0013699908107124 0.00387550690461045 0.000215769684644522)
(-3.49512832712312e-05 0.00260642296448433 0.00149121494670293)
(-0.000113236914663474 0.00263459877743762 0.00132523834986699)
(-0.000203879487934592 0.00261193950586296 0.00115069974982926)
(-0.000304882097763515 0.00254730732906193 0.000976201410557785)
(-0.000408557543762461 0.00244122183845921 0.000803865911606983)
(-0.000506479304511255 0.00230189669633541 0.00063519855442508)
(-0.000596720409025128 0.00215742726141829 0.000472115730720318)
(-0.000717523646716263 0.00213783284984757 0.000327329893137594)
(-0.0012636190003786 0.00330754029488984 0.000206684429030829)
(-2.9932963430531e-05 0.0022968600065421 0.00156588339532695)
(-9.7432313730839e-05 0.00234080923249751 0.0014162285721127)
(-0.000176166458158433 0.00233532338173803 0.0012529738013733)
(-0.000264031677171597 0.0022878670320123 0.00108593413391562)
(-0.000354057356277096 0.00219957273546473 0.00091841751420145)
(-0.000438366318555504 0.00207584318510539 0.000753560593965742)
(-0.000510631663831789 0.00192641287156375 0.000592709184019453)
(-0.000570760905685359 0.00177782279200954 0.000437286006610849)
(-0.000657509164126453 0.00175309875868123 0.000299305991361669)
(-0.00113133769058857 0.00281899965176713 0.000189114335563787)
(-0.000151021169449805 0.00207474972419933 0.0013195216041486)
(-0.000227569473617992 0.00204585927449814 0.00116309157969828)
(-0.000306393372935354 0.00197727689407403 0.00100329311947373)
(-0.000380494266505047 0.00187374996216366 0.000844330414886784)
(-0.000443953335695207 0.00174161172255278 0.00068894816210173)
(-0.000492162943383887 0.00158956893299809 0.000537869470039599)
(-0.000525887481240035 0.00144252802435291 0.000391984501541366)
(-0.000583782570534518 0.00141722992628777 0.000263058439441036)
(-0.00099648382161991 0.00241128685003335 0.00016562830978514)
(-0.000323123376310271 0.00859423100923913 -0.000376282280247242)
(-0.000140306356934409 0.0055707059071407 -0.000361787790075046)
(-0.000839831135762328 0.00851129465097902 -0.000187334007593676)
(-0.000102713410179544 0.00504220395049052 -0.000107741318899738)
(-0.000390972933644099 0.00537426997360229 -0.000132249359573269)
(-0.00119299723170701 0.00784196212397213 -5.84366968093631e-05)
(-8.1847390065606e-05 0.00467549245782581 0.000232854282188497)
(-0.000284971524429072 0.004746509451965 0.000107695389620937)
(-0.000583452038207839 0.00492459662366256 5.52180552975777e-05)
(-0.00144386962332717 0.00715629640861101 4.65925153191875e-05)
(-6.85836127727866e-05 0.00432260081300699 0.000584493100308759)
(-0.00022910559649506 0.00432934959830205 0.000410739312932998)
(-0.000436984714170355 0.00430797629492257 0.000276017595590342)
(-0.000725444415207468 0.00440872407621712 0.000185610241947171)
(-0.00159877598314511 0.00639846538896679 0.000124745100786939)
(-5.89739191310237e-05 0.00396622042111541 0.000908472133894901)
(-0.000193814046246304 0.00395765692488463 0.000711819643582835)
(-0.000357254907067341 0.00389848396828045 0.000538364657365391)
(-0.000556589479678865 0.00382016085718793 0.000387591048748247)
(-0.000818039387790085 0.00386098811250597 0.000269048020148339)
(-0.00166620057066215 0.00561200411240314 0.00017327962696022)
(-5.13871339975774e-05 0.00360585926687753 0.00118275921695839)
(-0.000167479772985497 0.00360160244384443 0.000979921542765902)
(-0.000303868977796692 0.00354128696350954 0.000789295992957754)
(-0.000461797772967262 0.00343970935193936 0.000612977047299628)
(-0.000637260653996918 0.00331533654638659 0.000451722568201297)
(-0.000862384650601178 0.00331635611945093 0.000315376818645513)
(-0.00164999386138362 0.00485145280794951 0.000200479954589759)
(-4.49916920012713e-05 0.00324575698687363 0.00139839627161297)
(-0.00014586710854798 0.00325565017787941 0.00120091138210228)
(-0.000263023068051409 0.00320752180460951 0.00100601463154825)
(-0.000395387568190563 0.00311362276095081 0.000820054393554993)
(-0.000535017505246727 0.00297611815108485 0.000643686916029603)
(-0.000677544223426102 0.00282381921053179 0.000478518458582653)
(-0.000862404203609252 0.00280134476575563 0.000333911452494142)
(-0.00157300762310087 0.00415367906077336 0.000210850163618535)
(-3.91821609799652e-05 0.00289144091763404 0.00155520134792729)
(-0.000126992224417364 0.00291979772568382 0.00137053684531204)
(-0.000228762301466198 0.00289013730206112 0.00118006628061858)
(-0.000342677437223931 0.00281328726799307 0.000993295859971246)
(-0.000460729140069889 0.00269055947385086 0.000812916727219536)
(-0.000574247875909441 0.00253160717440548 0.000640272418883231)
(-0.000681800517866105 0.00236669478059147 0.000476621360625624)
(-0.000826424413841472 0.00233179088736542 0.000332512296365331)
(-0.00145388789737383 0.00353488422279626 0.000210820222339427)
(-3.37224446172379e-05 0.00254808626665465 0.00165771654729903)
(-0.000109807363534504 0.00259580226455954 0.00149025085101386)
(-0.000198480518495169 0.002587277354674 0.00131038301808273)
(-0.000297689673076505 0.0025313414942936 0.00112896874552925)
(-0.000399994829105862 0.00242992853528318 0.000950191137663134)
(-0.000497053491272053 0.00228969145236584 0.000777433891191199)
(-0.000582429760368618 0.00212170594866294 0.000611761548550278)
(-0.000656597582390792 0.00195412301341153 0.000454205067799039)
(-0.000763491169606261 0.00191533100009591 0.000316404875945474)
(-0.00130537636292265 0.00300410015088757 0.000202214726934528)
(-2.85801882558488e-05 0.00222019419975247 0.00171261388823647)
(-9.38761918731249e-05 0.00228603077828361 0.00156455834394826)
(-0.000170863197865918 0.00229875435457658 0.00139914438015059)
(-0.000257577508554725 0.00226504685144622 0.00122769073885806)
(-0.000347212517296526 0.0021869161093672 0.00105491348260003)
(-0.00043226602632743 0.00207016504072572 0.000885471258186534)
(-0.000506501627817633 0.00192236289515521 0.000722243249464363)
(-0.000565210555017621 0.0017533221343808 0.000565826173778788)
(-0.000609453427357952 0.00158935065611077 0.000416967152185192)
(-0.000681369679035904 0.00155154141245003 0.000287138748680953)
(-0.00114177328438659 0.00255614659727944 0.000185433236677441)
(-0.000221080473382459 0.00201397261222723 0.00129226263405329)
(-0.000299861981429625 0.0019591944187837 0.00112882814819839)
(-0.000375126024273558 0.0018666987301769 0.000965719129756187)
(-0.00044130276882467 0.00174286943653667 0.000806935619229198)
(-0.000493917136939824 0.00159409256187075 0.000654514208885772)
(-0.000528995009854151 0.00142894675157492 0.000508649979431171)
(-0.00054793644755484 0.00127261553982603 0.000369924554195481)
(-0.000592004744827802 0.00124068986116408 0.000249823037075103)
(-0.000987246426085405 0.00219007762724152 0.000163225596154519)
(-0.000379709861559947 0.00874389814033477 -0.000707470287329436)
(-0.00015749107737281 0.00582286528277666 -0.000712453450068147)
(-0.000978646668310632 0.00879413609418229 -0.000442606333687471)
(-0.000114932492779794 0.00538248453453568 -0.000428129664603704)
(-0.000441131633194028 0.00568280359296711 -0.000397610764638286)
(-0.00138370270636572 0.00818554285849581 -0.00023790399042097)
(-9.21023591442287e-05 0.00506028350998219 -2.56391654909634e-05)
(-0.000318417301005541 0.00510273800292177 -0.000132062004986814)
(-0.000661461242413675 0.00524629828027018 -0.000132145426986595)
(-0.00166717950200365 0.0075328446636763 -7.9283858230457e-05)
(-7.65000952292662e-05 0.00472354511563868 0.000398262718483919)
(-0.000254715803655212 0.00470620539949635 0.000221930207505844)
(-0.000490083767251851 0.00465352187240479 0.000109628287906979)
(-0.000821580513125111 0.00472498920558465 5.96968667994166e-05)
(-0.0018403419444647 0.0067799831027802 4.26769120004548e-05)
(-6.56311820230938e-05 0.00436260587529539 0.000792452779389558)
(-0.000215076628103094 0.00433588686279356 0.000582758655833972)
(-0.000398365220379292 0.00425014728010203 0.000412034940651409)
(-0.000624990480384412 0.00414162970578989 0.000279306722334046)
(-0.000926260918995271 0.0041578024407403 0.000190273029677912)
(-0.00190966953858351 0.00596883301621396 0.000124338808477318)
(-5.71372538958866e-05 0.00398344148548745 0.00113014170993339)
(-0.000186083327308158 0.00396690005415954 0.000908847120086775)
(-0.000338253862311409 0.00388549662769012 0.000710068758657417)
(-0.000516288909834931 0.00375784059362592 0.000535707039659282)
(-0.000717023303749481 0.00360460767423303 0.000387036871888478)
(-0.000977549304000763 0.00358332648252704 0.000269857683824736)
(-0.00188795979347643 0.00516908692797863 0.000172574763724757)
(-5.00964279834493e-05 0.00359517934537594 0.00140007871343316)
(-0.000162362715781055 0.00359841457582782 0.00118183280227541)
(-0.000292981794275208 0.00353469864999736 0.000972647996174881)
(-0.000441479520290039 0.00341950589373654 0.000779414617543051)
(-0.00059996611610827 0.00325634441006487 0.000603339709934528)
(-0.000764559740949126 0.0030771205057309 0.000445348857823747)
(-0.000980247554856725 0.0030342902587362 0.000311574750854612)
(-0.00179725642991409 0.00442759122287514 0.000198286443320038)
(-4.37575600412662e-05 0.0032071000258877 0.00160136735181719)
(-0.000141815195892629 0.00323397951879694 0.00139560771309001)
(-0.000255443609233944 0.00319413816020207 0.00118777447546398)
(-0.000383039931787895 0.00310090174752382 0.000988491628796247)
(-0.000516306183675965 0.0029567745704736 0.000801186913958237)
(-0.000646410298718224 0.00277330225779422 0.000626922839488155)
(-0.000772510403338327 0.00258358965665843 0.000466308949172855)
(-0.000943434745069194 0.00252999996315431 0.000326609764631987)
(-0.00166188690569225 0.00376414906663481 0.000207575692231933)
(-3.78226409410627e-05 0.00282725056729677 0.00173885982277363)
(-0.000123144961748047 0.00287804544989464 0.00155123407278639)
(-0.000222443933195846 0.00286431074428571 0.00135289933788573)
(-0.000333695519481273 0.00279683565522237 0.00115614375862609)
(-0.000448969050401017 0.00267854574629069 0.000966148291358437)
(-0.000559504688954705 0.00251767431803647 0.000786475237390538)
(-0.000658874746806941 0.00232696236054717 0.000617677494707272)
(-0.000748243954262265 0.00213647244500928 0.000460055257420426)
(-0.000877326741991414 0.00208006334284742 0.000323084033235441)
(-0.00149626503012251 0.00318856010220419 0.000207490143662261)
(-3.22075243042777e-05 0.00246203637172384 0.00181993378476885)
(-0.000105772804197111 0.00253470131857168 0.00165340802812658)
(-0.000192368984525256 0.00254672359021096 0.00146984189409767)
(-0.000289877191905339 0.00250607659586615 0.0012819580114865)
(-0.000390954041057339 0.00241549095953919 0.00109548765654299)
(-0.000487578757965352 0.00228222902785074 0.000915742573575877)
(-0.000573272885449297 0.00211524804538223 0.000745542196159387)
(-0.000643391568727977 0.00192554007660783 0.000585072571101336)
(-0.000699730238218638 0.00174086808371898 0.000434646281949981)
(-0.000789847203767287 0.00168717261632855 0.000305290793622605)
(-0.00131289962220501 0.00270307690237314 0.000199626151072743)
(-2.69346385941175e-05 0.0021167242952239 0.00185277574856336)
(-8.95824658374919e-05 0.00220785265151499 0.00170864765196894)
(-0.000164525187073555 0.00224346651387828 0.00154294268601597)
(-0.000249844158125266 0.00222868651745133 0.00136809364250778)
(-0.000338944351991227 0.0021656945969865 0.0011899733737777)
(-0.000424479378450646 0.00206073758600764 0.00101461267460401)
(-0.000500565241519914 0.0019213712997336 0.000846199817690394)
(-0.000562584943930222 0.00175510752705213 0.00068675842253466)
(-0.000606517357264318 0.00157151116383404 0.000536309029606475)
(-0.000634046460634852 0.00139710182882052 0.000395249608522899)
(-0.000689695163191212 0.00135132041523867 0.0002748671135521)
(-0.00112469762721667 0.00230051822177782 0.000184207454769383)
(-0.000291433394591454 0.00192927360077562 0.00125221052258632)
(-0.000367463832049272 0.00185169566035319 0.00108475772790318)
(-0.000435758237241457 0.0017399419601538 0.000921216020163407)
(-0.000492198933983221 0.00160034705942945 0.000764729051692931)
(-0.000533021224161187 0.00143913174340077 0.000616738105746246)
(-0.000554508333471251 0.00126508472521254 0.000477206594968778)
(-0.000558579831856261 0.00110384245075184 0.000346588409968417)
(-0.000588857115686589 0.0010703834312436 0.000236459547723718)
(-0.000956090200231161 0.00198030152707843 0.000163512431830024)
(-0.000448691362208464 0.00862357749158346 -0.0011682714308661)
(-0.000175209605462848 0.00600455314787392 -0.00118338454187756)
(-0.00113196660086686 0.00889413898301448 -0.000828172090797014)
(-0.000127866102052055 0.00570473556753518 -0.000862672735846981)
(-0.000492937678178996 0.00594560993964648 -0.000764521725982815)
(-0.00158878535575432 0.00840067419728907 -0.000493592362283239)