/*--------------------------------*- C++ -*----------------------------------*\
  =========                 |
  \\      /  F ield         | OpenFOAM: The Open Source CFD Toolbox
   \\    /   O peration     | Website:  https://openfoam.org
    \\  /    A nd           | Version:  12
     \\/     M anipulation  |
\*---------------------------------------------------------------------------*/
/*   Windows 32 and 64 bit porting by blueCAPE: http://www.bluecape.com.pt   *\
|  Based on Windows porting (2.0.x v4) by Symscape: http://www.symscape.com   |
\*---------------------------------------------------------------------------*/
FoamFile
{
    format      ascii;
    class       volScalarField;
    location    "300";
    object      k;
}
// * * * * * * * * * * * * * * * * * * * * * * * * * * * * * * * * * * * * * //

dimensions      [0 2 -2 0 0 0 0];

internalField   nonuniform List<scalar> 
10140
(
0.000140249261135447
0.000140745806717036
0.000143253273725858
0.000398416144937288
0.00014112282921069
0.00014376936648309
0.000399109441635168
0.000147047066643122
0.000399085166046573
0.000582964760256371
0.000141373847033393
0.000144157673773695
0.00039956873112555
0.000147582106317636
0.000399789865411248
0.000583717076630449
0.000148028705290467
0.000399171945958692
0.000582577850407059
0.000730185619215674
0.000141501683107562
0.000144414974865605
0.00039978825410539
0.000147979353845201
0.000400253370855916
0.000584138756942665
0.000148572479768759
0.000399883638172395
0.000583341372714512
0.000730949059182922
0.000144539147914834
0.000396152495683778
0.000579856865508074
0.000729266427946897
0.000856893220949485
0.000141498285421162
0.000144547354462612
0.000399754043181456
0.000148240095284312
0.000400474126230123
0.000584226826128759
0.000148969236256186
0.000400349189790148
0.000583765770678457
0.00073129415036593
0.000145079674749963
0.0003968630987172
0.000580624886071935
0.000730042734696165
0.000857640717569878
0.000137547488133575
0.000388407449256014
0.000573360563527972
0.000724743123531641
0.000855373713857591
0.000970094326638643
0.00014135047322643
0.000144544142561582
0.000399447358053478
0.000148371622537476
0.000400440110487093
0.000583960328872354
0.000149229244202153
0.000400568702925573
0.000583853823086638
0.000731221488568454
0.000145472663849893
0.000397325995923383
0.000581049550925774
0.000730390632400199
0.000857889218916142
0.000138076000613489
0.000389109165818839
0.0005741236836084
0.000725524145123146
0.000856136098225027
0.000970808177371054
0.000128757606879599
0.000376240860380742
0.000562025500798503
0.000715535497756967
0.000849327904048996
0.000967868191593836
0.00107328804383269
0.000141045790785355
0.00014439534947785
0.000398845240505453
0.000148363156941098
0.000400132757997838
0.000583312971799963
0.000149356933181147
0.00040053153590737
0.000583586440779702
0.000730706620264332
0.000145726349122483
0.000397541522143891
0.000581135295567241
0.000730317764287086
0.000857642398339363
0.000138463548130217
0.000389565241146672
0.000574544009236252
0.000725872389721315
0.000856388128426642
0.000970948055380329
0.000129268898070692
0.000376927668078532
0.00056277585637389
0.000716310206042149
0.000850096060871958
0.000968599160030269
0.00107395564012784
0.00011906774627818
0.000360807922072676
0.000545960575154577
0.000701043597170359
0.000837789102373265
0.000960365867190109
0.00107045808082791
0.00116854906825334
0.000140567517435036
0.000144085426044304
0.000397920379003152
0.000148206271043496
0.000399529375410593
0.000582253487958713
0.000149343530741058
0.000400219572821352
0.000582937825841597
0.000729717831931421
0.000145850899313643
0.000397499606396368
0.000580864532480687
0.00072980184252204
0.000856873587479881
0.000138708319519566
0.000389774951865893
0.000574625192803134
0.000725797519663935
0.000856141661291355
0.000970519947398809
0.000129645183725725
0.00037737401034258
0.000563187525729784
0.000716653996880135
0.000850349426084456
0.000968743697343086
0.00107397855837495
0.000119558796491659
0.000361475436244792
0.000546692374424016
0.000701803482140487
0.000838550736326666
0.000961104145573195
0.00107114515060219
0.00116916167392678
0.000108626174477077
0.000342918799221933
0.000525881671191778
0.000681491100161657
0.000820463844755795
0.000946738488597334
0.00106171108817324
0.00116531414670568
0.00125727157420464
0.000139893499401973
0.000143596864064879
0.00039664073771489
0.000147884936736018
0.000398602219624711
0.000580745090286524
0.000149178481487498
0.000399610411231794
0.000581876840629879
0.000728217398483131
0.000145837338071934
0.000397182673208537
0.000580212153741417
0.000728811771399401
0.000855547002234645
0.000138829415887226
0.000389729232349866
0.000574350193533213
0.000725279023209003
0.000855372534685837
0.000969495550832354
0.000129883275829355
0.000377577321883776
0.000563262871841717
0.000716575371671447
0.000850102158641545
0.000968317076434676
0.00107336474415923
0.000119922378674269
0.000361909669766324
0.000547092367921005
0.000702138362227811
0.000838800612203789
0.000961251576824383
0.00107117401713108
0.00116906136168499
0.000109095802856118
0.000343563925713171
0.000526590494672195
0.000682230380119418
0.000821209897707427
0.000947470816942808
0.00106240730168469
0.00116594840977795
0.00125782418342878
9.74158928485189e-05
0.000322840647784557
0.000502357209621576
0.000657445403299536
0.000797745271635228
0.00092689724914584
0.00104631949678084
0.00115562241278515
0.00125378615647816
0.00134038559099687
0.000139005730326137
0.00014291157682881
0.000394969943693277
0.000147380043683652
0.000397319057192633
0.000578745475231265
0.000148848474726928
0.000398676179772989
0.000580366652252584
0.000726161263009998
0.00014567095849917
0.00039656844303437
0.000579147365718741
0.00072731001015528
0.000853619782511521
0.00013881860101999
0.000389410941999763
0.000573694423918746
0.000724286640771185
0.00085404569695408
0.00096783597405912
0.000130001123658489
0.000377529756574492
0.000562985044467382
0.000716054438657322
0.000849332166527018
0.000967293794429301
0.00107208452144634
0.000120151991799968
0.000362106832003462
0.000547161719868677
0.000702055090246295
0.00083855141971329
0.00096082601281768
0.00107056282835185
0.00116825786007321
0.000109446629967899
0.000343984769013167
0.000526976749288191
0.000682553403189278
0.000821451798657981
0.000947616400239051
0.00106244083941812
0.00116585516154775
0.00125759503550266
9.7863216813092e-05
0.000323461928130136
0.000503039360204699
0.000658159748901833
0.000798469956414393
0.000927614144926972
0.00104701083066436
0.00115626768587754
0.00125436237038745
0.00134088010100458
8.55219800366098e-05
0.000300601444631346
0.000475656119264616
0.000629330405295702
0.000770178410696761
0.000901358583581931
0.00102432388050117
0.00113881618117246
0.00124339228679418
0.00133673045884598
0.00141845602515797
0.000137885685574485
0.000142012533765066
0.000392869159565605
0.000146673176977006
0.000395644008772188
0.000576207152746504
0.000148333763103782
0.000397384431651501
0.000578364917189343
0.000723499057511085
0.000145342151793431
0.000395629751929906
0.000577633381219198
0.000725252576318155
0.000851041920918044
0.000138659930394408
0.000388797667854669
0.000572627556632593
0.000722783208845208
0.000852118554209418
0.000965494107825917
0.000129995345044006
0.000377214812071318
0.000562329797982818
0.000715061538866059
0.000848005353921826
0.000965635762548144
0.00107009646293183
0.00012026844914873
0.000362059489243413
0.000546883721968667
0.000701533801758549
0.000837781782401024
0.000959804301831303
0.00106928510429643
0.00116672107842667
0.000109668324477605
0.000344176051246458
0.000527040555976774
0.000682465719371823
0.000821200267351422
0.000947191394648273
0.00106183268986676
0.00116505522254647
0.00125659684131073
9.82026900399151e-05
0.000323869498866755
0.00050341039633371
0.000658469092657305
0.000798701080467881
0.000927753450864806
0.00104704447297091
0.00115618079060556
0.00125414122789009
0.00134051534159196
8.59424100548675e-05
0.000301200733303387
0.000476308319246661
0.000630016028600219
0.000770877559533615
0.000902054252585584
0.00102500051838944
0.00113945786239125
0.00124398122996258
0.00133725029051435
0.00141891477578257
7.3137141029091e-05
0.000276214667817317
0.000445890927948191
0.00059737666548616
0.00073812243446444
0.000870676010105526
0.000996319832275044
0.00111501005968808
0.00122544485610001
0.00132578089825956
0.00141466360055238
0.00149177620058783
0.000136511079947273
0.000140877422150083
0.000390295338552971
0.00014574629458961
0.000393537968784136
0.00057307803626651
0.000147613416932704
0.000395699360017515
0.000575824168977884
0.000720174480881286
0.000144832168686623
0.000394333593878698
0.000575628002926065
0.000722589141369503
0.000847756436391777
0.000138343528580563
0.00038786321316864
0.000571113395804955
0.000720725052636338
0.000849541223547142
0.000962414888396379
0.000129849018560853
0.000376610316505278
0.00056126724057445
0.000713560132627111
0.000846079693497987
0.000963296248648679
0.00106735014375652
0.00012026876887386
0.000361752143962038
0.000546234520847489
0.000700545229877607
0.000836458312179371
0.00095814947734671
0.00106730039752544
0.00116440801473261
0.000109783322139016
0.000344130966659506
0.000526765324424622
0.000681947395269153
0.000820433899956648
0.000946173469175179
0.00106055902628329
0.00116352200360111
0.00125480114666876
9.84176279532998e-05
0.000324055897548738
0.000503469355402704
0.000658377915327219
0.000798447871443516
0.000927329085613073
0.00104643953923852
0.0011553856527335
0.00125314732074933
0.00133931420068261
8.62692708319542e-05
0.000301597433502214
0.000476663087954186
0.000630310397642935
0.000771096380805201
0.000902184662676035
0.00102502998401882
0.00113937304310237
0.0012437679567549
0.00133689436281962
0.00141839856064986
7.35222933802369e-05
0.000276791375315791
0.000446510226335528
0.000598029954868301
0.000738792416374804
0.000871346459676935
0.000996975990908878
0.00111563809685899
0.001226031488345
0.00132631504659755
0.00141514855789881
0.00149227735918633
6.05352778080536e-05
0.000249747585444046
0.00041312850266043
0.000561723642125648
0.000701777915905949
0.000835183475138595
0.000962886219928186
0.0010848599618421
0.0012000976509719
0.00130687123811246
0.00140323563721795
0.00148785776799872
0.000134855467994082
0.000139486671960934
0.000387203749829438
0.000144578501555383
0.000390958089798579
0.000569301936717589
0.000146669035571979
0.000393581824951077
0.000572692293235168
0.000716125912619666
0.000144118985790269
0.000392644294663409
0.000573083982305819
0.000719263431343061
0.000843699813115777
0.00013785274847244
0.000386575295432652
0.000569109668375436
0.000718062139414411
0.000846256793675536
0.00095853577705063
0.000129551865954291
0.000375690651794629
0.000559761980363132
0.000711506938163586
0.000843505716053594
0.000960220404666587
0.0010637863217101
0.00012013664058232
0.000361163097322363
0.000545184735559019
0.00069905344716199
0.000834539678578573
0.000955815485496784
0.00106455864858301
0.00116126549135781
0.000109790544164458
0.000343834753151588
0.000526127722731425
0.000680969547968731
0.00081911975795233
0.000944526519144654
0.00105858069278502
0.00116121358243472
0.00125216455579598
9.8531820641508e-05
0.000324015028802481
0.000503199803135666
0.000657866311861773
0.000797688805987645
0.000926318686785475
0.00104517315014194
0.0011538586065762
0.00125135595350268
0.00133725450230065
8.64787022747572e-05
0.000301781045200628
0.00047671812969567
0.000630216968770507
0.000770842941366106
0.000901762065386482
0.00102442892266395
0.0011385836365058
0.00124278038966658
0.00133569815505349
0.00141697817533898
7.38303886230841e-05
0.000277182357638872
0.000446848049027366
0.000598308268877852
0.000738998021793862
0.000871466768752423
0.000996998920704809
0.00111555134643651
0.00122582218910652
0.00132596837102326
0.00141464220651937
0.00149155774329382
6.08822084116965e-05
0.000250290330943039
0.000413712226668478
0.000562341087431102
0.000702415252688564
0.00083582531730934
0.000963518096583418
0.00108546864053848
0.00120067179121103
0.00130740433389332
0.00140373557613963
0.00148838014148475
0.00156116809376993
4.80315897404156e-05
0.000221306519708883
0.000377427305179066
0.000522476073436837
0.00066128726910216
0.000795065261316613
0.000924358622999359
0.00104898584638799
0.00116806040037397
0.00128017504811309
0.00138347532456885
0.00147599353374468
0.000132892139218967
0.000383543503848253
0.000137813133129803
0.000143148003564457
0.000387858812288824
0.000564817823758792
0.00014548053300481
0.000390989229449629
0.000568912915509888
0.000711287180194121
0.000143183020431005
0.000390522931016073
0.000569949415600371
0.000715213836744103
0.000838802784439091
0.000137166650727032
0.000384897733411896
0.000566569690809809
0.000714738512216449
0.000842201810486251
0.000953787210000126
0.000129089343591839
0.000374425133055544
0.000557772282333185
0.000708852515819256
0.000840226901152994
0.000956345743919863
0.00105933738772287
0.00011986197662832
0.000360267422813513
0.000543699678501535
0.000697015794362134
0.000831977061795649
0.00095274799271166
0.00106100080321121
0.00115723048984621
0.00010967489896232
0.000343266498532821
0.000525099013556951
0.000679496898863759
0.00081721721342123
0.000942205284973376
0.00105584838111815
0.00115807718387904
0.00124863161126535
9.85473487702367e-05
0.00032373328511759
0.000502579007830929
0.000656905866235768
0.000796391349803557
0.000924686696064599
0.00104320713003147
0.00115155916049724
0.00124872489010414
0.0013342937196742
8.65938734311635e-05
0.000301746915380001
0.00047645717465417
0.000629715953279726
0.000770095717372031
0.000900763954105023
0.00102317444322017
0.0011370670348865
0.00124099696013197
0.00133364342836009
0.00141464564909556
7.40286665007246e-05
0.000277366712600594
0.000446900357384632
0.000598213968879251
0.000738746222500355
0.000871047935270971
0.000996403420006401
0.00111476904253394
0.00122484272750936
0.00132477995627916
0.00141322756967805
0.00148988790706633
6.1164992005206e-05
0.000250673746555025
0.000414032590614949
0.000562602372079634
0.00070260697521675
0.000835935026724354
0.000963533670978099
0.00108537796317298
0.00120046284319102
0.00130706346158616
0.0014032399189303
0.00148767483742025
0.00156010295367577
4.8342001601504e-05
0.000221806358084694
0.000377973561951918
0.000523054323822641
0.000661888574059525
0.000795675266487244
0.000924963105741002
0.001049571588836
0.00116861647991525
0.00128069680858021
0.00138397467611192
0.00147652574620494
0.00155712322890239
0.00162508919052089
3.59197145757934e-05
0.000190987838406823
0.000338841321336081
0.000479717358607528
0.000616772598338896
0.000750461540544564
0.000880918050062062
0.00100774363036298
0.00113000127981184
0.00124645071349082
0.00135556670326779
0.00145545638745148
0.000130599553023414
0.000379263926110318
0.000135826500627831
0.000559563783678177
0.000384190286338913
0.000141430313602649
0.000144025789795368
0.000387875984403901
0.000564425824593525
0.000705587980971012
0.000142005228234198
0.000387927414612705
0.000566168215916927
0.000710374137937934
0.000832991416497987
0.000136263549830563
0.000382792280930686
0.000563442094008055
0.000710692916734015
0.000837307079994124
0.000948093261983683
0.000128441523200472
0.000372777368760853
0.000555251941538431
0.000705541536954295
0.000836180186662594
0.000951602737829568
0.00105392821075875
0.000119433103804152
0.000359035943728016
0.000541739058584952
0.000694383684526823
0.000828714636844821
0.000948884970950784
0.00105655940141244
0.00115223083701113
0.000109425804743773
0.000342402171907109
0.000523645353974108
0.00067748758266369
0.000814678273025189
0.000939156197646217
0.00105230361816197
0.00115405000151755
0.00124413583016548
9.84506141783462e-05
0.000323190822576884
0.000501579013730499
0.000655462042030317
0.000794515607871871
0.000922388642439707
0.0010404930582257
0.00114843535676688
0.00124519912282543
0.00133037413684756
8.66195181423415e-05
0.000301483268189518
0.000475858236930554
0.000628779512137235
0.000768822681041733
0.000899155241155511
0.00102122899084996
0.00113478383669374
0.00123837696129366
0.00133068886975983
0.00141135840710093
7.41452193280623e-05
0.00027734271128071
0.000446651036419248
0.000597727463773891
0.000738015612508239
0.000870067446324135
0.000995166446043669
0.00111326857239092
0.00122307264442036
0.00132273478824275
0.00141090071810307
0.00148727127855166
6.13433814194403e-05
0.00025086342597971
0.000414083528508542
0.000562508658518922
0.000702358898623168
0.000835522479487518
0.000962946342046893
0.00108460515576338
0.00119949369202692
0.00130588548623395
0.00140183471936213
0.00148601292174055
0.00155815716954441
4.86022369921341e-05
0.00022216722751206
0.000378276168707917
0.000523297718703799
0.000662065879577466
0.000795774207537157
0.000924971306673859
0.00104947660745992
0.00116840634817144
0.00128035860309777
0.00138348663245421
0.00147583521088229
0.00155609429826579
0.00162393515692914
3.61927428639513e-05
0.000191443107179968
0.000339343667350824
0.000480253386684349
0.000617334617940829
0.000751036465292308
0.000881492243265523
0.00100830362008535
0.00113053599328241
0.00124695570298224
0.00135605522522779
0.00145598456474054
0.0015448405513105
0.0016209278659182
0.00168437463061452
2.44542240053184e-05
0.00015881119421311
0.000297405262917242
0.000433502430943387
0.000568334558782839
0.00070150029411511
0.000832703620692463
0.000961320689947291
0.00108630404122585
0.00120641335909967
0.00132031051445144
0.00142643771676265
0.000127944385252798
0.000374312662959589
0.000133504135482004
0.000553474856566224
0.000379901187051716
0.000139388762403323
0.000698956271071227
0.00055916839311408
0.000384192985783439
0.00014228035202527
0.000140565361738043
0.000384812598793031
0.000561680727254904
0.00070467436836525
0.000826188151480171
0.000135126631352178
0.000380217758499141
0.000559671444059566
0.000705859514279181
0.000831498709849815
0.000941373539422826
0.000127586819543775
0.000370709912500122
0.000552150510204501
0.000701513442870227
0.0008312968508716
0.00094591573367637
0.00104747739677932
0.000118830577296463
0.000357432819119818
0.000539256923964983
0.000691102679972866
0.000824690107307353
0.000944157377024981
0.00105115946424626
0.00114618627105414
0.000109034271990926
0.000341214257209748
0.000521727817540456
0.000674894102795885
0.000811448054071221
0.000935318036222752
0.00104787949593519
0.00114906002516215
0.00123860045674507
9.82306646796761e-05
0.000322364540173839
0.000500166991969877
0.000653493942383709
0.000792014547366995
0.00091937192393878
0.00103697333389991
0.00114442502249262
0.0012407123141559
0.00132542537330838
8.65441049273734e-05
0.000300971686864328
0.00047489431290503
0.000627373901442894
0.000766984754554166
0.000896892266358833
0.00101854501722689
0.00113168304776032
0.001234866259829
0.00132677722413843
0.00140705485221054
7.41826766317059e-05
0.000277101287627943
0.000446079001686207
0.000596821599872088
0.000736774827735013
0.000868490761152578
0.000993250977392472
0.00111101121446634
0.00122047238637568
0.00131979312756076
0.00140762038883206
0.0014836558048363
6.1450268333934e-05
0.000250853465257393
0.000413848988679451
0.000562040609038531
0.000701649808058331
0.000834565288307008
0.000961733066125052
0.00108312742796335
0.00119774382802853
0.00130385646896237
0.0013995191384794
0.00148340305972636
0.00155525395398
4.87599514964549e-05
0.000222348695760453
0.000378326881283648
0.000523206134437298
0.000661823715598344
0.000795370766778139
0.000924395352170281
0.00104871661621676
0.00116745071702497
0.00127919419290855
0.0013820943845799
0.00147418593858513
0.00155416166776294
0.0016217858398033
3.64287380370193e-05
0.000191777991591795
0.000339627890151077
0.000480478353385834
0.000617497057348001
0.000751124738628405
0.000881493427152406
0.00100820481462453
0.00113032481681799
0.00124661918376799
0.00135557224726229
0.00145530487162968
0.00154384125364481
0.00161980987453422
0.00168311657747908
2.46881812087608e-05
0.000159229784192452
0.000297856088563004
0.000433993326389038
0.000568854210241052
0.00070203721097868
0.000833244725639199
0.000961852354524449
0.00108681488512406
0.00120689852478319
0.00132078294849663
0.00142695305686268
0.00152356764475989
0.00160826176299277
0.00168010349482302
0.00173905033951229
1.41471895529057e-05
0.00012477840846729
0.000253106167589723
0.000383837820748726
0.000516033464254187
0.000648286263270735
0.000779842870152527
0.000909856493696306
0.00103716620904963
0.00116047373000346
0.00127846312995276
0.00138977454460061
0.000124882963645804
0.000368633110403692
0.00013078972089684
0.000546485395339559
0.0003749386645062
0.000137004949149486
0.000691318145237613
0.000553075811072156
0.000379887996199289
0.000140211436658829
0.000818313265557163
0.000698042264051703
0.000556424572892787
0.000381130122074449
0.000138837041883853
0.000133736976606912
0.00037712994952574
0.000555198822392896
0.000700168896454527
0.000824699241487648
0.000933544422565249
0.000126509347656194
0.000368182700302771
0.000548413557425572
0.00069670324826686
0.000825503489766141
0.000939204383913949
0.00103989869996859
0.000118032991527672
0.000355421544499335
0.000536204082237634
0.000687113246091385
0.000819835570325621
0.000938490157106408
0.00104471972450917
0.00113901029306919
0.000108482353828894
0.000339667734531056
0.000519301342957916
0.000671663119770487
0.000807465361904203
0.000930622648414202
0.00104250162184538
0.00114302724608656
0.00123194060694729
9.78803562557583e-05
0.000321228346454103
0.000498305482353729
0.000650955288957963
0.000788834440435986
0.000915576354383778
0.00103258196634336
0.00113945677594472
0.00123518805017113
0.00131936635648155
8.63564686222757e-05
0.000300190147355953
0.000473533713071569
0.000625459573291936
0.000764536002599055
0.000893923515445046
0.00101506597704709
0.00112770344800527
0.00123039918981178
0.00132183836541258
0.00140165986324792
7.41302454945093e-05
0.000276625984696447
0.000445158384041667
0.00059546360378848
0.00073498571309523
0.00086627512420586
0.000990610330204239
0.00110794692327729
0.00121698884633876
0.0013158986417339
0.00140332549879311
0.00147897164562651
6.14901983871816e-05
0.000250639038789318
0.000413308900937271
0.000561171845228678
0.000700449185641453
0.000833029593869152
0.000959857420276841
0.00108090660454249
0.00119517439230357
0.00130093782038921
0.00139625351941453
0.00147979529941033
0.00155131378400059
4.88498428605988e-05
0.000222350712245829
0.000378110125376189
0.000522760472154214
0.000661141100672944
0.000794442782533514
0.000923212355767873
0.00104726878634965
0.00116572881870325
0.00127718945769839
0.00137979786432292
0.00147158961358251
0.00155126690167809
0.00161862080083138
3.65627129426353e-05
0.00019194305496123
0.000339679972349289
0.000480390550035027
0.000617263053842405
0.000750733394523235
0.000880932400147433
0.00100746156901343
0.00112938680888759
0.00124547245621254
0.00135419703914768
0.00145367223446346
0.00154192753552162
0.00161767518849378
0.00168078167227768
2.48964414672681e-05
0.000159541643488028
0.00029811364850124
0.000434199640444126
0.000569001490436016
0.000702114838843507
0.000833239440449456
0.000961750615137496
0.0010866036842661
0.00120656441144771
0.00132030477877532
0.00142628179886056
0.00152258715615504
0.00160717355893414
0.00167888176193925
0.0017376620529155
1.43404212991305e-05
0.000125157297223409
0.000253504870340235
0.000384278243726698
0.000516507747709195
0.000648782501511699
0.000780348169156362
0.000910357369027298
0.00103765092892065
0.00116093685496868
0.00127891663349185
0.00139027244996354
0.00149350362224874
0.00158631812069668
0.00166708153035169
0.00173467606284189
0.00178909457739802
6.04664946798972e-06
8.92487681401892e-05
0.000206004801006207
0.000330682998299013
0.000459849458367622
0.000590869319848767
0.000722432864740219
0.000853473131299958
0.000982727085310548
0.00110883849629784
0.00123045775307785
0.00134625767572792
0.00036217738888728
0.000127668913374793
0.000538530900153227
0.000369242724169465
0.000134211916265022
0.000682599766988192
0.000546082287677702
0.000374907942918473
0.000137792609445852
0.000809286178612779
0.000690404024224122
0.000550335154547321
0.00037682853863183
0.000136792168352713
0.000924520004280544
0.00081682900581972
0.000693549204942149
0.000549962629275129
0.000373481324920851
0.000132067614014213
0.000125190536008229
0.000365152772478275
0.000543983237044529
0.000691042329435891
0.000818723182233302
0.000931385002709014
0.00103110269854179
0.000117024808424168
0.000352963182060709
0.000532527374899381
0.000682351588249385
0.000814078565267975
0.000931803516487262
0.00103715407232439
0.0011306112177167
0.000107748859639887
0.000337727172885067
0.000516318058746518
0.000667736385600188
0.000802663414829886
0.000924995952672715
0.00103608934293644
0.00113586518664309
0.00122406450779552
9.73837215510619e-05
0.000319749465041018
0.000495950578595902
0.000647794088594012
0.000784915425764141
0.000910935005829676
0.00102724555862252
0.00113345126954865
0.0012285415406336
0.00131210723797262
8.60509559748318e-05
0.000299113814149089
0.000471740468765263
0.000622991399326303
0.000761424024784561
0.000890190048582617
0.00101072706466686
0.00112277466713145
0.0012249000542494
0.00131579144496839
0.0013950874903902
7.39780551672581e-05
0.000275896068661567
0.000443858783284007
0.000593615220188676
0.00073260359398477
0.000863370242039302
0.000987189143906369
0.00110401561753125
0.00121255738101282
0.00131098194920708
0.00139794121809018
0.00147313736414137
6.14556486861182e-05
0.000250205931421728
0.000412438726575407
0.000559870701037713
0.00069871991047524
0.000830873677342223
0.000957273684556447
0.00107789359438
0.0011917332844591
0.00129707428243549
0.00139197777648406
0.00147512057142031
0.00154625523459639
4.8881380470627e-05
0.000222167570692559
0.00037760680247616
0.000521935228498342
0.000659988573718426
0.000792957217416172
0.000921386627413121
0.00104509555569959
0.00116320232831803
0.00127430646472907
0.00137655850860303
0.001467998541494
0.00154733537891202
0.0016143683942011
3.66340842029811e-05
0.00019194090120446
0.000339482893056323
0.000479971178636495
0.000616611860107017
0.000749840653820045
0.000879786548408229
0.0010060511705885
0.00112770108407089
0.00124350095879153
0.00135192898800521
0.00145109837346573
0.00153904932749108
0.00161451962243791
0.00167737002342841
2.50025944787023e-05
0.000159686064513521
0.000298160017680968
0.000434117453500964
0.000568777915268897
0.000701738629446636
0.000832697086964323
0.00096102840947895
0.0010856879947004
0.00120544033239021
0.00131895172760407
0.00142467049380468
0.00152069563674314
0.00160506020071138
0.00167656222532562
0.00173514047784329
1.45162915340049e-05
0.000125446830088153
0.000253734434586552
0.000384464610680064
0.000516639604610595
0.000648849638711295
0.000780337017791794
0.000910253773720102
0.00103744113376604
0.0011606067447528
0.00127844471303925
0.00138961017110692
0.00149253762301753
0.00158524917596903
0.00166588976603358
0.00173332502281964
0.00178756146202614
6.18843756176238e-06
8.96139732694668e-05
0.000206357595781253
0.000331068446261457
0.000460275049978142
0.000591321784520473
0.000722899637334175
0.000853940785758852
0.00098318352974161
0.00110927760828634
0.00123089031129691
0.00134673547140753
0.00145551739083299
0.00155530411372124
0.00164451709992924
0.00172132477207195
0.00178462479187374
0.0018344852450507
1.36534903921654e-06
5.32504254806521e-05
0.000156492804008038
0.000274041246641433
0.00039965007654148
0.000529181061435025
0.000660494187657468
0.000792249678424122
0.000923098919025285
0.00105164460986294
0.00117650699798355
0.00129633746859462
0.000529552180746748
0.000362766866441431
0.000130990670786342
0.000672730212744444
0.000538122767067616
0.000369191547673308
0.00013495696149162
0.000799027201714911
0.00068168580044119
0.00054334689862449
0.000371854271823127
0.000134401733314656
0.000914214501519332
0.000807807515992799
0.000685927104598977
0.0005438991342003
0.000369221935241246
0.00013009281132584
0.00102099866136837
0.00092237196199893
0.000810876819601426
0.000684459772131953
0.000538799111717064
0.000361573701401531
0.000123604777284678
0.000115788484792579
0.000350016044024146
0.000528170380998661
0.000676750261411953
0.000807343146175766
0.000924014315726516
0.00102837322525578
0.00112089446478533
0.000106817985150261
0.000335354768191106
0.000512726265196361
0.000663051535381288
0.000796971068336261
0.000918359183787836
0.00102855719319948
0.00112748239831287
0.00121487552342283
9.67214457199558e-05
0.000317892648840894
0.000493055927351314
0.000643953607419227
0.000780192130381881
0.000905375111271923
0.00102088452137253
0.00112632265416662
0.00122068120890979
0.00130355133594139
8.56143258797031e-05
0.000297712987424561
0.000469472281825553
0.000619918997186689
0.000757590503467775
0.000885626405286718
0.00100545621017989
0.0011168184410235
0.00121828473531602
0.00130854681740491
0.00138724292518701
7.372104000993e-05
0.0002748883193358
0.000442145721747681
0.000591232865174283
0.000729577547871029
0.000859718603963179
0.000982924005503704
0.00109914822011948
0.0012071033895244
0.00130496293444807
0.00139138182610883
0.0014660616209174
6.13395722351693e-05
0.000249534926258202
0.00041120955163402
0.00055810031860272
0.000696418714385189
0.000828048618535624
0.000953927812457302
0.00107402958119488
0.00118735707692475
0.00129219757039962
0.00138661789773309
0.00146929781634568
0.00153999012176764
4.88536688131271e-05
0.000221784995044289
0.00037679393098428
0.000520699988862235
0.000658330158682959
0.000790873531404057
0.000918873551330322
0.00104214887581714
0.00115982015190978
0.00127049100020378
0.00137231736522879
0.00146334497888655
0.00154228707407433
0.00160894539299688
3.6654296026958e-05
0.000191770829475922
0.000339020147878084
0.000479195681857958
0.000615515307520963
0.000748414452658025
0.000878021059777454
0.00100393680802634
0.00112522990971728