/*--------------------------------*- C++ -*----------------------------------*\
  =========                 |
  \\      /  F ield         | OpenFOAM: The Open Source CFD Toolbox
   \\    /   O peration     | Website:  https://openfoam.org
    \\  /    A nd           | Version:  12
     \\/     M anipulation  |
\*---------------------------------------------------------------------------*/
/*   Windows 32 and 64 bit porting by blueCAPE: http://www.bluecape.com.pt   *\
|  Based on Windows porting (2.0.x v4) by Symscape: http://www.symscape.com   |
\*---------------------------------------------------------------------------*/
FoamFile
{
    format      ascii;
    class       volScalarField;
    location    "300";
    object      nut;
}
// * * * * * * * * * * * * * * * * * * * * * * * * * * * * * * * * * * * * * //

dimensions      [0 2 -1 0 0 0 0];

internalField   nonuniform List<scalar> 
10140
(
5.68538106272396e-05
5.70550987719702e-05
6.0148039213048e-05
0.000479282341671863
5.72079346544823e-05
6.03647305620451e-05
0.000480071770207166
6.4297080593307e-05
0.000490046211930104
0.00116094533241997
5.73096911966504e-05
6.05277687423397e-05
0.000480630685075132
6.45310256339409e-05
0.00049086400701166
0.00116243357715536
6.67967007058778e-05
0.000503844775975094
0.00117274626751549
0.00192691688012789
5.73615126614255e-05
6.06358025542991e-05
0.000480971244753657
6.47047216523179e-05
0.000491439545606762
0.00116344107731995
6.70420680857606e-05
0.000504696122948221
0.00117426513642256
0.00192905110489449
6.60835670976179e-05
0.000512256601211109
0.00118686466103286
0.0019351599617955
0.00268797507102351
5.73601337958495e-05
6.06913865306137e-05
0.000481085453559963
6.48187332346476e-05
0.000491790039417633
0.00116400799676058
6.72210964108552e-05
0.00050529198097229
0.00117528928562323
0.00193042279663008
6.6330687753367e-05
0.000513130226381178
0.00118841874239879
0.00193732069543016
0.0026905971349771
6.29164795048506e-05
0.00051009922958001
0.00119399081035406
0.00194207954680195
0.00269056070699027
0.00340242101908046
5.73002100165742e-05
6.06900389520331e-05
0.000480956963968318
6.48762481989561e-05
0.000491909599377538
0.00116411799331616
6.73384239773673e-05
0.00050565351138039
0.00117586509408187
0.00193109624144864
6.65103528052226e-05
0.000513738931056543
0.00118946260173637
0.0019387045459775
0.00269216378472061
6.31582174475599e-05
0.000510977371095504
0.00119556473323839
0.00194426737489192
0.00269320381911929
0.00340534662136527
5.87417861089575e-05
0.000498815124885399
0.00118750613619126
0.0019402394828124
0.00268724740059541
0.00339916442959482
0.00405453496922774
5.71766940666682e-05
6.06275639582188e-05
0.000480564489557455
6.48725504117963e-05
0.000491781139575378
0.00116373963588273
6.73960488754599e-05
0.000505776777631532
0.00117597876334213
0.00193104623628197
6.66263369674889e-05
0.000514105994997123
0.00119004712254318
0.00193938225492315
0.00269275941505996
6.33354669780517e-05
0.000511587482884676
0.00119661906090599
0.00194566268088733
0.00269477795284379
0.00340692532451604
5.89749782832437e-05
0.000499683944594452
0.001189078187561
0.00194243409970163
0.00268990840643361
0.00340210777587345
0.00405759725985473
5.42487814248534e-05
0.000482464865403556
0.00116772428688338
0.00192387468681167
0.00267246363186069
0.0033854518546241
0.00404691486088083
0.00464192692664308
5.69828180841212e-05
6.0497433301638e-05
0.00047988157512366
6.48039522059209e-05
0.000491383562342195
0.00116283124911567
6.73900073327039e-05
0.000505644662621861
0.0011755991567441
0.00193022557218249
6.66832903589835e-05
0.000514228718464846
0.00119016130749974
0.00193933162694546
0.00269234832177706
6.34474224832286e-05
0.000511952214399427
0.00119720540532728
0.00194634122550796
0.00269537389805134
0.00340725830638869
5.9146558850455e-05
0.000500287008630311
0.00119012836586983
0.00194382921193605
0.00269148549816442
0.00340369178638115
0.00405902912971292
5.44723915671005e-05
0.000483317435862908
0.00116927633651364
0.00192605219224414
0.00267511649289805
0.00338840722804438
0.00404999505453442
0.0046449931235098
4.94853080501328e-05
0.000463437365229141
0.00113844308792501
0.00189230724400208
0.00264202802527945
0.00335709327971977
0.00402473439084124
0.00463167729615626
0.00516824008636037
5.67096505375191e-05
6.02923045689838e-05
0.000478876909018022
6.46634441178879e-05
0.000490690043531842
0.00116134031309989
6.73155320428248e-05
0.000505235283042528
0.00117468467812271
0.00192857087195495
6.66770991690262e-05
0.000514090554879479
0.00118977461964679
0.00193850626337681
0.00269086674717711
6.35028271697356e-05
0.000512070895725579
0.00119731424466466
0.00194628412832026
0.002694959495473
0.00340629888168358
5.92552219054079e-05
0.000500644423116771
0.00119070700667548
0.00194450034990586
0.00269207527245643
0.00340402428004746
0.00405894726255583
5.46379509602479e-05
0.000483909044565291
0.00117031024144413
0.0019274311284091
0.00267668186627202
0.00338998922961494
0.00405143289913124
0.00464615598881085
4.9699137377059e-05
0.000464272116498838
0.00113996355081754
0.0018944472160752
0.00264464580295418
0.00336002867123931
0.00402782470579803
0.0046347630118979
0.00517120970669391
4.43849012665836e-05
0.000442109470985787
0.00110237492526927
0.00184778258766172
0.00259498957037607
0.00331117112397719
0.00398446826473404
0.00460342081960392
0.00515642095061911
0.00563889096568773
5.63497398554094e-05
6.00045928294363e-05
0.000477513980447483
6.44426813226639e-05
0.00048966801500751
0.00115920414643096
6.7166615561808e-05
0.000504521777388334
0.00117318254617123
0.00192600202723014
6.66010322147103e-05
0.00051366927687753
0.0011888448077793
0.00193684301478856
0.00268822963782813
6.34978948421742e-05
0.000511927429033219
0.00119691574126682
0.00194544591587927
0.00269347218992091
0.00340396721415988
5.93090098433327e-05
0.000500757730760705
0.00119080545557424
0.00194443001586288
0.00269164950753027
0.00340306241852399
0.00405729309451753
5.47425522367908e-05
0.000484258210845188
0.00117087411385417
0.00192808477051882
0.00267725553307563
0.0033903125250787
0.00405135144483139
0.00464554555059331
4.98589160032137e-05
0.000464851974877018
0.00114097390245567
0.00189579587576863
0.00264618158353231
0.00336159075034377
0.00402925911667028
0.00463593326304372
0.00517201425706278
4.45886032530693e-05
0.000442930600370361
0.00110385762163128
0.00184986906470829
0.00259754935824968
0.00331405526362986
0.00398753072740293
0.00460651695023831
0.00515941199058724
0.00564169190757558
3.89658501278844e-05
0.000418129564525317
0.00106025233950104
0.00179209566467025
0.00253218087226955
0.00324676030252553
0.00392378878321118
0.00455349404613715
0.00512374532340951
0.00562591662436415
0.00605918915251402
5.58956469529446e-05
5.9627094242876e-05
0.00047575344966806
6.41336252150945e-05
0.000488280916734544
0.00115635010734329
6.69343588841961e-05
0.000503470642669534
0.00117102912944412
0.00192242239148836
6.64506977348424e-05
0.00051293656498184
0.00118731942969301
0.00193426157441053
0.00268432941104737
6.34253174903483e-05
0.000511498717012866
0.00119596781869025
0.00194376363560278
0.00269082732432272
0.00340015682169608
5.93064489126174e-05
0.000500611611818034
0.00119039431100804
0.00194357342826777
0.00269014691404045
0.00340072755722474
0.00405397036252255
5.47957000234881e-05
0.000484367031810629
0.00117095990510978
0.0019279957536929
0.00267681075418518
0.00338933898284837
0.00404969710643613
0.00464309305307983
4.99598143119189e-05
0.00046519325444524
0.00114151964816902
0.0018964237344476
0.00264672801484634
0.00336189307320555
0.00402916847517071
0.00463532477288253
0.00517079684107031
4.47432334635546e-05
0.000443502747797473
0.00110484149825398
0.00185117683036842
0.00259903934346949
0.0033155767587908
0.00398894070048298
0.00460768401574576
0.00516022539343982
0.00564207416466688
3.9157303410665e-05
0.000418956453111174
0.00106169645328501
0.00179411570083722
0.002534662618673
0.00324956683341385
0.00392678705122246
0.00455655725877631
0.00512674774904527
0.00562874076801911
0.00606178697029289
3.33180824454184e-05
0.000391164397592709
0.00101175503636806
0.00172567740036654
0.00245417750622549
0.00316375795618555
0.00384183394170809
0.00447956755432302
0.00506587325310765
0.005589654603561
0.00604515465521585
0.00643388128777405
5.53384717745992e-05
5.91501361987491e-05
0.000473549836166203
6.37283322772305e-05
0.000486488633684759
0.00115269590290866
6.66093315125681e-05
0.000502044104488414
0.00116815108693386
0.00191771913238739
6.62175320324968e-05
0.000511858858480645
0.00118513400069494
0.00193066488606346
0.00267903586142062
6.32805868163134e-05
0.000510757757394492
0.00119441661405055
0.00194115705717848
0.00268691740704834
0.00339473343847983
5.9239635867285e-05
0.000500182833996711
0.00118943166184833
0.00194186773918632
0.00268748347945051
0.00339691424775441
0.00404885344761502
5.47959762584123e-05
0.000484221601703311
0.00117053876959421
0.00192711967029701
0.00267528693132303
0.00338699151499204
0.00404637557970659
0.00463868754627071
5.00123421898519e-05
0.000465299502958533
0.00114159291492194
0.00189631317913931
0.0026462582251391
0.00336089938185388
0.00402750497363383
0.00463287448405037
0.00516748037122002
4.4841211502674e-05
0.00044383854518224
0.00110536820982078
0.00185177311143958
0.00259954875491213
0.00331584529498941
0.00398882777666098
0.00460706761651521
0.00515901129780844
0.00564019934287118
3.93060743001917e-05
0.000419532705430295
0.00106265602949728
0.001795374698907
0.00253609280188333
0.0032510288425478
0.00392814888979481
0.00455769775346326
0.0051275588220194
0.00562913324855067
0.00606169150303576
3.34934486063794e-05
0.000392005920518343
0.00101316851416504
0.0017276202612733
0.00245656202979136
0.00316646283320954
0.00384473766407111
0.00448255666679468
0.00506883929363939
0.0055924918806449
0.00604777549223146
0.00643621357532366
2.75806224531395e-05
0.000361033400371555
0.000956206789602055
0.00164797318640699
0.00236064892916524
0.0030617127297076
0.00373805233255351
0.00438081781440914
0.00498011262310692
0.00552488974196222
0.00600566950188292
0.00641879619662887
5.46673836602278e-05
5.85665567619023e-05
0.000470858452754552
6.3217326135892e-05
0.000484245673838915
0.00114814985932137
6.61832517490093e-05
0.000500201024715349
0.00116446551455097
0.00191176336295858
6.58915131882225e-05
0.000510397462149463
0.00118221424178017
0.00192593961587861
0.00267219607015872
6.30560967666317e-05
0.000509669811985296
0.00119219818548171
0.00193752888791747
0.00268161212244754
0.00338753551406927
5.91040610457329e-05
0.000499444930087832
0.00118786451328869
0.0019392329579504
0.00268355214771317
0.00339148893083003
0.00404178416844276
5.47356636816064e-05
0.000483798774462888
0.00116956925967561
0.00192539425284374
0.00267260082364416
0.0033831657771055
0.00404126211388279
0.00463218505891028
5.00157582967232e-05
0.000465157547350166
0.00114116571509731
0.00189542020726901
0.00264471189297892
0.00335853360356306
0.00402417639964258
0.00462847373244993
0.00516194036595987
4.48933287847666e-05
0.000443944114789808
0.00110543018986347
0.00185163990003596
0.00259905017645158
0.00331482455342309
0.00398714658116765
0.00460461145166157
0.00515569892937498
0.00563598391580148
3.94015354593517e-05
0.000419869680462137
0.00106316552862979
0.00179593526624872
0.00253655691639753
0.00325125193604283
0.00392799937783799
0.00455705984612047
0.00512633854769861
0.00562726313532912
0.00605912772000645
3.36337031953316e-05
0.000392611276151396
0.0010141129681439
0.00172882523654606
0.00245791946946211
0.00316784814739097
0.00384602976705523
0.00448364449822349
0.00506962318994874
0.00559288319054219
0.0060476923590771
0.00643561167106691
2.77386413524838e-05
0.000361861367671839
0.000957595935995802
0.0016498306667493
0.00236291677581152
0.00306429174000536
0.0037408337893252
0.00438369882144995
0.00498299720842579
0.00552768919166079
0.00600830511857239
0.00642112606816535
0.00676870768403415
2.19129422211726e-05
0.000327615538258133
0.000892739429207238
0.00155778039959549
0.00225042662580343
0.00293945495101516
0.00361133669573712
0.00425659168986152
0.00486563643704554
0.00542840898144117
0.00593465815332614
0.00637628735617459
5.38713564610748e-05
0.000467619874903708
5.78642668226174e-05
6.25922063816029e-05
0.000481504213353928
0.0011426052392722
6.56467465838033e-05
0.000497895364665959
0.00115987913403734
0.00190441008252096
6.54635989773498e-05
0.000508510357459489
0.00117847641959803
0.00191995637666875
0.00266363450920392
6.27422981671404e-05
0.000508196042032476
0.00118923769474206
0.00193276548892536
0.00267475844370742
0.0033783729396713
5.88930064726213e-05
0.000498364822944906
0.0011856280586518
0.00193557228889433
0.00267822292137933
0.00338428984088403
0.00403257069425761
5.46104553873178e-05
0.000483072819788292
0.00116799940882061
0.00192274002043007
0.00266864626418177
0.00337772919689354
0.00403419904217108
0.00462340465907741
4.99629585630887e-05
0.000464744810402837
0.00114019732062903
0.00189368346332719
0.00264200673403121
0.00335469255745983
0.00401905932501851
0.00462197958280624
0.00515401533609769
4.49005148899486e-05
0.000443807981659701
0.00110500052722246
0.00185073381437483
0.00259748359448643
0.00331243901262979
0.00398380628255885
0.00460020939694833
0.00515016637260878
0.00562928992120331
3.94540494873222e-05
0.000419977973863835
0.00106321818741306
0.00179577884870654
0.00253602697284348
0.00325019926416765
0.00392629331237708
0.00455459027031356
0.00512302371404921
0.00562305363065407
0.00605400314394345
3.37240955211647e-05
0.00039296087286737
0.00101461192940883
0.00172934744768704
0.00245833060808888
0.00316801531839049
0.00384583054841208
0.00448297030482243
0.00506838368389771
0.00559100907372703
0.00604513534627735
0.00643235166342946
2.78674319614222e-05
0.000362494231122696
0.00095853979244258
0.0016509791577775
0.00236418886589913
0.0030655833808929
0.00374203646298294
0.00438471049258582
0.00498372654991112
0.00552805400498609
0.00600822200370701
0.00642055514052784
0.00676796769433005
2.20545315677312e-05
0.000328410147849094
0.000894101526031889
0.00155954259543695
0.00225255758889012
0.00294188241145088
0.00361396792159019
0.00425933399610167
0.00486840291242444
0.00543112265092219
0.0059372558730703
0.00637860672804551
0.00675255218499814
0.00706389078142822
1.64302582314049e-05
0.00029066365784194
0.000820180120674683
0.00145327716093292
0.00212156132789296
0.00279507892639011
0.00345984234818073
0.00410546870490095
0.00472185908512601
0.00529933837645831
0.00582835991352675
0.00629951068469478
5.29419623149241e-05
0.000463775699782333
5.70294271855433e-05
0.00113595227873435
0.000478206259602458
6.18418859793006e-05
6.49904129171261e-05
0.00049507772247036
0.00115428772519831
0.0018954947462527
6.49249204457557e-05
0.00050615127970311
0.00117382659946833
0.00191256922319886
0.00265315343140426
6.23291353233382e-05
0.000506293991196793
0.00118545097508575
0.0019267371334249
0.00266618074954426
0.00336702497294084
5.85975596267164e-05
0.000496902888385817
0.00118264812225041
0.00193077231761798
0.00267134316263852
0.00337512660632355
0.00402098726825141
5.44150784245561e-05
0.000482012389130046
0.00116576575484059
0.00191906115040359
0.00266329424977095
0.00337052076842601
0.00402499494812582
0.00461212695322133
4.98493648726513e-05
0.000464036565667519
0.00113863702531194
0.00189102449526921
0.00263803790705457
0.00334924510694328
0.00401199736145108
0.00461321175124637
0.00514350354549185
4.48563272383953e-05
0.000443408892124357
0.00110403964734807
0.00184899469177255
0.00259476792569627
0.00330858678362929
0.0039786850001232
0.00459372007342656
0.00514225341892445
0.00561993889390215
3.94658268771096e-05
0.000419850758385375
0.00106278924826001
0.00179486298791701
0.00253444353809952
0.00324779589361111
0.00392294072208353
0.00455018470179166
0.00511749529566932
0.00561636954451523
0.00604616176955163
3.37772230626542e-05
0.000393078639985744
0.00101465940741789
0.00172916753103427
0.00245776675487216
0.00316692704015987
0.00384409445190852
0.0044804813183346
0.0050650611039562
0.005586800959822
0.00604001898380781
0.0064263308074709
2.7948738708539e-05
0.000362877890416845
0.000959038884438662
0.00165146246940204
0.00236453942154455
0.0030656843206926
0.00374177577218859
0.00438398666898339
0.00498245392283347
0.00552616430281919
0.00600566372112725
0.00641730924954241
0.00676408883537417
2.21732626737263e-05
0.00032902554789642
0.000895045346928006
0.00156063259999605
0.00225373169154194
0.00294306273605687
0.00361506177075527
0.00426024844711243
0.0048690535534332
0.00543143361438395
0.00593714750571993
0.00637805145512103
0.00675186854700876
0.00706270614963943
1.65551301537908e-05
0.000291423021122534
0.00082147437930088
0.00145492694649552
0.00212353297047563
0.00279732696823134
0.00346229387020245
0.00410804196077148
0.0047244751481826
0.00530192790716458
0.005830870123482
0.00630177710639124
0.00670713644056096
0.00704676377242629
0.00732497550381938
1.11805096451269e-05
0.000249360702687109
0.000736701207222693
0.00133178429921938
0.00197121172620065
0.00262588003550558
0.00328102893778059
0.00392516991607072
0.00454726903866978
0.00513721416599995
0.00568582528990127
0.00618419890894598
5.18656474138208e-05
0.000459263135109749
5.60545672779035e-05
0.00112806477626329
0.000474289199484972
6.09481649477728e-05
0.00188484039002992
0.00114757738288543
0.000491689810213135
6.42033098493761e-05
6.42667127050043e-05
0.000503269680451875
0.00116816058450159
0.00190361482058509
0.00264053132766626
6.18090210783156e-05
0.000503918051049431
0.00118074408698544
0.00191929791219664
0.00265568100835247
0.00335324447552881
5.82075389065074e-05
0.000495016876321174
0.00117884089498237
0.00192470375532426
0.00266273786350567
0.00336377987002655
0.00400677432008095
5.41407173042532e-05
0.000480578294624169
0.00116279427568235
0.00191424538806082
0.00265639327656759
0.00336135108517578
0.00401342458543837
0.0045980933855783
4.96711178299874e-05
0.000463003519883627
0.00113642339656977
0.00188734917909997
0.00263267809534609
0.00334203194618321
0.0040028004581388
0.00460195135397145
0.00513015881353702
4.47560018122968e-05
0.000442722971688744
0.00110249845852396
0.00184634566305931
0.00259080011669854
0.00330313870535954
0.00397162832583179
0.00458496474653717
0.00513175857245175
0.00560770814003123
3.94313638519459e-05
0.000419469185883926
0.00106184114512757
0.0017931289930837
0.00253172702845846
0.00324394147982829
0.00391782146485539
0.00454370367193346
0.00510959489547206
0.00560703373600604
0.00603540711154261
3.37943634209558e-05
0.000392966389253208
0.001014235190579
0.0017282445409661
0.00245616940681893
0.00316450924360801
0.00384073247160887
0.00447607448680312
0.00505953857901567
0.0055801267674989
0.00603219037733597
0.00641737014455389
2.79974583151898e-05
0.000363017527709965
0.000959088645045322
0.00165125959584046
0.00236393862995568
0.00306455682399322
0.00374000599288067
0.00438147451129581
0.00497912046225826
0.00552195562096958
0.00600055344303293
0.00641130046767272
0.00675721125551332
2.22452356414196e-05
0.000329398961184139
0.000895553427835573
0.00156107722548916
0.00225401402465417
0.00294308665932408
0.00361472823527831
0.00425946339140042
0.00486773574654961
0.00542951665799369
0.00593457839830464
0.00637481331693909
0.00674801346008206
0.00705818957963533
1.66630897980845e-05
0.000292006351518751
0.000822397057084108
0.00145594812775007
0.00212459507707551
0.00279837772817075
0.00346325887940305
0.00410883895034281
0.004725026064291
0.00530216161425875
0.00583071063751555
0.00630120562017765
0.00670650234268408
0.00704562257721814
0.00732330081083988
1.12874753592946e-05
0.000250102299698178
0.000737877994052497
0.00133329075141516
0.00197299729011608
0.00262791947077688
0.00328326971830271
0.00392754280157997
0.00454970336753693
0.00513964661447188
0.00568820901774842
0.00618637320613962
0.00662496099997104
0.00699870900067538
0.0073069398449582
0.00755503226871249
6.38379601458638e-06
0.00020204334182311
0.000639007919141959
0.00118927884948642
0.00179536710319037
0.00242819507437634
0.00307160676963681
0.0037127218527148
0.0043393640587816
0.0049405510231082
0.00550671799085076
0.0060293214855151
5.06246893016796e-05
0.000454008763318072
5.49149099269457e-05
0.00111880540899606
0.000469690726519461
5.99060266523364e-05
0.00187224835889693
0.00113962105261541
0.000487665121821651
6.32692550354876e-05
0.00262552301494339
0.00189291396432989
0.00116136245811627
0.000499807190157908
6.34766693608018e-05
6.11734458511416e-05
0.000501018188891593
0.00117501280863788
0.0019102851623722
0.00264303790415633
0.00333675584603955
5.77158571276808e-05
0.000492662444084488
0.00117411342175732
0.00191722138748689
0.00265220970081371
0.00335000244407136
0.00398963819328597
5.37771883957081e-05
0.000478728769965157
0.00115900239910514
0.00190816477362943
0.00264776984930554
0.00335000246639759
0.00399922897274594
0.00458100856087065
4.94197989781487e-05
0.000461606898673882
0.00113348340415104
0.00188254709634471
0.00262577789229684
0.00333286575230396
0.0039912450117015
0.00458794102501123
0.00511369419632231
4.45965015559787e-05
0.000441722820739871
0.00110031781244664
0.00184269481351222
0.00258545521420286
0.00329593793760034
0.0039624486233644
0.00457372636747511
0.00511843725659834
0.0055923286306578
3.93457732262842e-05
0.0004188104001508
0.00106032667961711
0.00179050239036033
0.0025277766351466
0.00323850933892088
0.00391078375421519
0.00453497090144364
0.0050991227518958
0.00559482434893475
0.00602149703982643
3.37703908176415e-05
0.000392608899133623
0.00101330517420263
0.00172652194065415
0.00245346081879388
0.00316066349146159
0.00383562646818212
0.00446961257645856
0.00505165999384646
0.00557081138720478
0.00602145456120356
0.00640525482930602
2.80156843248925e-05
0.000362931094908375
0.000958676459722578
0.00165033206903051
0.00236232937303341
0.00306212800330691
0.00373663943847541
0.00437707236838827
0.0049736109617136
0.00551529827796106
0.0059927414191505
0.00640235618620745
0.00674717522634907
2.22862398505835e-05
0.000329557858045763
0.000895614437132331
0.00156085273253782
0.00225337283990204
0.00294191585269445
0.00361292165523633
0.00425692615107564
0.00486439086537429
0.005425308592403
0.0059294763224692
0.00636881759552498
0.00674115296547928
0.00705048210898698
1.6724391412716e-05
0.000292340332620215
0.000822897900508863
0.00145634989738763
0.00212480071123624
0.00279831334740399
0.00346284096636669
0.00410798202085257
0.00472365321529521
0.00530020812308989
0.00582812242756448
0.00629796645558232
0.00670266961102153
0.0070411324892329
0.00731814247964356
1.13826966701178e-05
0.0002506541483583
0.000738706578664645
0.00133421812106126
0.0019739291073167
0.00262882094176843
0.00328408534987701
0.00392820214731708
0.0045501350719518
0.0051397834609976
0.00568797739388688
0.00618575702699968
0.00662432468014558
0.00699761171241345
0.00730530718558739
0.00755287576066623
6.47099122068559e-06
0.000202785152652879
0.000640056988916774
0.00119058583634026
0.00179693346441648
0.00242999577252629
0.00307360503460899
0.00371486239986987
0.00434158516845695
0.00494279530729343
0.00550894266696083
0.00603137153890898
0.00650131935215666
0.00691166090390046
0.00725647452467546
0.00753617075194823
0.00775685761840956
2.64392727549477e-06
0.000147308936243855
0.000522052017374527
0.00101983750916888
0.00158845484665934
0.0021972009749826
0.00282742011014741
0.00346448778851136
0.00409494279139443
0.00470677238491518
0.00528963517473167
0.0058346638437646
0.000447946085681153
5.36046486642799e-05
0.00110802415722754
0.000464330479194775
5.86848047556785e-05
0.00185749963787736
0.00113028032661888
0.000482940563360791
6.2177668706518e-05
0.00260785637749612
0.00188026771909323
0.00115330415308787
0.000495697592022553
6.25416537018075e-05
0.00331724918869101
0.00262800603580178
0.00189951905606322
0.00116814107576446
0.000497535857796702
6.04099557767293e-05
5.71143091820406e-05
0.000489790646891852
0.00116836259452292
0.00190816375389541
0.00263953841637572
0.0033335180521913
0.00396924989850158
5.33177104914258e-05
0.000476420301221911
0.00115429889613529
0.00190067597338358
0.00263722852779762
0.00333622913535607
0.00398211513377685
0.00456053591204661
4.90855181989148e-05
0.000459805540304387
0.00112973605345581
0.00187649242092923
0.00261716625464235
0.00332153147429424
0.00397707400415266
0.00457088533967609
0.00509377906501228
4.43703281620316e-05
0.000440371173648026
0.0010974261395595
0.00183793419133647
0.00257858677222246
0.0032868003231649
0.00395092519902145
0.00455974973739304
0.00510200280070145
0.00557348521709756
3.92066710037153e-05
0.000417848505035222
0.00105818919301303
0.00178689355350518
0.0025224703505318
0.0032313458027909
0.00390164332983208
0.00452377239216625
0.00508583666838627
0.00557947332780196
0.00600414054108712
3.37009765108204e-05
0.000391983621435927
0.0010118245202625
0.00172392783479569
0.00244954289846609
0.00315526607662057
0.00382862788817309
0.00446092256780552
0.00504122849312907
0.00555863507624058
0.00600757040004925
0.00638972482491284
2.79998760298389e-05
0.00036260787765941
0.000957772955031758
0.00164862641081284
0.00235963613994723
0.00305830172708715
0.00373156041272423
0.00437064568956065
0.00496577205522798
0.00550601978192692
0.00598203488452727
0.00639026396433013
0.00673375629775674
2.23006282381612e-05
0.000329511979935505
0.000895224877864126
0.00155992423977197
0.00225175304521135
0.00293947890765371
0.00360955608530062
0.00425253696306234
0.00485890559800427
0.0054186817664621
0.00592169392392512
0.00635989794154048
0.00673113757895136
0.00703941701600582
1.67570423023728e-05
0.000292463441712726
0.00082296198014489
0.00145610334813914
0.00212411513773314
0.00279709482428423
0.00346099465391858
0.00410541897856045
0.00472029857338412
0.00529600494752546
0.00582303515446877
0.00629199034193958
0.00669583117092512
0.00703344596663844
0.00730963102988558
1.14312528453255e-05
0.000250932624934535
0.000739122810210951
0.00133455697759627
0.00197404641595157
0.00262865659975076
0.00328357168323049
0.00392726335350644
0.00454869895054033
0.00513778682638878
0.00568536496009076
0.00618251054486578
0.00662050451626521
0.00699315012991254
0.00730017797843968
0.00754709391484781
6.55035531226179e-06
0.000203306227007931
0.000640761673484365
0.00119137450010077
0.00179770963526252
0.00243072752716864
0.00307425103367607
0.00371536441364777
0.00434187911397375
0.00494281796154957
0.00550862219342205
0.00603069071493917
0.00650063953567059
0.0069105630336094
0.00725488760647538
0.00753405806807498
0.00775424157353626
2.70592457687092e-06
0.000148119560905981
0.000523018063766529
0.00102090016007814
0.00158976075483089
0.00219873019419631
0.00282914478315127
0.00346636473921465
0.00409691968352144
0.00470879815713937
0.00529167092997095
0.00583656129230596
0.00633510790549328
0.00678054349807158
0.00716501925919802
0.00748353926594763
0.00773725919012076
0.0079329525560907
5.73271512075027e-07
8.51209043531141e-05
0.000380917474064265
0.000816183087595169
0.00134332801830752
0.00192680050676444
0.00254339005215139
0.00317614633198978
0.00381024626858763
0.00443261245300602
0.00503202051777892
0.00559893200967847
0.00109556604964603
0.000458144595158115
5.72763850073301e-05
0.00184035828232549
0.00111940227488914
0.000477431059453055
6.08980734553355e-05
0.002587230730233
0.00186545629743892
0.00114384602761108
0.000490873349495045
6.14486308431115e-05
0.00329438203742625
0.00261031350001543
0.00188680075024827
0.00116000054397435
0.00049340699080362
5.95066129676034e-05
0.003945242585966
0.00331401850595468
0.00262447973882311
0.00189735216674566
0.00116147355322277
0.000486343957074298
5.63909973652858e-05
5.27545394704159e-05
0.000473605415347808
0.00114858279467716
0.00189161967364099
0.002624551442135
0.00331975635044694
0.00396175489426948
0.00453629842649406
4.86613148628125e-05
0.000457556958537121
0.00112509206057117
0.00186904463707732
0.00260665092968865
0.00330778633557552
0.00395999670504758
0.00455044914363882
0.00507003902038377
4.40684616249646e-05
0.000438627052109245
0.00109374435816255
0.00183194074412427
0.00257002708315592
0.00327551461741649
0.00393680449866253
0.00454274157166954
0.00508212561756838
0.00555081631233828
3.90078276842869e-05
0.000416549039074168
0.00105535899689349
0.00178219755226763
0.00251566537391868
0.00322227082802208
0.0038901836541149
0.00450985655391027
0.0050694522593267
0.00556066644515271
0.00598299696341044
3.35839737460814e-05
0.000391066736360085
0.0010097392317865
0.00172037564911747
0.00244429703478357
0.00314816712386007
0.00381955669949266
0.00444979466058923
0.00502800552493508
0.0055433322749128
0.00599024789281708
0.00637046883901634
2.79469775647493e-05
0.000362025510156591
0.000956335192489601
0.00164607372445129
0.00235576399718011
0.00305295775896107
0.00372462417716529
0.00436202545950804
0.00495541079682826
0.00549390376638371
0.00596819509147914
0.00637476505111021
0.0067166796615125
2.22879566636408e-05
0.000329247036673736
0.000894359596979598
0.00155824206593392
0.00224908177985791
0.00293568238727093
0.00360451873047705
0.00424616452904862
0.00485112993816749
0.00540946693037324
0.0059110412760343
0.0063478450765651
0.00671774653304591
0.00702475809393549
1.67662714260443e-05
0.000292394948030896
0.000822595621472413
0.00145517722603724
0.0021224861783186
0.00279465254755082
0.00345763613171744
0.00410105250940996
0.00471485134563133
0.00528942687668392
0.00581530374506956
0.00628311508366152
0.00668584962352918
0.00702240580512972
0.00729758463237642
1.14534054146055e-05
0.000250992161167856
0.000739129186278334
0.0013342757184659
0.00197331103456058
0.00262738629160298
0.0032816834308657
0.00392467499670235
0.00454533807174013
0.00513359535980336
0.00568030280974864
0.00617656627684386
0.00661369919437002
0.00698549352970644
0.00729169103968881
0.00753781275661735
6.58406844288724e-06
0.000203512990615116
0.000641044251758744
0.00119160969471072
0.00179771840397344
0.00243045168856551
0.00307363151547262