/*--------------------------------*- C++ -*----------------------------------*\
  =========                 |
  \\      /  F ield         | OpenFOAM: The Open Source CFD Toolbox
   \\    /   O peration     | Website:  https://openfoam.org
    \\  /    A nd           | Version:  12
     \\/     M anipulation  |
\*---------------------------------------------------------------------------*/
/*   Windows 32 and 64 bit porting by blueCAPE: http://www.bluecape.com.pt   *\
|  Based on Windows porting (2.0.x v4) by Symscape: http://www.symscape.com   |
\*---------------------------------------------------------------------------*/
FoamFile
{
    format      ascii;
    class       volScalarField;
    location    "300";
    object      p;
}
// * * * * * * * * * * * * * * * * * * * * * * * * * * * * * * * * * * * * * //

dimensions      [0 2 -2 0 0 0 0];

internalField   nonuniform List<scalar> 
10140
(
83333.3318363139
83333.3318317454
83333.3318363352
83333.3318357203
83333.331827005
83333.3318317561
83333.3318310882
83333.331836383
83333.3318357524
83333.3318349898
83333.3318220352
83333.3318270073
83333.3318262834
83333.3318317981
83333.3318311112
83333.3318302767
83333.3318364557
83333.3318357904
83333.3318350144
83333.3318347393
83333.331816808
83333.33182204
83333.3318212224
83333.3318270472
83333.3318262977
83333.3318253595
83333.3318318714
83333.3318311421
83333.3318302912
83333.3318299702
83333.3318365546
83333.331835852
83333.3318350552
83333.3318347464
83333.331835146
83333.3318113091
83333.3318168148
83333.3318158993
83333.3318220842
83333.3318212337
83333.3318201687
83333.3318271209
83333.3318263251
83333.3318253636
83333.3318249692
83333.3318319732
83333.331831203
83333.3318303272
83333.3318299737
83333.3318303437
83333.33183668
83333.3318359513
83333.3318351352
83333.3318347932
83333.3318351383
83333.3318362823
83333.3318055143
83333.3318113171
83333.3318103
83333.3318168647
83333.3318159081
83333.3318147212
83333.3318221649
83333.3318212597
83333.3318201709
83333.3318196851
83333.3318272264
83333.3318263903
83333.3318253946
83333.3318249633
83333.3318252867
83333.3318321022
83333.3318313049
83333.3318304085
83333.3318300212
83333.3318303355
83333.3318314783
83333.3318368301
83333.3318360947
83333.3318352612
83333.3318348951
83333.3318352114
83333.3318362697
83333.3318381504
83333.3317993937
83333.3318055244
83333.3318043997
83333.3318113742
83333.3318103082
83333.3318089954
83333.331816954
83333.3318159351
83333.3318147201
83333.3318141404
83333.33182228
83333.3318213305
83333.3318201995
83333.3318196749
83333.3318199396
83333.331827362
83333.3318264993
83333.3318254792
83333.3318250075
83333.3318252715
83333.3318264058
83333.3318322559
83333.3318314529
83333.3318305398
83333.3318301287
83333.3318304134
83333.331831467
83333.3318333836
83333.3318370025
83333.3318362764
83333.331835439
83333.3318350506
83333.3318353406
83333.3318363648
83333.3318381461
83333.3318407183
83333.3317929122
83333.331799407
83333.3317981684
83333.3318055896
83333.3318044066
83333.3318029636
83333.3318114752
83333.3318103401
83333.3318089925
83333.3318083068
83333.3318170808
83333.3318160132
83333.3318147479
83333.3318141256
83333.3318143256
83333.3318224279
83333.3318214536
83333.33182029
83333.3318197163
83333.3318199208
83333.3318210372
83333.3318275231
83333.331826655
83333.3318256201
83333.3318251204
83333.3318253495
83333.3318263892
83333.3318283403
83333.3318324311
83333.3318316407
83333.3318307256
83333.3318302942
83333.3318305516
83333.3318315696
83333.3318333812
83333.331836028
83333.3318371959
83333.3318364904
83333.3318356659
83333.3318352644
83333.331835528
83333.3318365158
83333.3318382509
83333.3318407337
83333.3318439428
83333.3317860292
83333.3317929284
83333.3317915779
83333.3317994826
83333.3317981786
83333.3317965964
83333.3318057039
83333.3318044455
83333.3318029593
83333.331802156
83333.3318116177
83333.3318104297
83333.3318090234
83333.3318082917
83333.3318084141
83333.3318172436
83333.3318161501
83333.3318148455
83333.331814166
83333.3318143031
83333.3318153936
83333.3318226033
83333.3318216278
83333.3318204459
83333.331819836
83333.3318199983
83333.3318210172
83333.331822996
83333.3318277054
83333.3318268539
83333.3318258191
83333.3318252988
83333.3318254958
83333.3318264947
83333.3318283339
83333.3318310582
83333.3318326252
83333.3318318611
83333.3318309628
83333.3318305215
83333.3318307528
83333.3318317325
83333.3318334953
83333.3318360461
83333.3318393684
83333.3318374094
83333.3318367345
83333.3318359379
83333.3318355374
83333.3318357817
83333.3318367311
83333.3318384154
83333.3318408394
83333.3318439842
83333.3318477955
83333.3317787045
83333.3317860498
83333.3317845966
83333.3317930176
83333.331791596
83333.3317898649
83333.3317996137
83333.3317982265
83333.3317965947
83333.3317956578
83333.3318058664
83333.3318045518
83333.3318029956
83333.3318021434
83333.3318021747
83333.3318118001
83333.3318105823
83333.3318091324
83333.3318083352
83333.3318083926
83333.3318094447
83333.3318174362
83333.3318163447
83333.3318150171
83333.331814294
83333.3318143815
83333.3318153703
83333.3318173697
83333.3318228003
83333.3318218453
83333.3318206654
83333.3318200304
83333.3318201538
83333.3318211252
83333.3318229873
83333.3318257849
83333.3318279053
83333.3318270861
83333.3318260727
83333.331825544
83333.331825713
83333.3318266682
83333.3318284526
83333.3318310739
83333.3318345156
83333.3318328359
83333.3318321099
83333.3318312471
83333.3318308108
83333.3318310247
83333.3318319648
83333.3318336735
83333.3318361616
83333.3318394124
83333.3318433747
83333.3318376429
83333.3318370105
83333.3318362539
83333.3318358688
83333.3318361056
83333.3318370234
83333.3318386537
83333.3318410117
83333.3318440876
83333.3318478426
83333.3318522124
83333.3317708925
83333.3317787304
83333.3317771778
83333.331786156
83333.3317846207
83333.3317827348
83333.331793172
83333.3317916548
83333.3317898691
83333.3317887863
83333.3317998019
83333.3317983504
83333.3317966385
83333.3317956537
83333.3317955774
83333.3318060753
83333.331804728
83333.3318031206
83333.3318021928
83333.3318021576
83333.3318031583
83333.3318120152
83333.3318107992
83333.3318093229
83333.3318084761
83333.3318084752
83333.3318094222
83333.3318114306
83333.3318176512
83333.3318165858
83333.3318152599
83333.3318145068
83333.331814548
83333.3318154824
83333.3318173591
83333.3318202255
83333.3318230142
83333.331822097
83333.3318209424
83333.3318202985
83333.3318203895
83333.3318213102
83333.3318231105
83333.3318258002
83333.3318293605
83333.3318281195
83333.3318273461
83333.3318263754
83333.331825855
83333.3318260066
83333.3318269193
83333.3318286436
83333.3318311952
83333.3318345593
83333.331838683
83333.3318330622
83333.3318323869
83333.3318315754
83333.3318311607
83333.3318313702
83333.3318322788
83333.3318339312
83333.331836349
83333.3318395259
83333.3318434247
83333.3318479828
83333.3318379014
83333.3318373188
83333.3318366136
83333.3318362579
83333.3318365005
83333.3318373973
83333.33183898
83333.3318412681
83333.331844265
83333.331847947
83333.331852261
83333.331857131
83333.3317625393
83333.331770924
83333.3317692722
83333.3317788576
83333.3317772092
83333.3317751629
83333.3317863405
83333.3317846936
83333.331782744
83333.3317815078
83333.3317933935
83333.3317917988
83333.3317899232
83333.3317887894
83333.3317885895
83333.3318000437
83333.3317985555
83333.3317967815
83333.3317957101
83333.3317955678
83333.331796502
83333.3318063204
83333.3318049741
83333.331803337
83333.3318023509
83333.3318022475
83333.3318031398
83333.3318051449
83333.3318122538
83333.3318110671
83333.3318095924
83333.3318087116
83333.3318086573
83333.3318095414
83333.3318114221
83333.3318143474
83333.3318178824
83333.3318168608
83333.3318155647
83333.3318148015
83333.3318148054
83333.3318156812
83333.3318174887
83333.3318202409
83333.331823919
83333.3318232411
83333.3318223756
83333.3318212696
83333.331820637
83333.3318207093
83333.3318215825
83333.331823315
83333.3318259275
83333.3318294061
83333.331833693
83333.3318283457
83333.3318276319
83333.3318267228
83333.3318262292
83333.3318263784
83333.3318272585
83333.3318289222
83333.3318313967
83333.331834679
83333.3318387327
83333.331843496
83333.3318333081
83333.331832695
83333.3318319453
83333.3318315693
83333.3318317894
83333.3318326787
83333.3318342821
83333.3318366265
83333.3318397193
83333.3318435396
83333.3318480368
83333.3318531292
83333.3318381889
83333.3318376585
83333.3318370162
83333.3318367038
83333.3318369655
83333.3318378534
83333.3318393984
83333.3318416221
83333.3318445349
83333.3318481289
83333.3318523658
83333.331857177
83333.3317535855
83333.3317625795
83333.3317608344
83333.3317710776
83333.3317693156
83333.3317671045
83333.3317790789
83333.3317773001
83333.3317751778
83333.3317737789
83333.3317866044
83333.3317848642
83333.3317828117
83333.3317815133
83333.3317811729
83333.3317936773
83333.3317920382
83333.3317900882
83333.3317888561
83333.3317885898
83333.3317894392
83333.3318003268
83333.3317988392
83333.3317970293
83333.3317958888
83333.3317956672
83333.3317964901
83333.3317984775
83333.3318065901
83333.3318052755
83333.3318036406
83333.3318026155
83333.3318024494
83333.3318032688
83333.331805142
83333.3318081156
83333.3318125072
83333.331811371
83333.3318099295
83333.3318090381
83333.3318089415
83333.3318097585
83333.3318115616
83333.3318143685
83333.3318181597
83333.3318181241
83333.3318171626
83333.3318159215
83333.3318151723
83333.331815156
83333.3318159784
83333.3318177093
83333.3318203764
83333.331823967
83333.3318284207
83333.3318234781
83333.3318226787
83333.3318216419
83333.3318210415
83333.3318211131
83333.3318219515
83333.3318236173
83333.3318261441
83333.3318295323
83333.331833745
83333.3318387153
83333.3318285837
83333.3318279454
83333.3318271118
83333.3318266637
83333.3318268275
83333.331827689
83333.3318293014
83333.3318316971
83333.3318348871
83333.3318388535
83333.3318435483
83333.3318488948
83333.3318335783
83333.3318330336
83333.3318323587
83333.3318320346
83333.331832281
83333.3318331644
83333.33183473
83333.3318370075
83333.3318400116
83333.331843738
83333.3318481537
83333.3318531864
83333.3318587672
83333.3318385101
83333.3318380322
83333.3318374619
83333.3318372055
83333.3318374991
83333.3318383901
83333.331839908
83333.3318420761
83333.3318449088
83333.3318484074
83333.3318525486
83333.3318572771
83333.3317439669
83333.33175181
83333.3317536372
83333.3317627642
83333.3317608871
83333.3317585175
83333.3317713436
83333.3317694294
83333.3317671284
83333.3317655549
83333.3317793952
83333.3317775056
83333.3317752617
83333.3317737864
83333.3317732844
83333.331786942
83333.3317851474
83333.3317830062
83333.3317815947
83333.3317811851
83333.3317819277
83333.3317940087
83333.3317923683
83333.3317903733
83333.33178906
83333.3317887011
83333.3317894367
83333.331791388
83333.3318006365
83333.3317991842
83333.3317973757
83333.3317961891
83333.3317958933
83333.3317966318
83333.3317984832
83333.3318014926
83333.3318068734
83333.3318056152
83333.3318040172
83333.3318029813
83333.3318027667
83333.3318035089
83333.3318052943
83333.3318081469
83333.3318120457
83333.3318127686
83333.3318117012
83333.3318103215
83333.3318094472
83333.331809329
83333.3318100862
83333.331811803
83333.3318145155
83333.331818213
83333.3318228347
83333.3318183726
83333.3318174872
83333.3318163239
83333.3318156126
83333.3318155974
83333.3318163823
83333.3318180393
83333.3318206108
83333.331824102
83333.3318284755
83333.3318336608
83333.331823722
83333.3318230065
83333.3318220561
83333.3318215079
83333.3318215983
83333.3318224184
83333.3318240293
83333.3318264701
83333.3318297564
83333.3318338724
83333.3318387696
83333.3318443707
83333.3318288391
83333.3318282884
83333.3318275443
83333.3318271556
83333.3318273514
83333.3318282097
83333.3318297837
83333.3318321086
83333.3318352034
83333.3318390669
83333.3318436705
83333.3318489493
83333.3318548204
83333.331833875
83333.3318334016
83333.3318328145
83333.3318325566
83333.3318328426
83333.3318337338
83333.3318352737
83333.331837494
83333.3318404141
83333.3318440396
83333.3318483546
83333.3318533031
83333.331858821
83333.3318648621
83333.3318388735
83333.3318384434
83333.3318379509
83333.3318377623
83333.3318380994
83333.3318390048
83333.3318405063
83333.331842628
83333.3318453877
83333.3318487927
83333.3318528289
83333.3318574553
83333.3317336394
83333.3317421337
83333.3317440277
83333.3317493515
83333.3317518682
83333.3317538581
83333.3317630841
83333.3317610309
83333.3317585516
83333.3317567886
83333.3317717242
83333.3317696801
83333.3317672321
83333.3317655664
83333.3317648764
83333.3317798001
83333.331777844
83333.3317754929
83333.3317738855
83333.3317733107
83333.3317739187
83333.3317873356
83333.3317855349
83333.3317833391
83333.33178183
83333.3317813111
83333.3317819373
83333.3317838294
83333.3317943703
83333.3317927671
83333.3317907711
83333.331789403
83333.3317889563
83333.3317895938
83333.3317914054
83333.3317944342
83333.331800959
83333.3317995703
83333.3317978025
83333.3317966032
83333.3317962507
83333.3317968996
83333.3317986512
83333.3318015376
83333.3318055365
83333.331807161
83333.3318059806
83333.331804452
83333.3318034369
83333.3318031988
83333.3318038737
83333.3318055614
83333.3318083083
83333.3318121066
83333.3318168968
83333.3318130324
83333.3318120517
83333.3318107599
83333.3318099299
83333.331809815
83333.3318105318
83333.3318121667
83333.3318147726
83333.3318183607
83333.3318228949
83333.3318283025
83333.331818624
83333.3318178328
83333.3318167671
83333.3318161167
83333.331816125
83333.3318168921
83333.3318184899
83333.3318209666
83333.331824345
83333.331828612
83333.3318337178
83333.3318395819
83333.3318239783
83333.3318233627
83333.331822513
83333.331822033
83333.3318221611
83333.3318229809
83333.3318245522
83333.3318269171
83333.3318300996
83333.331834102
83333.3318388979
83333.3318444267
83333.3318506022
83333.3318291136
83333.3318286585
83333.331828019
83333.3318277049
83333.331827947
83333.3318288176
83333.331830367
83333.3318326326
83333.3318356383
83333.3318393931
83333.3318438861
83333.3318490716
83333.3318548747
83333.3318612308
83333.3318342038
83333.3318338016
83333.3318333105
83333.3318331337
83333.3318334723
83333.3318343835
83333.3318359097
83333.3318380832
83333.3318409274
83333.3318444543
83333.3318486587
83333.3318535012
83333.3318589304
83333.3318649089
83333.3318713684
83333.3318392791
83333.3318388907
83333.3318384788
83333.3318383705
83333.3318387631
83333.3318396935
83333.3318411887
83333.3318432733
83333.3318459678
83333.3318492843
83333.3318532158
83333.3318577297
83333.331722649
83333.3317317411
83333.3317337114
83333.3317395351
83333.3317421939
83333.331744289
83333.3317474257
83333.3317493936
83333.3317520461
83333.3317542433
83333.3317635437
83333.3317613387
83333.3317586801
83333.3317568068
83333.3317558952
83333.3317722122
83333.3317700856
83333.3317675074
83333.3317656853
83333.3317649185
83333.331765357
83333.331780272
83333.3317783036
83333.3317758865
83333.3317741588
83333.3317734539
83333.3317739435
83333.3317757471
83333.3317877637
83333.3317860001
83333.3317838003
83333.3317822252
83333.3317816013
83333.3317821126
83333.3317838615
83333.3317868892
83333.3317947443
83333.3317932105
83333.3317912591
83333.3317898757
83333.3317893618
83333.3317898947
83333.3317915922
83333.3317944965
83333.3317985847
83333.3318012823
83333.3317999817
83333.3317982913
83333.3317971161
83333.331796737
83333.3317973089
83333.3317989492
83333.3318017164
83333.3318056072
83333.3318105646
83333.3318074459
83333.3318063634
83333.3318049339
83333.3318039704
83333.3318037383
83333.3318043691
83333.3318059655
83333.331808593
83333.3318122706
83333.3318169644
83333.3318226008
83333.3318132942
83333.3318124191
83333.3318112381
83333.3318104784
83333.3318103925
83333.3318110923
83333.3318126631
83333.3318151645
83333.3318186278
83333.3318230446
83333.3318283649
83333.331834505
83333.3318188816
83333.331818203
83333.3318172508
83333.3318166799
83333.3318167332
83333.3318175035
83333.3318190603
83333.3318214551
83333.3318247196
83333.331828861
83333.3318338549
83333.3318396402
83333.3318461283
83333.3318242523
83333.3318237452
83333.3318230139
83333.3318226156
83333.3318227973
83333.3318236343
83333.3318251822
83333.3318274849
83333.3318305717
83333.3318344557
83333.3318391295
83333.3318445546
83333.3318506579
83333.3318573577
83333.3318294136
83333.3318290562
83333.3318285288
83333.3318283092
83333.3318286117
83333.3318295081
83333.3318310466
83333.331833265
83333.3318361911
83333.3318398409
83333.3318442147
83333.3318492846
83333.3318549926
83333.3318612807
83333.3318680782
83333.3318345663
83333.3318342326
83333.3318338415
83333.3318337612
83333.331834166
83333.3318351089
83333.3318366325
83333.3318387699
83333.3318415469
83333.3318449812
83333.3318490751
83333.3318537997
83333.3318591184
83333.3318650075
83333.3318714103
83333.3318782355
83333.3318397034
83333.3318393697
83333.3318390346
83333.3318390222
83333.3318394832
83333.3318404496
83333.3318419483
83333.3318440052
83333.3318466427
83333.3318498771
83333.3318537074
83333.3318581079
83333.3317108998
83333.3317207016
83333.3317227698
83333.3317289885
83333.331731806
83333.3317340238
83333.3317373906
83333.3317395804
83333.3317424102
83333.3317447538
83333.3317462765
83333.3317474495
83333.3317495514
83333.3317524208
83333.3317547987
83333.3317641349
83333.3317618277
83333.3317590082
83333.3317569478
83333.3317559549
83333.3317561785
83333.331772782
83333.331770633
83333.3317679729
83333.3317660037
83333.3317650817
83333.3317653998
83333.331767077
83333.3317807848
83333.3317788523
83333.3317764274
83333.3317746174
83333.3317737857
83333.3317741401
83333.3317757964
83333.3317788
83333.3317882045
83333.3317865146
83333.3317843623
83333.3317827686
83333.3317820646
83333.3317824531
83333.3317840707
83333.3317869714
83333.3317911338
83333.3317951149
83333.3317936797
83333.3317918141
83333.3317904583
83333.3317899133
83333.3317903571
83333.3317919272
83333.3317946961
83333.3317986674
83333.3318037881
83333.3318015966
83333.3318004072
83333.3317988275
83333.331797712
83333.3317973411
83333.331797864
83333.3317994018
83333.3318020345
83333.3318057909
83333.3318106416
83333.3318165124
83333.3318077225
83333.3318067583
83333.3318054536
83333.3318045717
83333.3318043752
83333.3318049898
83333.3318065164
83333.3318090283
83333.3318125672
83333.3318171309
83333.3318226708
83333.3318291001
83333.3318135528
83333.3318128063
83333.3318117539
83333.3318110861
83333.3318110539
83333.3318117609
83333.3318132894
83333.3318157021
83333.3318190403
83333.3318233184
83333.331828515
83333.3318345684
83333.331841386
83333.3318191536
83333.3318185982
83333.3318177771
83333.3318173001
83333.3318174165
83333.3318182098
83333.3318197448
83333.3318220742
83333.3318252352
83333.3318292468
83333.3318341056
83333.3318397761
83333.3318461864
83333.3318532446
83333.3318245486
83333.331824152
83333.3318235498
83333.331823254
83333.3318235036
83333.331824373
83333.3318259132
83333.331828168
83333.3318311707
83333.3318349415
83333.3318394855
83333.3318447831
83333.3318507818
83333.3318574099
83333.3318645825
83333.3318297452
83333.3318294836
83333.3318290725
83333.3318289622
83333.3318293409
83333.331830276
83333.3318318163
83333.3318339995
83333.3318368562
83333.3318404082
83333.331844664
83333.3318496071
83333.3318551964
83333.3318613892
83333.3318681231
83333.3318753138
83333.331834938
83333.3318346858
83333.3318343953
83333.3318344292
83333.3318349153
83333.3318359024
83333.3318374346
83333.3318395463
83333.3318422657
83333.3318456144
83333.3318496018
83333.3318542068
83333.3318594026
83333.3318651802
83333.3318714986
83333.3318782722
83333.3318854122
83333.3318400785
83333.3318398484
83333.3318396013
83333.3318397031
83333.3318402462
83333.3318412612
83333.3318427744
83333.3318448137
83333.3318474035
83333.3318505634
83333.3318542976
83333.331858587
83333.3317089737
83333.3317111055
83333.3317178162
83333.331720808
83333.3317231762
83333.3317266011
83333.3317290394
83333.3317320667
83333.3317345906
83333.3317359369
83333.3317374168
83333.3317397686
83333.331742861
83333.3317454283
83333.3317463068
83333.3317463547
83333.3317476159
83333.3317499424
83333.3317530136
83333.3317555154
83333.3317648269
83333.3317624833
83333.3317595587
83333.3317573197
83333.3317561407
83333.3317562427
83333.3317577433
83333.3317734016
83333.3317712852
83333.3317686107
83333.3317665381
83333.3317654628
83333.3317656212
83333.3317671465
83333.3317700928
83333.3317813116
83333.3317794561
83333.3317770819
83333.3317752469
83333.3317743183
83333.3317745277
83333.331776032
83333.3317788991
83333.3317831171
83333.3317886376
83333.3317870555
83333.3317849979
83333.3317834355
83333.3317826944
83333.3317829791
83333.3317844498
83333.3317871962
83333.3317912309
83333.3317965076
83333.3317954689
83333.3317941601
83333.3317924177
83333.3317911303
83333.3317905953
83333.3317909838
83333.3317924376
83333.3317950542
83333.3317988749
83333.3318038766
83333.3318099859
83333.3318018937
83333.331800839
83333.3317993991
83333.3317983775
83333.3317980494
83333.3317985565
83333.3318000175
83333.3318025215
83333.3318061231
83333.3318108286
83333.3318165919
83333.3318233236
83333.3318079864
83333.3318071674
83333.3318060078
83333.3318052319
83333.3318050993
83333.3318057258
83333.3318072088
83333.3318096241
83333.3318130251
83333.3318174352
83333.3318228378
83333.331829171
83333.3318363376
83333.3318138193
83333.3318132163
83333.3318123091
83333.3318117496
83333.3318117917
83333.3318125289
83333.3318140375
83333.3318163813
83333.3318196074
83333.3318237429
83333.3318287904
83333.3318347167
83333.3318414486
83333.3318488875
83333.331819446
83333.3318190156
83333.3318183406
83333.3318179754
83333.3318181702
83333.3318190039
83333.3318205352
83333.3318228162
83333.331825888
83333.3318297771
83333.3318344934
83333.3318400229
83333.3318463179
83333.3318532998
83333.3318608721
83333.3318248793
83333.331824588
83333.3318241156
83333.3318239407
83333.3318242748
83333.3318251903
83333.3318267373
83333.3318289583
83333.3318318891
83333.331835556
83333.3318399727
83333.3318451322
83333.3318510009
83333.3318575252
83333.3318646295
83333.3318722239
83333.3318300881
83333.3318299312
83333.3318296378
83333.3318296548
83333.331830125
83333.3318311125
83333.3318326669
83333.3318348271
83333.3318376255
83333.3318410881
83333.3318452308
83333.331850046
83333.3318555038
83333.3318615773
83333.3318682201
83333.3318753526
83333.331882884
83333.3318352493
83333.331835121
83333.331834948
83333.33183512
83333.3318357044
83333.3318367504
83333.3318383038
83333.3318404014
83333.3318430735
83333.3318463454
83333.331850232
83333.3318547197
83333.3318597896
83333.3318654427
83333.3318716536
83333.331878349
83333.3318854425
83333.3318928497
83333.3318404151
83333.3318402262
83333.3318401361
83333.3318403822
83333.331841029
83333.331842108
83333.3318436493
83333.3318456838
83333.3318482371
83333.3318513321
83333.3318549774
83333.3318591599
83333.3317059266
83333.3317091738
83333.3317116559
83333.3317151478
83333.3317178908
83333.3317211441
83333.3317238895
83333.3317247948
83333.3317266347
83333.331729263
83333.331732613
83333.3317354175
83333.3317356422
83333.3317360298
83333.3317376098
83333.3317402332
83333.3317435762
83333.3317463006
83333.3317476565
83333.3317463953
83333.3317465661
83333.331748051
83333.3317505954
83333.3317538056
83333.3317563579
83333.3317655794
83333.3317632615
83333.331760312
83333.3317579444
83333.3317565804
83333.3317564928
83333.3317578371
83333.3317606784
83333.3317740369
83333.3317720014
83333.33176938
83333.3317672715
83333.331766078
83333.3317660648
83333.3317674133
83333.3317702081
83333.3317744541
83333.331781826
83333.3317800877
83333.3317778166
83333.3317760164
83333.3317750424
83333.3317751298
83333.331776464
83333.3317791556
83333.3317832305
83333.3317886509
83333.3317890453
83333.3317876043
83333.331785684
83333.3317842001
83333.3317834705
83333.3317836916
83333.3317850296
83333.3317876023
83333.3317914671
83333.3317966099
83333.3318029593
83333.3317957954
83333.3317946408
83333.3317930545
83333.3317918742
83333.3317913898
83333.3317917624
83333.331793131
83333.3317956032
83333.3317992499
83333.3318040885
83333.3318100769
83333.3318171239
83333.3318021691
83333.3318012765
83333.3318000004
83333.3317991007
83333.3317988483
83333.3317993729
83333.3318007884
83333.3318031868
83333.3318066355
83333.3318111696
83333.3318167796
83333.3318234038
83333.3318309405
83333.3318082498
83333.3318075936
83333.331806597
83333.3318059455
83333.3318059006
83333.331806566
83333.3318080316
83333.3318103743
83333.3318136533
83333.3318179063
83333.3318231437
83333.3318293357
83333.3318364072
83333.3318442527
83333.3318141066
83333.3318136448
83333.3318128997
83333.3318124658
83333.3318125994
83333.3318133868
83333.3318148969
83333.331817192
83333.3318203233
83333.3318243259
83333.3318292168
83333.3318349872
83333.3318415915
83333.3318489468
83333.3318569478
83333.3318197735
83333.3318194568
83333.331818929
83333.3318186986
83333.3318189882
83333.3318198776
83333.3318214219
83333.3318236711
83333.3318266684
83333.3318304466
83333.3318350247
83333.3318404027
83333.3318465543
83333.3318534227
83333.3318609221
83333.3318689528
83333.3318252261
83333.3318250454
83333.3318247016
83333.3318246648
83333.3318251003
83333.3318260766
83333.3318276441
83333.3318298453
83333.3318327171
83333.3318362905
83333.3318405863
83333.3318456077
83333.3318513336
83333.3318577281
83333.331864733
83333.3318722642
83333.3318802264
83333.3318303755
83333.3318303552
83333.3318301994
83333.331830368
83333.3318309474
83333.3318320027
83333.3318335851
83333.3318357352
83333.3318384872
83333.3318418706
83333.3318459072
83333.3318505974
83333.3318559206
83333.331861861
83333.3318683883
83333.3318754361
83333.3318829156
83333.3318907363
83333.3318355407
83333.3318354419
83333.3318354457
83333.331835796
83333.3318365058
83333.3318376299
83333.3318392204
83333.3318413182
83333.3318439559
83333.3318471618
83333.3318509557
83333.3318553307
83333.3318602758
83333.3318658001
83333.3318718891
83333.3318784834
83333.331885506
83333.3318928727
83333.3319005007
83333.3318404957
83333.3318405322
83333.3318405796
83333.3318409984
83333.3318417848
83333.3318429554
83333.3318445452
83333.3318465922
83333.3318491246
83333.3318521676
83333.3318557341
83333.3318598167
83333.331702861
83333.3317060599
83333.3317096488
83333.331712559
83333.3317129096
83333.3317151892
83333.3317181763
83333.3317218235
83333.3317249165
83333.3317240784
83333.3317248921
83333.3317268623
83333.3317298213
83333.3317334787
83333.331736487
83333.3317366936
83333.3317357581
83333.3317362705
83333.3317381189
83333.33174101
83333.3317445325
83333.3317473278
83333.3317504523
83333.3317477764
83333.3317466785
83333.331747075
83333.331748784
83333.3317514877
83333.331754742
83333.3317572766
83333.3317663495
83333.3317641155
83333.331761219
83333.3317588021
83333.3317572947
83333.3317570031
83333.3317581406
83333.3317608144
83333.3317650482
83333.3317746547
83333.3317727474
83333.3317702384
83333.3317681654
83333.3317669153
83333.3317667582
83333.3317679086
83333.3317705031
83333.3317745865
83333.3317801316
83333.3317823049
83333.3317807227
83333.3317786046
83333.3317768935
83333.3317759319
83333.3317759453
83333.3317771271
83333.3317796198
83333.3317835014
83333.3317887698
83333.3317953578
83333.3317894135
83333.3317881467
83333.3317864011
83333.3317850396
83333.331784369
83333.3317845735
83333.3317858161
83333.3317882258
83333.3317918936
83333.3317968517
83333.3318030643
83333.3318104388
83333.331796089
83333.3317951171
83333.3317937151
83333.3317926744
83333.3317922788
83333.3317926749
83333.3317939956
83333.3317963515
83333.3317998275
83333.3318044737
83333.3318102897
83333.3318172155
83333.3318251446
83333.331802432
83333.3318017213
83333.33180063
83333.331799874
83333.3317997248
83333.3318002984
83333.3318016997
83333.331804021
83333.3318073364
83333.3318116966
83333.3318171222
83333.3318235887
83333.3318310189
83333.3318393002
83333.3318085286
83333.3318080319
83333.3318072168
83333.3318067083
83333.3318067705
83333.331807498
83333.3318089716
83333.3318112656
83333.3318144436
83333.3318185518
83333.3318236165
83333.3318296357
83333.3318365654
83333.3318443182
83333.3318527804
83333.331814428
83333.3318140911
83333.3318135118
83333.3318132275
83333.3318134694
83333.3318143246
83333.3318158555
83333.3318181217
83333.331821176
83333.3318250599
83333.3318298004
83333.3318354042
83333.3318418499
83333.33184908
83333.3318570013
83333.3318655038
83333.3318201213
83333.3318199176
83333.3318195332
83333.3318194555
83333.3318198589
83333.3318208197
83333.3318223925
83333.3318246262
83333.3318275644
83333.3318312443
83333.3318356929
83333.3318409207
83333.3318469158
83333.3318536418
83333.3318610325
83333.3318689956
83333.3318774266
83333.3318255253
83333.3318254808
83333.3318252826
83333.3318254077
83333.3318259621
83333.3318270154
83333.3318286186
83333.3318308145
83333.3318336413
83333.331837133
83333.3318413166
83333.331846204
83333.3318517845
83333.3318580349
83333.3318649143
83333.3318723529
83333.3318802586
83333.331888534
83333.3318306558
83333.3318306548
83333.3318306966
83333.3318310616
83333.3318317783
83333.3318329217
83333.3318345494
83333.3318367053
83333.3318394253
83333.3318427419
83333.3318466818
83333.3318512526
83333.3318564425
83333.331862245
83333.3318686416
83333.3318755806
83333.3318829836
83333.3318907597
83333.331898819
83333.3318356502
83333.3318357033
83333.3318358406
83333.3318363856
83333.3318372664
83333.3318385022
83333.3318401536
83333.3318422716
83333.3318448921
83333.3318480466
83333.3318517593
83333.3318560293
83333.3318608531
83333.3318662481
83333.3318722089
83333.3318786866
83333.3318856166
83333.331892921
83333.3319005157
83333.3319083191
83333.331840664
83333.3318409445
83333.3318415024
83333.3318424399
83333.3318437466
83333.3318454201
83333.3318475055
83333.3318500387
83333.3318530481
83333.3318565504
83333.3318605436
83333.331700039
83333.3317029398
83333.3317064607
83333.3317105098
83333.3317138305
83333.3317116662
83333.3317130008
83333.3317154705