/*--------------------------------*- C++ -*----------------------------------*\
  =========                 |
  \\      /  F ield         | OpenFOAM: The Open Source CFD Toolbox
   \\    /   O peration     | Website:  https://openfoam.org
    \\  /    A nd           | Version:  12
     \\/     M anipulation  |
\*---------------------------------------------------------------------------*/
/*   Windows 32 and 64 bit porting by blueCAPE: http://www.bluecape.com.pt   *\
|  Based on Windows porting (2.0.x v4) by Symscape: http://www.symscape.com   |
\*---------------------------------------------------------------------------*/
FoamFile
{
    format      ascii;
    class       surfaceScalarField;
    location    "300";
    object      phi;
}
// * * * * * * * * * * * * * * * * * * * * * * * * * * * * * * * * * * * * * //

dimensions      [0 3 -1 0 0 0 0];

internalField   nonuniform List<scalar> 
28973
(
2.00801587604259e-06
-2.5801158977149e-08
-9.17291372886825e-08
2.1382777615786e-06
-2.72821646628087e-08
-1.02975905270849e-07
2.4413859850359e-06
-5.33600346222159e-08
-1.03324916045153e-07
5.26154412654066e-07
5.9129864381734e-09
-1.5615271043428e-07
2.28041303146431e-06
-2.88503222707326e-08
-1.13279732075149e-07
2.58747738412621e-06
-5.74008596960299e-08
-1.15953823645256e-07
5.90787927438829e-07
5.75234763926832e-09
-1.73357359192394e-07
2.67455823947594e-06
-7.7411351211489e-08
-1.17043144206221e-07
6.53158141945038e-07
1.64743779865676e-08
-1.79648628904877e-07
4.16218821408359e-07
6.08938650024397e-09
-2.15694340721615e-07
2.4366534186066e-06
-3.28003659657894e-08
-1.23432171746083e-07
2.74815569132781e-06
-6.24932269579846e-08
-1.27018208677885e-07
6.62713208391576e-07
5.52911705655012e-09
-1.90729065448928e-07
2.83310628188075e-06
-8.38596063195436e-08
-1.32071208345059e-07
7.25817613937008e-07
1.63535305584593e-08
-1.99207984924972e-07
4.75114776440361e-07
5.53251742869958e-09
-2.37784875955252e-07
2.96849880383521e-06
-1.01760963987029e-07
-1.30342626466813e-07
7.33387996332282e-07
3.30875717381769e-08
-2.067013408492e-07
5.05836229889664e-07
1.57544891324582e-08
-2.50304851201769e-07
4.22466060112357e-07
5.27145722128621e-09
-2.73771204674753e-07
2.60936581892069e-06
-3.77890519986223e-08
-1.34917900717916e-07
2.92406212559197e-06
-7.05537015727489e-08
-1.38146182692892e-07
7.43761189150642e-07
4.3192989664769e-09
-2.08795915317971e-07
3.00740454554662e-06
-9.26185100235843e-08
-1.44163563493715e-07
8.07846765022325e-07
1.50861352134057e-08
-2.1859872883457e-07
5.40552834272118e-07
4.79431779026483e-09
-2.60960468783587e-07
3.14268930416742e-06
-1.10265790289396e-07
-1.47772441790064e-07
8.14056042268865e-07
3.31274862992956e-08
-2.29505948693267e-07
5.72733795313448e-07
1.48538507887505e-08
-2.75424588830264e-07
4.80762667177215e-07
4.60270035584079e-09
-3.00683890787398e-07
3.22441804409665e-06
-1.27994413153928e-07
-1.38800176336986e-07
8.21081390915873e-07
5.28069608212872e-08
-2.30894666655642e-07
5.77212847078057e-07
3.08558220938096e-08
-2.91332906234176e-07
4.98368117443902e-07
1.26503066937368e-08
-3.17584645863372e-07
4.42898326547361e-07
3.35758703992176e-09
-3.29494813213389e-07
2.80062176928406e-06
-4.34174403283405e-08
-1.47835653070568e-07
3.11780207677238e-06
-8.05598154047647e-08
-1.50958946455338e-07
8.34632640816482e-07
2.34036686054437e-09
-2.28126062274373e-07
3.19802229033771e-06
-1.04784295406939e-07
-1.56369666761227e-07
9.00478183932234e-07
1.22444030510359e-08
-2.38698789107034e-07
6.1382942939091e-07
3.40012238689549e-09
-2.8547156317056e-07
3.33298664091504e-06
-1.22837288369805e-07
-1.60061767648345e-07
9.05742626377491e-07
3.08947534243886e-08
-2.51649638357307e-07
6.47431548654971e-07
1.31698138716083e-08
-3.01670013685932e-07
5.45449211530808e-07
3.65494740428067e-09
-3.2930152948551e-07
3.41043907020251e-06
-1.38267759306909e-07
-1.58004758089015e-07
9.09911555303105e-07
5.32048269575899e-08
-2.56672584785463e-07
6.53158487896111e-07
2.9874539574332e-08
-3.20470710412538e-07
5.64268891644155e-07
1.13322038268671e-08
-3.48053116473354e-07
5.0071374869793e-07
2.53037367814866e-09
-3.6102895182281e-07
3.4055000300505e-06
-1.55950764183236e-07
-1.422824566632e-07
8.82596362546836e-07
7.24188861063653e-08
-2.4445449554873e-07
6.40002909725339e-07
4.91246916164776e-08
-3.26155116415934e-07
5.68535053459681e-07
2.31053031863041e-08
-3.70201374563318e-07
5.09074876054026e-07
8.26553483914753e-09
-3.81113148243689e-07
4.57328724578421e-07
1.58275364942727e-09
-3.82316614722136e-07
3.01267981727136e-06
-5.04196400448523e-08
-1.61637524175148e-07
3.33157330451118e-06
-9.26599659495084e-08
-1.6450932735346e-07
9.36134612409858e-07
-5.74188683577571e-10
-2.48760393014495e-07
3.40795935478899e-06
-1.19979424326432e-07
-1.70506367780901e-07
1.00410658221885e-06
8.07171801525746e-09
-2.60313738250716e-07
6.9570079709955e-07
1.44939015486638e-09
-3.11446267845275e-07
3.54096941523269e-06
-1.39280197745238e-07
-1.73475861334997e-07
1.00939108663105e-06
2.67546353074532e-08
-2.74521644941998e-07
7.31140264696692e-07
1.03355140869115e-08
-3.29340572837251e-07
6.1742806200469e-07
2.23818458963392e-09
-3.59687764418233e-07
3.61314711604718e-06
-1.54327472838694e-07
-1.71215491739174e-07
1.01117588719169e-06
5.08133826383005e-08
-2.81240835513668e-07
7.38117672619229e-07
2.73877315898151e-08
-3.50824741755691e-07
6.37392027237878e-07
9.36941440017665e-09
-3.80505557607105e-07
5.64647948031891e-07
1.45947054189905e-09
-3.94694629396133e-07
3.59740760642484e-06
-1.67565959106585e-07
-1.62604018769301e-07
9.76665074518313e-07
7.33370111741836e-08
-2.72199132211004e-07
7.23758676675553e-07
4.82594047900382e-08
-3.58811448600946e-07
6.43558215201506e-07
2.12889549704163e-08
-4.05449393407744e-07
5.73643218889018e-07
6.63859907197376e-09
-4.16728250748194e-07
5.13798310698409e-07
6.63733429247701e-10
-4.18162044828298e-07
3.52184801568302e-06
-1.8475118992412e-07
-1.42648891594728e-07
9.20477510979529e-07
9.00517293234362e-08
-2.4860171689043e-07
6.73186042387251e-07
6.75566901886706e-08
-3.43932979964303e-07
6.25388482126409e-07
3.52030008186401e-08
-4.13669697949704e-07
5.76699514243177e-07
1.41993780111181e-08
-4.4263564610013e-07
5.18379883359385e-07
3.496856509424e-09
-4.39996773674807e-07
4.63678509180779e-07
-1.86616412504467e-10
-4.31639779854184e-07
3.24805417456026e-06
-5.89470249061691e-08
-1.76422864607458e-07
3.56802605059423e-06
-1.07631324186902e-07
-1.79223106729407e-07
1.04935574266566e-06
-4.21952873354402e-09
-2.70633734055093e-07
3.63941925370439e-06
-1.38689854004061e-07
-1.85417776940663e-07
1.11983195707283e-06
2.46072047617663e-09
-2.83265749471756e-07
7.86968536612267e-07
-1.14735958773838e-09
-3.38879503778088e-07
3.76953251523927e-06
-1.59690362475359e-07
-1.88842835110135e-07
1.12529173283469e-06
2.08005148031281e-08
-2.99125620749638e-07
8.24542579918931e-07
6.38600382293096e-09
-3.58651044593023e-07
6.97424904750284e-07
3.66342778054129e-10
-3.91808639658893e-07
3.83371227061541e-06
-1.74871721893045e-07
-1.84960107408887e-07
1.1253345035869e-06
4.5650374638166e-08
-3.06524131727377e-07
8.33417776573612e-07
2.32786441678036e-08
-3.82763636831268e-07
7.18730979278412e-07
6.49865160467601e-09
-4.14938346219381e-07
6.35406359814608e-07
-1.57210334068458e-12
-4.30444058291691e-07
3.80670375978672e-06
-1.8618569650497e-07
-1.77426176239367e-07
1.08365300695962e-06
7.10108915656133e-08
-2.98390285886631e-07
8.17274772742388e-07
4.53365138527693e-08
-3.9270268123912e-07
7.26803443626967e-07
1.82985686798602e-08
-4.42997918564436e-07
6.45001409896295e-07
4.44884960769533e-09
-4.54851930747551e-07
5.7601809722101e-07
-4.81488086376175e-10
-4.56432568464664e-07
3.7151638901272e-06
-1.97091204127068e-07
-1.63789048415902e-07
1.01704641544035e-06
9.15957658277665e-08
-2.77424697330402e-07
7.60979057820885e-07
6.69047823051279e-08
-3.78635640471591e-07
7.07834092580103e-07
3.29800856351299e-08
-4.52946878523468e-07
6.49766901597933e-07
1.1772831044815e-08
-4.83649534314947e-07
5.8105648234539e-07
1.6140271818878e-09
-4.80354416133009e-07
5.18095305980159e-07
-1.17250149609342e-09
-4.71406152815533e-07
3.60522298009534e-06
-2.13762729305411e-07
-1.41550360341346e-07
9.46710424092139e-07
1.051814562498e-07
-2.47654648949926e-07
6.85568741921101e-07
8.43271900171356e-08
-3.4785178255307e-07
6.51629208632666e-07
4.72598199882052e-08
-4.34876201579095e-07
6.30296181517722e-07
2.04396503849902e-08
-4.9277320418274e-07
5.85259122376468e-07
5.4350300609422e-09
-5.08958189206034e-07
5.23320348514883e-07
-1.05422498234296e-09
-4.94184888753782e-07
4.6439963930189e-07
-1.90731158535823e-09
-4.77216413529255e-07
3.50949355937339e-06
-6.90598208282724e-08
-1.92371276774554e-07
3.8299490804003e-06
-1.25832436899731e-07
-1.95029672808099e-07
1.17532919354014e-06
-8.67339029206629e-09
-2.93719262097237e-07
3.89515170399262e-06
-1.61528967261972e-07
-2.01822825867785e-07
1.2486964792106e-06
-4.72376476185007e-09
-3.07578810748634e-07
8.88460956438997e-07
-4.41332758366547e-09
-3.67712257829724e-07
4.02123404700693e-06
-1.84796131103353e-07
-2.05584065762771e-07
1.25466250443414e-06
1.28860498822612e-08
-3.25210472847421e-07
9.28521310341386e-07
1.19254050608318e-09
-3.89581907467439e-07
7.86183689256177e-07
-2.03846358755818e-09
-4.25599017737228e-07
4.07551773838466e-06
-2.00081729294396e-07
-2.01399105699555e-07
1.25283510131279e-06
3.82214503254623e-08
-3.33761282128443e-07
9.3966312533368e-07
1.75679035687515e-08
-4.16551519466309e-07
8.09069148393934e-07
2.65892325016442e-09
-4.51280942071965e-07
7.1364818279943e-07
-1.87836652746425e-09
-4.68171656614056e-07
4.03313296159678e-06
-2.10472902812784e-07
-1.9080899222876e-07
1.20429864015488e-06
6.51113025680207e-08
-3.25060949645943e-07
9.22083332160205e-07
4.02372721365885e-08
-4.28288505039143e-07
8.19394353485342e-07
1.39538672070526e-08
-4.82808030166796e-07
7.23928174511851e-07
1.48208813347384e-09
-4.95347380211403e-07
6.4456819901967e-07
-1.96776436370693e-09
-4.97025915207416e-07
3.92572727263479e-06
-2.17617955361567e-07
-1.79127207682494e-07
1.12606970342877e-06
8.9125818289164e-08
-3.04555201979339e-07
8.58740844844642e-07
6.37282137158868e-08
-4.1454054895511e-07
7.99092013458214e-07
2.91014648658723e-08
-4.94761846879811e-07
7.30489837065529e-07
8.34090589158267e-09
-5.27611511789014e-07
6.5007669816738e-07
-7.84984352841874e-10
-5.23567516227725e-07
5.77847908710361e-07
-2.3742966480706e-09
-5.13810463478874e-07
3.79752444837707e-06
-2.25988536073324e-07
-1.63384495248247e-07
1.04404795362411e-06
1.07559392747708e-07
-2.77084881943215e-07
7.74478577094603e-07
8.39570293510517e-08
-3.83383594108425e-07
7.37586454459261e-07
4.4689011907112e-08
-4.76299177372833e-07
7.10164467860245e-07
1.71997622351499e-08
-5.38240684501862e-07
6.5595585576557e-07
2.51241709640624e-09
-5.55243493307281e-07
5.83754815339701e-07
-3.1471125839443e-09
-5.38813419182048e-07
5.16433633255612e-07
-2.94657276786536e-09
-5.20493362654637e-07
3.68369485541701e-06
-2.42928573332347e-07
-1.3976657944297e-07
9.7102948162272e-07
1.17332682978831e-07
-2.44354645144776e-07
6.90840856560906e-07
9.88636347402644e-08
-3.44980313464913e-07
6.57981706873924e-07
5.82019453544602e-08
-4.38629202961196e-07
6.54360428949127e-07
2.65012623703862e-08
-5.16848768470826e-07
6.38547728661134e-07
7.08268389290038e-09
-5.64804218425553e-07
5.91745466846622e-07
-2.38787612549752e-09
-5.69912505547506e-07
5.24055277926024e-07
-5.06683499061163e-09
-5.43976399678103e-07
4.6168408171037e-07
-3.56751929086218e-09
-5.19016217903315e-07
3.79968538234796e-06
-8.11921430056685e-08
-2.08991605557984e-07
4.1203084465405e-06
-1.47860747164033e-07
-2.11546352772705e-07
1.31501293280218e-06
-1.41492692993701e-08
-3.17902465733629e-07
4.17820326702927e-06
-1.89322147910494e-07
-2.19552767706785e-07
1.39179962072977e-06
-1.36635341428424e-08
-3.33137932340742e-07
1.00100856181682e-06
-8.43929981923777e-09
-3.978262531109e-07
4.29882527896976e-06
-2.1547854982444e-07
-2.23631492069827e-07
1.39855194267225e-06
2.46345964025396e-09
-3.52893321265711e-07
1.04396345040362e-06
-5.36903791487141e-09
-4.22063716888588e-07
8.84445351335264e-07
-5.03537491696995e-09
-4.60937610851262e-07
4.34179117134554e-06
-2.31272415946178e-07
-2.1979014065722e-07
1.39474668219887e-06
2.81654218999123e-08
-3.6276826330193e-07
1.05780263119508e-06
1.00186249314213e-08
-4.52174094996718e-07
9.09201079474431e-07
-2.30054654246985e-09
-4.8945023312192e-07
8.00051375578666e-07
-4.24424023502807e-09
-5.07757447526648e-07
4.28061490377191e-06
-2.39964189766028e-07
-2.07588803612314e-07
1.33874714223764e-06
5.63112712854896e-08
-3.53932147994559e-07
1.03880258818361e-06
3.30097888119734e-08
-4.65918967016651e-07
9.22159732251702e-07
8.14843368003914e-09
-5.24804176163692e-07
8.11148765438114e-07
-2.3513759097625e-09
-5.38027046197965e-07
7.20035305163867e-07
-3.83411966448256e-09
-5.39804197295781e-07
4.15280925682388e-06
-2.4452651827623e-07
-1.93013466674883e-07
1.24925850161381e-06
8.28894775262818e-08
-3.31770508400278e-07
9.68197299730816e-07
5.7852189999269e-08
-4.5212994656744e-07
9.00450759987886e-07
2.33863266478323e-08
-5.39078258981968e-07
8.1975153653442e-07
3.72672513422374e-09
-5.74313398047716e-07
7.2608066289507e-07
-3.88341726206023e-09
-5.69434714328912e-07
6.4343489283367e-07
-3.88639078128354e-09
-5.58726134361252e-07
4.00666094458861e-06
-2.47487734360436e-07
-1.79250034777434e-07
1.15344055132384e-06
1.05273631314298e-07
-3.04657718707182e-07
8.73128801747881e-07
8.05919521536729e-08
-4.20066500133771e-07
8.32475439277504e-07
4.00324955357988e-08
-5.20360034551973e-07
7.98217213375169e-07
1.2519958795112e-08
-5.86991929017123e-07
7.33784488696022e-07
-1.32328745054332e-09
-6.04901002842042e-07
6.50086576539805e-07
-5.726283978658e-09
-5.86546924314016e-07
5.73386283006437e-07
-4.19609653311392e-09
-5.6656674391884e-07
3.8740504356297e-06
-2.54074452495658e-07
-1.62258448449764e-07
1.0685824176675e-06
1.20849483045391e-07
-2.74222547013511e-07
7.79571360408701e-07
9.89099240672875e-08
-3.80765750243435e-07
7.44641604611011e-07
5.53624428129807e-08
-4.80714807026206e-07
7.37359728913907e-07
2.24824539202644e-08
-5.6457948246316e-07
7.15678918841211e-07
3.05778931196357e-09
-6.15916162023293e-07
6.60010183584468e-07
-5.70596069278522e-09
-6.20948628117815e-07
5.82020686613043e-07
-7.3217724320592e-09
-5.92403114152634e-07
5.11240600720911e-07
-4.68044766519794e-09
-5.65369304952311e-07
3.77268519633049e-06
-2.73007017889097e-07
-1.37185727566183e-07
9.98688208728058e-07
1.25503756468942e-07
-2.39445372019204e-07
6.96554938932285e-07
1.10837778052131e-07
-3.39232075481377e-07
6.58457621156157e-07
6.75535755836861e-08
-4.34162594231158e-07
6.59448346428998e-07
3.19573736002492e-08
-5.20737859782444e-07
6.63362338443677e-07
8.55836056568384e-09
-5.9162554383219e-07
6.46891526612645e-07
-4.20167729455576e-09
-6.31168184888401e-07
5.94642255432607e-07
-8.94891001792527e-09
-6.26126179079001e-07
5.21248073732574e-07
-8.42429837530505e-09
-5.89826978573716e-07
4.56377435754342e-07
-4.96102471140217e-09
-5.5724574351309e-07
4.12193985410155e-06
-9.60135873190741e-08
-2.26238228213519e-07
4.44204329618346e-06
-1.74114281689455e-07
-2.28804073729867e-07
1.46959751909426e-06
-2.06546099747159e-08
-3.42919211884137e-07
4.49162888857623e-06
-2.22961370347959e-07
-2.3831163984774e-07
1.5504711613206e-06
-2.46273723878549e-08
-3.59734884434416e-07
1.12548311636883e-06
-1.33360558170091e-08
-4.29039890018936e-07
4.60562019237632e-06
-2.5278597996077e-07
-2.43318567646232e-07
1.55812914533072e-06
-1.0754008862495e-08
-3.82032568181431e-07
1.17179140534424e-06
-1.34953135444998e-08
-4.55908036252342e-07
9.92953418094916e-07
-8.70175364928368e-09
-4.97631884262694e-07
4.63472929464632e-06
-2.6952314996866e-07
-2.38885853430659e-07
1.55241225259626e-06
1.46913474566208e-08
-3.93520766245169e-07
1.18879507165405e-06
3.24227255119951e-10
-4.89577396352219e-07
1.01992887524905e-06
-8.51344770162212e-09
-5.29312298282818e-07
8.95297706352028e-07
-7.1579258010138e-09
-5.49025620456827e-07
4.55262706193486e-06
-2.76497583372308e-07
-2.26779197743999e-07
1.48780026518972e-06
4.41839736517425e-08
-3.84856955121618e-07
1.16831627546455e-06
2.33259556008754e-08
-5.05586522369687e-07
1.03595856113037e-06
6.43187602123798e-10
-5.68915248767825e-07
9.0739148470397e-07
-7.19229743551692e-09
-5.82743670205425e-07
8.03033907412388e-07
-6.14782678068435e-09
-5.84607847632494e-07
4.3999814672705e-06
-2.77456619281304e-07
-2.09661702855561e-07
1.38625248332578e-06
7.30198471336754e-08
-3.61288923192151e-07
1.08989892686098e-06
4.92739008002552e-08
-4.91894663418212e-07
1.01279327363639e-06
1.56864242816666e-08
-5.85797334512123e-07
9.18338568191579e-07
-2.22228360747191e-09
-6.23519077568367e-07
8.09717686866839e-07
-7.77305514139506e-09
-6.17724285787943e-07
7.15372954593951e-07
-5.746919171348e-09
-6.05994960053305e-07
4.23132151519581e-06
-2.76031401390641e-07
-1.93148795261707e-07
1.27668798976978e-06
9.87347326158777e-08
-3.32097208609348e-07
9.83442716242867e-07
7.41063008130168e-08
-4.58335491324072e-07
9.37682934846709e-07
3.30690101854754e-08
-5.67017184326232e-07
8.95445635454004e-07
6.213013373347e-09
-6.38791127084102e-07
8.19462060781752e-07
-6.23121310480965e-09
-6.57642334214333e-07
7.22863791996897e-07
-8.94545059806075e-09
-6.37151982827652e-07
6.35693203867585e-07
-5.7327738328125e-09
-6.15300015533498e-07
4.08076954068371e-06
-2.75556866049446e-07
-1.78645471590772e-07
1.17759533401399e-06
1.19104054476916e-07
-3.02084668533013e-07
8.7762519676853e-07
9.55190112297065e-08
-4.17637817228747e-07
8.40021133330634e-07
5.00394983507861e-08
-5.25449915045708e-07
8.28650587894766e-07
1.6622713496639e-08
-6.15751432002475e-07
8.00435711777371e-07
-2.28379957813042e-09
-6.70787324116794e-07
7.34913033480593e-07
-9.87946402406098e-09
-6.75649887150274e-07
6.45445330849884e-07
-1.00387341233498e-08
-6.44128379262392e-07
5.65304911730699e-07
-5.96481948049343e-09
-6.14665936228329e-07
3.96122132597013e-06
-2.81744318408292e-07
-1.60859916255517e-07
1.09646956851179e-06
1.30557164898505e-07
-2.69736948758528e-07
7.84826768795363e-07
1.11504859517294e-07
-3.75089038855437e-07
7.44727089223474e-07
6.45757827070367e-08
-4.76246529257886e-07
7.43009748530657e-07
2.7253950285587e-08
-5.69046389586691e-07
7.43521571107334e-07
3.45801180576728e-09
-6.45137752139831e-07
7.21485631994681e-07
-8.82360020683432e-09
-6.87391859787539e-07
6.60338829807411e-07
-1.25553724592938e-08
-6.8141135806861e-07
5.76589238399547e-07
-1.07986513863834e-08
-6.41625690895997e-07
5.03402236358756e-07
-6.09859723840283e-09
-6.06295421479736e-07
3.87728776931551e-06
-3.05092998264279e-07
-1.34007260137879e-07
1.03260737348282e-06
1.2832222433422e-07
-2.32817355233575e-07
7.04689242894568e-07
1.19665748765481e-07
-3.31446189382432e-07
6.59845822172526e-07
7.4951366180666e-08
-4.26361264643352e-07
6.58950822777507e-07
3.63954278563403e-08
-5.1515858969593e-07
6.69284769157201e-07
9.742822470763e-09
-5.95965490704536e-07
6.7383328217765e-07
-6.17740690570067e-09
-6.60778230837758e-07
6.51954348810287e-07
-1.33823642378236e-08
-6.92672192940905e-07
5.93338508905245e-07
-1.41853167671165e-08
-6.78095612857406e-07
5.15212241261192e-07
-1.10556264170326e-08
-6.32091567655524e-07
4.48324399982805e-07
-5.9565595676611e-09
-5.92196198093168e-07
4.48017057840887e-06
-1.13768292592212e-07
-2.44460870211644e-07
4.79897798811647e-06
-2.05582999227446e-07
-2.47354534464089e-07
1.64029171110898e-06
-2.83071438506942e-08
-3.68620543640717e-07
4.83842404567837e-06
-2.633952203512e-07
-2.57497002411038e-07
1.72628340537707e-06
-3.8076180501304e-08
-3.87189706781998e-07
1.26284128256774e-06
-1.91876079411471e-08
-4.61088613799699e-07
4.94495747724804e-06
-2.98027488348798e-07
-2.6425940603104e-07
1.73472698031912e-06
-2.71909599693974e-08
-4.12341748838429e-07
1.31300719677719e-06
-2.34244656143353e-08
-4.90860927722155e-07
1.11250264727886e-06
-1.31864186302532e-08
-5.35402055603144e-07
4.95781176261759e-06
-3.1598250759353e-07
-2.59878492598946e-07
1.72696374669185e-06
-2.64656145501475e-09
-4.25974802880386e-07
1.33363479561053e-06
-1.18007194335402e-08
-5.28565115602994e-07
1.14210337253783e-06
-1.61424877760144e-08
-5.70640258220185e-07
1.00008351407405e-06
-1.06929000634786e-08
-5.91724674554384e-07
4.85136201231599e-06
-3.21369801955617e-07
-2.46879386067092e-07
1.6531811880457e-06
2.7973560631146e-08
-4.17542697819686e-07
1.31165985687134e-06
1.06970979477738e-08
-5.47236190477226e-07
1.1616655482369e-06
-8.8154638004178e-09
-6.14980931465077e-07
1.01339705123081e-06
-1.31775992496886e-08
-6.29296953262033e-07
8.94185102716407e-07
-8.96557266242376e-09
-6.31210869023441e-07
4.6709299643837e-06
-3.18155086963059e-07
-2.29282999209557e-07
1.53757841361596e-06
5.91393245968987e-08
-3.9305538179661e-07
1.2246290441277e-06
3.75964200856767e-08
-5.33856123499988e-07
1.13701336223206e-06
5.67972175963578e-09
-6.34840887025518e-07
1.0270324855141e-06
-9.72744038511057e-09
-6.75072772343535e-07
9.01645685798701e-07
-1.25752700643846e-08
-6.68243182369539e-07
7.94207452310607e-07
-8.01612390143682e-09
-6.55426042811868e-07
4.47501122678711e-06
-3.11078480663087e-07
-2.10053469446603e-07
1.41361223027181e-06
8.82211932685087e-08
-3.61776204646898e-07
1.10586180871147e-06
6.43857329206431e-08
-4.98818229441211e-07
1.05407692429321e-06
2.35912663738058e-08
-6.16191664653704e-07
1.0026846689486e-06
-1.92210207268974e-09
-6.93335949829971e-07
9.13682343146694e-07
-1.23680136939875e-08
-7.13143086223803e-07
8.0265919950928e-07
-1.28975324081844e-08
-6.90368212946671e-07
7.03810188637428e-07
-7.58990569708648e-09
-6.66521821860486e-07
4.3020815209982e-06
-3.04554910156354e-07
-1.92766921628461e-07
1.30010660048879e-06
1.12687628477399e-07
-3.29604519068049e-07
9.87017422041247e-07
8.86139120725596e-08
-4.5599445953178e-07
9.45546473900466e-07
4.19838953159705e-08
-5.72774349657177e-07
9.29265371042103e-07
8.69368559336359e-09
-6.70111491780229e-07
8.93612691644991e-07
-9.11621330496539e-09
-7.29081980977373e-07
8.17060430398512e-07
-1.50494040255747e-08
-7.33685316788451e-07
7.14807924495611e-07
-1.33506943288186e-08
-6.98895907522856e-07
6.24269224389662e-07
-7.51949166670128e-09
-6.66744659652688e-07
4.1655405322502e-06
-3.02006548053213e-07
-1.77855548110913e-07
1.20504667013594e-06
1.29740566891464e-07
-2.9785618049885e-07
8.81905937659529e-07
1.08330079947206e-07
-4.11973006691813e-07
8.39343549299303e-07
5.8749752259549e-08
-5.20962885838167e-07
8.34680611206618e-07
2.0340633696423e-08
-6.20836988164582e-07
8.31421114134943e-07
-3.33855802970055e-09
-7.02595123434263e-07
8.03197486206936e-07
-1.46806815467639e-08
-7.47697335469952e-07
7.32196728858365e-07
-1.69693756802807e-08
-7.40576585484713e-07
6.3696341959799e-07
-1.36003747352273e-08
-6.96866676881015e-07
5.54542171733932e-07
-7.39905198808246e-09
-6.58406703347782e-07
4.06459939718588e-06
-3.10194209574545e-07
-1.58850719157708e-07
1.13086888156922e-06
1.35136797879871e-07
-2.63691048226685e-07
7.925851041149e-07
1.21191706476544e-07
-3.67317310349319e-07
7.45570283352168e-07
7.20019557136467e-08
-4.68237406617702e-07
7.42120387031745e-07
3.11406406322207e-08
-5.63300876142933e-07
7.500552393047e-07
3.66759249346837e-09
-6.50025374784223e-07
7.51512824766074e-07
-1.20801436780605e-08
-7.1956008814723e-07
7.23930529748994e-07
-1.84236497493779e-08
-7.53499408268384e-07
6.56264434023485e-07
-1.79758101588865e-08
-7.37159646294377e-07
5.67811610970708e-07
-1.34865554655077e-08
-6.86837172666407e-07
4.92741377908163e-07
-7.12079929467442e-09
-6.43591488584051e-07
3.99542169206565e-06
-3.39578078202033e-07
-1.3026685010113e-07
1.07459943660294e-06
1.23819065981845e-07
-2.24258925193887e-07
7.15213424516055e-07
1.24474427935079e-07
-3.21376773968466e-07
6.63379176793876e-07
7.99063865693263e-08
-4.16207607106745e-07
6.59194634657168e-07
3.94180192389621e-08
-5.05787193674729e-07
6.69174497098759e-07
1.0266758235708e-08
-5.89663858638145e-07
6.81247616450948e-07
-8.30917031585612e-09
-6.65782293842257e-07
6.80903608603401e-07
-1.80005757487139e-08
-7.25090325514018e-07
6.5208370303049e-07
-2.058351651247e-08
-7.49753827620775e-07
5.87755592938023e-07
-1.81641851009994e-08
-7.26173938433719e-07
5.05806869864718e-07
-1.29526772539599e-08
-6.70928739543751e-07
4.37091816053375e-07
-6.57700602996719e-09
4.87839739659236e-06
-1.34769775146652e-07
-2.63449904186149e-07
5.19554981947599e-06
-2.43354812753949e-07
-2.66976256684787e-07
1.82816215396078e-06
-3.74865668839374e-08
-3.9484042919977e-07
5.22230312623148e-06
-3.11609472935343e-07
-2.77840925940655e-07
1.92049037780166e-06
-5.44323819628289e-08
-4.15430304175291e-07
1.41398223224804e-06
-2.61319530261678e-08
-4.9362891084112e-07
5.32006480682781e-06
-3.52692916057209e-07
-2.85804769760407e-07
1.93012801601109e-06
-4.7404729715705e-08
-4.43564359746039e-07
1.46868497112156e-06
-3.5440648573522e-08
-5.26612580642076e-07
1.24392471239528e-06
-1.86164133585449e-08
-5.73893747522108e-07
5.31466139963215e-06
-3.7239904605135e-07
-2.82471364845893e-07
1.91974088423347e-06
-2.44127799056968e-08
-4.59806044711125e-07
1.49341523038607e-06
-2.673945205105e-08
-5.68805979547403e-07
1.27659456093305e-06
-2.54134278663397e-08
-6.13123516946555e-07
1.11512307160076e-06
-1.49251430631299e-08
-6.35516305278743e-07
5.18005082994048e-06
-3.75973668098744e-07
-2.68686220401632e-07
1.83594016769894e-06
6.83889239666908e-09
-4.52116169891953e-07
1.46986440386114e-06
-5.29047156753623e-09
-5.90688869238537e-07
1.30018469549393e-06
-2.05066452766678e-08
-6.62719370470151e-07
1.12992970842815e-06
-2.04543489816486e-08
-6.77410338167151e-07
9.94117641323364e-07
-1.23508397972555e-08
-6.79306015317967e-07
4.96786665741159e-06
-3.6821400932919e-07
-2.50091775284618e-07
1.70493494547638e-06
4.04295518068666e-08
-4.26688331810855e-07
1.37343566582746e-06
2.22549259680896e-08
-5.77903618618673e-07
1.27402494195058e-06
-7.01126318000462e-09
-6.86049876808416e-07
1.14662713124917e-06
-1.90125948335887e-08
-7.28739323041641e-07
1.00253642200235e-06
-1.84171987358211e-08
-7.20734773227931e-07
8.80496608598148e-07
-1.07470575486295e-08
-7.06752884683047e-07
4.74125387188398e-06
-3.54462433964556e-07
-2.29925790050317e-07
1.56430611500064e-06
7.30082634191718e-08
-3.93836476640723e-07
1.24102853584826e-06
5.09589171787794e-08
-5.41583454246039e-07
1.1825165694307e-06
1.12009984984847e-08
-6.67815130138834e-07
1.12075018638473e-06
-1.21832953937042e-08
-7.50449127847814e-07
1.01714867543299e-06
-1.99354277263461e-08
-7.71178327870725e-07
8.90062385933523e-07
-1.7695126185636e-08
-7.45966207499146e-07
7.78222947363338e-07
-9.82125906513737e-09
-7.20017321598966e-07
4.54108951170002e-06
-3.40344418534897e-07
-2.09728925964462e-07
1.43578866300958e-06
1.01850363380755e-07
-3.59361368069197e-07
1.10813274227236e-06
7.80417174089358e-08
-4.96546043794838e-07
1.06203274977765e-06
3.09261681294641e-08
-6.22637383353934e-07
1.0400399050979e-06
-1.55557925616973e-09
-7.27331071441063e-07
9.95949565835369e-07
-1.76412933025464e-08
-7.90397797904752e-07
9.07066974366157e-07
-2.13609065153043e-08
-7.94685431914918e-07
7.90616140030596e-07
-1.73430804904158e-08
-7.5642257372479e-07
6.88540980447116e-07
-9.37886655976217e-09
-7.21414530202204e-07
4.3834507474328e-06
-3.30333296823581e-07
-1.92111827862216e-07
1.32660076069008e-06
1.23814016475016e-07
-3.25440606435417e-07
9.89886935954313e-07
1.01284785722804e-07
-4.50252809201485e-07
9.43746299765655e-07
4.98166158701524e-08
-5.68227219283877e-07
9.35486237473832e-07
1.09523995533529e-08
-6.75837023292882e-07
9.27875379382843e-07
-1.20439751797839e-08
-7.63636480836849e-07
8.92695416039662e-07
-2.19298496563005e-08
-8.11698146827595e-07
8.10745663367331e-07
-2.23156393546664e-08
-8.03268964298832e-07
7.02794635910016e-07
-1.69568448951759e-08
-7.55289462604887e-07
6.10155787431698e-07
-8.95434726220339e-09
-7.13403793930536e-07
4.26711207300455e-06
-3.27664140495839e-07
-1.76834584810618e-07
1.23920981372659e-06
1.35619106273552e-07
-2.92072462903504e-07
8.88714124188632e-07
1.18501464001106e-07
-4.04152994173659e-07
8.3920332852377e-07
6.5879648125582e-08
-5.12733091909572e-07
8.33084153069029e-07
2.33434921519585e-08
-6.14926979283179e-07
8.38417350960723e-07
-4.45334805135776e-09
-7.08083002968735e-07
8.36440614103383e-07
-1.95790748572458e-08
-7.8262366611636e-07
8.02533998513932e-07
-2.46308536346367e-08
-8.18638663631541e-07
7.24877614478597e-07
-2.25236566147554e-08
-8.00266120551767e-07
6.25010340452126e-07
-1.63130083353776e-08
-7.45151175194836e-07
5.40879124335193e-07
-8.40310538766963e-09
-6.98141232225201e-07
4.18153234339728e-06
-3.40104185380324e-07
-1.56183995824118e-07
1.1739009911558e-06
1.32644558962019e-07
-2.5564824511478e-07
8.02926098389267e-07
1.27021629396519e-07
-3.57231738578789e-07
7.48687328813976e-07
7.71575679674178e-08
-4.57779027523176e-07
7.41865987601468e-07
3.37612248112614e-08
-5.53527717762496e-07
7.49644371940209e-07
3.34783241207896e-09
-6.43449400538038e-07
7.59653401697988e-07
-1.53943843326703e-08
-7.25116089970922e-07
7.56022977580756e-07
-2.4458848181249e-08
-7.88644062765938e-07
7.21182752547724e-07
-2.58812109390961e-08
-8.14692533117752e-07
6.47699972702855e-07
-2.20403482317053e-08
-7.88549787152622e-07
5.55524431997883e-07
-1.54011787930683e-08
-7.28274091232865e-07
4.78754842619041e-07
-7.76542684067617e-09
-6.77489024076752e-07
4.11584749923827e-06
-3.76403507334944e-07
-1.25846522962871e-07
1.12598308729217e-06
1.0923622480747e-07
-2.13344539949869e-07
7.27590435191079e-07
1.24063477985772e-07
-3.08560579757877e-07
6.6856600356067e-07
8.17739307826316e-08
-4.03387052022716e-07
6.6128921335662e-07
4.06111990706041e-08
-4.93813395681112e-07
6.6936942700259e-07
9.76779894622282e-09
-5.79138231838087e-07
6.81857795998633e-07
-1.08693533673464e-08
-6.59053438138781e-07
6.89622165437091e-07
-2.27181810487009e-08
-7.30885015990262e-07
6.8233029858976e-07
-2.72079613129035e-08
-7.84930646199338e-07
6.46981208716617e-07
-2.59987325534487e-08
-8.02700427775381e-07
5.77766501445235e-07
-2.10065632538977e-08
-7.70492984851146e-07
4.92742482592453e-07