/*--------------------------------*- C++ -*----------------------------------*\
  =========                 |
  \\      /  F ield         | OpenFOAM: The Open Source CFD Toolbox
   \\    /   O peration     | Website:  https://openfoam.org
    \\  /    A nd           | Version:  12
     \\/     M anipulation  |
\*---------------------------------------------------------------------------*/
/*   Windows 32 and 64 bit porting by blueCAPE: http://www.bluecape.com.pt   *\
|  Based on Windows porting (2.0.x v4) by Symscape: http://www.symscape.com   |
\*---------------------------------------------------------------------------*/
FoamFile
{
    format      ascii;
    class       volVectorField;
    location    "300";
    object      U;
}
// * * * * * * * * * * * * * * * * * * * * * * * * * * * * * * * * * * * * * //

dimensions      [0 1 -1 0 0 0 0];

internalField   nonuniform List<vector> 
10140
(
(8.24393145021219e-06 -4.26449416571936e-05 2.96861821817951e-05)
(9.20024087671462e-06 -2.46584499223179e-05 3.44067441148339e-05)
(2.83268414042257e-05 -0.000144294987566917 2.90440856785753e-05)
(4.86269416917118e-06 6.50184613944556e-05 6.07934713714647e-05)
(9.76010841901531e-06 -3.14414126256383e-06 3.9572169517502e-05)
(3.11803872865969e-05 -0.000135599276006388 3.39152517211274e-05)
(5.26888551786797e-06 9.03874997526445e-05 6.86960139205637e-05)
(4.94707485193379e-05 -0.00017790222692259 2.93172499532591e-05)
(1.73203424577759e-05 4.30024801420966e-06 5.9426051344345e-05)
(3.12068143279631e-06 0.000132593832999724 9.65179904906166e-05)
(9.80666183036756e-06 2.55606644705525e-05 4.43337766378724e-05)
(3.28674015003401e-05 -0.000120803873835666 3.95438553995126e-05)
(5.40650698539796e-06 0.000119045798013483 7.69319921804887e-05)
(5.34740200904093e-05 -0.000172539339655923 3.44642762610061e-05)
(1.86128838066183e-05 2.37965626078693e-05 6.74755568538532e-05)
(3.25535405268794e-06 0.000160694772178009 0.000107598597645512)
(7.25937947176813e-05 -0.000192442081370388 2.99875415701426e-05)
(3.13066203278827e-05 -2.05917889677533e-05 5.929586515887e-05)
(1.07853878411768e-05 0.000103650159779366 9.51144626683186e-05)
(2.06054923268924e-06 0.000171888750462808 0.000132704761374045)
(9.89602741535815e-06 6.06470584919135e-05 5.00922262861186e-05)
(3.3312669951666e-05 -9.85272973536093e-05 4.58651460653958e-05)
(5.31282749823593e-06 0.000153106706519493 8.526715892066e-05)
(5.61413031097373e-05 -0.000160066902520741 4.04016837527106e-05)
(1.91720283135744e-05 4.8081282100092e-05 7.58571000326952e-05)
(3.21386553509187e-06 0.000192301425610071 0.000119125583970123)
(7.76452872997875e-05 -0.000188487867338334 3.53176665564236e-05)
(3.32700624057586e-05 -3.73952733811548e-06 6.76006594155387e-05)
(1.12342970195532e-05 0.000128813867818968 0.000106205679203161)
(2.05572905192567e-06 0.000200979453551687 0.000146874303570559)
(9.76362271682688e-05 -0.00020342276164898 3.06639532056067e-05)
(4.66096685736498e-05 -3.47913441947657e-05 5.94258492868181e-05)
(1.97896270546143e-05 8.73240126633561e-05 9.49451855140368e-05)
(7.05416086160437e-06 0.000153785140655172 0.000131071699167145)
(1.25395935898302e-06 0.000198919465101795 0.000167477730251002)
(9.87394229032859e-06 0.000101751301148413 5.69460666855228e-05)
(3.39211305477485e-05 -7.01722286571452e-05 5.2919749508298e-05)
(5.17395369014956e-06 0.00019223758148796 9.41561564541845e-05)
(5.77007281782632e-05 -0.000140056562592182 4.70898665480741e-05)
(1.91603525839449e-05 7.84083781857295e-05 8.42564562305026e-05)
(3.0389863529215e-06 0.000228533393844126 0.000131305104692682)
(8.1441272476755e-05 -0.000177188213489683 4.14128820187199e-05)
(3.4273758446744e-05 1.85624519756015e-05 7.61566986650485e-05)
(1.12109467798065e-05 0.000158225063436965 0.000117751396168818)
(1.93378264617796e-06 0.000233607919867047 0.000161904493531633)
(0.000104016014770682 -0.000200487661533609 3.61419382323118e-05)
(4.91497356152543e-05 -1.92785096023133e-05 6.79388995594144e-05)
(2.04726864220916e-05 0.00011083993880927 0.000106174283152958)
(7.0700666771256e-06 0.000181123380507727 0.000145178681283596)
(1.16701398579777e-06 0.000228345881559134 0.000184562402201975)
(0.000123973485687442 -0.000212543806666348 3.06519794106833e-05)
(6.29701160201031e-05 -4.53231495626103e-05 5.91702530616902e-05)
(2.98483539801135e-05 7.61054274416571e-05 9.48278249623123e-05)
(1.29824848336455e-05 0.000141924741356928 0.000130666142160173)
(4.37194204120946e-06 0.000185596648368094 0.000165260188757962)
(6.24423662802095e-07 0.000217635315022975 0.000200230671496297)
(9.73273704648083e-06 0.000149025507219729 6.38032300472799e-05)
(3.45432529804992e-05 -3.67068527772234e-05 5.93873978792203e-05)
(4.95754502448806e-06 0.000236680608216941 0.000103686636270455)
(5.89571669268597e-05 -0.000113838719713027 5.44260060344037e-05)
(1.8966951720184e-05 0.00011368294616347 9.33132755503689e-05)
(2.80779347596352e-06 0.000269339712979801 0.000144282341504663)
(8.41161359657908e-05 -0.000158456426057543 4.74583557945715e-05)
(3.45372129477499e-05 4.72465068163225e-05 8.46717412735502e-05)
(1.08176976558366e-05 0.000192584166770743 0.000129934548277025)
(1.71611269567169e-06 0.000270407955378388 0.000177890223083619)
(0.000109018342690356 -0.000190135208396028 4.23092882605904e-05)
(5.0679714557424e-05 1.79959155249746e-06 7.66646965276265e-05)
(2.05120533379561e-05 0.00013893274230309 0.000117816248195622)
(6.75960155999245e-06 0.000212373867327787 0.000160165619288609)
(9.8971540240484e-07 0.000261196308083092 0.000202810698427212)
(0.000131917234300532 -0.000210477853097882 3.63026267355269e-05)
(6.61847443654458e-05 -3.07004509153375e-05 6.78589213363088e-05)
(3.07340929176996e-05 9.86300993644147e-05 0.000106184990401536)
(1.2975433980116e-05 0.000168139677178099 0.000144816396974471)
(4.13614696714702e-06 0.000213758949860387 0.000182171759000941)
(4.86544807447247e-07 0.000246942378030233 0.000220018026481288)
(0.000150603354811139 -0.000220433369488096 2.98200380132815e-05)
(7.97843163098624e-05 -5.29295783916729e-05 5.82596750394031e-05)
(4.06073663878434e-05 6.78777222585413e-05 9.40638141778992e-05)
(1.96942210680372e-05 0.000133087435251113 0.000130103861386645)
(8.0813553000203e-06 0.00017638900625054 0.000164395207469393)
(2.31769494419598e-06 0.00020711230551581 0.000197207570647297)
(1.26071175168103e-07 0.000230326534190601 0.000230607495769804)
(9.56779857814638e-06 0.00020348677268505 7.06733759883035e-05)
(3.46961000607787e-05 2.46083726815978e-06 6.59569885073202e-05)
(4.63826543228668e-06 0.000286870903958091 0.000113860644444445)
(5.99162584479743e-05 -8.29285536159e-05 6.08671423822749e-05)
(1.85451291429645e-05 0.000153909925229546 0.000102957595878837)
(2.4976171543273e-06 0.00031515676941504 0.000158077586871599)
(8.6193614533709e-05 -0.000133140219113613 5.48993272278336e-05)
(3.44090111592383e-05 8.08213596540366e-05 9.38504782439827e-05)
(1.02160338908729e-05 0.000231455543103691 0.000142933259887234)
(1.4334295758386e-06 0.000311466957897281 0.000194843559332423)
(0.00011287783136757 -0.00017244024428413 4.77621777356149e-05)
(5.13211899609398e-05 2.94099004160951e-05 8.52277624388206e-05)
(2.00078186005945e-05 0.000172170414248014 0.000130078689622183)
(6.17104890488162e-06 0.000247949915624941 0.000176106470183083)
(7.32740653883602e-07 0.000297881383088508 0.000222228665010181)
(0.000138262504254425 -0.000200989889969654 4.2562871218213e-05)
(6.83358412261326e-05 -1.06317666258012e-05 7.67325619576781e-05)
(3.08819315901804e-05 0.000125752862650786 0.000117913400226765)
(1.24920006898943e-05 0.000198441821608814 0.000159840292168648)
(3.64121558025337e-06 0.000245584826209464 0.0002002887003541)
(2.73487382392578e-07 0.000279498390136376 0.000241170808206333)
(0.000160330150129986 -0.000219114747165749 3.56551342458913e-05)
(8.3794661749713e-05 -3.89360038186336e-05 6.71093003281731e-05)
(4.17443891948436e-05 8.97048529378574e-05 0.000105513382371936)
(1.96468179522194e-05 0.000158554938548004 0.000144296956592687)
(7.6570170293908e-06 0.000203691102487259 0.000181246252273943)
(1.92376775137952e-06 0.000235424987008947 0.00021671502734041)
(-4.24017401234206e-08 0.000259175231423873 0.000252839522944716)
(0.000176651033609196 -0.000227736545213466 2.83572447363276e-05)
(9.64282494949739e-05 -5.83208165608255e-05 5.66281123573794e-05)
(5.1494417328327e-05 6.23177576440571e-05 9.24749254032896e-05)
(2.69162473569624e-05 0.000126475722891502 0.000128717255243468)
(1.23502126750487e-05 0.000169291850131604 0.000163314896973478)
(4.32743598135961e-06 0.000199702648083282 0.000195725670706423)
(6.97023903661978e-07 0.000221705241837639 0.000226845767442142)
(-2.75484805525217e-07 0.000238522726674653 0.000258579462441904)
(9.29284694352665e-06 0.000265790540073797 7.79580678356518e-05)
(3.44933170502972e-05 4.79708990461118e-05 7.27719737567544e-05)
(4.17736501548345e-06 0.000343249907294073 0.000124709846474976)
(6.0372321498069e-05 -4.66723550263886e-05 6.75208612609389e-05)
(1.78010737305513e-05 0.000199473243576277 0.000113220591551697)
(2.08327848771537e-06 0.000366414799370757 0.000172685274138688)
(8.78370407939542e-05 -0.000103553574910575 6.20281031347136e-05)
(3.38527986705829e-05 0.00011909152159638 0.000103598796617117)
(9.35833829898832e-06 0.000275138063719112 0.000156760154429855)
(1.06479683101265e-06 0.000357210783825339 0.000212746352069645)
(0.00011607851305659 -0.000148270021146648 5.53950220468059e-05)
(5.13627356284881e-05 6.18689937184353e-05 9.44778940867789e-05)
(1.90958268038749e-05 0.00020985307016551 0.000143158753988541)
(5.36586677896364e-06 0.000287725663909959 0.000193015707567998)
(4.09512706968142e-07 0.000338543223895308 0.000242766874469074)
(0.000143441134085051 -0.000184334846336839 4.80034435648196e-05)
(6.94449577109806e-05 1.60097985427816e-05 8.53063383875023e-05)
(3.03204079572147e-05 0.00015808903664701 0.00013022875741312)
(1.15713850351718e-05 0.000233162068347169 0.000175811083964739)
(2.91071571947215e-06 0.00028133613560947 0.00021959025603163)
(-9.03374248667597e-09 0.000315608815537495 0.000263645328976982)
(0.000168199293548928 -0.000210501907191529 4.20568224331911e-05)
(8.66235163711246e-05 -1.97234531326774e-05 7.61178609058559e-05)
(4.20516361214002e-05 0.000116019844317334 0.000117297160144752)
(1.90128768870132e-05 0.000188100679984233 0.000159340494329623)
(6.83847869357802e-06 0.00023476696165608 0.000199314572321039)
(1.30837393922464e-06 0.000267165266017046 0.000237635815836159)
(-2.77476632675112e-07 0.000291075875861747 0.000276576122647352)
(0.000188393647650526 -0.000227086071987823 3.44276729877752e-05)
(0.000101359953669185 -4.47946088308032e-05 6.56332797654362e-05)
(5.29530890933442e-05 8.36420497168e-05 0.000103988015046359)
(2.68559986579908e-05 0.000151394631201024 0.000142913815804754)
(1.17188091147002e-05 0.0001959954650573 0.000180118365808657)
(3.63230924001231e-06 0.00022731982356094 0.000215080392509614)
(2.0165539854401e-07 0.000249743498368894 0.000248712542349834)
(-4.63958400342609e-07 0.000266658657425767 0.000282990518644812)
(0.000201413628482526 -0.000235399994658375 2.63966102970038e-05)
(0.000112318969927494 -6.24351671575275e-05 5.42550415770299e-05)
(6.20495798091794e-05 5.8635253633825e-05 9.00263427883576e-05)
(3.41799927904821e-05 0.00012202268535617 0.000126404842818675)
(1.6955603244612e-05 0.000163892134821918 0.000161345669429387)
(6.70003026296949e-06 0.000193918345679189 0.000194112206668984)
(1.37949791609146e-06 0.000215595775531574 0.00022479162517224)
(-6.02789930464622e-07 0.000231287339487807 0.000254287064666382)
(-6.02361510523221e-07 0.000243156957020389 0.000284315834384708)
(8.83667284405392e-06 0.00033658882683036 8.50338244049375e-05)
(3.39445978511583e-05 0.000100379554317065 7.94326897113814e-05)
(3.55054130133327e-06 0.000406274412327765 0.000136251817626498)
(6.01881415194285e-05 -4.3495450995142e-06 7.46492892661905e-05)
(1.66524835054305e-05 0.000250739011187983 0.0001241325172365)
(1.52773147241621e-06 0.000423515205642522 0.000188068356053493)
(8.87776142337555e-05 -6.88706714340524e-05 6.88835200847498e-05)
(3.27398893756574e-05 0.000162410403140535 0.000114016560463796)
(8.18012974200737e-06 0.000324007075873708 0.000171405786915072)
(5.92777988681042e-07 0.000408034374128366 0.000231551027821897)
(0.000118551182922278 -0.000119654511095565 6.337891953602e-05)
(5.07631788490812e-05 9.87981893878487e-05 0.000104362263462805)
(1.7714781308797e-05 0.000252164895335093 0.000157071862935911)
(4.29486630875393e-06 0.000332047304495091 0.000210875137811674)
(2.32717246390901e-09 0.000383565050893308 0.000264369495671993)
(0.000147897667184296 -0.000161314963525843 5.53169204077122e-05)
(6.97772488578602e-05 4.74496637771628e-05 9.46105878525049e-05)
(2.91466124525191e-05 0.000194791278095623 0.000143355773257982)
(1.02507853555926e-05 0.000272007559785254 0.000192748724700185)
(1.96923447318837e-06 0.000321002952024321 0.000239994640352145)
(-3.55466725436403e-07 0.00035542701372743 0.000287366023772361)
(0.000174808983629689 -0.000194964631378091 4.74111079491305e-05)
(8.8310977666554e-05 5.9992378006677e-06 8.47101495324586e-05)
(4.14992758253441e-05 0.000147533859340901 0.000129609641087941)
(1.77795810078656e-05 0.000222079082780806 0.000175311818598206)
(5.63776108306334e-06 0.000269811856010569 0.00021855568432969)
(4.83957136293511e-07 0.000302521299284848 0.000259888668605076)
(-5.7561593564771e-07 0.000326280760218488 0.000301751755106682)
(0.000197968704408873 -0.000219368758339974 4.10121629409915e-05)
(0.000104938506057772 -2.63115787723242e-05 7.4768957799077e-05)
(5.34738023094403e-05 0.000109285731317995 0.000115803518936934)
(2.61041998039365e-05 0.000180298836318488 0.000157931961414168)
(1.0577515047699e-05 0.000226457693994057 0.000198132858420885)
(2.58801079387826e-06 0.000258448024526339 0.000235878906713823)
(-4.92581501215192e-07 0.000280978288274621 0.000272135390573153)
(-7.13034034616503e-07 0.000297640969928387 0.000309010088381421)
(0.000215384976389372 -0.000235374645022872 3.27172736831186e-05)
(0.000118308977098705 -4.92617272288897e-05 6.34097733053802e-05)
(6.39071794987912e-05 7.95844319429332e-05 0.000101578484170534)
(3.41578043253046e-05 0.000146537393945209 0.000140567778862129)
(1.61306840978229e-05 0.000190144927802269 0.000178066694527989)
(5.6776078194013e-06 0.000221042046927405 0.000213340660804647)
(5.03835344804001e-07 0.000243059062511542 0.000246431625927472)
(-1.16579843920256e-06 0.000258747257045743 0.000278272172902111)
(-8.04638922712948e-07 0.00027037578006338 0.00031065565874576)
(0.000224193812099798 -0.000244681917105547 2.34125329258073e-05)
(0.00012692849849415 -6.63080184573595e-05 5.09809056753787e-05)
(7.19155709938569e-05 5.59578334786131e-05 8.66313257135079e-05)
(4.11188632740956e-05 0.000119115909999787 0.000123126334108173)
(2.1569576618639e-05 0.000160217209879957 0.000158415521957611)
(9.27020539333732e-06 0.000189483033491579 0.000191644776978752)
(2.25297541120967e-06 0.000210810860204479 0.000222730286747104)
(-9.55254136132548e-07 0.000226146061664988 0.000251801552949074)
(-1.64540683314995e-06 0.000236968727162015 0.000279681518417791)
(-8.49206637157293e-07 0.000244746725636067 0.00030801408582835)
(8.23285373951921e-06 0.00041674359787543 9.23736446804935e-05)
(3.28974920043898e-05 0.000160354410259681 8.60472277426644e-05)
(2.74909380193165e-06 0.000476490376807417 0.000148406059389239)
(5.92269083621205e-05 4.44976792024029e-05 8.2068566608517e-05)
(1.50473308918644e-05 0.000308158238858646 0.000135697785233226)
(8.13993410612155e-07 0.000486899266627864 0.000204144558332871)
(8.88102368998535e-05 -2.84370338685698e-05 7.63332821633093e-05)
(3.0985914653023e-05 0.000211135787362061 0.000125126718005049)
(6.60105889056813e-06 0.000378431493516685 0.000186806024195035)
(-7.46339795187244e-09 0.000464314530948793 0.000251168715233677)
(0.000120107148597643 -8.63421312609891e-05 7.02682473069317e-05)
(4.93681249478138e-05 0.000140546642182578 0.000114924921789705)
(1.57763382274945e-05 0.000299453890849929 0.000171821537495944)
(2.91009059305991e-06 0.000381274421661981 0.000229637574684117)
(-5.02558973379618e-07 0.000433307887953517 0.000286949541891503)
(0.000151368138767922 -0.000133764030128937 6.36225812223185e-05)
(6.92689212689263e-05 8.31783507052552e-05 0.000104623637831171)
(2.72819986784309e-05 0.000235942941301844 0.00015731836452918)
(8.46383807192082e-06 0.0003152598651903 0.0002106400411483)
(7.72649034663596e-07 0.000364918683833328 0.000261437899518933)
(-7.80884842399122e-07 0.000399296515359544 0.000312247890938759)
(0.000180632064419748 -0.000173132429516493 5.43801082875317e-05)
(8.90555746053144e-05 3.64705135389639e-05 9.40238143709677e-05)
(4.01412354779813e-05 0.000183318248832221 0.000142731117386812)
(1.59515671699719e-05 0.000260091020102111 0.00019224003400609)
(4.05379278648335e-06 0.000308705308685922 0.000238901110162487)
(-5.42767206486557e-07 0.000341532298936084 0.000283364066131537)
(-9.34528702374914e-07 0.000364938551521804 0.000328274079157205)
(0.000206159858604857 -0.00020504672207033 4.62974176784374e-05)
(0.000107293972084671 -1.45143602267832e-06 8.33538706479893e-05)
(5.30065860513011e-05 0.000140046828713554 0.000128077584762968)
(2.46017492252899e-05 0.000213588832872067 0.00017384485445509)
(8.89761201033536e-06 0.0002608822245633 0.000217318321250954)
(1.1945035481183e-06 0.000293220348158222 0.000258017823448212)
(-1.37838942069162e-06 0.000315563291403321 0.000297005633476584)
(-1.02025244442926e-06 0.00033169125280146 0.000336559599017252)
(0.000226876100626985 -0.000228650415811305 3.95236569542501e-05)
(0.000122761092839642 -3.14411315937166e-05 7.26637548007341e-05)
(6.47040106736423e-05 0.000104653751715271 0.000113398664043489)
(3.33344171623726e-05 0.00017490724282127 0.000155526116346378)
(1.46841306761863e-05 0.000220079658834014 0.000195980391322977)
(4.18982900273493e-06 0.000251660583443075 0.000234011781742116)
(-6.91448395648937e-07 0.000273784835300631 0.000269663277031264)
(-1.91141369227519e-06 0.000289174468089878 0.000303919058828633)
(-1.06242330148187e-06 0.000300227536333507 0.000338688920162584)
(0.000240678095253633 -0.000245350494614593 3.03971844990751e-05)
(0.000134116694944568 -5.34151141466144e-05 6.03037003308699e-05)
(7.42606778706521e-05 7.66090518460467e-05 9.81992158789548e-05)
(4.11952390007971e-05 0.00014332301557646 0.000137221024321712)
(2.05920586710238e-05 0.000186130869979295 0.000175017505569942)
(7.92510848311231e-06 0.000216229509329505 0.000210721604641066)
(9.63865998826993e-07 0.00023786141697661 0.000244182820267998)
(-1.95102294435981e-06 0.000253122039085234 0.000275505477507042)
(-2.25332628285093e-06 0.000263610649341462 0.000305553406559557)
(-1.05861010117985e-06 0.000270870820528162 0.00033604954778081)
(0.000244071887586171 -0.000257106507107368 1.93188723768673e-05)
(0.000139767968108775 -7.10153302243949e-05 4.65139881471999e-05)
(8.0781577546407e-05 5.3490571057993e-05 8.20780554614616e-05)
(4.74860408337236e-05 0.000117044430624794 0.0001187525805952)
(2.59248806323534e-05 0.000157801947388299 0.000154460913810062)
(1.18335024134427e-05 0.000186444240215317 0.000188227035048243)
(3.22169488632412e-06 0.000207135158873837 0.000219885039592515)
(-1.26352804369783e-06 0.000222118107789807 0.000249412510839111)
(-2.79183444188055e-06 0.000232558207860847 0.000276904991336666)
(-2.4407828546633e-06 0.000239378063023696 0.000303177695407765)
(-1.03050495746021e-06 0.000243567386363237 0.000329838392234527)
(7.42225347407485e-06 0.000507060512715874 0.000100970659589644)
(3.11384821995855e-05 0.000228662752247246 9.41109034401278e-05)
(1.72658838173516e-06 0.000554467496534998 0.000161150137084758)
(5.74059636336925e-05 0.000100191273091675 8.90030818786351e-05)
(1.29232007316477e-05 0.000372227256586606 0.000147886196608498)
(-6.78529350701271e-08 0.000557050259653038 0.000220797016250968)
(8.76991964945303e-05 1.8228291548636e-05 8.42018107724619e-05)
(2.8489268586478e-05 0.000265677722747452 0.000136906743613072)
(4.56240852725964e-06 0.000438845956351531 0.000202866199596339)
(-7.43217307986172e-07 0.000526454571424129 0.000271471878669775)
(0.000120504670069966 -4.76154569564047e-05 7.77446457548196e-05)
(4.70684679695143e-05 0.00018745787705155 0.000126223666398218)
(1.31901124733766e-05 0.000352059587213601 0.000187340427732047)
(1.15316404248805e-06 0.000435761379624424 0.000249185424796954)
(-1.12119441651217e-06 0.00048812908270241 0.000310381402963182)
(0.000153741937367793 -0.000101963487928558 7.10439460313698e-05)
(6.77382728935288e-05 0.000123474751785288 0.00011526924967293)
(2.46068832725442e-05 0.000281869819300034 0.000172122641494255)
(6.13712980557573e-06 0.000363251895402901 0.000229430800100137)
(-7.20635261188821e-07 0.000413422297779686 0.000283834339867197)
(-1.29778494088507e-06 0.000447547231291186 0.000338171741698333)
(0.00018535644816408 -0.00014674426132657 6.2833015800238e-05)
(8.8763769337597e-05 7.10621247166646e-05 0.0001040881257028)
(3.78771929798999e-05 0.000223372025771933 0.000156697014343842)
(1.34409384277053e-05 0.000302358018468119 0.000210115282174235)
(2.0224879274448e-06 0.000351737623459007 0.000260304702506864)
(-1.81071794681791e-06 0.000384504735364448 0.000307973654907039)
(-1.36786068989552e-06 0.000407354570273696 0.000356032983856154)
(0.000213526637462469 -0.000184427462981018 5.29588255456045e-05)
(0.000108581698055757 2.80618289649304e-05 9.26469681621355e-05)
(5.1557706650074e-05 0.000174964375792347 0.00014114890828624)
(2.23146880492588e-05 0.000250802789065755 0.000190700287473566)
(6.64953091373096e-06 0.000299064265167826 0.000237588463051194)
(-5.6263491937035e-07 0.000331581798440329 0.000281364315400674)
(-2.45623607350668e-06 0.000353553751541603 0.000323191745250451)
(-1.38486244880202e-06 0.000368947795324228 0.00036553404370294)
(0.000236815078756436 -0.000215633368614209 4.47396032052121e-05)
(0.000125875212771417 -7.41177855671609e-06 8.12324070799129e-05)
(6.44012185745518e-05 0.000134712924282475 0.000125616025910007)
(3.16239066970821e-05 0.000207568002654356 0.000171340086546556)
(1.25495345164794e-05 0.000253919506847661 0.00021504532950703)
(2.20390584351331e-06 0.000285905028125507 0.000256017971853152)
(-2.21100793853441e-06 0.000307878342181095 0.000294351212323971)
(-2.835081559711e-06 0.000322705907510975 0.000331102632580973)
(-1.37406723267967e-06 0.000332918348962535 0.000368324611776869)
(0.000254309387253578 -0.000239696202133688 3.75663134466419e-05)
(0.000139580927983623 -3.62406516815348e-05 6.96769998474775e-05)
(7.54185617834065e-05 0.000101162233493246 0.000109998972013733)
(4.03588258198368e-05 0.000171234905741838 0.000152088826307451)
(1.88806767057279e-05 0.000215622942320385 0.000192794733042463)
(6.00006449344896e-06 0.0002464067032706 0.000231227520003276)
(-7.59220981430067e-07 0.000268158749156865 0.000267228831902941)
(-3.24375071780581e-06 0.000283118384351942 0.000300907412648206)
(-3.03004465829555e-06 0.000292990016980911 0.000333172390361269)
(-1.31897682812015e-06 0.000299406122034069 0.000365855663816653)
(0.000263388487945009 -0.000258570080620612 2.6778712685982e-05)
(0.000148272001259041 -5.83335060134412e-05 5.60981506780857e-05)
(8.37080626933464e-05 7.38919323215606e-05 9.36416065013887e-05)
(4.77286164729061e-05 0.000141004011898775 0.000132738507144653)
(2.48478460393069e-05 0.000183454192092818 0.000170906019383943)
(1.0199556767474e-05 0.000212903552971086 0.000207119916876488)
(1.51654473974809e-06 0.000233867556455104 0.000241134219897482)
(-2.73216251759937e-06 0.0002487440927693 0.000272884303471453)
(-3.86406996661752e-06 0.000258786079515136 0.000302456095938847)
(-3.07269460895242e-06 0.000264999302405542 0.00033071208159791)
(-1.24095516063256e-06 0.00026843213182013 0.000359341715245085)
(0.000259815994004782 -0.000274830957019818 1.4059160547726e-05)
(0.000150298009569232 -7.77665053489849e-05 4.04920400366184e-05)
(8.83395242141347e-05 5.04577828799645e-05 7.60347667713629e-05)
(5.30871948182582e-05 0.000115178253078282 0.000113038379308794)
(2.9846695189851e-05 0.000156084667148455 0.000149322353887479)
(1.42142410663478e-05 0.000184439984270534 0.00018375775071464)
(4.17818810730643e-06 0.000204614183476867 0.000216114937904435)
(-1.55149608562744e-06 0.000219029306959429 0.000246306466052398)
(-4.01638611522794e-06 0.000229104393599626 0.000274297419958431)
(-4.20466569363953e-06 0.000235536670820125 0.000300217359102934)
(-3.02879442493383e-06 0.000238901077904369 0.000324945495693526)
(-1.15867241111412e-06 0.000239799047617658 0.000349926852152004)
(6.22544259816273e-06 0.000608287774877562 0.000110514936258638)
(2.86581911083423e-05 0.000305823981264526 0.000103753486857587)
(4.46196512760975e-07 0.000640684610956616 0.000174468702868755)
(5.44518575038173e-05 0.00016368277037426 9.70959301009996e-05)
(1.01503907569934e-05 0.000443433504576096 0.000160754003197264)
(-1.15296983061895e-06 0.000634442040638821 0.000237895599983249)
(8.52542072038069e-05 7.14407846610191e-05 9.17502909232803e-05)
(2.51118119193396e-05 0.000326440934456276 0.000149331821478669)
(2.01029317430193e-06 0.000505693610761259 0.000219493440919942)
(-1.62698108884199e-06 0.0005948853698209 0.000292296752858209)
(0.000119451974117421 -2.93723275495848e-06 8.58458147431364e-05)
(4.37069545373849e-05 0.000239872145595341 0.000138232050813587)
(9.84402350097184e-06 0.000410388854122178 0.000203531303419477)
(-1.02086144398471e-06 0.000495900409665143 0.000269401069283175)
(-1.86888377155715e-06 0.000548399395339211 0.000334485704103403)
(0.000154708927574896 -6.49991293286465e-05 7.85895243308626e-05)
(6.50126772006641e-05 0.000168674894130392 0.000126671603958603)
(2.100858293783e-05 0.000332882196657615 0.000187724817679033)
(3.18887006617014e-06 0.00041631535346667 0.000249031400556587)
(-2.55774120417769e-06 0.00046685098261172 0.000307071380592985)
(-1.91931803215184e-06 0.000500507900377639 0.000364972043685552)
(0.000188808268973861 -0.00011653236924088 7.07833905505374e-05)
(8.72396761842937e-05 0.000109947232895051 0.000114795467038258)
(3.45513890845919e-05 0.000267986926572054 0.000171494495992214)
(1.0143180471996e-05 0.000349193249973523 0.000228893805667353)
(-5.23531806662043e-07 0.00039922330117551 0.000282675327303648)
(-3.35734094918246e-06 0.000431750061308798 0.000333596548917549)
(-1.88718504609156e-06 0.000453827538779649 0.000384880728087255)
(0.000219733446996983 -0.000159316686475304 6.14451268128452e-05)
(0.000108653363230828 6.15293809325236e-05 0.000102725888318074)
(4.89975465336692e-05 0.000213968255168554 0.000155072215598052)
(1.91295438006498e-05 0.00029210894564239 0.000208495839027882)
(3.74715863037855e-06 0.000341250788482135 0.000258891605027103)
(-2.74177700468037e-06 0.000373803543089159 0.000305829489385915)
(-3.76174877868746e-06 0.000395225604508929 0.000350579141063681)
(-1.82037063260552e-06 0.000409681869783413 0.000395805158689407)
(0.000245912934478225 -0.000196178230016408 5.1123282303513e-05)
(0.000127831596703111 2.11510064924152e-05 9.04848598935058e-05)
(6.29691442578773e-05 0.000168787915888765 0.000138610033674022)
(2.89547535515114e-05 0.000244023641314379 0.00018807870716914)
(9.66430164678794e-06 0.000291408719112296 0.000235174879791579)
(-3.20420378936915e-07 0.000323655825727182 0.000279211717982521)
(-4.07406904844735e-06 0.000345316623159833 0.000320333075815508)
(-3.93981834481991e-06 0.000359400368512728 0.00035967497207615)
(-1.73951443785281e-06 0.000368572386721038 0.000399445897674333)
(0.000266158421803418 -0.000228164460047798 4.26805352862039e-05)
(0.000143574050554415 -1.30456320456925e-05 7.82053122903604e-05)
(7.53703137532046e-05 0.000130551598213697 0.000122135855829603)
(3.85129725093761e-05 0.00020331174102845 0.000167776671346394)
(1.63424324181836e-05 0.000248925541854291 0.000211698950828892)
(3.43095541688047e-06 0.000280151708608598 0.00025305278792085)
(-2.94844237663645e-06 0.00030180228289031 0.000291726241644534)
(-4.83966044110921e-06 0.000316230190552764 0.000327853201634494)
(-3.97220105827605e-06 0.000325238460826947 0.00036239949946692)
(-1.62931568851605e-06 0.000330556470021191 0.000397323950954244)
(0.000279484171615839 -0.000254197445971325 3.46109293880996e-05)
(0.000154881107520619 -4.18234902746737e-05 6.56036382532617e-05)
(8.53229143400744e-05 9.79558465323593e-05 0.000105391016363163)
(4.69514098368805e-05 0.000168506620282391 0.000147478976338697)
(2.2927123855645e-05 0.000212566636408923 0.000188513584722359)
(7.87202556515112e-06 0.000242707898955152 0.000227428949670133)
(-7.36292804565691e-07 0.000263791487019006 0.000263965023360102)
(-4.60809078584411e-06 0.000278375056005543 0.000298055848818546)
(-5.21258078730215e-06 0.00028779460703601 0.000329789512959741)
(-3.86066739534909e-06 0.00029312494520428 0.000360071433011717)
(-1.49889721140892e-06 0.000295480013535755 0.000390694579088479)
(0.000282175362818105 -0.000277170324344416 2.16948745074369e-05)
(0.00016022112695772 -6.52605001706515e-05 5.02982174876468e-05)
(9.19262929946225e-05 7.06444784614379e-05 8.75757464095582e-05)
(5.35665483919121e-05 0.000138932929015326 0.000126865910912854)
(2.87289130981509e-05 0.000181528031622705 0.000165563140474556)
(1.23402599696308e-05 0.000210677467118656 0.000202428993299071)
(2.08604203187462e-06 0.000231103266385632 0.00023713358873487)
(-3.50071067196026e-06 0.000245384476440521 0.000269537899686746)
(-5.59826083381998e-06 0.00025503103397155 0.000299583670550125)
(-5.31749676397264e-06 0.000260795545858965 0.000327397950200813)
(-3.66398169666208e-06 0.000263292137456474 0.000353882722104251)
(-1.36470666751401e-06 0.000263225918504537 0.000380685476228574)
(0.00026982303318836 -0.000300994594916977 6.9435457201519e-06)
(0.0001577834842505 -8.80497863195901e-05 3.22630047979928e-05)
(9.42591854073623e-05 4.59410646652456e-05 6.80471198670904e-05)
(5.77329800830969e-05 0.000112917606658769 0.000105641005207248)
(3.32068895610831e-05 0.000154570464168035 0.000142744186386401)