/*--------------------------------*- C++ -*----------------------------------*\
  =========                 |
  \\      /  F ield         | OpenFOAM: The Open Source CFD Toolbox
   \\    /   O peration     | Website:  https://openfoam.org
    \\  /    A nd           | Version:  12
     \\/     M anipulation  |
\*---------------------------------------------------------------------------*/
/*   Windows 32 and 64 bit porting by blueCAPE: http://www.bluecape.com.pt   *\
|  Based on Windows porting (2.0.x v4) by Symscape: http://www.symscape.com   |
\*---------------------------------------------------------------------------*/
FoamFile
{
    format      ascii;
    class       volScalarField;
    location    "200";
    object      k;
}
// * * * * * * * * * * * * * * * * * * * * * * * * * * * * * * * * * * * * * //

dimensions      [0 2 -2 0 0 0 0];

internalField   nonuniform List<scalar> 
10123
(
0.000210211801216374
0.000214756403502665
0.000594331227171573
0.000210755952341691
0.000218721710488407
0.000607446254128672
0.000215330285052555
0.000871418481487457
0.00059445832868004
0.000211465583485927
0.000222158934818848
0.000618848135048843
0.000219307945252578
0.000890599737475119
0.000607597789004696
0.00021609137634161
0.00109462685496076
0.000870755360937458
0.000593196701437175
0.000209975823658423
0.000225150154030757
0.000628718672250159
0.000222775466823748
0.000907293003659829
0.000619014777949865
0.000220086490942245
0.0011185753345447
0.0008899410744953
0.00060634853132108
0.00021459319359785
0.00128767262349822
0.00109331865005896
0.000866198204533639
0.000587678866255529
0.000205620784390874
0.00022770072290006
0.000637183496076065
0.000225782626043416
0.000921765838356896
0.000628894146125149
0.000223594009503367
0.0011394690019214
0.000906632241978307
0.000617772316942652
0.000218575835161344
0.00131562936649228
0.00111726095853643
0.000885324900698025
0.000600748982253254
0.000210154921363269
0.0014602212404129
0.00128547482919134
0.00108613237520157
0.000855965630563007
0.00057625856198431
0.00019919552043413
0.000229861475793006
0.000644404136588927
0.000228346259573085
0.00093422219608745
0.000637366591418732
0.00022662575273205
0.00115761326037557
0.000921097983068056
0.000627654394090801
0.000222085569443425
0.0013400761223518
0.00113813995268364
0.000901969222630451
0.000612111197555426
0.000214072632600599
0.00149167565426483
0.00131341223360273
0.00110996586146307
0.000874915075523435
0.000589101391573036
0.000203583980040068
0.00161701027454034
0.00145693709068052
0.00127588427011564
0.00107176691148986
0.00083889393366868
0.000559598823061701
0.000191805410816996
0.000231683339364622
0.000650531268214263
0.000230518668328765
0.000944878217974335
0.000644592618251097
0.000229210488945038
0.00117326685750116
0.000933548994955062
0.000636133175626002
0.000225112276500823
0.00136134106116705
0.00115626537796946
0.000916389823630567
0.000621928184203561
0.000217533949786539
0.0015192260794548
0.00133782676962831
0.0011307533690008
0.000891414175586926
0.000600282000844892
0.000207402171483742
0.00165158099522537
0.00148835594166086
0.00130367414292098
0.00109534554108908
0.000857508820438855
0.000572064642499307
0.000195915787982134
0.00176082986816742
0.00161278855778188
0.00144500528923449
0.00125779938469394
0.00104968354408928
0.000815413527732184
0.0005392885938779
0.00018532885965787
0.000233213107553527
0.000655704116275922
0.000232349800594647
0.000953939960248403
0.000650726200035935
0.000231402327241786
0.00118668587099149
0.000944200744793171
0.000643367793351977
0.000227694079593796
0.0013797210283801
0.00117190344271397
0.000928808065486065
0.000630360077401823
0.00022051129080935
0.00154323114983129
0.00135905944763096
0.00114880030332094
0.00090571106538149
0.000609930083185223
0.000210761793655026
0.00168190121633109
0.00151585550915458
0.00132795915323664
0.00111592097438012
0.00087372656120015
0.000582931103414204
0.000199550586546283
0.00179821452020244
0.00164730975511264
0.00147623994416622
0.00128527144706412
0.00107283871464146
0.000833534213030128
0.000551195611243921
0.000188158405481264
0.00189356357723462
0.00175597488126742
0.00159884594007424
0.0014235407622208
0.0012311612058074
0.00102045911224211
0.00078665284924842
0.000516540350618605
0.000181435613952236
0.000234492488161916
0.000660050901532253
0.000233888866291708
0.000961602109649809
0.000655905077045413
0.000233250875737847
0.00119811706773938
0.000953259449498352
0.000649512137036682
0.000229885154250403
0.0013955029081412
0.00118530938352503
0.000939435908422928
0.000637559544475431
0.000223052630243086
0.00156401053022216
0.0013774106458481
0.00116437488463845
0.000918029664812719
0.000618224912606874
0.000213651836587022
0.0017083574161774
0.00153981154338642
0.00134908165474241
0.00113379013495765
0.000887784140510315
0.00059231283626819
0.000202760467486173
0.00183104455452212
0.00167756600792115
0.00150357619197686
0.00130928648964922
0.00109305242403582
0.000849328730027342
0.000561615225726227
0.000191103101880328
0.00193352551976459
0.00179330310418718
0.00163315183737473
0.00145440077242964
0.00125812988517931
0.00104302491264225
0.000804131242801951
0.000527581152048643
0.000184048154581303
0.0020164923565764
0.00188831285685752
0.00174049543245959
0.00157451200517382
0.00139283191663527
0.00119680118550966
0.00098501628719391
0.000753390116691744
0.000491215056956665
0.000180040690468086
0.000235559264725452
0.000663687972028063
0.000235175433879442
0.000968046394952925
0.000660257173969692
0.000234805138677587
0.00120779610949456
0.000960919399325414
0.000654702499115313
0.000231735343713233
0.00140896615761522
0.00119672970380857
0.00094847790529455
0.000643679332716085
0.000225211255758395
0.00158187672513966
0.00139316767143024
0.00117773062996916
0.000928578436779729
0.000625316664362315
0.000216120895127802
0.00173128750899817
0.00156054707956028
0.00136734157674177
0.00114921840688101
0.00089990380537977
0.00060038464999142
0.000205532111795971
0.00185972383612288
0.0017039601278816
0.0015273920023711
0.00133018303553892
0.00111061683008695
0.00086302753472534
0.000570632409064096
0.000194002493433512
0.00196865471873625
0.00182606120232446
0.00166321894726047
0.00148142025783895
0.00128171517363304
0.00106272857851122
0.000819375119173094
0.000537400970549215
0.000183111036789401
0.00205883485635925
0.00192821667715914
0.00177758980804197
0.0016083982886223
0.00142311937559317
0.00122309056845178
0.00100684034864877
0.00077007328239639
0.000501480417682936
0.000176515017279997
0.00213042321100855
0.00201097254172205
0.00187168790758814
0.00171385143070827
0.00154030645193271
0.00135391388404327
0.0011556087203778
0.000943946260196053
0.000715741033513835
0.000463720221384404
0.000164670309391861
0.0002364469372154
0.000666719411080911
0.000236249179043817
0.000973440175734072
0.000663898893141807
0.000236104785930908
0.00121594488638173
0.000967361970759845
0.000659065938171574
0.000233290612580387
0.00142037961765849
0.00120639972571212
0.000956126661782316
0.000648852697842443
0.000227035279452114
0.00159713634355245
0.00140660974482122
0.0011891119939332
0.000937558607105905
0.000631349412552657
0.000218220104441895
0.0017510253848842
0.00157837509343841
0.0013830244521389
0.00116245526429292
0.000910289602316592
0.000607293546266896
0.000207906397799604
0.0018846070059414
0.00172683453221194
0.00154800995998857
0.00134825513823641
0.00112579003629779
0.000874845001791356
0.000578407753961197
0.00019659828095842
0.00199937159965142
0.00185467060899279
0.00168944919765705
0.00150496830577413
0.00130224812514339
0.00107985906988199
0.000832606365057439
0.000545931760570308
0.000185108760936955
0.00209608678956379
0.00196327014636307
0.00181014127749533
0.00163811107972988
0.00144965149889765
0.00124609092046176
0.00102590344544902
0.000784681621243569
0.000510822715103129
0.000181999617780019
0.00217497444020883
0.00205325695818548
0.0019113463482667
0.00175049564971739
0.00157356491769088
0.0013834439025469
0.00118105920015512
0.0009648911979498
0.000731555617357901
0.000472928118585072
0.000169471285886315
0.0022358350507397
0.00212468717967768
0.00199344618032845
0.00184318431946452
0.00167670479477601
0.00149740500777503
0.00130769125875084
0.0011080986369609
0.000897487121465189
0.000673958060955325
0.000430958080504773
0.000144367337342887
0.000237184462525963
0.000669241296752048
0.000237141022626983
0.000977935842094882
0.0006669350435673
0.000237189643914477
0.00122276927234837
0.000972754305235777
0.000662718432825476
0.000234591999184003
0.00142999796081878
0.00121454099757675
0.00096256211966935
0.000653204445760181
0.000228569842463717
0.00161008634492848
0.00141800528814132
0.00119875227128047
0.000945159546912681
0.000636453232531621
0.000219995731900405
0.00176790122545129
0.00159360201037703
0.00139640720373974
0.00117374112070841
0.000919136736048849
0.000613174801868026
0.000209925394642425
0.00190604695944797
0.0017465238247678
0.00156574113931445
0.00136378359479027
0.00113881526363559
0.000884978353107621
0.000585070444246165
0.000198861459856381
0.00202604638333572
0.00187949103035913
0.00171218523925835
0.00152536211996454
0.00132001435765
0.00109466480435782
0.000844029192362217
0.000553328059957473
0.000187384892338909
0.00212868505255718
0.00199391315393502
0.00183857099099237
0.00166404062028211
0.001472785310103
0.00126612334639872
0.00104248284651418
0.000797352459402018
0.000518771428499494
0.000185109233569596
0.00221419383790125
0.00209043130657804
0.00194618227449253
0.00178266570650288
0.0016027432969629
0.00140932474911019
0.0012033328924286
0.00098320253906512
0.000745574887171865
0.000482362567541452
0.00017375978948583
0.00228243566446411
0.00216918089421013
0.0020354778897703
0.00188237022353892
0.00171267978886616
0.00152984359491874
0.00133629593608042
0.00113256090005984
0.00091743082076207
0.000688865500396709
0.000440737941728465
0.000149459349949162
0.00233302529943534
0.00222990335159327
0.00210639759482457
0.00196338983778405
0.00180354627193581
0.00163034477462033
0.00144675995982465
0.00125464561862153
0.00105451371767
0.000845816935503568
0.000627572386933188
0.000393368432454807
0.000122094399821696
0.000237796327940529
0.000671333896477567
0.000237882790684817
0.000981667468336778
0.000669459443889098
0.0002380912773098
0.00122845751551957
0.000977248283461056
0.000665764560353319
0.000235677995874142
0.00143805871108456
0.00122135911079763
0.00096795022709599
0.000656849154833346
0.000229855015444703
0.00162100940156585
0.00142760851213959
0.00120687114496224
0.000951558328668563
0.000640749775654688
0.000221491168864289
0.00178223607244872
0.00160652414975317
0.00140775587321084
0.00118330543413353
0.000926629825250412
0.000618155077473729
0.000211635213571156
0.00192439452270082
0.00176335781927943
0.00158088943214105
0.00137704071638044
0.0011499267804506
0.000893615612480215
0.000590746124997626
0.000200768852288348
0.0020490492812062
0.00190087618087258
0.00173175980480134
0.00154290772458613
0.00133528748793749
0.00110738097743215
0.000853829307557789
0.000559672944202574
0.000189457208566796
0.00215701489616284
0.00202052151245637
0.00186323923250939
0.00168652394234424
0.00149282937532439
0.00128346409870986
0.00105681823145821
0.000808295624480876
0.00052568574737089
0.000187056087874589
0.00224853545056709
0.00212295350060851
0.0019766356753842
0.00181077092137541
0.00162821770837704
0.00143190021633898
0.00122273870893483
0.00099912745420399
0.00075762436289438
0.000489999031177472
0.000177413911927413
0.00232347785957172
0.00220832147650382
0.00207242745860271
0.00191680528611266
0.00174427904392624
0.00155831553644489
0.00136137492790281
0.00115397780199836
0.000934905487893666
0.000702138758993973
0.000449259476457659
0.00015386671496432
0.00238151644821637
0.00227644686692077
0.00215063305353549
0.00200493206537807
0.00184203011102296
0.00166544845219274
0.00147820247368661
0.00128216750526354
0.00107784583715565
0.000864647142751271
0.000641641417673267
0.000402784636837526
0.00012663724255419
0.00242222307219881
0.00232690897311807
0.00221093420516862
0.00207499224628371
0.00192159438999384
0.00175416303045641
0.00157579442200915
0.00138885866254508
0.00119501051170385
0.000995023933291447
0.000788953661088486
0.000576393528499866
0.000351739341408813
9.9182277902017e-05
0.000238306139278408
0.000673066175423562
0.000238498707424735
0.000984757505874325
0.000671554263282116
0.000238841512818165
0.00123317934156458
0.000980979603031581
0.000668297898905425
0.00023658290387915
0.00144478017122931
0.0012270420922976
0.000972441915622368
0.000659890186343273
0.000230928148805086
0.00163016997537485
0.00143565652214824
0.00121367256868258
0.000956918452654159
0.000644350716054035
0.000222745205319579
0.00179433674746081
0.00161742348083517
0.00141732243116502
0.0011913643695547
0.000932941672021316
0.000622351660725317
0.000213079240318617
0.00193999219709831
0.00177765692185284
0.00159374842699542
0.00138828812998971
0.00115934845462928
0.000900935354035483
0.000595553185901806
0.000202374266830105
0.00206874976127538
0.00191917650476839
0.00174849994694162
0.00155790395497094
0.00134833307934667
0.0011182341287432
0.000862187293740839
0.00056509787328367
0.000191220823322358
0.00218146264290371
0.00204346636513237
0.00188449785183796
0.00170588846436059
0.00151008195181647
0.00129837799687107
0.00106913520393248
0.000817683456419214
0.000531552334819574
0.000184636826188889
0.00227839942817121
0.00215121484383619
0.0020030832604994
0.00183516588808407
0.00165031587113876
0.00145146855348666
0.00123954282584403
0.00101289914427085
0.000768009923401247
0.000496445337811071
0.000179976341138489
0.00235943442339972
0.00224258542255305
0.00210475341337645
0.00194691718636809
0.00177189739668569
0.00158318340534205
0.00138325812082771
0.00117264073348658
0.000950084519581726
0.000713510905061208
0.000456565726118372
0.000157626235845273
0.00242423905714457
0.00231740909506938
0.00218954328548892
0.00204146603241621
0.00187586585580923
0.0016962962251406
0.00150580940073966
0.00130630350925504
0.00109828333633371
0.000881149302430707
0.00065390794190704
0.000410894334910498
0.000130606318488207
0.00247243192423742
0.00237534332322892
0.00225721458870057
0.00211872421954884
0.00196240772097644
0.00179173333456614
0.00160984231979538
0.00141913876069704
0.00122129679288463
0.00101708846839202
0.000806574321060929
0.000589495055378904
0.000360394809741029
0.000102987479106478
0.00250365582036981
0.00241593229995741
0.00230732253545449
0.00217832514344646
0.00203128934205103
0.00186953695132736
0.00169613960541306
0.00151357412710502
0.00132393232710703
0.00112895542645425
0.000929752003843638
0.000726860693801085
0.000520456005712061
0.000306646894221006
7.63997722656297e-05
0.000238731413404615
0.000674505218690403
0.000239011517349114
0.000987313331488964
0.000673290769913314
0.000239464932496054
0.00123708572082805
0.000984069396142866
0.000670400906170867
0.000237335570208009
0.00145036003827361
0.00123175945293955
0.000976172627718972
0.000662420687319152
0.000231822623337093
0.00163781222419596
0.00144236725261312
0.00121934320068355
0.000961388816584871
0.000647356997906241
0.000223792959304511
0.00180449168417593
0.00162656402815588
0.00142534199131798
0.00119811875009144
0.000938231881096812
0.00062587137102591
0.000214291850711171
0.00195316819370339
0.00178972723849157
0.0016045974761518
0.00139777371108287
0.00116729135078685
0.000907104821397562
0.000599610925760098
0.000203747277002444
0.00208550958587335
0.00193473378281634
0.00176272311682928
0.00157063948509986
0.00135940646941309
0.00112744102631985
0.000869272644084757
0.000569666482967276
0.000192357213410367
0.00220241506925533
0.0020631168052003
0.00190269438906741
0.00172245583104337
0.00152483456773038
0.00131112221301912
0.00107965176261123
0.000825703179911736
0.000536752426259666
0.000190144538175181
0.00230418733448332
0.00217560274264602
0.0020258943369139
0.00185619696517391
0.00166935698640231
0.00146831852368065
0.00125400007778327
0.00102473330246151
0.000776886849937937
0.000501109033041301
0.000180950337199354
0.00239072023410674
0.00227237934608563
0.00213284827185025
0.00197307689200944
0.00179587977054127
0.00160476397097825
0.00140223252264162
0.00118880508286766
0.000963205953815158
0.000723285764506129
0.00046274115446888
0.000160687083626411
0.00246168596950783
0.00235328650579908
0.00222360585760511
0.00207343763683699
0.00190546608910028
0.00172326863062816
0.00152992949440453
0.00132736865423084
0.00111609304898883
0.000895482362556628
0.000664520996059472
0.000417860079085912
0.000134027943762267
0.00251668824415669
0.0024179847484443
0.00229794159301884
0.00215720674078878
0.0019983191836703
0.00182478054654837
0.00163977223758488
0.00144573131212324
0.00124435381492739
0.0010364178514611
0.000821971316890651
0.000600877146936178
0.000367866937334953
0.000106332292587625
0.0025553738746677
0.0024660848376768
0.00235548933650103
0.00222408969160323
0.0020742694830852
0.0019094010839471
0.00173260393627033
0.00154639253980761
0.00135288910645347
0.00115385737999644
0.000950421896356729
0.000743180125015637
0.000532435795056695
0.000314336292206371
7.94117515652028e-05
0.00257751393369085
0.00249720032701074
0.00239578450826071
0.00227362697751329
0.0021329122401447
0.00197684004425433
0.00180840135941154
0.00163004161211099
0.00144392599840125
0.001252150510304
0.00105662939574792
0.000858760678047854
0.00065949829778836
0.000459864921608914
0.000258378191996485
5.42409420790371e-05
0.000239085725144821
0.000675698700163656
0.000239439414222394
0.000989420398778861
0.00067473111721036
0.000239983830712094
0.0012403089379239
0.000986623314574123
0.000672145092960248
0.000237961131648937
0.00145497490373864
0.00123566207464006
0.000979262524517583
0.000664522261811273
0.000232566524246748
0.00164415799039394
0.00144793810010744
0.00122405146219894
0.000965103316304784
0.000649859533012889
0.000224665605449921
0.00181296768437576
0.0016341893947987
0.00143203073984218
0.0012037525266196
0.000942645992133185
0.00062881119530342
0.000215305724025123
0.00196423240495593
0.00179985649174584
0.00161369829059104
0.00140572888272533
0.00117395166742363
0.000912278259426894
0.000603017756494323
0.000204907968515299
0.00209967657490545
0.00194787557941155
0.00177473255088025
0.0015813890621235
0.00136874973273859
0.00113520629118548
0.00087524829793298
0.000573540335247558
0.000193554899399807
0.00222025122961252
0.00207983387779299
0.00191816748817522
0.00173653819833685
0.00153736901501897
0.00132194425198791
0.00108857580317039
0.000832495404248066
0.000540885473509316
0.000183271357989306
0.00232630155306989
0.0021965034491188
0.0020454349986822
0.00187420602426073
0.00168565493397783
0.00148273265406053
0.00126635804179786
0.0010348429225222
0.000784536830492927
0.000506666791075732
0.000183613707675983
0.00241775099142434
0.00229810598858904
0.00215709765287276
0.00199564809446607
0.00181656396998776
0.00162336638207931
0.00141857619925133
0.0012027147728118
0.000974475582823433
0.000731482701777406
0.000467954895843594
0.000163074540537088
0.00249428559103877
0.0023845008166567
0.00225322888277093
0.00210123363887416
0.00193119181362897
0.00174669917015652
0.00155086766296805
0.00134563782012128
0.00113151952105771
0.00090787189076695
0.000673669697902339
0.00042377978873807
0.000136934581546529
0.00255550213958306
0.00245535105597535
0.00233361313578204
0.00219090444169121
0.00202975900548328
0.00185370241004842
0.00166595032535795
0.00146897031764959
0.00126447997731344
0.00105326364647478
0.000835359699019109
0.000610728149123575
0.000374297714047098
0.000109223773378675
0.00260101264906773
0.00251025902140601
0.00239789109460843
0.00226437839083904
0.00211210978948823
0.00194449281059281
0.001764688744267
0.00157524807525607
0.00137832322665076
0.00117570205429622
0.000968521388636055
0.000757425097560392
0.000542845101115011
0.000320986886598486
8.20722828788779e-05
0.00263051331072316
0.00254886462594438
0.00244566586848593
0.00232126682929123
0.00217790461152613
0.00201883996532139
0.0018471163254228
0.001665219200514
0.00147534711851683
0.00127962796721189
0.00108000598679863
0.000877922604296516
0.000674406726917773
0.000470576943392215
0.000264979431939801
5.64576884106197e-05
0.00264358574878155
0.0025708986607361
0.00247654403812017
0.00236110739795486
0.00222667129040424
0.00207630727522429
0.00191289661778276
0.00173879770696842
0.00155612843163557
0.00136702260702669
0.00117366922145858
0.000978136085010176
0.000782049900585947
0.000586826540969619
0.000394686740978304
0.000207075856836287
3.34913527174624e-05
0.00023937994158227
0.000676684509898303
0.000239795719665881
0.000991156728511546
0.000675924996010669
0.000240416959434668
0.00124296221288315
0.000988730206879719
0.000673590973256072
0.000238481790622479
0.00145877928669044
0.00123888193726426
0.000981816323916043
0.000666265187042224
0.000233184887461113
0.00164940574787209
0.00145254519230125
0.00122794718015029
0.000968180585344942
0.000651937860161769
0.000225391187319552
0.00182000780316349
0.00164052093734743
0.00143758454697805
0.00120843181818807
0.000946314947619887
0.000631258503541805
0.000216149305830975
0.00197347173241088
0.00180831084409928
0.00162129238139722
0.00141236656448931
0.00117950926978191
0.000916596467658776
0.00060586502627537
0.000205881208296402
0.00211157942041076
0.00195891076366413
0.00178481331310116
0.00159041021419148
0.0013765890162219
0.00114172018024319
0.000880261667650001
0.000576801435161752
0.000194622141002602
0.00223533678894204
0.00209396458125932
0.00193124167013193
0.00174843379617361
0.0015479536435723
0.00133107898406672
0.00109610492581996
0.000838227616044865
0.00054448019460854
0.000183367604419053
0.00234513755570472
0.00221429553185043
0.00206206303688778
0.00188952612063386
0.00169951451046038
0.00149498427686852
0.00127685500153293
0.00104342121086299
0.000790965838122804
0.000509612275909008
0.000183803599821458
0.00244094344609553
0.00232016735987144
0.00217788471111413
0.00201499102293843
0.00183428374215588
0.00163929499987756
0.00143256137875467
0.00121460750452711
0.000984117558786995
0.000738819649081407
0.000472467659224534
0.000165379217236257
0.00252246585781
0.00241146900751568
0.00227881336421232
0.00212523394781767
0.00195339789996443
0.0017669151666071
0.00156892178168899
0.00136137730631287
0.0011447948967671
0.000918493141991103
0.000681520925778314
0.000428783124235557
0.000139380695227875
0.00258931000510484
0.00248787774465554
0.00236465268230939
0.00222021965415102
0.00205710372576724
0.0018788481338247
0.00168869776876533
0.00148914795579848
0.00128193700975776
0.00106785683269148
0.000846941553311817
0.000619206823990058
0.000379797762916807
0.000111703143613101
0.00264107302660243
0.00254899082258419
0.00243504741081187
0.00229967588492855
0.00214525866757206
0.00197522699338023
0.00179277699235657
0.00160049184464598
0.00140055275467059
0.00119477129403673
0.000984297081306256
0.000769807174837339
0.000551855056942367
0.000326717708257448
8.4365854316778e-05
0.00267740301745327
0.00259442071047697
0.00248959649267662
0.00236322078512233
0.00221753374574555
0.0020558335240948
0.00188120740500445
0.00169617838473318
0.00150297749585902
0.00130376393962556
0.00110051093067174
0.000894695018779306
0.000687416427905822
0.000479889703618205
0.00027069063586829
5.84268953834019e-05
0.00269797176069074
0.00262385425266973
0.00252793603404986
0.00241045206717098
0.0022735206397528
0.00212029175956118
0.00195370935821475
0.00177617603728548
0.0015898448212959
0.00139688349547635
0.00119951687747419
0.000999856466765823
0.000799588687435281
0.0006002017823042
0.000404002560098093
0.000212514262123287
3.49493900202928e-05
0.00258019255729514
0.0027022316706889
0.00263683640341641
0.00254978116111477
0.00244098341693105
0.0023127589726456
0.00216811640876466
0.00200981867845333
0.0018401069284059
0.0016610023419995
0.00147457604836199
0.00128301792601661
0.00108860033156246
0.000893494186597468
0.000699534140756633
0.000508774045401717
0.000325107929252037
0.000153253242018251
1.58733978295087e-05
0.000239617184645013
0.000677498142196621
0.000240092751939642
0.000992584863260562
0.000676912133939727
0.000240778180439903
0.00124514065706741
0.000990465795324072
0.000674788563267897
0.000238916518388769
0.00146190630905404
0.00124153206962276
0.000983923155592396
0.000667709800176737
0.000233699592552786
0.00165372981339311
0.00145634291666294
0.00123116141248559
0.000970723914508163
0.000653661583907438
0.000225994001096456
0.00182582993237462
0.00164575664935309
0.00144217818580263
0.00121230443019548
0.000949354835748295
0.000633290326521221
0.000216849219381395
0.00198114829605653
0.00181533275859655
0.00162759925570697
0.00141787977306995
0.00118412670142987
0.000920186251437148
0.000608234271475411
0.000206690654990839
0.00212152354775137
0.00196812565730836
0.00179322920647515
0.00159794070797665
0.00138313251996046
0.00114715722429903
0.000884447368274602
0.000579532734759452
0.000195540840905506
0.00224801773868419
0.00210583675651476
0.00194222287173702
0.00175842308506429
0.00155684012820384
0.00133874595101957
0.00110242241461187
0.000843039533588036
0.000547531723314081
0.000183908463239755
0.00236107692132036
0.00222934367216825
0.00207612222131046
0.00190247646189732
0.00171122706110739
0.00150533388082953
0.0012857175942841
0.00105065941029128
0.000796397688941068
0.000512706688718051
0.000184609305785499
0.00246070777636425
0.00233895820240768
0.00219558471445235
0.00203145765521842
0.0018493644033231
0.00165284562922497
0.00144445162361492
0.00122471028687926
0.000992290709749496
0.00074479779535671
0.000475987365947285
0.000167081098344953
0.00254665610445893
0.00243460747593538
0.00230075819123861
0.00214581569269649
0.00197243616435293
0.00178424042506963
0.00158438537017256
0.00137484798824873
0.00115614816841457
0.000927616790835757
0.000688198929823903
0.000433082148329784
0.000141490450285805
0.00261854877773726
0.00251599414548479
0.00239147552179479
0.00224554759384466
0.00208072420812678
0.00190056176203612
0.00170833017424806
0.00150654977870148
0.00129697835519353
0.00108041346132814
0.000856898177580855
0.000626467848250307
0.000384475025475253
0.000113815089459354
0.00267598719731615
0.00258272440360546
0.00246739576187334
0.00233039981552618
0.00217410797754823
0.00200196804054054
0.00181720521980271
0.00162243192387844
0.00141985616386669
0.00121131247075358
0.00099796461874814
0.000780508826106876
0.00055960897789993
0.000331632902633028
8.63314806536464e-05
0.00271860302120184
0.00263439774208024
0.00252811451159381
0.00239999480480774
0.00225226747179912
0.00208825322102483
0.00191107425632709
0.00172328678451797
0.00152715221937469
0.00132485962928423
0.00111841045134339
0.000909309259011185
0.000698720015948035
0.000487951643103733
0.000275605381372557
6.01080781723382e-05
0.00274607244865498
0.002670661835239
0.00257324554753269
0.00245392642448984
0.00231479950274017
0.00215905022226744
0.00198966875963249
0.00180909693086007
0.00161952130152796
0.00142314256703094
0.00122222050649079
0.00101890436270355
0.000814935537102976
0.000611872717698465
0.000412103752758646
0.00021720938318764
3.62581268660105e-05
0.00275806604313768
0.00269117903141374
0.0026024699611299
0.00249183143234021
0.0023612968096949
0.00221393289428924
0.00205258187555227
0.00187953867587943
0.00169686312382396
0.00150666143444796
0.00131116050129667
0.00111267392387809
0.00091343009878904
0.000715327254865002
0.000520491708982121
0.000332925006332318
0.000157496272940358
1.66579615882707e-05
0.00263696914969645
0.00257360691703163
0.00275425253427658
0.00269537612130391
0.00261532204263175
0.00251342871995634
0.00239138113740212
0.002252439839462
0.00209931581733151
0.00193412396354624
0.00175876044449913
0.00157519271095648
0.00138553101272127
0.00119201151276933
0.000996946839740288
0.000802566888681658
0.000611000045636383
0.000425398362674595
0.000251828883168429
9.8162035897431e-05
4.05122808001011e-06
0.000678166701178964
0.000240329056329599
0.000993754627688461
0.000677724361717392
0.000241078191277297
0.00124692378151886
0.000991891697042955
0.000675777513414106
0.000239280064526862
0.00146446890622418
0.00124370776433935
0.000985657850561334
0.0006689060741015
0.00023412919360143
0.00165728103595961
0.00145946429279682
0.00123380662649484
0.000972821734129685
0.0006550905849816
0.000226495874867787
0.00183062636821199
0.00165007060833465
0.00144596499566242
0.00121549971796955
0.000951867084927558
0.000634975548191899
0.000217429669577839
0.00198749742519143
0.00182113961972972
0.00163281530581129
0.00142244081097859
0.00118794868581193
0.000923160231617733
0.000610199418762374
0.000207357112455892
0.00212978804018466
0.00197578166120459
0.00180022060901413
0.00160419675125685
0.00138856910261328
0.00115167524882828
0.000887926734809227
0.000581804608987994
0.000196310717111105
0.00225861618852511
0.00211575502684792
0.0019513948760281
0.0017667657399701
0.00156426096825882
0.00134514738414703
0.00110769634500679
0.000847058839097813
0.000550113856555842
0.00018468423150808
0.00237448153252916
0.00224199302356556
0.00208793735454783
0.00191335805510274
0.001721066712908
0.00151402591339262
0.00129315770262175
0.00105673348536826
0.000800960679886747
0.000515337742923964
0.000177645906268145
0.00247744023623788
0.0023548592719361
0.00221055897522543
0.0020453861996795
0.00186211788785625
0.0016643012094855
0.0014544983857256
0.00123324075382869
0.000999185014906358
0.000749863877300357
0.000478920982406751
0.000168621874568524
0.00256727984942787
0.00245432564504943
0.00231945466311016
0.00216334815397747
0.00198865054032684
0.00179899083389542
0.0015975439265654
0.00138630234956688
0.00116579126275116
0.000935329233465069
0.000693844878451603
0.000436633369555859
0.000143259419513873
0.00264365814384565
0.00254012929624033
0.00241449488918717
0.00226728099465121
0.00210098892720359
0.00191918482021454
0.00172516006263736
0.00152145732411125
0.00130985261121905
0.00109115550613427