/*--------------------------------*- C++ -*----------------------------------*\
  =========                 |
  \\      /  F ield         | OpenFOAM: The Open Source CFD Toolbox
   \\    /   O peration     | Website:  https://openfoam.org
    \\  /    A nd           | Version:  12
     \\/     M anipulation  |
\*---------------------------------------------------------------------------*/
/*   Windows 32 and 64 bit porting by blueCAPE: http://www.bluecape.com.pt   *\
|  Based on Windows porting (2.0.x v4) by Symscape: http://www.symscape.com   |
\*---------------------------------------------------------------------------*/
FoamFile
{
    format      ascii;
    class       volScalarField;
    location    "200";
    object      omega;
}
// * * * * * * * * * * * * * * * * * * * * * * * * * * * * * * * * * * * * * //

dimensions      [0 0 -1 0 0 0 0];

internalField   nonuniform List<scalar> 
10123
(
2.94110491687227
2.97210466977212
1.00747405416358
2.89406345636698
2.99908319492232
1.01815746395239
2.92484800765945
0.618168585829494
0.992887012814093
2.84106664918886
3.02221606610513
1.02739325745566
2.95138621251134
0.624626341325423
1.00349138773015
2.87146901175081
0.472206916418577
0.612699966302576
0.972999784436119
2.78710825974347
3.04186199995941
1.03542617389001
2.97411125446702
0.630210347249057
1.01259910671191
2.89758489157744
0.47688628186625
0.61910807468806
0.983429655958915
2.81701512215
0.401276441625617
0.469908393464253
0.603973107946012
0.953901294555529
2.74018947945711
3.05845394090966
1.04250767075647
2.99341733872512
0.635069271818481
1.02056322532107
2.91993543180331
0.480964462719973
0.624643142235626
0.992381813955708
2.84270971075217
0.404980189209444
0.474566216157633
0.610288679417519
0.964149628419711
2.76962129023076
0.362007011388543
0.400263362171861
0.465575095201951
0.594409100086382
0.938047379283815
2.69646514147121
3.07241844046141
1.04857618417004
3.00972736133485
0.639309185432708
1.02754253012108
2.93892599012689
0.484526199942892
0.629469387278682
1.0002685148362
2.86470774362592
0.408238095829907
0.478624898254307
0.615754257885264
0.972945629435881
2.79493717902125
0.365096023555437
0.403963147283144
0.470193777317315
0.600632270148088
0.948145863824391
2.72536991154213
0.338618372799125
0.361527919584074
0.397853259211595
0.460081870875275
0.58532051694003
0.923729658943913
2.64857277433088
3.08412946645789
1.05372175689617
3.02345623451981
0.642959379438358
1.03353105040775
2.9549810247653
0.48762573600249
0.633671736951647
1.00713507670873
2.88339774696992
0.411098158709005
0.482172257648497
0.620538171852208
0.980774275367762
2.81662187679732
0.36783698836588
0.407215455766599
0.474225297695905
0.606033058039105
0.956818521556763
2.7502911989204
0.341281228181673
0.364621134268387
0.401541472203398
0.464657815840033
0.591473591846875
0.933697198864264
2.67667964704801
0.324112438461726
0.338332956557607
0.359995860090072
0.394353287703274
0.45410259202939
0.576417387500855
0.907524768661417
2.5969701797546
3.09391932966507
1.05805484952705
3.03497315246514
0.646070863516771
1.03859898761751
2.96850470101222
0.490299843421658
0.637288749808616
1.01302349890548
2.89920955085282
0.41359115513193
0.485256817697465
0.624693278122164
0.987548140279436
2.83505567768168
0.370254489913561
0.410069593360699
0.477751767494447
0.610771366776697
0.964614106126661
2.77164519674727
0.343661610323957
0.367362461107383
0.404785983843767
0.468660536047128
0.59682510694883
0.942343860615403
2.70091200478634
0.326457659593984
0.341003550835897
0.363090661578603
0.398025574666857
0.458643406047902
0.582522515622501
0.9178290650733
2.62322119377919
0.314965321925384
0.323884747946289
0.337185421434485
0.35751764782961
0.390120362094802
0.447765392982761
0.566630576980594
0.885862583944673
2.60382487216867
3.10207656323026
1.06168097769123
3.04459606814035
0.648701971058164
1.04286461674408
2.97985540364264
0.492587176737764
0.640370696701576
1.01800509257334
2.91254067554575
0.415747079432965
0.487917412992906
0.628267596879388
0.993356458747058
2.85066417241987
0.372368861011133
0.412556863212378
0.480816828378375
0.614881412384775
0.97133490858414
2.78981464049687
0.345771571252903
0.36977886952462
0.407632932831754
0.472164051792075
0.601526053183629
0.950077713072391
2.72182680064207
0.328568091035528
0.343386610786622
0.36583314170803
0.401260837376942
0.462622527652232
0.587856129483216
0.926587318146206
2.64365609913117
0.317059913355462
0.326239001194483
0.339864031627845
0.36061185016603
0.393778791412078
0.452283182622409
0.572784530341914
0.898779386351071
2.62428507651133
0.309239263848315
0.314756231877551
0.322903828757225
0.335235162021098
0.354319340128338
0.385378930512853
0.440842812185755
0.554813357347464
0.864739980988519
2.19480782889558
3.10885577932144
1.06469732001248
3.0526175933687
0.650910702663972
1.04643348652677
2.98934191355763
0.494527914713823
0.642976312090963
1.02219888804042
2.92373549312399
0.417596343420427
0.490192859884074
0.631312452659301
0.99826551579564
2.86383247760875
0.374202709369534
0.414707560516587
0.483459899324449
0.618414983200667
0.977072246226059
2.80521265432521
0.347624348598757
0.371891850841756
0.410113556654598
0.475208212784989
0.605599695744763
0.956740215548011
2.73966668762295
0.330448961944208
0.345497736468722
0.368249759962218
0.404099549782527
0.466104773101467
0.592528797822574
0.934299396281756
2.66367683593305
0.31895809427099
0.328353293176229
0.3422526319471
0.363354997565373
0.397004638545372
0.456248473103488
0.578170391141063
0.907672380560477
2.58396256528395
0.311128952333768
0.31686047469502
0.325269006637071
0.337921535493379
0.357413199203975
0.389028216564272
0.445360215013296
0.561432294776021
0.878653150137622
2.58410094368668
0.305790603914787
0.309043716022907
0.313860666942828
0.321242781107355
0.332670277886257
0.350638946886313
0.3801999913161
0.433072284236616
0.541367898951779
0.819176302170171
2.19480462754855
3.11448220624895
1.06719419389242
3.05928262667989
0.652752141636805
1.04940126787333
2.99725147428178
0.496162099231717
0.645163478796888
1.02570796242063
2.93310044535787
0.419169900834814
0.492123341483429
0.63388673267917
1.00239808391606
2.87489971132229
0.375780136346537
0.41655216476397
0.485720090005535
0.621424158749044
0.981922484761373
2.81821368018713
0.349236708608981
0.373724293177946
0.4122582826746
0.477832510760052
0.609097161138533
0.962409312489108
2.75478119467987
0.332107854529584
0.34735113607469
0.370362634400034
0.406572662030188
0.469129019177997
0.596570766180231
0.940885861215159
2.68089810757615
0.32065957799039
0.33023640175903
0.344367876208996
0.365772107538139
0.399834683703575
0.459713911838079
0.582846736855923
0.915437568647327
2.60027658345001
0.312854167162971
0.318763182204795
0.327391386555411
0.34031713339916
0.360156798540535
0.3922466126942
0.449329964321988
0.566977114515628
0.883436052913688
2.19479822028894
0.307508538059667
0.31094361613027
0.315977847096218
0.323620677646346
0.335365546136731
0.353734600249954
0.383844917501617
0.437634965298992
0.548223875227144
0.849878777069906
2.19479845649307
0.30389910455337
0.305610851250994
0.308208419837159
0.312382066750045
0.319091495123623
0.329726152281845
0.346650861754287
0.374610067821606
0.424498462036473
0.525608751844625
0.797077460996636
2.19512984994708
3.11914591646261
1.06924538787582
3.0648161835959
0.65427722003862
1.05185570583248
3.0038250954754
0.497528370135311
0.646986804913541
1.02862591277795
2.9409100336315
0.420498638453313
0.493748810560743
0.636047771565069
1.00585632458201
2.88416468581463
0.3771260549826
0.418121640702508
0.487637636764922
0.623968101530468
0.986004601480695
2.82915287643896
0.350627746366538
0.37530035749065
0.41409770269237
0.480076298669871
0.612074628211431
0.967205457278767
2.76754203043108
0.333556804425748
0.348963845818346
0.372194890287907
0.40871061796483
0.471734817852996
0.600035241972327
0.946443429836161
2.69560242679703
0.32216732702425
0.331896864252497
0.346224612128778
0.367885223086846
0.402299614925176
0.462720269093384
0.586864574842161
0.921865390123446
2.61527015716851
0.314410005245222
0.320467510696406
0.329280841859826
0.342438282731094
0.362574168439317
0.395068818793152
0.452789833426045
0.571707065408863
0.890616347476019
2.1948037338463
0.309089112686528
0.312673886617155
0.317890374602264
0.325754307466697
0.337769183524585
0.356479420956896
0.387060406413389
0.441637265791818
0.553587178088883
0.83615316580926
2.19479308644803
0.30547032281955
0.307339569168812
0.310122933923229
0.314515875590725
0.321485251053502
0.332432574027383
0.349750067698645
0.378252949746001
0.429056788650348
0.533117396965135
0.805272538671846
2.19512375222342
0.303085112925474
0.303736633920024
0.304828173752714
0.306865313860923
0.310525960546538
0.316682761170533
0.326606622816143
0.342493163846144
0.368729848592093
0.415446982502398
0.511892606344991
0.779383214102705
2.19485512541243
3.1230103549095
1.07092455787506
3.06940036077741
0.655534236089184
1.05387393602695
3.0092832126436
0.498663154071193
0.648497068778089
1.03103934238793
2.94740563044668
0.421612637141663
0.495107738000215
0.637849497199903
1.00873213735225
2.89189657549334
0.378265626140498
0.419446861173316
0.489252350985373
0.626103764891693
0.989420508045023
2.83832262687173
0.351817947735556
0.37664501919704
0.415662827672357
0.481979870167898
0.614591144616836
0.971238963942841
2.77830762781428
0.334810873706829
0.350355061323345
0.373770803084426
0.410544126100278
0.473962180072635
0.602983913126282
0.951184296113357
2.7078290638982
0.323489455252828
0.333346996615871
0.347840157869032
0.369717577799862
0.4044299512962
0.465308407524837
0.59028901541211
0.927486086967837
2.6304963279198
0.315795545587458
0.321977367547001
0.330946588808671
0.344299999552622
0.364687153523301
0.397525555899323
0.455782977592367
0.575691953727397
0.897169486213016
2.19480917919174
0.310523567390259
0.314233041816987
0.319602554737728
0.327653331349642
0.339897169648767
0.358897174433803
0.38987760330556
0.445106611388573
0.55826154079609
0.840139615840112
2.19479873516039
0.306927547939184
0.308925709947586
0.31186446031184
0.316442949280755
0.323632926508587
0.334845726247511
0.352497574845707
0.381469556519511
0.433047341683931
0.536956832640154
0.809009998669267
2.19511849637825
0.304528705672581
0.305319224939623
0.306573075382565
0.308799815417136
0.312681659262668
0.319096611339851
0.329327032208562
0.345595169369947
0.37235152791202
0.419921166404062
0.517229714957287
0.784952927644013
2.19485121234245
0.303015531942858
0.302939613125921
0.303002286160145
0.303596832528931
0.305237882251108
0.308526793769909
0.314226793047394
0.323494307705251
0.338349968719418
0.362860448095447
0.406826430366651
0.4994128097774
0.760886396373703
2.19193028517839
3.12622529820646
1.07229739380351
3.07320242693455
0.656563639748966
1.05552486360905
3.01380753022954
0.499600110151274
0.649740781857664
1.03302313200587
2.95279714293009
0.422540513961742
0.496236355352055
0.639342023118006
1.01111132845995
2.8983322171597
0.379223669386596
0.42055786446655
0.490602452820227
0.627884485876464
0.992260754792912
2.84598141992849
0.3528284410808
0.377783479234615
0.416984501547228
0.483582913680062
0.616703371009522
0.974611727023999
2.78735445458389
0.33588702132056
0.351545331775616
0.375115418270775
0.412104258111477
0.47585142653074
0.605474198412959
0.955174699124379
2.71830710013206
0.324637663010329
0.334601971772535
0.349233853717904
0.371293576462748
0.406256596294607
0.467519733276558
0.593215212958626
0.931984026505806
2.63935650127575
0.317015570438383
0.323301152915019
0.33240125826923
0.34591980694864
0.366519100337348
0.399647792722062
0.458353883960378
0.579134604742679
0.904098990082385
2.61695775147636
0.31180766578948
0.315621105336114
0.321119003461368
0.329327245336597
0.341764562857814
0.361009752124044
0.392327419133318
0.448088382525694
0.562309876739524
0.84665653161878
2.19480427094206
0.308258861849136
0.310363928248272
0.313432704137879
0.318167524382639
0.325543974067149
0.336981473753982
0.35491656856379
0.384284435900106
0.436499909601598
0.541117245306479
0.8134256066281
2.19512409084142
0.30587890363527
0.306782526622151
0.308171804093995
0.310558728721205
0.314627894921681
0.321261423519379
0.331751712475821
0.348345859736273
0.375555360127526
0.423686189552215
0.521477081793028
0.789645081125595
2.19484812406656
0.304345195235126
0.304395169332887
0.304602566163636
0.305364778492886
0.307199633419051
0.310710743654056
0.316665642135541
0.326230978107531
0.341448398874313
0.366421539289377
0.410915347558665
0.504008609424463
0.766001884595841
2.191928534589
0.30345256137185
0.302885545823282
0.302249019575882
0.30186711513023
0.30215634096673
0.303565402827338
0.306596034371703
0.311925112259273
0.320613481146647
0.334525927225709
0.357505248303198
0.399060086502045
0.487360489242333
0.740250437085075
2.18619449453526
3.12890250483536
1.07340467327026
3.07636386271401
0.657400435197613
1.05686890169835
3.01756305883612
0.500369575544324
0.650758885750986
1.03464459122632
2.95727261796859
0.423308936708421
0.497168124066769
0.640570718312264
1.01306577146283
2.90367728183731
0.380023973230038
0.421483207919364
0.491723863534415
0.629359718133037
0.994609948197319
2.85235894317482
0.353680317369353
0.378740534417369
0.418092668867993
0.484923411456226
0.618464304068236
0.977416147915347
2.79491683674805
0.336803255745276
0.352555825090089
0.376253961675276
0.413421840743981
0.477442169713253
0.607562526412264
0.958497132686878
2.72718464434912
0.325625995857059
0.335678820820436
0.350426333833698
0.372638354062234
0.407810696604773
0.469394230373954
0.595684096288803
0.936084909305747
2.6490250076417
0.318078898271063
0.324450683757741
0.333660190120858
0.347317214543279
0.368094574548844
0.401466823427427
0.46055167841201
0.582014966491554
0.906848841615794
2.19479811794301
0.312943296902214
0.316843150675172
0.322448460204515
0.330788951558984
0.34338907881357
0.362840745354662
0.394441740459763
0.450656014313276
0.565905751668558
0.873270842054712
2.19479880177259
0.309457152103637
0.311650938002603
0.314828425294126
0.319694579267651
0.327228078862501
0.338855050576117
0.357029077299713
0.386727986834879
0.439485273456856
0.545128927054535
0.817697196886131
2.19512953416903
0.307121237858941
0.308118043740895
0.309620249332837
0.312141793875239
0.316368878211816
0.323186832146089
0.333896591861925
0.350766623505855
0.378358334272006
0.427015720385067
0.525318798130395
0.793795978459735
2.19485128990139
0.305600863644468
0.305751946492652
0.306079729906441
0.306983482701389
0.308982255623493
0.312681049390794
0.318851229485242
0.328669113386351
0.344197692783278
0.369563326919952
0.414490845838589
0.508008666237682
0.77056002086299
2.19192757390239
0.304675632380579
0.304227771437644
0.303723707171808
0.303493273353285
0.303956393170202
0.305562818726004
0.308815350083166
0.314394280262275
0.323367613157045
0.337609766967998
0.360957672783612
0.402901388903384
0.491689193021865
0.745194768542421
2.18619132202322
0.304218738274311
0.30333614484328
0.30223360356173
0.301197256861465
0.300583715829723
0.300752066329359
0.302060952749672
0.304944803692041
0.310027316842579
0.318294894501869
0.331493216211571
0.353271243469093
0.392597152145341
0.475926381698683
0.717904635396947
2.18721927385254
3.13113106435871
1.07429775455765
3.07899603384297
0.658079800498435
1.05795638239998
3.02068571591605
0.500998421824892
0.651587334284009
1.03596238021669
2.96098863913139
0.423942195325672
0.497933192900023
0.641576155076253
1.01466196073035
2.90811431572739
0.380688887371231
0.42224947777359
0.492649666093419
0.630573929724878
0.996539827781627
2.85765659295317
0.354394041440015
0.379539972520243
0.419015759824459
0.486036964873475
0.619922902004028
0.979735558147251
2.80121456387528
0.33757783370801
0.353407652957014
0.377211204084733
0.414526730944978
0.478772284267071
0.609302637499866
0.961257183120469
2.73461780058667
0.326469890646122
0.336595586996406
0.351438811599968
0.373777174504048
0.409123102682514
0.470971523226732
0.597747226974009
0.939412554905525
2.65763898162719
0.318997103927231
0.325440079340346
0.334740515900667
0.348512975671568
0.369438831154045
0.403013809685507
0.462412645731978
0.584512882806161
0.912823345686637
2.57514728938903
0.313936773825276
0.31790812528581
0.323602927318109
0.332053999314406
0.344790432370362
0.364414951320016
0.396253377370832
0.45284095622801
0.568613599360102
0.855755684259968
2.19479330899603
0.310521729092641
0.3127889279901
0.316057059120902
0.321033179033155
0.328698422740027
0.340484452170022
0.358859055925318
0.38883707642667
0.442060559364668
0.549851110474393
0.82290146007653
2.19512410041133
0.308245958745195
0.309319623565466
0.310915890275258
0.313550201307772
0.31790990164648
0.324882866842029
0.335777228604912
0.352879319806815
0.380794953631736
0.429955864596759
0.528810281599366
0.797360466225634
2.19485422049954
0.306765547343477
0.306998909413983
0.307426556285
0.3084489536788
0.310585611411977
0.314442334733289
0.320793718391
0.330824643888188
0.346617077721083
0.372323336832187
0.417644244825485
0.5115273133234
0.774537658467859
2.19192816768127
0.305846511060941
0.305490505592427
0.305095564124586
0.304992816504508
0.30560293566521
0.307375813175289
0.310815196930087
0.316604796283781
0.325820163537138
0.340345612754117
0.364012465308838
0.406287180917611
0.495484737395647
0.74962954735543
2.18619182578834
0.305337164694409
0.304572424918005
0.303596352416418
0.302700460958823
0.302246421286867
0.302594516681757
0.304103226871001
0.307207458464676
0.312532783219593
0.321067869748256
0.334556017261974
0.356638276597017
0.396308865892097
0.480135509113034
0.722685392905183
2.18721627760417
0.305133216807416
0.304113519703109
0.302717758698782
0.301253849405432
0.300047288309716
0.299403390008381
0.299599604475024
0.300942124555823
0.303839782997359
0.308890841209757
0.317038007324159
0.329948062678987
0.35105026717895
0.388562640864309
0.466795998563566
0.697284678739852
2.21610793272684
3.13298335810738
1.075021845451
3.08119215276452
0.658627482088543
1.05883541562429
3.02328577983683
0.501510648208981
0.652258455635423
1.03703072551974
2.96407754931003
0.424462248086113
0.498558401865296
0.642394097876441
1.01596068589963
2.91179774284003
0.381239001042409
0.422880947394294
0.493409769565291
0.63156716696714
0.998117679169732
2.86205077202404
0.354989006171821
0.380204130525764
0.419780223719709
0.486956291392149
0.621123399592287
0.981641395806378
2.8064422391356
0.338228742577229
0.3541212956899
0.378010893730429
0.415447220645663
0.479877168563356
0.610743619958415
0.963536536014194
2.74081006472252
0.327185371666968
0.337370579945121
0.352292416119862
0.374734796550811
0.410223649216299
0.472289809094752
0.599462965750739
0.942133301481589
2.66491842680064
0.319783451942775
0.326284826462097
0.335660337357792
0.349528375969119
0.370577211125655
0.404319703019969
0.463975465268024
0.58657411562951
0.916563963197287
2.58329082760458
0.314797491985535
0.318827669647685
0.32459663806029
0.333139669025303
0.345989543170176
0.365757768897979
0.397792871703515
0.454699528409015
0.571439529425426
0.881237114830737
2.19479888806657
0.311456652416228
0.313784341398355
0.317127757894001
0.322195573986921
0.329970820119462
0.341889664660014
0.360431724444236
0.390641996390323
0.444228387987763
0.551423438200839
0.824043226391101
2.19511868394786
0.309249955813937
0.310386884707573
0.312061300620207
0.314789760975409
0.319260395198537
0.326363092791757
0.337412000500177
0.354708797113096
0.382898100441034
0.432574798426647
0.532064724132797
0.80052048293209
2.19485078695816
0.307826673684792
0.308127283171501
0.308637687335045
0.309759161297482
0.312011311881899
0.316000399009405
0.322503699070823
0.332713479100501
0.348728843304924
0.374733946798077
0.420427243926684
0.514621300241008
0.7779047067503
2.19192838294759
0.306943229783288
0.306660222213362
0.306354863255953
0.306358711245194
0.30709221761432
0.309004851950702
0.312601039530577
0.318567602319391
0.32798721548586
0.342754896017329
0.366700856869851
0.409263565475149
0.498797063072995
0.75351035481865
2.18619221863761
0.30643320416661
0.305750836812971
0.304875325895022
0.304096936822505
0.303777585240095
0.304277166937331
0.305953820448088
0.309243133819591
0.31477296044256
0.323535126118062
0.337271501106754
0.359613738174495
0.399570215454618
0.483815371394865
0.727020738333655
2.18721703674516
0.306184252836737
0.305246201268224
0.303975885256699
0.302647577985502
0.30159111299718
0.30111461857376
0.301495524008443
0.3030394883098
0.306155113584163
0.311440375856973
0.319835826902712
0.333003503592197
0.354377454203015
0.392223192125751
0.470948840927932
0.701834940893178
2.21610689741159
0.303840930976597
0.306103954306802
0.305037982358964
0.303523726903329
0.301799829489074
0.300217445742455
0.299055509645137
0.298544578829562
0.298921780541119
0.300487994670183
0.303660471979842
0.309048564667873
0.317607367126142
0.330996075280499
0.35249265359955
0.389664759221541
0.464907922227527
0.687403744625702
2.28699329689139
3.13449718386561
1.07560361287881
3.08300829211698
0.659067601440525
1.05954764778627
3.02545502072905
0.501927258371742
0.652799674636722
1.03789676846442
2.96664970262961
0.424888658195571
0.499067608342569
0.643056343142637
1.0170125277102
2.91485881897828
0.381693042087119
0.423399492389231
0.494030848829612
0.632375137625251
0.999399731165551
2.86569606204211
0.355483222732137
0.380753589903279
0.420410224847889
0.487711012288702
0.622105529720583
0.983200146182523
2.8107683822864
0.338773166236216
0.354716154089303
0.378675320469199
0.416209601696194
0.480789325058018
0.6119296183477
0.965411693023685
2.74593844551812
0.327788431840487
0.338021796721721
0.353007627763872
0.3755349239786
0.411140542247229
0.473384608299775
0.600882241985183
0.944360081298704
2.67099811669316
0.320452088645644
0.327000991130354
0.336438006813272
0.350384578918188
0.371534503025658
0.405414494160843
0.465279877453342
0.588268024937904
0.919532563636792
2.59057776457929
0.315536847341624
0.319615110731008
0.325445153524499
0.334064162726393
0.347007816549522
0.366894678599495
0.399091149080962
0.456253036567485
0.573602344749606
0.887530659760078
2.19480494210627
0.312269378070995
0.314646651146701
0.318052287696355
0.323196176201601
0.331062766387075
0.343091831393807
0.36177253880726
0.392175644753972
0.446128048998458
0.555650109517445
0.829294845447829
2.19512428016752
0.310135192690809
0.311324023755223
0.313063146188724
0.315869911211067
0.320432937155924
0.327643678365419
0.338821250618492
0.356280027918385
0.384696016006058
0.434660595659914
0.534387267671596
0.802916096529895
2.19484557546146
0.308778654970838
0.309134274649168
0.309713150388301
0.310917100370391
0.313265611289166
0.317365170979414
0.323995263688933
0.334354499390037
0.350557072008073
0.376823165940631
0.422866247393774
0.517332532565266
0.780767185987206
2.19192679512677
0.307949389237807
0.307725341937325
0.307493655852116
0.307586144903887
0.308422721688939
0.310452196052061
0.31417945291391
0.320294039430729
0.329885202263048
0.344859696900816
0.369053116613494
0.411870675267203
0.501665619171608
0.756796365872334
2.18619212621969
0.307471668365992
0.306852965268929
0.306058343762389
0.305377200947664
0.305170512431312
0.305797024440305
0.307614282033529
0.311058507319722
0.316759878568553
0.325713935386058
0.339662807443083
0.362228534785435
0.402422925499498
0.48701484662927
0.730866390273181
2.18721760680369
0.307224101624459
0.306350251085731
0.305171615109991
0.303953254463184
0.303022681770156
0.302687116073683
0.3032231074573
0.304935857683997
0.308234119320434
0.313716268510832
0.32232149645381
0.335707186072618
0.357307907744011
0.3954258446809
0.474570797967182
0.706093902616585
2.21610658901665
0.307121956568972
0.306103834682835
0.304679715380489
0.303091196027216
0.301655534805089
0.300653435995602
0.300317077789892
0.300883347255021
0.302652350327319
0.306040209346126
0.311654173738905
0.320446181737612
0.334074633228111
0.355833617858128
0.393343318441472
0.469061600244168
0.691471707747566
2.2869931937742
0.304823033893629
0.303737902885652
0.307114567070991
0.306018029541145
0.304472926406734
0.302658541551411
0.300859989956543
0.29938486780785
0.298443001225604
0.298234544619812
0.299007160773275
0.301095337652866
0.304968561350193
0.311318847092918
0.32123719214314
0.336597765478029
0.360992220449054
0.402428277331248
0.483742800399934
0.713531023649534
2.3816773476856
1.07606062427792
3.08448459803186
0.659424405361344
1.06012975549781
3.02724371473664
0.502266201743262
0.65323556305706
1.03860347243218
2.96879132150121
0.425238493291337
0.499481594821191
0.64359042503127
1.0178626913504
2.91740743822455
0.382067712476795
0.423824581860413
0.494536506265975
0.633028761389215
1.00043297863609
2.86872530851334
0.355893108084503
0.381207032495892
0.420927522114678
0.488327577364586
0.622903989413238
0.98446154281921
2.81435066618925
0.339227192293523
0.35521023863295
0.37922502024551
0.416837891126487
0.481538116801257
0.612900219798624
0.966945165322343
2.75013417440143
0.328294535508303
0.338566442807289
0.353603839300497
0.376199786340262
0.411899954707657
0.474288381915599
0.602051021303647
0.946193556450465
2.67599631227958
0.321017369622979
0.327604591762268
0.337091539852172
0.351102072406909
0.372334395591647
0.406326447186589
0.466362379552176
0.589661511446455
0.921784725050615
2.59667099149444
0.316167370299293
0.320284637839202
0.326164592632188
0.334845899626865
0.347866490852091
0.367850585141588
0.400178746645286
0.457543159717543
0.575355298298284
0.893109269937564
2.57508940759802
0.312969646548049
0.315387316099673
0.318844064978653
0.324050674592086
0.331992625976439
0.344112541630469
0.362907150975569
0.393466574571347
0.447690239576215
0.55823978328734
0.834818264870451
2.19513035328083
0.310907351815091
0.312138580032066
0.313931042237965
0.316802627110225
0.321442205137806
0.328742416699601
0.340026386929823
0.357618838091149
0.386228996500827
0.436667072230956
0.537094241540202
0.805493305607524
2.19485095472063
0.309621429541468
0.310021991733182
0.310657383786862
0.31192975964463
0.314358337987401
0.318549673198032
0.325285043954889
0.335768337904736
0.352126475367625
0.378603056813475
0.42490248835986
0.519567036004701
0.783170400759593
2.19192216402112
0.308856691160706
0.308680607947582
0.308509582792144
0.308675610303878
0.309597960122522
0.311724708690687
0.315561050526595
0.321798874674557
0.331533279395506
0.346682742559476
0.37109253777316
0.414132995964855
0.504134124965887
0.759572295833453
2.18619187020659
0.308430989430543
0.307863431214076
0.307134690213702
0.306533901846998
0.306420984230026
0.30715334574471
0.309087833180755
0.312661204226294
0.318505853836067
0.327621399112051
0.341752382334932
0.364511155277814
0.404902860138781
0.489767662663483
0.734115050158536
2.18721789611615
0.308215826983483
0.307394470520511
0.306287934471905
0.305158990641876
0.304332930728889
0.304115074982051
0.304780639882575
0.306634295803987
0.310085075973408
0.315732170631434
0.32451434962847
0.338084493019433
0.359874799869063
0.398215514444653
0.477720457099952
0.70997155787677
2.21610750088685
0.30812246008201
0.30715206017176
0.305802089694075
0.304315533106418
0.302999487948988
0.302131100568429
0.30194116672999
0.302665694654717
0.304604167837632
0.308172077385917
0.31397527286657
0.322962742025721
0.336791213855559
0.358765844953933
0.396548669957655
0.472679803549133
0.695608560387283
2.28700518891891
0.308096051342489
0.307050629307056
0.305563221344941
0.303849913620396
0.302199125076361
0.3008821418601
0.300109271651399
0.300082193437575
0.301048370157981
0.303341261404133
0.307428636626095
0.314000243224822
0.324146064766049
0.339746083569732
0.364416519848067
0.406218875562518
0.487886997778971
0.716893885253843
2.38167783015298
0.305879908562827
0.304733451347412
0.303152142531122
0.308117566432575
0.307036207781175
0.305474908795336
0.30365284445537
0.301800623652813
0.30016185208893
0.298979369385769
0.298440737203445
0.298769343504017
0.300265957955615
0.303348817129908
0.308623974077082
0.317022302663941
0.33008265485322
0.350585125402289
0.384129598053451
0.443634788310559
0.566640151212899
0.953242861242594
3.68516784033527
0.659720778080364
1.06056509103404
3.02868720664655
0.502544501470828
0.653590083267457
1.03918442689008
2.9705557616686
0.425526613674086
0.499818481439317
0.64402123788379
1.01856152333529
2.91952679613752
0.382377719898307
0.424173283415169
0.494947371483788
0.633555283591519
1.00126837214395
2.87124571101603
0.356233447889961
0.381581153675957
0.421351462097648
0.488829276979371
0.623548765070848
0.98547539115471
2.81733102075857
0.339605561499336
0.355619979014651
0.379678616957303
0.417353704141221
0.482149632647496
0.613688348666361
0.968183359076295
2.75360225471975
0.328718224029171
0.339020607203735
0.354099049202858
0.376749854361448
0.412525756524976
0.475030344071425
0.603008828738223
0.947719649948022
2.67996307566236
0.321493325589524
0.328111103969812
0.337638155165897
0.351700241687217
0.372999073625996
0.407081699830189
0.467256149560901
0.590810573300144
0.923628941462355
2.60160082311053
0.316702022458395
0.320850633917164
0.32677100769423
0.335502936215424
0.348586091249646
0.368649230121007
0.401084312535222
0.458611224108662
0.57675170245458
0.895910812004684
2.58243555568598
0.313568574508025
0.316018914141616
0.319517342977818
0.324775280777822
0.332778935577972
0.344973171150356
0.363860726840771
0.394545969096615
0.448980162997035
0.560447738810224
0.862425163003316
2.19512552214989
0.311574693538467
0.312840361460684
0.31467654987549
0.317601480135979
0.322304094543963
0.329677911754395
0.34104924702427
0.358750766836876
0.387514319212922
0.438274733772209
0.539577871520287
0.808014535124096
2.19485489174755
0.310359037723215
0.310796208225769
0.31147808558346
0.312806994629809
0.31530178350187
0.319568955409367
0.326391219820567
0.336976735732526
0.353463531362794