/*--------------------------------*- C++ -*----------------------------------*\
  =========                 |
  \\      /  F ield         | OpenFOAM: The Open Source CFD Toolbox
   \\    /   O peration     | Website:  https://openfoam.org
    \\  /    A nd           | Version:  12
     \\/     M anipulation  |
\*---------------------------------------------------------------------------*/
/*   Windows 32 and 64 bit porting by blueCAPE: http://www.bluecape.com.pt   *\
|  Based on Windows porting (2.0.x v4) by Symscape: http://www.symscape.com   |
\*---------------------------------------------------------------------------*/
FoamFile
{
    format      ascii;
    class       volScalarField;
    location    "200";
    object      p;
}
// * * * * * * * * * * * * * * * * * * * * * * * * * * * * * * * * * * * * * //

dimensions      [0 2 -2 0 0 0 0];

internalField   nonuniform List<scalar> 
10123
(
83333.3291445758
83333.3291263149
83333.3291443539
83333.3291442894
83333.3291084089
83333.3291261912
83333.329126093
83333.3291443135
83333.3291441362
83333.3291438201
83333.3290908189
83333.3291083601
83333.3291082049
83333.3291261467
83333.3291260039
83333.3291256679
83333.329144849
83333.329144154
83333.3291437095
83333.329143108
83333.3290735473
83333.3290908175
83333.3290906327
83333.3291082858
83333.3291081784
83333.3291078038
83333.3291263286
83333.3291259932
83333.3291256096
83333.3291249957
83333.3291458435
83333.3291446996
83333.3291437669
83333.329143022
83333.3291421168
83333.3290566204
83333.3290735932
83333.3290733764
83333.3290907043
83333.329090643
83333.3290902575
83333.3291081828
83333.3291081287
83333.3291078038
83333.329107164
83333.3291266262
83333.3291261799
83333.3291256332
83333.3291249554
83333.3291240475
83333.3291471045
83333.329145667
83333.3291442961
83333.3291430932
83333.3291420322
83333.3291408402
83333.3290400573
83333.3290567129
83333.3290564611
83333.3290734602
83333.3290734232
83333.3290730257
83333.3290903522
83333.3290905453
83333.3290902886
83333.3290896534
83333.3291079032
83333.329108009
83333.3291077876
83333.3291071766
83333.3291062576
83333.3291269034
83333.3291264577
83333.3291258026
83333.3291249911
83333.3291240063
83333.3291228069
83333.3291484186
83333.3291468816
83333.3291451902
83333.3291435627
83333.3291420764
83333.3291407387
83333.3291393002
83333.3290238741
83333.3290401922
83333.3290399079
83333.3290565723
83333.3290565513
83333.3290561317
83333.3290729004
83333.3290732976
83333.3290730865
83333.3290724563
83333.3290895826
83333.3290901654
83333.3290902155
83333.3290896922
83333.3290887945
83333.3291073207
83333.3291076981
83333.3291076419
83333.329107166
83333.3291062653
83333.3291050641
83333.3291269384
83333.3291266726
83333.3291260175
83333.3291251158
83333.329124018
83333.3291227522
83333.3291212718
83333.3291495235
83333.3291480984
83333.32914628
83333.3291443185
83333.3291424304
83333.3291407142
83333.3291391658
83333.3291375825
83333.3290080838
83333.3290240473
83333.3290237336
83333.3290400509
83333.3290400367
83333.329039597
83333.3290558408
83333.3290564092
83333.3290562318
83333.329055593
83333.3290717174
83333.3290727026
83333.3290729717
83333.3290725192
83333.3290716432
83333.3290882759
83333.3290893573
83333.3290897981
83333.3290896161
83333.3290888251
83333.3290876671
83333.3291062726
83333.3291070749
83333.3291072724
83333.3291069792
83333.3291062247
83333.3291050592
83333.329103569
83333.3291265535
83333.3291266446
83333.3291261329
83333.3291252118
83333.3291240471
83333.329122707
83333.3291212006
83333.3291194371
83333.3291502022
83333.3291491082
83333.3291473462
83333.329145204
83333.3291429846
83333.3291409052
83333.3291390374
83333.3291373728
83333.329135861
83333.3289926956
83333.32900829
83333.3290079513
83333.3290239087
83333.3290238966
83333.3290234387
83333.3290391792
83333.3290398874
83333.3290397314
83333.3290390857
83333.329054312
83333.3290556358
83333.3290560896
83333.3290556919
83333.3290548217
83333.3290698007
83333.3290714745
83333.3290723381
83333.3290723947
83333.3290716984
83333.3290705795
83333.3290863094
83333.3290880135
83333.3290889309
83333.3290891557
83333.3290887161
83333.3290876828
83333.3290862735
83333.3291046223
83333.3291059801
83333.3291065583
83333.3291065064
83333.3291059638
83333.3291049643
83333.3291035538
83333.3291017316
83333.3291255704
83333.32912619
83333.3291259752
83333.329125156
83333.3291239724
83333.3291226001
83333.3291210794
83333.3291193478
83333.3291172852
83333.3291502289
83333.3291496855
83333.3291481762
83333.3291460172
83333.3291435819
83333.3291411905
83333.3291390221
83333.3291371036
83333.3291355039
83333.329133261
83333.3289777157
83333.3289929296
83333.3289925702
83333.3290081556
83333.3290081438
83333.3290076704
83333.3290229238
83333.3290237456
83333.329023604
83333.3290229518
83333.3290373646
83333.3290389702
83333.3290395749
83333.3290392151
83333.3290383515
83333.3290518871
83333.3290540588
83333.3290552743
83333.329055533
83333.329054908
83333.3290538122
83333.3290670619
83333.3290695247
83333.3290710471
83333.3290717101
83333.3290715372
83333.3290706202
83333.3290692809
83333.329083588
83333.3290860145
83333.3290875058
83333.3290881946
83333.3290881883
83333.329087514
83333.3290862711
83333.3290846363
83333.3291022332
83333.329104278
83333.3291053533
83333.3291056489
83333.3291053454
83333.3291045873
83333.3291033959
83333.3291017262
83333.3290995744
83333.3291238062
83333.3291251287
83333.3291253737
83333.3291247853
83333.3291236719
83333.3291222976
83333.3291208038
83333.3291191531
83333.3291172251
83333.3291150306
83333.3291493659
83333.329149605
83333.3291485559
83333.3291465565
83333.3291440394
83333.329141417
83333.3291389785
83333.3291368358
83333.3291350138
83333.3291331143
83333.3291310868
83333.3289631478
83333.3289779721
83333.3289775964
83333.3289928007
83333.3289927875
83333.3289923018
83333.3290070819
83333.329007995
83333.3290078634
83333.3290072053
83333.329020877
83333.3290227149
83333.3290234406
83333.3290231092
83333.3290222506
83333.329034523
83333.3290371098
83333.3290386131
83333.3290390367
83333.329038465
83333.3290373875
83333.3290485085
83333.3290516055
83333.3290536328
83333.3290546637
83333.3290547108
83333.3290538804
83333.3290525813
83333.3290634436
83333.3290667647
83333.3290690238
83333.3290703336
83333.3290707812
83333.3290703964
83333.329069301
83333.3290678029
83333.3290800148
83333.3290832567
83333.3290854154
83333.3290866421
83333.3290870933
83333.32908688
83333.3290860301
83333.3290846131
83333.3290828957
83333.329098962
83333.3291018285
83333.3291035304
83333.3291042631
83333.3291042737
83333.329103773
83333.329102875
83333.3291015208
83333.3290996156
83333.329097782
83333.3291210653
83333.3291232797
83333.329124151
83333.3291239389
83333.3291229998
83333.3291216813
83333.3291202244
83333.329118695
83333.3291169969
83333.3291150357
83333.3291132678
83333.3291473591
83333.32914863
83333.3291482649
83333.3291466172
83333.3291441705
83333.3291414201
83333.3291387587
83333.3291364046
83333.3291344163
83333.329132643
83333.3291308876
83333.3291287959
83333.3289489937
83333.3289634213
83333.3289630337
83333.3289778484
83333.3289778338
83333.328977339
83333.3289916606
83333.3289926427
83333.328992518
83333.3289918561
83333.3290048484
83333.3290068765
83333.329007698
83333.3290073884
83333.3290065338
83333.3290176984
83333.3290206279
83333.3290223631
83333.3290229192
83333.3290223907
83333.3290213276
83333.3290306222
83333.3290342442
83333.3290366868
83333.3290380204
83333.3290382468
83333.3290374821
83333.3290362072
83333.3290441483
83333.3290482128
83333.3290511126
83333.3290529414
83333.3290537693
83333.3290536235
83333.3290526274
83333.3290511714
83333.3290588842
83333.3290631235
83333.3290661877
83333.329068198
83333.3290692841
83333.3290695404
83333.3290689965
83333.3290677854
83333.3290663099
83333.3290754816
83333.3290796376
83333.3290825577
83333.3290843981
83333.3290853582
83333.3290856125
83333.3290852576
83333.3290842834
83333.329082807
83333.3290814617
83333.3290946511
83333.3290984883
83333.3291009482
83333.3291022336
83333.3291026323
83333.3291024306
83333.3291018238
83333.3291008535
83333.3290993983
83333.3290976969
83333.3290960053
83333.3291171381
83333.3291204486
83333.32912213
83333.3291224501
83333.3291218079
83333.3291206223
83333.3291192279
83333.3291178001
83333.3291163399
83333.3291147396
83333.3291131132
83333.32911119
83333.3291439381
83333.3291465079
83333.3291470696
83333.3291459858
83333.3291437825
83333.3291410306
83333.3291382192
83333.3291356708
83333.3291335302
83333.3291317661
83333.3291302057
83333.3291284955
83333.3291264278
83333.328935254
83333.3289492794
83333.3289488838
83333.3289633014
83333.3289632864
83333.3289627859
83333.3289766554
83333.328977693
83333.3289775745
83333.3289769104
83333.3289892788
83333.3289914572
83333.3289923534
83333.3289920612
83333.3289912114
83333.3290014025
83333.3290046115
83333.3290065311
83333.3290071925
83333.3290066987
83333.3290056479
83333.329013379
83333.3290174306
83333.3290202096
83333.3290217873
83333.3290221592
83333.3290214471
83333.3290201935
83333.3290256582
83333.3290303334
83333.3290337602
83333.329036017
83333.3290371594
83333.3290372038
83333.3290362775
83333.3290348294
83333.3290387775
83333.3290438413
83333.3290476581
83333.3290503219
83333.329051938
83333.3290525873
83333.3290522888
83333.3290511827
83333.3290496397
83333.3290533066
83333.3290585309
83333.3290624657
83333.329065231
83333.3290669888
83333.3290678844
83333.3290680038
83333.3290673713
83333.3290661942
83333.3290649448
83333.3290698646
83333.3290750485
83333.3290788295
83333.3290813671
83333.3290828942
83333.3290836425
83333.3290837781
83333.3290833498
83333.3290823378
83333.3290811355
83333.3290793561
83333.3290891291
83333.3290941022
83333.3290974658
83333.3290994278
83333.3291003108
83333.3291004605
83333.3291001555
83333.3290995371
83333.3290985832
83333.3290972763
83333.3290958082
83333.3290939228
83333.329111802
83333.3291164281
83333.329119119
83333.329120146
83333.3291199409
83333.3291189877
83333.3291177056
83333.3291163684
83333.3291150848
83333.3291138172
83333.3291125027
83333.3291109369
83333.3291089527
83333.3291388202
83333.3291429713
83333.3291447214
83333.3291444354
83333.3291426723
83333.3291400709
83333.3291372109
83333.329134514
83333.3291322221
83333.3291304026
83333.3291289635
83333.3291276211
83333.3291260602
83333.3291240752
83333.3289219279
83333.3289355476
83333.3289351475
83333.3289491615
83333.3289491484
83333.3289486445
83333.3289620692
83333.3289631488
83333.3289630365
83333.3289623723
83333.328974163
83333.3289764599
83333.3289774111
83333.328977135
83333.3289762897
83333.3289856238
83333.3289890556
83333.3289911195
83333.3289918633
83333.3289913979
83333.3289903596
83333.3289967556
83333.3290011515
83333.3290041995
83333.3290059712
83333.3290064598
83333.3290057901
83333.3290045562
83333.329007933
83333.3290131021
83333.3290169562
83333.3290195603
83333.329020958
83333.3290211559
83333.3290202865
83333.3290188666
83333.3290196291
83333.3290253654
83333.3290298001
83333.3290330023
83333.3290350559
83333.3290360247
83333.3290359217
83333.3290348729
83333.329033247
83333.3290323467
83333.3290384484
83333.3290432225
83333.3290467559
83333.329049178
83333.3290506096
83333.3290511235
83333.3290507404
83333.329049599
83333.3290479393
83333.3290466167
83333.3290529088
83333.3290577845
83333.3290613631
83333.3290638322
83333.3290653817
83333.3290661529
83333.3290662062
83333.3290655912
83333.329064622
83333.32906277
83333.3290630261
83333.3290693683
83333.3290741225
83333.3290774511
83333.3290796141
83333.3290808943
83333.3290815235
83333.3290816254
83333.3290812115
83333.3290803621
83333.3290790693
83333.3290770859
83333.3290822125
83333.3290885017
83333.3290929304
83333.3290957089
83333.329097186
83333.329097762
83333.329097789
83333.3290974967
83333.3290969684
83333.3290961825
83333.3290951301
83333.3290937067
83333.3290917343
83333.3291048254
83333.3291109989
83333.3291149145
83333.3291168411
83333.3291172352
83333.3291166371
83333.3291155438
83333.3291143187
83333.329113167
83333.3291121424
83333.3291111865
83333.3291101082
83333.3291086259
83333.3291066752
83333.3291317116
83333.3291377431
83333.3291409584
83333.3291417243
83333.3291406233
83333.3291383522
83333.3291355746
83333.3291328075
83333.32913039
83333.3291284843
83333.3291270878
83333.3291260239
83333.3291249892
83333.3291236402
83333.3291218386
83333.3289090138
83333.3289222256
83333.3289218237
83333.3289354306
83333.32893542
83333.328934915
83333.3289479014
83333.3289490119
83333.3289489062
83333.3289482443
83333.3289594957
83333.3289618817
83333.328962874
83333.3289626118
83333.3289617729
83333.3289703501
83333.3289739542
83333.3289761288
83333.3289769356
83333.328976494
83333.3289754684
83333.328980722
83333.3289853923
83333.3289886515
83333.328990575
83333.3289911555
83333.3289905223
83333.3289893083
83333.3289909322
83333.3289964924
83333.3290006883
83333.3290035698
83333.3290051712
83333.3290054936
83333.3290046705
83333.329003277
83333.3290013794
83333.3290076546
83333.329012589
83333.3290162286
83333.3290186379
83333.3290198653
83333.329019921
83333.3290189275
83333.3290173676
83333.3290125116
83333.3290193236
83333.3290247833
83333.3290289473
83333.3290319168
83333.3290337891
83333.3290346248
83333.3290344238
83333.329033263
83333.329031452
83333.3290247879
83333.329031983
83333.3290377588
83333.3290421976
83333.329045448
83333.3290476649
83333.3290489673
83333.3290494109
83333.3290490193
83333.3290478442
83333.3290459723
83333.3290387068
83333.3290461663
83333.3290520653
83333.3290565242
83333.3290597516
83333.3290619785
83333.3290633981
83333.3290641224
83333.3290641976
83333.3290637194
83333.3290625131
83333.3290604712
83333.3290548176
83333.329062463
83333.3290683177
83333.3290725459
83333.3290754284
83333.3290772932
83333.3290784334
83333.3290790431
83333.3290792036
83333.3290789336
83333.329078202
83333.3290768518
83333.3290748655
83333.3290737084
83333.3290815065
83333.3290871771
83333.3290909291
83333.3290931305
83333.3290942283
83333.3290946416
83333.3290946785
83333.3290945121
83333.3290941898
83333.3290936743
83333.3290928492
83333.3290914564
83333.3290895031
83333.3290959674
83333.3291039333
83333.3291093023
83333.3291123385
83333.3291135152
83333.3291134198
83333.32911262
83333.3291115616
83333.3291105388
83333.3291096933
83333.329109031
83333.3291084233
83333.3291076081
83333.3291062749
83333.3291044663
83333.3291222934
83333.3291305384
83333.3291355122
83333.3291375994
83333.3291374043
83333.3291356713
83333.3291331385
83333.3291304126
83333.3291279283
83333.3291259424
83333.3291245401
83333.3291236423
83333.3291230282
83333.3291223726
83333.3291213223
83333.3291198456
83333.3288965125
83333.3289093105
83333.3289089108
83333.328922109
83333.3289220993
83333.3289215964
83333.3289341521
83333.3289352833
83333.3289351833
83333.3289345261
83333.3289452713
83333.3289477213
83333.3289487433
83333.3289484932
83333.3289476635
83333.3289555681
83333.3289593001
83333.3289615572
83333.3289624112
83333.3289619903
83333.3289609786
83333.3289652574
83333.3289701376
83333.3289735584
83333.3289755983
83333.3289762497
83333.3289756481
83333.328974453
83333.3289746132
83333.3289804791
83333.3289849412
83333.3289880403
83333.328989802
83333.3289902243
83333.3289894436
83333.328988076
83333.3289839705
83333.3289906682
83333.3289959996
83333.3289999887
83333.3290026827
83333.3290041197
83333.329004302
83333.3290033573
83333.3290018361
83333.3289937201
83333.329001096
83333.3290071064
83333.3290117812
83333.3290151954
83333.3290174256
83333.3290185216
83333.3290184708
83333.3290173791
83333.329015764
83333.329004261
83333.3290121803
83333.3290186862
83333.3290238279
83333.3290277197
83333.3290304857
83333.3290322245
83333.3290329778
83333.3290327194
83333.329031442
83333.3290298665
83333.3290160201
83333.329024381
83333.3290312145
83333.3290366021
83333.3290407081
83333.3290437201
83333.3290457982
83333.3290470395
83333.3290474854
83333.3290471253
83333.3290458603
83333.3290439319
83333.3290294597
83333.3290381999
83333.3290452192
83333.3290506393
83333.3290546846
83333.3290576231
83333.3290596978
83333.3290610739
83333.3290618347
83333.3290620233
83333.3290615643
83333.3290602437
83333.3290582495
83333.3290450825
83333.3290541873
83333.3290612845
83333.3290665372
83333.3290702409
83333.3290727618
83333.329074449
83333.3290755624
83333.3290762522
83333.3290765727
83333.3290764983
83333.3290759081
83333.3290745807
83333.3290726636
83333.3290634133
83333.3290729265
83333.3290800302
83333.3290849292
83333.3290880051
83333.3290897436
83333.3290906232
83333.3290910237
83333.3290911972
83333.3290912676
83333.3290912444
83333.3290910412
83333.3290904328
83333.3290891508
83333.3290873178
83333.3290849625
83333.3290949945
83333.3291020615
83333.3291064315
83333.3291085932
83333.3291091726
83333.3291087992
83333.3291079948
83333.3291071367
83333.3291064516
83333.3291060198
83333.3291057875
83333.3291055715
83333.3291050688
83333.3291039767
83333.3291024505
83333.3291102501
83333.3291210415
83333.3291281097
83333.3291318029
83333.3291327741
83333.329131811
83333.3291297155
83333.329127176
83333.329124719
83333.3291226954
83333.3291212796
83333.3291204778
83333.3291201525
83333.3291200548
83333.3291198639
83333.3291192331
83333.3291182323
83333.3288844292
83333.3288968017
83333.32889641
83333.3289091928
83333.3289091835
83333.3289086869
83333.3289208209
83333.3289219624
83333.328921867
83333.3289212166
83333.3289314856
83333.3289339773
83333.3289350193
83333.3289347808
83333.3289339611
83333.3289412654
83333.328945087
83333.3289474028
83333.3289482915
83333.3289478898
83333.3289468935
83333.3289503394
83333.3289553726
83333.3289589126
83333.3289610396
83333.3289617451
83333.3289611702
83333.3289599949
83333.3289589398
83333.3289650349
83333.328969699
83333.3289729646
83333.3289748494
83333.3289753501
83333.3289746046
83333.3289732603
83333.3289673456
83333.3289743665
83333.3289800053
83333.3289842677
83333.3289871857
83333.3289887898
83333.328989077
83333.3289881779
83333.3289866918
83333.3289758943
83333.3289837072
83333.3289901513
83333.3289952325
83333.3289990025
83333.3290015207
83333.3290028247
83333.3290029001
83333.3290018709
83333.3290002696
83333.3289849309
83333.3289934183
83333.3290005058
83333.3290062133
83333.3290106245
83333.3290138367
83333.3290159305
83333.329016936
83333.3290168142
83333.3290156853
83333.3290142305
83333.3289948198
83333.3290038948
83333.3290114796
83333.3290176213
83333.3290224449
83333.329026101
83333.3290287206
83333.3290303834
83333.3290311073
83333.3290308101
83333.3290296732
83333.3290278129
83333.3290059537
83333.3290155659
83333.3290235271
83333.3290299198
83333.3290349196
83333.3290387442
83333.3290415942
83333.3290436081
83333.3290448594
83333.3290453651
83333.3290450285
83333.3290437611
83333.3290418516
83333.3290187515
83333.3290288957
83333.3290371461
83333.3290436234
83333.3290485629
83333.3290522634
83333.3290550142
83333.3290570334
83333.3290584524
83333.329059331
83333.3290596489
83333.3290592445
83333.3290579641
83333.3290560808
83333.3290336569
83333.3290443868
83333.3290528818
83333.3290592994
83333.3290639446
83333.3290672146
83333.3290695079
83333.3290711448
83333.3290723409
83333.3290732074
83333.32907376
83333.3290739279
83333.329073505
83333.3290723042
83333.3290705235
83333.3290511123
83333.3290625603
83333.3290713042
83333.3290775399
83333.3290816589
83333.3290841794
83333.3290856323
83333.3290864616
83333.3290869922
83333.3290874219
83333.3290878242
83333.329088165
83333.3290882972
83333.3290879495
83333.3290868761
83333.3290852919
83333.3290715313
83333.3290839125
83333.3290929613
83333.3290989077
83333.3291022724
83333.3291037196
83333.3291039325
83333.3291035007
83333.3291028795
83333.3291023772
83333.3291021522
83333.3291022205
83333.3291024749
83333.329102697
83333.3291025842
83333.3291018543
83333.3291007594
83333.3291536105
83333.3290952887
83333.3291089188
83333.3291184383
83333.3291240736
83333.3291264874
83333.3291265439
83333.3291251043
83333.3291229284
83333.3291206278
83333.3291186462
83333.329117248
83333.3291165234
83333.3291164078
83333.329116722
83333.3291172163
83333.3291175979
83333.3291175055
83333.3291171052
83333.3288727285
83333.3288847135
83333.3288843307
83333.3288966786
83333.3288966725
83333.3288961896
83333.3289079039
83333.3289090454
83333.3289089536
83333.328908315
83333.3289181359
83333.3289206486
83333.3289217022
83333.328921473
83333.328920665
83333.3289274318
83333.3289313095
83333.328933664
83333.3289345783
83333.3289341925
83333.3289332119
83333.3289359469
83333.3289410837
83333.3289447073
83333.328946897
83333.3289476442
83333.3289470926
83333.3289459408
83333.3289438772
83333.328950135
83333.328954946
83333.328958335
83333.3289603123
83333.3289608729
83333.3289601571
83333.3289588358
83333.3289514519
83333.3289587097
83333.3289645791
83333.3289690495
83333.3289721392
83333.3289738723
83333.3289742421
83333.3289733777
83333.3289719141
83333.32895896
83333.3289671008
83333.3289738775
83333.3289792748
83333.3289833239
83333.32898607
83333.3289875419
83333.3289877285
83333.3289867514
83333.3289851805
83333.328966698
83333.3289756189
83333.3289831593
83333.3289893137
83333.3289941389
83333.3289977088
83333.3290000878
83333.3290012982
83333.3290013043
83333.3290002385
83333.3289985484
83333.3289749748
83333.3289846013
83333.3289927781
83333.328999522
83333.3290049239
83333.3290091016
83333.3290121614
83333.3290141673
83333.329015125
83333.3290149701
83333.3290139589
83333.3290120669
83333.3289841227
83333.3289944143
83333.3290031245
83333.3290103003
83333.3290160751
83333.3290206234
83333.3290241091
83333.3290266462
83333.3290282914
83333.3290290286
83333.329028807
83333.3290276164
83333.3290257774
83333.3289944939
83333.3290054515
83333.3290146237
83333.3290220916
83333.3290280389
83333.3290327078
83333.3290363367
83333.3290391072
83333.3290411306
83333.3290424559
83333.3290430559
83333.3290427884
83333.3290415941
83333.3290397609
83333.3290064546
83333.329018132
83333.3290277359
83333.3290353807
83333.3290413078
83333.3290458403
83333.329049308
83333.3290519788
83333.329054036
83333.3290555796
83333.3290566307
83333.3290571186
83333.3290568489
83333.3290557208
83333.3290539893
83333.329020374
83333.3290328993
83333.3290429587
83333.3290506964
83333.3290564206
83333.3290605538
83333.329063537
83333.3290657446
83333.3290674533
83333.3290688354
83333.3290699597
83333.329070804
83333.3290712469
83333.3290710594
83333.3290700707
83333.3290685407
83333.3290365957
83333.3290501924
83333.3290608014
83333.3290685818
83333.3290739304
83333.329077395
83333.3290795529
83333.3290809065
83333.3290818468
83333.3290826423
83333.3290834352
83333.3290842472
83333.3290849973
83333.3290855014
83333.3290854911
83333.3290847437
83333.3290835516
83333.3290554423
83333.3290703964
83333.3290817301
83333.3290895443
83333.329094351
83333.3290968763
83333.3290978577
83333.3290979459
83333.3290976673
83333.3290974083
83333.3290974057
83333.3290977469
83333.329098388
83333.3290991817
83333.3290999064
83333.3291002784
83333.3291000386
83333.3290995079
83333.3291400919
83333.3291519272
83333.3290771159
83333.3290938659
83333.32910615
83333.3291141042
83333.3291182957
83333.3291196394
83333.3291190934
83333.3291174853
83333.3291155034
83333.3291136792
83333.3291123678
83333.3291117439
83333.3291118178
83333.3291124675
83333.329113497
83333.3291146766
83333.3291157437
83333.3291162611
83333.3291163663
83333.3288730012
83333.328872641
83333.3288845849
83333.3288845852
83333.3288841187
83333.3288953964
83333.3288965308
83333.3288964444
83333.3288958263
83333.328905217
83333.3289077302
83333.328908787
83333.3289085658
83333.3289077758
83333.3289140605
83333.3289179632
83333.3289203388
83333.3289212702
83333.3289208967
83333.3289199324
83333.3289220623
83333.3289272601
83333.3289309367
83333.3289331689
83333.3289339477
83333.3289334144
83333.3289322844
83333.328929396
83333.3289357577
83333.3289406686
83333.3289441442
83333.3289461893
83333.3289467967
83333.3289461072
83333.32894482
83333.3289362413
83333.3289436619
83333.3289496959
83333.3289543183
83333.3289575357
83333.3289593659
83333.3289597976
83333.3289589615
83333.3289575079
83333.3289428485
83333.3289512238
83333.3289582459
83333.3289638816
83333.3289681436
83333.3289710651
83333.3289726682
83333.3289729386
83333.3289719915
83333.3289704098
83333.328949469
83333.328958708
83333.3289665905
83333.3289730893
83333.3289782374
83333.3289820887
83333.3289846946
83333.3289860726
83333.3289861967
83333.3289851837
83333.3289834282
83333.3289563623
83333.3289664008
83333.3289750322
83333.3289822471
83333.3289881067
83333.3289927007
83333.3289961136
83333.3289983972
83333.3289995545
83333.3289995353
83333.3289984445
83333.3289965938
83333.3289638075
83333.3289746129
83333.3289839049
83333.3289917001
83333.3289980948
83333.3290032262
83333.329007227
83333.3290101894
83333.3290121571
83333.3290131094
83333.3290130177
83333.3290118727
83333.3290100598
83333.3289720998
83333.3289836772
83333.3289935716
83333.3290018291
83333.3290085884
83333.3290140435
83333.3290183893
83333.3290217753
83333.3290242926
83333.329025974
83333.329026792
83333.3290266431
83333.3290255399
83333.3290237533
83333.3289815437
83333.3289939454
83333.3290044217
83333.3290130482
83333.3290200123
83333.3290255749
83333.3290300071
83333.3290335316
83333.3290363023
83333.329038404
83333.3290398562
83333.3290405966
83333.3290404723
83333.3290394197
83333.3290377292
83333.3289924417
83333.3290057829
83333.3290168704
83333.3290258054
83333.3290328291
83333.3290382831
83333.3290425309
83333.3290458851
83333.3290485794
83333.3290507628
83333.3290524996
83333.3290537756
83333.3290544869
83333.3290544409
83333.329053533
83333.3290520551
83333.329005076
83333.3290195582
83333.329031356
83333.3290405823
83333.3290475397
83333.3290526692
83333.3290564494
83333.3290593025
83333.3290615611
83333.3290634575
83333.3290651181
83333.3290665689
83333.3290677499
83333.3290685145
83333.3290686394
83333.3290679703
83333.3290668354
83333.3290196886
83333.3290356059
83333.3290483067
83333.3290578631
83333.3290646488
83333.329069239
83333.3290722559
83333.3290742557
83333.3290756907
83333.3290768962
83333.3290780819
83333.3290793312
83333.3290806158
83333.3290818192
83333.3290827539
83333.329083184
83333.3290828905
83333.3290822087
83333.3290364931
83333.3290542264
83333.3290680649
83333.3290780718
83333.329084616
83333.3290884527
83333.3290904037
83333.3290911827
83333.3290913819
83333.3290914613
83333.3290917341
83333.3290923611
83333.3290933623
83333.3290946437
83333.3290960429
83333.3290973547
83333.3290983236
83333.3290986804
83333.3290986458
83333.329123007
83333.3291383181
83333.3291485254
83333.3290555106
83333.3290756183
83333.3290909353
83333.3291015448
83333.3291079017
83333.3291108641
83333.3291114686
83333.3291106524
83333.3291091787
83333.3291076599
83333.3291065395
83333.3291060787
83333.3291063647
83333.3291073377
83333.3291088425
83333.3291106934
83333.3291126808
83333.329114464
83333.3291155209
83333.3291160722
83333.3288728548
83333.3288728875
83333.3288724457
83333.3288833125
83333.3288844395
83333.328884364
83333.3288837687
83333.3288927234
83333.32889522
83333.3288962735
83333.3288960648
83333.3288953009
83333.3289011438
83333.3289050428
83333.3289074215
83333.3289083616
83333.3289080014
83333.3289070584
83333.3289086735
83333.3289138938
83333.3289175961
83333.3289198525
83333.3289206529
83333.3289201344
83333.3289190212
83333.3289154652
83333.3289218853
83333.3289268558
83333.3289303863
83333.3289324788
83333.3289331207
83333.328932453
83333.3289311952
83333.3289216717
83333.3289291907
83333.3289353337
83333.3289400603
83333.3289433684
83333.3289452704
83333.3289457501
83333.3289449469
83333.328943544
83333.3289274981
83333.3289360279
83333.3289432208
83333.328949028
83333.3289534462
83333.3289564984
83333.3289582
83333.3289585285
83333.3289575953
83333.3289559226
83333.3289331583
83333.3289426172
83333.3289507467
83333.3289575016
83333.328962894
83333.3289669607
83333.3289697418
83333.3289712497
83333.3289714584
83333.3289704458
83333.3289685731
83333.3289388687
83333.3289492002
83333.3289581683
83333.3289657414
83333.3289719549
83333.3289768743
83333.3289805658
83333.3289830715
83333.3289843961
83333.3289844997
83333.3289833923
83333.3289815716
83333.328944861
83333.3289560387
83333.3289657693
83333.3289740428
83333.3289809239
83333.3289865176
83333.3289909294
83333.3289942339
83333.3289964663
83333.3289976134
83333.3289976036
83333.3289964852
83333.3289946963
83333.3289513807
83333.3289634125
83333.3289738575
83333.3289827317
83333.3289901347
83333.3289962191
83333.3290011427
83333.3290050272
83333.3290079462
83333.3290099244
83333.3290109374
83333.3290108944
83333.3290098391
83333.3290080872
83333.3289586801
83333.3289716159
83333.3289827626
83333.3289921615
83333.3289999533
83333.3290063461
83333.3290115613
83333.3290157825
83333.3290191369
83333.3290216935
83333.3290234686
83333.3290244112
83333.3290244238
83333.3290234322
83333.3290217765
83333.3289670075
83333.328980952
83333.3289928318
83333.329002711
83333.3290107752
83333.3290172985
83333.3290225787
83333.3290268749
83333.3290303828
83333.329033229
83333.3290354705
83333.3290371004
83333.3290380396
83333.3290381244
83333.3290372823
83333.3290358458
83333.3289765932
83333.3289917219
83333.3290044261
83333.3290147835
83333.3290230267
83333.3290295086
83333.329034621
83333.3290387152
83333.3290420713
83333.3290448881
83333.3290472777
83333.3290492688
83333.3290508185
83333.3290518123
83333.3290520641
83333.329051475
83333.3290503919
83333.3289876253
83333.3290042058
83333.3290179088
83333.3290288024
83333.3290371625
83333.3290434397
83333.3290481443
83333.3290517426
83333.3290546183
83333.3290570601
83333.3290592522
83333.3290612734
83333.3290631083
83333.329064672
83333.3290658155
83333.329066362
83333.3290661384
83333.3290655184
83333.3290002409
83333.329018638
83333.3290335985
83333.3290451721
83333.32905363
83333.3290595505
83333.3290636013
83333.3290663924
83333.3290684347
83333.3290701269