/*--------------------------------*- C++ -*----------------------------------*\
  =========                 |
  \\      /  F ield         | OpenFOAM: The Open Source CFD Toolbox
   \\    /   O peration     | Website:  https://openfoam.org
    \\  /    A nd           | Version:  12
     \\/     M anipulation  |
\*---------------------------------------------------------------------------*/
/*   Windows 32 and 64 bit porting by blueCAPE: http://www.bluecape.com.pt   *\
|  Based on Windows porting (2.0.x v4) by Symscape: http://www.symscape.com   |
\*---------------------------------------------------------------------------*/
FoamFile
{
    format      ascii;
    class       volVectorField;
    location    "200";
    object      U;
}
// * * * * * * * * * * * * * * * * * * * * * * * * * * * * * * * * * * * * * //

dimensions      [0 1 -1 0 0 0 0];

internalField   nonuniform List<vector> 
10123
(
(8.35832932950835e-06 -0.000505314635747559 -1.65764748893812e-06)
(6.23121685428203e-06 -0.000494064835684644 -1.62685228439452e-08)
(4.59500233279696e-06 -0.000485332824609849 -1.13615845079753e-05)
(1.92828510791156e-05 -0.000355555082937376 3.21213400599831e-06)
(5.40550779453015e-06 -0.000481431076888313 1.62592274727013e-06)
(4.35650628146826e-06 -0.000480144076590803 -5.36777001100524e-06)
(1.51638059060195e-05 -0.00034546411694598 4.37143596381613e-06)
(3.68520318883755e-06 -0.000538343833530467 -1.87060984519973e-05)
(1.16526986657746e-05 -0.000380827217359926 -4.17567167602547e-06)
(2.28659271985087e-05 -0.000303737066587481 5.65782368658086e-06)
(4.59113307901316e-06 -0.000467009282003661 4.03496193042512e-06)
(3.98590943211522e-06 -0.000470470218384428 -3.10797023060879e-07)
(1.32677260171052e-05 -0.000335470901457495 4.89200050972613e-06)
(3.79194741424673e-06 -0.000529807501369682 -9.36317161513254e-06)
(1.11309944614486e-05 -0.000373915511606902 1.0201608836026e-06)
(2.05180928571154e-05 -0.000293902234327684 7.14892978985503e-06)
(3.31228120556833e-06 -0.000570373817572225 -2.13542256730157e-05)
(1.05321697611559e-05 -0.000493448717476097 -1.09835279536602e-05)
(1.67970505633913e-05 -0.000339396917894479 -8.02736165945335e-07)
(2.52971382943911e-05 -0.000286791098354779 7.85871969944752e-06)
(3.9549472246856e-06 -0.000450877059045293 6.50253702764197e-06)
(3.63101389247518e-06 -0.000458228317671674 5.01892648003723e-06)
(1.12396116178561e-05 -0.000323343142624061 6.56423859675164e-06)
(3.75237892480636e-06 -0.00051777071876196 -3.89195587603899e-07)
(1.0357315795436e-05 -0.000364323729893926 5.44932126348754e-06)
(1.87724974796566e-05 -0.00028508086420227 7.66913517285149e-06)
(3.51180055206173e-06 -0.000558051005711307 -8.96867344324498e-06)
(1.09481787457585e-05 -0.000483368248653006 -2.60082568660193e-06)
(1.67972109861824e-05 -0.000331170969230321 4.51594999853838e-06)
(2.45268404358202e-05 -0.000276256144287649 9.32656451013903e-06)
(3.25973345838762e-06 -0.000605807342911397 -1.91401041251811e-05)
(9.89802156205543e-06 -0.000544982240461007 -1.2826861936369e-05)
(1.72828088050793e-05 -0.000470450479843769 -6.1522251543758e-06)
(2.11424546357366e-05 -0.00031788100967622 1.81479390083359e-06)
(2.67932429743256e-05 -0.000267046190559831 8.56802407797067e-06)
(3.35792106041129e-06 -0.000432495181118198 8.80073230049025e-06)
(3.32673175364978e-06 -0.000443453458650902 1.02378572060334e-05)
(9.4950401040406e-06 -0.000309687085357122 8.28106284921284e-06)
(3.62276946587226e-06 -0.000503276526661038 8.14765164572315e-06)
(9.51281174582046e-06 -0.000353291949322909 9.82388165103316e-06)
(1.63665677144832e-05 -0.000274080241762964 9.08272218499612e-06)
(3.56544556274711e-06 -0.00054294996005732 2.86200553927762e-06)
(1.08595456381441e-05 -0.000471030320655842 5.58931335741413e-06)
(1.62917851024861e-05 -0.000321517489324522 1.03292549883838e-05)
(2.31923093010423e-05 -0.000268115761496754 9.62105855963816e-06)
(3.45414194297595e-06 -0.000589402135755198 -4.32541651928679e-06)
(1.05208116810724e-05 -0.000531701160351681 -1.52489110517805e-06)
(1.79728508169792e-05 -0.00045919885121816 1.86296045759089e-06)
(2.17461579361908e-05 -0.000308889687864014 6.81951816469693e-06)
(2.72996163593092e-05 -0.000255912839285739 1.00188545089392e-05)
(3.39121854608312e-06 -0.000646358387892389 -1.23208212975004e-05)
(9.79890751042225e-06 -0.000586287463787642 -9.99263720835282e-06)
(1.69432558511473e-05 -0.000529020088378188 -7.12995202901147e-06)
(2.38746219506324e-05 -0.000453664975862361 -2.77817229495806e-06)
(2.46321564970297e-05 -0.000294123896785648 3.85983239189288e-06)
(2.73037343216714e-05 -0.000240967468445234 9.20232011542036e-06)
(2.76037381351669e-06 -0.000412273456842833 1.08686338521097e-05)
(3.01143597943182e-06 -0.000426453568807131 1.50523958090642e-05)
(7.8320492192977e-06 -0.000293861144541076 9.89040554396535e-06)
(3.45698899726761e-06 -0.000486449742727231 1.61144386223107e-05)
(8.71886769050019e-06 -0.000340077482625879 1.41799393640404e-05)
(1.38107176543801e-05 -0.000261602552056633 1.03824503286151e-05)
(3.50123081199408e-06 -0.000525737438613785 1.40103429753518e-05)
(1.05029760916659e-05 -0.000457041805315213 1.31954827483163e-05)
(1.52952217854589e-05 -0.00031112808462621 1.42257232051645e-05)
(2.06166977556846e-05 -0.000257772194191465 1.06607142671301e-05)
(3.52724270357244e-06 -0.000570717112600556 9.81057174712351e-06)
(1.06955309440999e-05 -0.000516381944023011 9.28352798858273e-06)
(1.79644047673267e-05 -0.000446632331359029 9.84194910517644e-06)
(2.14808039469284e-05 -0.000299144318400635 1.25697452736216e-05)
(2.63630530293545e-05 -0.00024803188712572 1.01468707512655e-05)
(3.57576887439954e-06 -0.000625570324053142 4.47402744368657e-06)
(1.04182687023224e-05 -0.000569341315112422 3.61987448642267e-06)
(1.78380393226723e-05 -0.000515033624670856 3.69206820155862e-06)
(2.49033774791415e-05 -0.000441956391898274 5.05907215457115e-06)
(2.5781995878129e-05 -0.0002849759628084 8.37135849301877e-06)
(2.93092188229749e-05 -0.000228768184373995 1.03121634906458e-05)
(3.6373156696047e-06 -0.000690965808410512 -1.00899083937925e-06)
(1.01225033140653e-05 -0.00062838500265293 -2.83412765086944e-06)
(1.6984999574361e-05 -0.000572263731336457 -3.70886552263635e-06)
(2.4124984803823e-05 -0.000514427947403788 -3.08444239903588e-06)
(2.9947741666727e-05 -0.000432729255072889 -4.44326350575879e-07)
(2.73891698477915e-05 -0.000265875841311003 5.15345373218926e-06)
(2.66433366277069e-05 -0.00020958332864958 1.01943666542662e-05)
(2.20641033353491e-06 -0.000390500248852673 1.2659868655805e-05)
(2.68858301472428e-06 -0.000407653346795088 1.93427361762217e-05)
(6.18163988066877e-06 -0.000276372545862846 1.14126044637839e-05)
(3.24986140854001e-06 -0.00046770087179154 2.33763512750966e-05)
(7.86345573108766e-06 -0.000324784967007967 1.83372833650099e-05)
(1.12685960100155e-05 -0.000246901996850631 1.16532176240373e-05)
(3.37859120061302e-06 -0.000506581843496619 2.43628079063148e-05)
(1.00210701592295e-05 -0.000440941408082751 2.02415364555525e-05)
(1.40348508789104e-05 -0.00029878582352394 1.76100861061501e-05)
(1.75000389633335e-05 -0.000246094597061164 1.16724901756857e-05)
(3.49224276780966e-06 -0.000550312578867133 2.30842326536749e-05)
(1.05524024339918e-05 -0.000499460488103499 1.93687214484027e-05)
(1.74710654735492e-05 -0.00043305086213828 1.69979122051011e-05)
(2.03888754373623e-05 -0.000289197049717703 1.66559354272997e-05)
(2.35883943247762e-05 -0.000238238711467562 1.10740293006691e-05)
(3.62971853903212e-06 -0.000602929087988584 2.04427391265451e-05)
(1.06604074360185e-05 -0.000550627838401122 1.656551022411e-05)
(1.80950046184433e-05 -0.000499601479608864 1.40043981634922e-05)
(2.50847198479226e-05 -0.00042941205663734 1.28494383364895e-05)
(2.58668647785264e-05 -0.000275467836070599 1.28244345489846e-05)
(2.86859411124143e-05 -0.00022058051302105 1.03852791966314e-05)
(3.77525767508742e-06 -0.000665506176355401 1.73794488358012e-05)
(1.06941736731109e-05 -0.000607367965224648 1.26306400084484e-05)
(1.79103712697028e-05 -0.000554959339511813 9.29985250750841e-06)
(2.53307037471814e-05 -0.000500286994784416 7.46525425419298e-06)
(3.13182980742902e-05 -0.00042122335815142 7.16255535775344e-06)
(2.8970764295821e-05 -0.000256748915659005 9.32853777244436e-06)
(3.09949745513177e-05 -0.000196337383110525 1.09336514105625e-05)
(3.91830045412347e-06 -0.000738688283774063 1.46467484503224e-05)
(1.07300108853992e-05 -0.000672860987264799 8.52481613570886e-06)
(1.7541470081169e-05 -0.000614449695093707 3.73607565110997e-06)
(2.44213142406036e-05 -0.000557891276604226 7.52389867145834e-07)
(3.09292466210612e-05 -0.000494750951325535 -3.01154714973723e-07)
(3.52239315701704e-05 -0.000406554483886475 9.8476069485016e-07)
(2.97172216593792e-05 -0.000233522577292338 5.68607282089568e-06)
(2.50542991797299e-05 -0.000165611591152317 1.02045338176574e-05)
(1.68335190244182e-06 -0.000367526067324627 1.41579276938819e-05)
(2.34941847022215e-06 -0.000387423058629767 2.30607192954998e-05)
(4.59615940876821e-06 -0.000257460362951683 1.27454102591304e-05)
(3.00768360800758e-06 -0.000447417033614691 2.98506380570101e-05)
(6.91039238567681e-06 -0.000307845691996775 2.19268570850054e-05)
(8.73248219116429e-06 -0.000230502464525184 1.29043364243203e-05)
(3.2096307696174e-06 -0.000485877044667385 3.37895682894535e-05)
(9.40569964123269e-06 -0.00042300950589698 2.66797655036948e-05)
(1.25707223464382e-05 -0.000284422530913384 2.09708292343938e-05)
(1.422028376544e-05 -0.000232182753281393 1.2723898052429e-05)
(3.39865666349562e-06 -0.00052838021884228 3.53666194553263e-05)
(1.02169682956907e-05 -0.000480763596641785 2.8719008678119e-05)
(1.66707306226629e-05 -0.000417514856756188 2.35062960907805e-05)
(1.87847315665226e-05 -0.000277526121690665 1.97490953900895e-05)
(2.0054131802512e-05 -0.000227470173215843 1.22391609422145e-05)
(3.60214405963311e-06 -0.000578938923797814 3.53852362569062e-05)
(1.06094296259032e-05 -0.000530557462520343 2.86693992035427e-05)
(1.78845674997127e-05 -0.000483000381227711 2.35149066886569e-05)
(2.45397296658819e-05 -0.000416280304683422 1.97418618081513e-05)
(2.47170496816847e-05 -0.000266156657363664 1.72024327290363e-05)
(2.50564877837272e-05 -0.000211319515105053 1.12636380324272e-05)
(3.81175751305771e-06 -0.000638570543352596 3.47625741140937e-05)
(1.09110481555483e-05 -0.000584908932356643 2.72941595032361e-05)
(1.82653822869667e-05 -0.000536311418214269 2.16163457544079e-05)
(2.57514103727755e-05 -0.000485041498433181 1.74690088209749e-05)
(3.1697856992263e-05 -0.000409129528431012 1.46944338055395e-05)
(2.91751581906602e-05 -0.00024761992435469 1.31061225364715e-05)
(3.05917765827832e-05 -0.000185738360310466 1.07215592681536e-05)
(4.01814538063617e-06 -0.000708266361463694 3.42941752995488e-05)
(1.11945298177184e-05 -0.000647457578121893 2.54823109856983e-05)
(1.84065351600792e-05 -0.000593352648997205 1.85133416636784e-05)
(2.56839851972896e-05 -0.000540687370697516 1.34044470381714e-05)
(3.24952495493946e-05 -0.000481015896867615 9.96653517079872e-06)
(3.68926355269053e-05 -0.000395623386338467 8.30180406727998e-06)
(3.15011508644197e-05 -0.00022467586365829 9.62461640021151e-06)
(3.3579386590576e-05 -0.000155014259887724 1.08043235244263e-05)
(4.2334795341048e-06 -0.000788911015102129 3.46231169081604e-05)
(1.14879832699074e-05 -0.000719766577126141 2.40339872480791e-05)
(1.84778511534363e-05 -0.000658290492360719 1.51394984491283e-05)
(2.52581552687553e-05 -0.000599507476292926 8.37252838981082e-06)
(3.15324453259205e-05 -0.000538208862244265 3.75371974819111e-06)
(3.69027561870421e-05 -0.00046947948708687 1.24887666813252e-06)
(3.96112353009336e-05 -0.00037547337139559 1.43018451767817e-06)
(3.21339377066223e-05 -0.000196888661417989 5.1079710056231e-06)
(4.04571246338993e-05 -0.000101557784454276 1.2165884569279e-05)
(1.18450627243781e-06 -0.000343748243811221 1.53433579240171e-05)
(1.9984143851081e-06 -0.000366116059355155 2.61921392283304e-05)
(3.08862036172754e-06 -0.000237399768915048 1.38665784849617e-05)
(2.73566505594556e-06 -0.000425952974516219 3.54929959268977e-05)
(5.87377586830498e-06 -0.000289573644358255 2.49266825336831e-05)
(6.24815053199412e-06 -0.000212688130062137 1.4028270119754e-05)
(3.0018816334545e-06 -0.000463974666653479 4.2195173039526e-05)
(8.67747019273107e-06 -0.000403614138119488 3.24067640212293e-05)
(1.0936353864643e-05 -0.000268451984178813 2.39978713678091e-05)
(1.08813866058895e-05 -0.000216526216738346 1.38276471634608e-05)
(3.25427126064845e-06 -0.000505277858134108 4.65215169665766e-05)
(9.73253068612732e-06 -0.00046058440445548 3.72428848131553e-05)
(1.56144604573142e-05 -0.000400180140430834 2.94419976217545e-05)
(1.68056295638309e-05 -0.00026389681362297 2.27925316295736e-05)
(1.62035926684571e-05 -0.000214605105359225 1.32442751424377e-05)
(3.52008222167378e-06 -0.000553823417143549 4.91564762611583e-05)
(1.03682731226539e-05 -0.00050907982147833 3.98710293358027e-05)
(1.73375078834761e-05 -0.000464747052429809 3.22779717907095e-05)
(2.34665430016582e-05 -0.000401349819888519 2.59244573038645e-05)
(2.27960089864406e-05 -0.000255336094778352 2.08275078433033e-05)
(2.08048595070157e-05 -0.000201977927311238 1.23562369000529e-05)
(3.7777211568884e-06 -0.000610671570646395 5.09506432186156e-05)
(1.08815804044225e-05 -0.000561407437199267 4.09755599199188e-05)
(1.81907046567267e-05 -0.000516626446600833 3.30428305048357e-05)
(2.55271032262236e-05 -0.000468934683514345 2.6604219322267e-05)
(3.11494683594699e-05 -0.000396742645920651 2.14137762951614e-05)
(2.79177600106636e-05 -0.000239260591133325 1.68379354807387e-05)
(2.40858530163951e-05 -0.000176378532258084 1.14939132737652e-05)
(4.03183393734008e-06 -0.000676755234968865 5.27362173617872e-05)
(1.13629006898453e-05 -0.000620949532333367 4.14897754130541e-05)
(1.87704984297066e-05 -0.000571147534936287 3.24615247305933e-05)
(2.62270832663662e-05 -0.000522387500330633 2.53222486410624e-05)
(3.31166592829056e-05 -0.000466381753673529 1.96712143192536e-05)
(3.7390096973333e-05 -0.000384310035978356 1.55367309211211e-05)
(3.15166511213506e-05 -0.000215699439833507 1.3187494443782e-05)
(3.09948971872697e-05 -0.000143959625249809 1.04924311848609e-05)
(4.2913765011647e-06 -0.000753234568855844 5.52595209261205e-05)
(1.18422626318707e-05 -0.00068967770677275 4.21929997692271e-05)
(1.92366385498406e-05 -0.000633050266512204 3.13497866448478e-05)
(2.64712974881367e-05 -0.000578726659873045 2.27261740847591e-05)
(3.31788607092198e-05 -0.000521614305721579 1.60649529668164e-05)
(3.88300653293629e-05 -0.000456575171378205 1.1214125638952e-05)
(4.15065980296611e-05 -0.000365429340399815 8.47632637664503e-06)
(3.39340380820673e-05 -0.000189288670514035 8.44859254294575e-06)
(3.39185081611113e-05 -8.22664951082507e-05 5.30419335927197e-06)
(4.57966948922866e-06 -0.00084112183255775 5.90730372220671e-05)
(1.23695621317135e-05 -0.000768855912425365 4.37662303934612e-05)
(1.97071239952991e-05 -0.000704250893986171 3.05419990743806e-05)
(2.65837018063868e-05 -0.00064249004789008 1.97776011457739e-05)
(3.2680447278651e-05 -0.000579342684324745 1.1421890613464e-05)
(3.78160797977198e-05 -0.000512987904935348 5.32055525240007e-06)
(4.18125206867194e-05 -0.000439185056789084 1.57617778884149e-06)
(4.30873767344625e-05 -0.000339917465011932 7.46777930017589e-07)
(3.68423972334503e-05 -0.000154886502828172 5.32732788759734e-06)
(4.3590704365033e-05 -6.38326597083133e-05 2.89714150168058e-06)
(7.16676737885537e-07 -0.000319533867867964 1.62456781314915e-05)
(1.64427786507892e-06 -0.000344072289122247 2.87391725641017e-05)
(1.65185703105216e-06 -0.000216583046543053 1.47174429207091e-05)
(2.43912387602484e-06 -0.00040364034430175 4.02757772116656e-05)
(4.79647172364605e-06 -0.000270284746940968 2.74382996580259e-05)
(3.8404069191807e-06 -0.000193711374593317 1.4942962561617e-05)
(2.763939394188e-06 -0.000441191826530738 4.9515037369861e-05)
(7.85787903255486e-06 -0.000383077611697554 3.73857750666197e-05)
(9.18387868501518e-06 -0.000251159092220479 2.6623191169628e-05)
(7.57031691909881e-06 -0.000199406946403429 1.47917279333572e-05)
(3.06709073491886e-06 -0.000481322989585828 5.64431677404599e-05)
(9.12509746364782e-06 -0.000439246715990799 4.48429204092733e-05)
(1.43532429008111e-05 -0.000381408917888742 3.47153359433928e-05)
(1.45501494609306e-05 -0.00024867892390034 2.55542941737556e-05)
(1.21568123533375e-05 -0.000200013968066602 1.42139808938478e-05)
(3.38831639289874e-06 -0.000527915553427093 6.16118678242943e-05)
(9.968416750198e-06 -0.000486471203052764 5.00515059099943e-05)
(1.65151438221914e-05 -0.000445052925656224 4.02509594229473e-05)
(2.19948785827575e-05 -0.000384665635094712 3.15391893967874e-05)
(2.03972887580426e-05 -0.000242666578758748 2.37665168050846e-05)
(1.65963527526171e-05 -0.000190581011210855 1.33393495823484e-05)
(3.69497650083692e-06 -0.000582039749988694 6.57914233808865e-05)
(1.0675132822699e-05 -0.0005368540603486 5.359013521832e-05)
(1.77877901144287e-05 -0.000495619574718534 4.35864578522612e-05)
(2.48041444393051e-05 -0.000451276552708161 3.49698811496291e-05)
(2.98533383167042e-05 -0.000382699539228191 2.73704007262504e-05)
(2.5767997316826e-05 -0.000229686716500091 2.04490185777251e-05)
(1.85185204485938e-05 -0.000169636386467874 1.24322510729301e-05)
(3.98302315040153e-06 -0.000644662936478839 6.9794280291168e-05)
(1.13148517391434e-05 -0.000593726525571259 5.63540409272665e-05)
(1.87436668566188e-05 -0.000548148290298502 4.53898605606991e-05)
(2.61787734766158e-05 -0.000503277572803973 3.62987492442683e-05)
(3.29205743713232e-05 -0.000451113937471053 2.84961413879494e-05)
(3.68064539941811e-05 -0.000372981637795872 2.20149818616504e-05)
(2.9543956556899e-05 -0.000208391219147947 1.66317932203738e-05)
(1.71235639499023e-05 -0.000132224946599305 1.21603091198529e-05)
(4.27389620510087e-06 -0.000716862224847113 7.44458752993363e-05)
(1.19432114668307e-05 -0.000658829219228147 5.92090512388877e-05)
(1.95501365602461e-05 -0.000606980331726877 4.65820368913551e-05)
(2.7035660468968e-05 -0.000557031107135712 3.621355209984e-05)
(3.39512770972664e-05 -0.0005040735331762 2.76341306318855e-05)
(3.96638032561525e-05 -0.000442914742762334 2.06315366291877e-05)
(4.20402795111992e-05 -0.000355072496831842 1.54907939437687e-05)
(3.28592948503896e-05 -0.000179772479811899 1.20100893537647e-05)
(2.02910107793029e-05 -8.9727371509485e-05 6.09402355908413e-06)
(4.58751790341759e-06 -0.000799879150976262 8.0442183328846e-05)
(1.26008353960841e-05 -0.000733770631492142 6.28641788089264e-05)
(2.03125514305505e-05 -0.000674544170030056 4.79084144942741e-05)
(2.76647803995037e-05 -0.0006177621522718 3.55176847166945e-05)
(3.42774597285998e-05 -0.000559356603464968 2.53819384945266e-05)
(3.9859984088503e-05 -0.000497410975197039 1.72892941639046e-05)
(4.40821682617267e-05 -0.000427421650949656 1.12479866299443e-05)
(4.51414095292238e-05 -0.000331097493413651 7.40657804807545e-06)
(3.60664827723605e-05 -0.000147662246789375 5.38424451858642e-06)
(2.71081377348333e-05 -4.07551184388779e-05 7.36792971497449e-07)
(4.95361242154831e-06 -0.000894718085831672 8.82475284013144e-05)
(1.33555927305513e-05 -0.00081971251905746 6.78821466583745e-05)
(2.11684029960672e-05 -0.000752228594046256 5.00678557962236e-05)
(2.83134172371347e-05 -0.000687475297185889 3.50618035008697e-05)
(3.44088014972066e-05 -0.000621664012333636 2.27363120138669e-05)
(3.92772118842742e-05 -0.000553861594149926 1.29009718841613e-05)
(4.29837434567779e-05 -0.000482914797246114 5.49279945065956e-06)
(4.55378647905813e-05 -0.000404490113074318 6.27674381454788e-07)
(4.58759744346754e-05 -0.000300300459736864 -7.41283096031712e-07)
(3.71597790583399e-05 -0.000111160568298979 -5.24630873854797e-07)
(2.33537889559719e-05 1.09898197779709e-06 2.36264764639453e-06)
(2.71273249090198e-07 -0.000295232922150224 1.68767373529358e-05)
(1.29031287870014e-06 -0.000321615301485259 3.07246431604502e-05)
(2.82376993043893e-07 -0.000195352691608756 1.53415752269574e-05)
(2.13337208965059e-06 -0.000380784907263794 4.41947589212713e-05)
(3.70411128044213e-06 -0.000250303747403033 2.94533790952339e-05)
(1.51286578948689e-06 -0.000173954908100982 1.55842441914224e-05)
(2.5043192386837e-06 -0.000417825780720968 5.57172065483336e-05)
(6.96800400009592e-06 -0.000361717625056025 4.15947690239416e-05)
(7.35967647165127e-06 -0.000232862236394526 2.88158485109924e-05)
(4.30504779348307e-06 -0.000181072629087022 1.55496516901344e-05)
(2.8533935308222e-06 -0.000456804638507515 6.50611462815194e-05)
(8.423225559782e-06 -0.000417047874990165 5.14568876051334e-05)
(1.29376040086774e-05 -0.000361507956197892 3.92930625522909e-05)
(1.21122616663886e-05 -0.000232134721492395 2.79581965611126e-05)
(8.09479566335461e-06 -0.00018391759207415 1.50312865344974e-05)
(3.21452147870371e-06 -0.000501510219751989 7.26437042898711e-05)
(9.4384032239264e-06 -0.00046303117739918 5.91046540186376e-05)
(1.54730845224543e-05 -0.000424218184411255 4.73461065120018e-05)
(2.02048856879464e-05 -0.000366561973973009 3.65141145380424e-05)
(1.75669123415485e-05 -0.000228430734048599 2.63630514721194e-05)
(1.20764272910907e-05 -0.000177388914578607 1.41523142686324e-05)
(3.5680720040904e-06 -0.000552991112641608 7.91403683741135e-05)
(1.03148832544225e-05 -0.000511520066095252 6.50083821901183e-05)
(1.71111404734771e-05 -0.000473504276653298 5.31517839450608e-05)
(2.36607825888823e-05 -0.00043219718135704 4.25548125481715e-05)
(2.799864576403e-05 -0.000366940467115645 3.27006669002988e-05)
(2.30190127396454e-05 -0.000218235090773833 2.37212998863337e-05)
(1.4695774106224e-05 -0.000160722869830336 1.31493698315498e-05)
(3.88980460507742e-06 -0.000612227090064882 8.53210732473673e-05)
(1.11061745073008e-05 -0.000565813081964824 6.99850001183671e-05)
(1.84023059213084e-05 -0.000524156228081299 5.72799730216436e-05)
(2.5639868006039e-05 -0.000482917629417997 4.63754459120692e-05)
(3.20327021500428e-05 -0.000434374841340932 3.65211043685882e-05)
(3.53455865208361e-05 -0.000360142351948597 2.78055237831689e-05)
(2.71504875537015e-05 -0.000200544861428143 1.98593399033558e-05)
(1.079848661611e-05 -0.000131530749768994 1.24483703798245e-05)
(4.20159636227619e-06 -0.000680303416214913 9.20297362492786e-05)
(1.18530662378215e-05 -0.000627609540041795 7.49050665311148e-05)
(1.95050277797605e-05 -0.000580401675663535 6.06451587461737e-05)
(2.70498933474002e-05 -0.000534715626708926 4.86362444626139e-05)
(3.39693650348486e-05 -0.00048587923230271 3.82258616856112e-05)
(3.95142312360167e-05 -0.000428783369396967 2.91714725471916e-05)
(4.12678779061926e-05 -0.000345032274338767 2.18068349426838e-05)
(2.92538825264208e-05 -0.000173363726716117 1.62144389450593e-05)
(2.20280986394745e-06 -8.35640308670657e-05 1.26930031265859e-05)
(4.53102142562247e-06 -0.000758357644385737 0.000100074273392021)
(1.2612761978329e-05 -0.000698289725402457 8.05903981966455e-05)
(2.05245233973642e-05 -0.00064431833174407 6.4111684683491e-05)
(2.8162316858658e-05 -0.000592355368236957 5.02465656479628e-05)
(3.50817840994591e-05 -0.000538552697189572 3.8465933233552e-05)
(4.08884382556532e-05 -0.000480981407206679 2.85258136896195e-05)
(4.5108395337629e-05 -0.000414994573672382 2.04143317283906e-05)
(4.55345139069606e-05 -0.000321673918794237 1.42810446670512e-05)
(3.22736010588295e-05 -0.000139180864595607 8.24335121696009e-06)
(1.86470136434503e-05 -5.21741544020726e-05 6.82819663551544e-06)
(4.90295209274078e-06 -0.000847590830975277 0.000110089466963484)
(1.34421096761375e-05 -0.0007793173440187 8.7670771684278e-05)
(2.15754711567355e-05 -0.000717734716253431 6.83412482002471e-05)
(2.91885024549327e-05 -0.000658462959654043 5.19240571169207e-05)
(3.58443854852168e-05 -0.000597895718382154 3.80459966571934e-05)
(4.12748784448948e-05 -0.000535050083908654 2.6478788023853e-05)
(4.54208259763955e-05 -0.000468648280084769 1.71313204934705e-05)
(4.81180068992991e-05 -0.000394106375782253 9.98103683422248e-06)
(4.76463115457308e-05 -0.000292702668184625 4.96997265631018e-06)
(3.50406301887645e-05 -0.000101960521687774 1.57814097161149e-06)
(1.69433202200093e-05 1.98560883581201e-05 4.4777512022497e-06)
(5.3508234855195e-06 -0.00094891075637772 0.000122438862581498)
(1.44291143136886e-05 -0.000871754049631214 9.66103721637636e-05)
(2.28210768401471e-05 -0.000801841886969322 7.38945000686073e-05)
(3.03765395864944e-05 -0.000734392799162148 5.43758269608474e-05)
(3.66414865118543e-05 -0.000665888608333825 3.78225463811947e-05)
(4.13991230579408e-05 -0.000595784251124698 2.40188337249108e-05)
(4.4734124409209e-05 -0.000523772199335149 1.28557630681654e-05)
(4.68992880350164e-05 -0.000448666834803775 4.24379731668447e-06)
(4.80505544709774e-05 -0.00036594033394096 -1.61902200376416e-06)
(4.6755933133694e-05 -0.000257102486073161 -4.82906774748494e-06)
(3.22271443825151e-05 -5.93770983101238e-05 -4.53589918886237e-06)
(1.93698057499917e-05 7.09132722098036e-05 -5.20311352631817e-06)
(-1.40848451578288e-07 -0.000271181036813368 1.72245697931118e-05)
(9.39936397744697e-07 -0.000299046587880639 3.21809687637967e-05)
(-1.027439031573e-06 -0.000174077110485677 1.56949660090015e-05)
(1.82487652673638e-06 -0.000357672478821042 4.72815024529799e-05)
(2.60867639579153e-06 -0.000229936389749972 3.09793660136618e-05)
(-7.38874509626713e-07 -0.000153757119697799 1.60576694812351e-05)
(2.23775953069571e-06 -0.000394156740387436 6.08060655879528e-05)
(6.04226129783881e-06 -0.00033983345017567 4.50257383116054e-05)
(5.50207331757431e-06 -0.000213874398431469 3.05506592613866e-05)
(1.13908370174272e-06 -0.000161893358809884 1.60079988695629e-05)
(2.62083342101337e-06 -0.000431998073854286 7.23449195845911e-05)
(7.65166417420168e-06 -0.000394276866887997 5.70495594021212e-05)
(1.14108627517989e-05 -0.000340787730860734 4.31499700557549e-05)
(9.57469086275893e-06 -0.00021457019773797 2.99502574727976e-05)
(4.08125018521516e-06 -0.00016651142959709 1.56485026289336e-05)
(3.01353091432773e-06 -0.000474872567432453 8.21877096351505e-05)
(8.81577667508739e-06 -0.000439033964558039 6.69599883937522e-05)
(1.42647819781548e-05 -0.000402527751674393 5.35076170062941e-05)
(1.81823812696996e-05 -0.000347327560327066 4.08162094819316e-05)
(1.44957365695071e-05 -0.000212881015312188 2.85931335923339e-05)
(7.41886234882882e-06 -0.000162728801154683 1.48322559480568e-05)
(3.40162871406166e-06 -0.00052380859893367 9.08931285239522e-05)
(9.8267823452705e-06 -0.00048568718320148 7.51197806538638e-05)
(1.62124403846261e-05 -0.000450565206046957 6.16420318039096e-05)
(2.21803164708456e-05 -0.000411988955430254 4.92848002915597e-05)
(2.57111799785379e-05 -0.000349770851916729 3.74177113569262e-05)
(1.97016612652923e-05 -0.00020523184692996 2.6357631099878e-05)
(1.03659249379096e-05 -0.000149156998365465 1.38383955631842e-05)
(3.75652994001317e-06 -0.000579754073525863 9.91851638426938e-05)
(1.07560056430005e-05 -0.000537468687328176 8.22526928011897e-05)
(1.77966317094629e-05 -0.000499387292899847 6.80255441251392e-05)
(2.46904124191248e-05 -0.00046145631970363 5.54914117833646e-05)
(3.05815335135243e-05 -0.000416216760510645 4.37586951195037e-05)
(3.31961042241891e-05 -0.000345618986055664 3.29605833922462e-05)
(2.44551804269524e-05 -0.000190783763651807 2.25915678635865e-05)
(1.09199753549643e-05 -0.000127642424253765 1.27430166509123e-05)
(4.08989043974582e-06 -0.000643800531327167 0.000107886593693005)
(1.16160654679233e-05 -0.000596062059419956 8.91919647552692e-05)
(1.91662390366282e-05 -0.00055316946194214 7.35100715696218e-05)
(2.65952164563905e-05 -0.000511451255786042 6.00119492360751e-05)
(3.33220460313089e-05 -0.000466481097239899 4.78955715893832e-05)
(3.85007323004098e-05 -0.000413261425402847 3.69145699443575e-05)
(3.96240744268299e-05 -0.000333727571668376 2.73869067695546e-05)
(2.66176004095726e-05 -0.000168187007961433 1.91758708804696e-05)
(-2.82212103052361e-07 -9.3495742308638e-05 1.37019448472133e-05)
(4.42777401427133e-06 -0.000717067929556869 0.000117857517742655)
(1.24571512221793e-05 -0.000662804317095034 9.67921053778995e-05)
(2.04138599550121e-05 -0.000613896490895057 7.89793787799629e-05)
(2.81568911156838e-05 -0.000566579933308658 6.37636234207983e-05)
(3.51789739991969e-05 -0.000517239510387651 5.04533262944711e-05)
(4.09995670806752e-05 -0.000464001780478222 3.87805890749468e-05)
(4.49808658552053e-05 -0.000402251181885582 2.87399115868727e-05)
(4.44092802859178e-05 -0.000313085281860786 2.07306684646196e-05)
(2.74321381025382e-05 -0.000134528109346222 1.45471082424085e-05)
(1.57410722012458e-05 -5.76417526575916e-05 1.6597915907084e-05)
(4.79992048999806e-06 -0.000800640437582525 0.000129866920593294)
(1.33428454342614e-05 -0.000738919175288286 0.000105822363781806)
(2.16418420891276e-05 -0.000683059795233716 8.52331715901266e-05)
(2.9545788558362e-05 -0.000629052784053834 6.75955042307593e-05)
(3.65639795315526e-05 -0.000573515790527622 5.23315337525684e-05)
(4.23413960763272e-05 -0.000515479878793612 3.91858812040706e-05)
(4.67040140939772e-05 -0.000453600863720433 2.80676916943669e-05)
(4.93000043255737e-05 -0.000383070625030807 1.89417497206035e-05)
(4.76195481599426e-05 -0.000284347384214165 1.16065734557449e-05)
(3.28735584594899e-05 -9.50625010822836e-05 6.20229330352759e-06)
(2.43557263273745e-05 2.47960975671467e-05 7.44600612784211e-06)
(5.2333800847028e-06 -0.000895595445459938 0.000144471614183777)
(1.43465386664337e-05 -0.000825740637342569 0.00011683977018381)
(2.29854928428549e-05 -0.000762247010371627 9.28351613606129e-05)
(3.09741317330208e-05 -0.000700774172597652 7.21221959640921e-05)
(3.78157686878203e-05 -0.000637997579790785 5.42307775723841e-05)
(4.32100693453574e-05 -0.00057333687886897 3.89191274996824e-05)
(4.71352828591238e-05 -0.000506414949348899 2.60709280971448e-05)
(4.97100873430422e-05 -0.000435928069204953 1.55638347744494e-05)
(5.08283182611468e-05 -0.000357076764129897 7.33419629664952e-06)
(4.84340973214595e-05 -0.000250299323786287 1.26828116658321e-06)
(3.24444249815395e-05 -5.28186918537137e-05 -6.93513081280726e-07)
(1.88924602444829e-05 7.94123911113058e-05 -9.81258102619596e-07)