/*--------------------------------*- C++ -*----------------------------------*\
  =========                 |
  \\      /  F ield         | OpenFOAM: The Open Source CFD Toolbox
   \\    /   O peration     | Website:  https://openfoam.org
    \\  /    A nd           | Version:  12
     \\/     M anipulation  |
\*---------------------------------------------------------------------------*/
/*   Windows 32 and 64 bit porting by blueCAPE: http://www.bluecape.com.pt   *\
|  Based on Windows porting (2.0.x v4) by Symscape: http://www.symscape.com   |
\*---------------------------------------------------------------------------*/
FoamFile
{
    format      ascii;
    class       volScalarField;
    location    "100";
    object      k;
}
// * * * * * * * * * * * * * * * * * * * * * * * * * * * * * * * * * * * * * //

dimensions      [0 2 -2 0 0 0 0];

internalField   nonuniform List<scalar> 
10068
(
0.000472796948051553
0.000472595647467289
0.00134560394748498
0.0004745212616071
0.000472431137786796
0.00134499778280924
0.000474336071074092
0.0019724892836133
0.00134690043258166
0.000476900025450709
0.000472286289577358
0.00134448651336572
0.000474178935941747
0.00197154213595534
0.00134633755505272
0.000476724464774437
0.00247641890594753
0.00197230843437777
0.00134571586594854
0.000474660048399348
0.000472155462044651
0.00134404411485768
0.00047403493422871
0.00197068551367956
0.00134585464782377
0.000476574261706126
0.00247518543631183
0.00197141887868968
0.00134517696708619
0.000474492151257822
0.00290782827601689
0.00247495334410559
0.00196422868198
0.00133599140530343
0.00046636714954688
0.000472035115588586
0.00134364927851644
0.000473902601488338
0.00196994636067668
0.00134542021485177
0.000476431309766475
0.00247403767627284
0.0019705799935314
0.00134472394990491
0.000474349877429712
0.00290635325516717
0.00247379305726774
0.00196338012625503
0.00133545978454491
0.000466204172885689
0.00328619627128975
0.00290446724911926
0.00246126710687915
0.00194491985330929
0.00131421813989872
0.000453749283231893
0.000471920682718522
0.00134328765126605
0.000473780520031758
0.00196930148417227
0.00134502411006203
0.000476296877471037
0.00247304492364395
0.00196984765852284
0.00134430344113347
0.000474210963220041
0.00290496277611777
0.00247266654683014
0.00196256524340725
0.00133502999835336
0.000466069048044038
0.00328451590280363
0.00290307892997205
0.00246016171319389
0.00194409086892546
0.00131369082793981
0.000453589885773058
0.00362080991483692
0.00328053889154326
0.00288564468555281
0.00243338169962259
0.00191211289566778
0.0012816876035383
0.000438757204913444
0.000471803039557388
0.00134294714572047
0.000473663952407843
0.00196872655696115
0.00134466113224812
0.000476171676837459
0.00247218071347079
0.00196920462610156
0.00134390930492206
0.000474076590534892
0.00290375185793284
0.00247167966026791
0.00196184445219799
0.001334626525184
0.000465935945468161
0.00328292137158166
0.0029017142637397
0.00245906407970189
0.00194329540210039
0.00131327747643321
0.000453460090724577
0.00361895660894446
0.00327895705770503
0.00288432290781296
0.00243230275269197
0.00191129361384292
0.0012811644494012
0.0004385997149846
0.00391728482617851
0.00361327427681976
0.00325682935062928
0.00285004966660099
0.00239059039539155
0.00186654192822396
0.00124125710766869
0.000422000942766616
0.000471668617395169
0.00134259799857192
0.000473542658399115
0.00196818484080896
0.00134431723097229
0.000476051248914147
0.00247140774251174
0.00196862716094115
0.00134354302300259
0.000473948823878146
0.00290269303383336
0.00247081637623187
0.00196120492036628
0.00133423721121271
0.000465803688217598
0.00328152412532916
0.00290051056006772
0.00245809000533114
0.00194258644591903
0.00131289033157435
0.000453332121499393
0.00361719160413531
0.00327739269836826
0.00288299344823097
0.00243122841892156
0.00191051236092806
0.00128076334010444
0.000438473550493907
0.00391528975499523
0.00361152947694382
0.00325532405138394
0.00284876041569894
0.00238952330796438
0.00186573011189858
0.00124073773173601
0.000421848707645459
0.0041797286659969
0.00390859828815569
0.00358558511320219
0.00321438903299328
0.00279816388203911
0.00233391444756928
0.00181008045909673
0.00119437905709869
0.00040314523237653
0.000471497407222381
0.00134220695511296
0.000473406647802835
0.00196763558599948
0.00134396567183315
0.0004759248590788
0.00247068137471856
0.0019680830437182
0.00134319262956443
0.000473824401806403
0.0029017434440475
0.00247004254054236
0.00196062533639667
0.00133386805332267
0.000465674951259591
0.00328029764273892
0.00289945386327601
0.00245723134747327
0.00194195127992928
0.00131250856124083
0.000453203552329453
0.00361563856411894
0.00327600496501215
0.00288180556607868
0.00243026817355699
0.00190981399372532
0.00128038800084766
0.000438349524499189
0.00391338555813969
0.00360979845495805
0.00325380080171999
0.00284745943780571
0.00238846484447237
0.00186496030401335
0.00124034648257943
0.000421727399936204
0.00417762130509788
0.00390671932245743
0.00358392523725372
0.00321292191925683
0.00279688904610917
0.00233285617787881
0.00180927678873576
0.00119386765774372
0.000402996965359373
0.00441127564334824
0.00417042525574495
0.00387813116086666
0.00353761483694415
0.00315452671445684
0.0027315198698769
0.00226465388628822
0.00174369269215633
0.00114094435283785
0.000381706500768221
0.000471266980390737
0.00134171669008496
0.000473231509882054
0.00196701748937769
0.00134356878274547
0.000475783751990693
0.00246994659777207
0.00196753010675753
0.00134283250202095
0.000473694390283933
0.00290085119810294
0.00246931492146382
0.00196007590174679
0.00133351019895524
0.000465547635807065
0.00327919381667827
0.00289850454123284
0.0024564571635361
0.00194136989088361
0.00131213869604189
0.000453076099724778
0.00361426977474425
0.00327478167044123
0.00288075551193054
0.00242941576978513
0.00190918387703653
0.00128001545428168
0.00043822428133869
0.00391170444713371
0.00360825653348697
0.00325243225880243
0.002846288859469
0.00238751645864684
0.0018642716860149
0.00123998050647749
0.00042160653620603
0.00417560656752531
0.00390485185387753
0.00358224021842558
0.00321143212945593
0.00279560714979548
0.00233181016012115
0.00180851835746998
0.0011934882079805
0.000402881648328001
0.00440908323454568
0.00416843942063596
0.00387634351081227
0.0035359980814352
0.00315307694051214
0.00273025560523781
0.00226360671007743
0.00174289876035424
0.00114044353230227
0.000381565570557429
0.00461435332042385
0.00440162184280331
0.00413813701566788
0.00382605336301839
0.00347118799997947
0.00307916127534009
0.00265119267571893
0.00218325223275271
0.00166727493950125
0.00108027501095696
0.000357371596408579
0.000470946144523356
0.00134106248062635
0.000472996054963862
0.00196625933042832
0.00134307315488549
0.000475598846639539
0.00246913015417082
0.00196691027483207
0.00134242411771278
0.000473544414639291
0.00289994953962597
0.00246857825050624
0.0019595147679347
0.00133313919338027
0.000465412830367584
0.00327815420133343
0.00289761153808619
0.00245572571985545
0.00194081401180347
0.00131177480807535
0.000452947969675983
0.00361303427969757
0.00327367912055381
0.0028798075844226
0.00242864190263516
0.00190860209388815
0.00127964936955033
0.000438099861559387
0.00391021840513087
0.00360689212595593
0.00325121769052118
0.00284524765749416
0.002386670615605
0.00186364754501442
0.00123961548052302
0.000421483202795484
0.00417382378195476
0.00390318317282494
0.00358072014292963
0.00321008439497016
0.00279445129740082
0.00233087252848854
0.00180784021462974
0.0011931319400972
0.000402766009261024
0.00440698449831311
0.00416646345027166
0.0038745255903808
0.00353435066791086
0.00315160967175869
0.00272898844619135
0.00226257401797357
0.00174215445218568
0.0011400802909876
0.000381459215952518
0.00461210023921629
0.00439955453755383
0.00413624698300974
0.00382431264888071
0.00346959131235491
0.00307772410349858
0.00264994206127273
0.00218222155096881
0.00166649961505803
0.00107979205120946
0.000357244470225685
0.00479098744496713
0.00460445444482484
0.00436811143367407
0.00408308982583114
0.00375446394981069
0.0033884681772896
0.00298927328339057
0.0025572785048001
0.00208942359239753
0.0015802809843332
0.00101172635999272
0.000329974643060346
0.000470494108627356
0.00134015720602301
0.000472669101985636
0.00196526128908291
0.00134241224338951
0.000475353509763063
0.00246813774619008
0.00196614883429341
0.00134191393456123
0.000473351219070015
0.00289895355287805
0.00246775983871808
0.00195888440853397
0.00133271629752073
0.000465255805112273
0.0032771047663177
0.00289670916129836
0.00245498206839905
0.00194024232997722
0.00131139375578968
0.000452810686243754
0.00361186774663251
0.00327264000646809
0.00287891207173989
0.00242790583060558
0.00190804105853618
0.00127928380930953
0.000437973485718848
0.00390887241876892
0.00360565845922413
0.00325011809985532
0.00284430221194894
0.00238589816625597
0.00186306780600985
0.00123925579820056
0.00042136112207521
0.00417224276960668
0.00390170185259547
0.00357936608280077
0.00320888118071171
0.00279341916116779
0.00233003402828357
0.00180722421470518
0.00119277450692471
0.00040264691400005
0.00440512283458794
0.00416469349027505
0.00387288051378312
0.00353285418718642
0.003150279645249
0.00272784571893354
0.00226164858423944
0.00174149045026944
0.00113973844112689
0.000381351446353538
0.00460994101763132
0.00439749575977626
0.00413432290910672
0.00382253535041193
0.00346796940334664
0.00307627415002722
0.00264869088707982
0.00218120683484943
0.00166577709367333
0.00107945077641352
0.000357152083668625
0.00478869495749491
0.0046023286018975
0.00436614277787515
0.0040812493135178
0.00375274537646834
0.00338688595341788
0.00298785201536248
0.00255604807090639
0.00208841733803305
0.00157953528095164
0.00101127800591353
0.000329868564422584
0.00494307728122871
0.00478088405748816
0.00457007370607565
0.00431088859675619
0.00400749358448797
0.00366569641871907
0.00329043045251273
0.00288474292440898
0.00244929531821942
0.00198262395178999
0.00148212575194585
0.000934873987543952
0.000299460384283571
0.000469858461307855
0.00133888757344791
0.000472210172199437
0.00196389429947116
0.00134149900527554
0.000475014105946286
0.00246684489530183
0.00196514665096624
0.00134123473813377
0.000473095601235075
0.00289775206050669
0.00246676491488928
0.00195810866220961
0.00133218788125168
0.000465057928862609
0.00327594924451948
0.002895712305453
0.00245415346951279
0.00193959721562531
0.00131095720214533
0.0004526509082164
0.00361068914690636
0.00327159067086692
0.00287800381775037
0.00242715289464092
0.00190745989646438
0.00127889718657372
0.000437837440382959
0.00390759822356766
0.0036044929845164
0.00324907775195489
0.00284340378528829
0.00238515873545291
0.00186250522010769
0.00123889557791911
0.000421237290813565
0.00417080639556485
0.00390035811972539
0.00357813635171764
0.00320778596506782
0.00279247734412728
0.00232926521891627
0.00180665013421786
0.00119242140842142
0.000402528508682321
0.00440346787774556
0.00416311758497483
0.00387141035037279
0.00353151335386047
0.00314908795606341
0.00272682327200775
0.00226082002809282
0.00174088701671914
0.00113939303257014
0.000381239251850244
0.00460802173725974
0.00439564753267407
0.00413257742172083
0.00382091571470657
0.00346649308433081
0.00307495979066917
0.00264756295795641
0.00218029809905129
0.0016651336197208
0.00107912963066926
0.000357056534613191
0.00478649581458936
0.00460021007085448
0.00436413723433718
0.00407936778543375
0.00375099577528596
0.00338528363685609
0.00298642063664144
0.00255481840964779
0.00208742841917881
0.0015788442246594
0.00101097370262953
0.000329797393334136
0.00494076337105847
0.00477871976812299
0.00456804804128463
0.00430897095036125
0.00400567648650125
0.00366399368397205
0.00328886601070206
0.00288334478298464
0.00244809409465411
0.00198165374530106
0.00148142309388153
0.000934472599898122
0.000299380291628038
0.00507256434769964
0.00493279361350462
0.00474585778766041
0.0045112209001416
0.00423217056665322
0.00391380626034076
0.00356078806212773
0.00317685065601206
0.00276492597741905
0.00232663050535799
0.0018623255484139
0.00137235055224988
0.000849466607632974
0.000265839042053507
0.000468972543622314
0.00133710883661881
0.00047156664975394
0.00196199291932829
0.00134022054372152
0.000474538416994417
0.00246509023232858
0.00196377466423805
0.00134029831381412
0.000472743079217947
0.00289619964235921
0.00246546905129001
0.00195708760622791
0.0013314856262639
0.000464794031682608
0.00327456211720978
0.00289450969593308
0.00245314429342816
0.00193880161577277
0.00131041165797314
0.000452449155341251
0.00360939353850932
0.0032704352432207
0.00287699744869851
0.00242631005981479
0.00190680095676085
0.00127845196088378
0.000437677533550844
0.0039063089966997
0.00360331522598954
0.00324802339885996
0.00284248748112329
0.00238439780877376
0.00186191919065784
0.00123851083113829
0.000421104786953115
0.00416944271014235
0.00389908526676732
0.00357697030838841
0.00320674412667021
0.00279157742541864
0.002328525841797
0.00180609102473081
0.00119206780502345
0.000402409388909458
0.0044019594813885
0.00416168360070413
0.00387007097787725
0.00353028924986629
0.00314799837312397
0.00272588729056826
0.00226005870469558
0.00174032398763378
0.00113905061585001
0.000381127175023199
0.00460631093094379
0.00439399761249479
0.0041310129766068
0.00381945983919402
0.00346516568564825
0.00307378013707926
0.00264655302729949
0.00217948443245156
0.00166454877604053
0.00107880263412892
0.000356954814021809
0.00478453722269186
0.00459830441364558
0.00436231391087835
0.00407764872714821
0.00374939799642502
0.00338382516453131
0.00298512367747425
0.00255371048478533
0.00208654397974764
0.00157823024274074
0.00101068368440141
0.00032971992008444
0.00493854172970213
0.00477656166039622
0.00456598333114343
0.00430700895139583
0.00400382400617052
0.00366226537789522
0.00328728444967558
0.0028819380552648
0.00244689480819095
0.00198070279559487
0.00148077736027288
0.000934220112524828
0.00029933835577477
0.0050702436750272
0.00493060790181063
0.00474379415522017
0.00450924684543558
0.00423027689070207
0.0039120057910887
0.00355910449271768
0.00317531169258086
0.00276356093081554
0.00232547041035049
0.00186140556151556
0.00137170604272977
0.000849126407512273
0.000265791494820604
0.00518149135512076
0.00506212414247678
0.00489728983212397
0.00468577242323651
0.00443005929740662
0.00413449511058915
0.00380315138399253
0.00343949280317105
0.00304697535357204
0.00262912123861773
0.00218874853936926
0.00172811527125099
0.00125064432481939
0.00075531262140673
0.000229017104390859
0.000467751007840428
0.00133463645048792
0.000470671243501875
0.00195934376118034
0.00133843212198441
0.000473873928703196
0.00246266414997202
0.00196186641943661
0.00133898993088732
0.00047225052805587
0.00289410703935187
0.00246371029467605
0.00195569109157795
0.00133051975816666
0.000464431762542046
0.00327278071224395
0.00289295580944511
0.00245182919453348
0.00193775444721259
0.00130968775486744
0.00045217987369063
0.00360784385709552
0.00326904849116802
0.00287578100910383
0.00242528078722323
0.00190598667789826
0.00127789479815357
0.000437475069847421
0.00390489217300817
0.00360202043981589
0.00324685905145456
0.00284146754046724
0.00238354208473877
0.00186125211468342
0.00123806465079272
0.000420948062036748
0.00416806004612389
0.00389779709805518
0.00357578795492999
0.00320568265312841
0.00279065455947411
0.00232776150294979
0.00180550673432574
0.00119169179424584
0.000402282303964189
0.00440052301688452
0.00416032130513292
0.00386879766980703
0.00352912250586787
0.00314695661383214
0.00272498937651895
0.00225932454504516
0.00173977502109638
0.00113870780537024
0.000381014362067083
0.00460474723974046
0.00439249167077301
0.00412958333416469
0.00381812665928445
0.00346394865429785
0.00307269846637205
0.00264562697994108
0.00217873636450274
0.00166400288944992
0.00107847727888835
0.000356852844041713
0.00478278705607215
0.00459659885408517
0.00436067535538649
0.00407609898483234
0.00374795676993665
0.00338251173480446
0.00298395901636589
0.00255271862102662
0.00208575289201942
0.00157767251780016
0.00101038384261143
0.000329633804558856
0.00493655944766246
0.00477461681067862
0.00456410258704798
0.00430521242429775
0.00400212776864023
0.00366068704511291
0.00328584559576138
0.00288066416727932
0.0024458152672007
0.00197985399610866
0.00148020519632501
0.000933975545481853
0.000299286681601661
0.00506801369950307
0.0049284273183984
0.00474168987695686
0.00450722594986333
0.00422834454953526
0.00391017566040651
0.00355739860953101
0.00317375733564889
0.00276218858494688
0.00232431371350025
0.00186050691186389
0.00137112208261193
0.000848943930164014
0.000265789563444112
0.00517917483557469
0.00505993083120568
0.00489520441896898
0.00468376031357816
0.00442810920127641
0.00413261832679107
0.0038013709490765
0.003437836489155
0.00304547256647184
0.00262780193149099
0.00218764498512147
0.00172726177838409
0.00125007511800952
0.000755050012988204
0.000229014573480083
0.00527198668110808
0.00517091951504717
0.00502628255474009
0.00483628421269351
0.00460270288952103
0.00432916109737559
0.00401906171801429
0.00367529929633756
0.00330099554314383
0.00290002284431464
0.0024767581242859
0.00203526955822387
0.00157972709343789
0.00111679167523718
0.000652125668794317
0.000188802891454264
0.000466084537785143
0.00133123328440492
0.000469435306583867
0.00195567788061921
0.00133594728823487
0.000472951513286216
0.00245930226400312
0.00195920872424658
0.00133716454053185
0.000471564485700802
0.00289123035217264
0.00246127954110479
0.00195375117725783
0.00132917388555807
0.000463927738569282
0.00327039172684795
0.00289086124659498
0.00245004508561971
0.00193632411030282
0.00130869522136113
0.000451811546679791
0.00360586096671467
0.00326726709328642
0.00287420804047148
0.00242393852006269
0.0019049150704926
0.00127715600508148
0.000437203837188794
0.00390320054797335
0.00360047162867251
0.00324545892298091
0.00284023111643279
0.0023824943397647
0.0018604262669418
0.00123750458643835
0.000420749342261451
0.00416653933294391
0.00389638126273849
0.00357448435011654
0.00320450517393504
0.00278962263727749
0.00232689882820519
0.00180483971665463
0.00119125516252922
0.000402132863394544
0.00439906269261887
0.00415893968190795
0.00386750472881831
0.00352793337632804
0.00314588967905959
0.00272406473043669
0.00225856353241145
0.00173920062042231
0.00113834451113173
0.000380894722762081
0.00460325318185626
0.00439105656103707
0.00412822030772979
0.00381685280344906
0.0034627829929503
0.00307166047008405
0.00264473658437176
0.00217801435393224
0.00166347070433557
0.00107815165395086
0.000356750211349502
0.00478118268504114
0.00459503753919926
0.00435917347237117
0.00407467556764513
0.00374663147081876
0.00338130425492451
0.00298288960998696
0.00255180884924391
0.00208502620395863
0.00157715221725966
0.001010084295141
0.000329545911696163
0.00493478386945346
0.00477287193368168
0.00456240817360165
0.00430358851993155
0.00400059327497247
0.00365926116465539
0.00328454927145815
0.00287952050239245
0.00244484976906311
0.00197909605325433
0.00147968568898274
0.000933715381034547
0.000299222845427638
0.0050660204558236
0.00492645879346117
0.00473976968279754
0.00450537189095388
0.00422657120530572
0.00390849986370838
0.00355584160383055
0.00317234412610501
0.00276094688937106
0.00232327415160422
0.00185970711206535
0.00137060702044685
0.000848762206529664
0.000265774130227073
0.0051769473956206
0.005057741674539
0.00489307722345689
0.00468169956335532
0.00442611797924902
0.00413070879868117
0.00379956434863242
0.00343615979773872
0.00304395580761356
0.00262647680972029
0.00218654676276359
0.00172643250731972
0.00124957233917874
0.000754961028712109
0.000229070337371332
0.00526968229270465
0.00516872913026541
0.00502418853949152
0.00483424972425769
0.00460071430928669
0.00432722774028277
0.00401720537375642
0.00367354735920055
0.00329937776758042
0.00289856969892105
0.00247550010826892
0.00203423958231249
0.00157895829048426
0.00111631782760862
0.000651967492462415
0.000188871189211334
0.00534621337533804
0.00526130770795777
0.00513485863158851
0.00496461408088909
0.00475174357982122
0.00449921658709539
0.00420977604334016
0.00388566320228239
0.0035294009512466
0.00314444918487453
0.00273537001590448
0.00230744422889395
0.00186596389183025
0.00141700701746887
0.00097069185133126
0.000539799305786128
0.000148246655064738
0.000463836655744419
0.00132660846507967
0.000467749271164281
0.00195065970352223
0.00133252783821681
0.000471681522730334
0.00245467001487387
0.00195553174419559
0.00133463153141343
0.000470615271551968
0.00288725950270651
0.00245791102936854
0.00195105337958616
0.00132730054466101
0.000463226759827233
0.00326712184877319
0.00288798209390744
0.002447581833513
0.00193434098714263
0.00130731691931872
0.000451300401222853
0.00360321249222269
0.00326487830713013
0.00287208815100571
0.00242211876446304
0.00190345349813551
0.00127614559989435
0.000436833768113533
0.00390104169510437
0.00359848980483878
0.00324365864928473
0.00283863053214022
0.00238112706054504
0.00185933934042113
0.00123676144379284
0.000420481748964879
0.00416472467407346
0.00389469063863551
0.00357292188973887
0.00320308502693866
0.00278836808330312
0.00232584033363721
0.00180401246772341
0.00119070381182842
0.000401941943146259
0.00439745393300758
0.0041574198718201
0.00386607955458525
0.00352661648839706
0.00314470081197387
0.00272302712840297
0.00225770256236707
0.00173854373131897
0.00113792348565725
0.000380754721656073
0.00460172958551684
0.00438959719741204
0.0041268333610977
0.00381555281239316
0.00346158894586304
0.00307059314704574
0.0026438173457498
0.00217726507124096
0.00166291398789637
0.00107780740536668
0.000356642158729809
0.00477964455537743
0.00459354478042443
0.00435773715847473
0.00407331168683095
0.00374535911372418
0.00338014366679019
0.00298186125457076
0.00255093348674286
0.00208432543268107
0.00157664554246473
0.00100978472926161
0.000329456814183288
0.00493315158515561
0.00477126992190562
0.00456085048848508
0.00430209254380407
0.00399917802185495
0.00365794653240181
0.00328335599988997
0.00287847018716216
0.00244396494432585
0.00197840096266439
0.0014792014724652
0.00093345197120049
0.000299154267516892
0.00506423113616739
0.0049246885501837
0.00473803557766626
0.00450369178552565
0.00422496266955096
0.00390698155411969
0.00355443445801222
0.00317107129437093
0.00275983316598041
0.00232234614811402
0.00185899472745049
0.00137013932862803
0.000848556611584977
0.000265740853544223
0.00517495332372781
0.00505576216792168
0.00489113289994487
0.00467980559710965
0.00442428699569688
0.0041289563576153
0.00379791105410797
0.00343463047540837
0.00304257794124638
0.00262527947123146
0.00218556202631497
0.00172569753714867
0.00124913246656524
0.000754864307759475
0.000229106883338394
0.00526746509897227
0.00516654207548156
0.00502205199109627
0.00483216535819501
0.00459868279902185
0.0043252593114754
0.00401531996533727
0.00367177137433589
0.00329774120393516
0.00289710417864629
0.00247423816776247
0.00203321749518915
0.00157821788913954
0.00111591980395675
0.000652007499189279
0.00018901938066799
0.00534392599045149
0.00525912775174365
0.00513276614704288
0.00496257003991789
0.00474973190929584
0.00449724429111435
0.00420786315075266
0.00388383611836833
0.00352768930702206
0.00314288407529672
0.00273398265607153
0.00230626582164649
0.00186502637518918
0.00141634336059294
0.00097033882918625
0.000539779689135568
0.000148498017711598
0.00540630605042593
0.00533544953829421
0.00522512512532818
0.0050727409916169
0.00487896510753092
0.00464620090592937
0.00437658611270797
0.00407171090255234
0.00373342651511974
0.00336455455725727
0.00296916762835202
0.0025525759416565
0.00212093113417686
0.0016806795527436
0.00123994511994081
0.000812871086396864
0.000419573374486683
8.34719315727311e-05
0.000460855882262695
0.00132040438272706
0.000465474411361764
0.00194387868104435
0.00132788524775247
0.000469951041526374
0.00244835564416755
0.00195049922982299
0.00133115338782745
0.000469309434822055
0.00288180755659167
0.00245327040600754
0.00194732611726814
0.0013247114892104
0.000462258929653806
0.00326262329701266
0.00288400841312727
0.00244417214486991
0.00193158883345582
0.0013054029620124
0.000450591163135403
0.00359959859843664
0.00326160859835215
0.00286917642243634
0.00241960992193968
0.00190143118242464
0.00127474673053295
0.000436320606971989
0.0038981653644246
0.00359584245680048
0.00324124466887834
0.00283647405918458
0.00237927467677711
0.00185785840158276
0.00123574668579383
0.000420114892623285
0.00416241214428444
0.00389253288597352
0.00357092072825646
0.00320125660472146
0.00278674225183237
0.00232445814481892
0.00180292308775092
0.00118997021093148
0.000401683087197718
0.0043955334520773
0.00415560606110291
0.00386437436222759
0.00352503331224998
0.00314326259786322
0.00272176271933368
0.00225664445044275
0.00173772720663142
0.00113739235573694
0.000380575361889157
0.00460004726493595
0.00438798919842948
0.00412530333228203
0.00381411358112863
0.00346026070004077
0.00306939959789577
0.0026427833640247
0.00217641623957566
0.00166227711340371
0.00107740896780071
0.000356514825464023
0.00477807066455312
0.00459202207939104
0.00435627177697449
0.0040719170020356
0.00374405418961452
0.00337895017267922
0.00298080122117612
0.00255002879224538
0.00208359830882167
0.00157611601646156
0.00100946790914628
0.000329362860340364
0.00493158115158999
0.0047697330587119
0.00455935597359895
0.0043006547995595
0.00399781560099777
0.00365668006787678
0.00328220678136994
0.00287745954242325
0.00244311417314257
0.00197773180630559
0.00147873074876663
0.00093318746446831
0.000299083301965368
0.00506258122183976
0.00492305853029128
0.00473643671894381
0.00450213947641008
0.00422347475863745
0.00390557760864874
0.00355313551902641
0.00316989950090787
0.00275881124286111
0.00232149737757751
0.00185834311712593
0.00136970335504664
0.000848341774992445
0.000265697808152144
0.00517315913437884
0.00505397807382062
0.00488937296706416
0.00467808524447681
0.00442262202846045
0.00412736438792888
0.00379641262099445
0.00343324883018404
0.00304133809100112
0.00262420729692013
0.00218468524058135
0.00172504503166125
0.0012487322617687
0.000754730989722027
0.000229114689126309
0.00526547708482724
0.00516456147012921
0.00502009608646975
0.00483024656039144
0.00459681145224382
0.0043234492618142
0.00401359071450798
0.00367014727328048
0.00329624976595867
0.00289577444892656
0.00247310021263455
0.00203230402133933
0.00157756574588189
0.00111557659733243
0.000652025147872262
0.000189135327487311
0.00534172347716189
0.00525695033371745
0.00513063069472086
0.00496047533865392
0.00474767603347872
0.00449523518950274
0.00420591899631101
0.00388198223146157
0.00352595535483355
0.00314130193824241
0.00273258487002571
0.00230508596209418
0.00186410011242171
0.00141571418756292
0.000970075748134228
0.000539993957429982
0.000148900497386796
0.00540403750877771
0.00533328459237385
0.0052230413822905
0.00507069733301398
0.004876943010121
0.00464420487096735
0.00437463401952222
0.00406982762517569
0.00373164093626574
0.00336289791491698
0.00296767191098858
0.00255127294393875
0.00211985190558815
0.00167985513774307
0.00123941050630793
0.000812671063688832
0.000419749119004873
8.38896850151338e-05
0.00545431080749996
0.0053954766244218
0.00529922164682832
0.00516273200592686
0.00498628484654441
0.00477181366866909
0.0045209293317263
0.00423462033866794
0.00391406927358971
0.00356140027879515
0.00318000564325214
0.00277463377491662
0.002351313574924
0.00191697616731222
0.00147928895186844
0.00104916285886847
0.000645463979776116
0.000290829006820253
2.72200467500027e-05
0.000457005381732898
0.00131220452806126
0.000462451131620283
0.00193484784599535
0.00132166311903942
0.000467619813842799
0.00243986127830535
0.00194370131592498
0.00132644155198542
0.000467533333546536
0.00287439709002372
0.00244694517667029
0.00194223175726645
0.00132115894020575
0.000460931027457446
0.0032564613728438
0.00287855240138447
0.00243948052085503
0.00192779477325525
0.00130276393413104
0.000449613242192356
0.00359463964755509
0.00325711045839745
0.0028651618825871
0.0024161431585683
0.00189863064815549
0.00127280885668785
0.000435609444210082
0.00389425076031349
0.00359223035823358
0.00323794248705402
0.00283351542710749
0.00237672453594249
0.00185581243204106
0.00123434245328019
0.000419606010868982
0.00415933698062421
0.00388965816165019
0.0035682473856146
0.00319880504285073
0.00278455237437262
0.00232258637412799
0.00180143919391912
0.00118896449467036
0.000401325230895679
0.00439308752819455
0.00415329445385576
0.00386219593221025
0.00352300274850261
0.00314140843191725
0.00272012250618445
0.0022552617308209
0.00173665059250726
0.00113668295663511
0.000380331522344674
0.00459803667141873
0.00438606933555149
0.00412347367121912
0.00381238630959206
0.00345865891133383
0.00306795210898848
0.00264152114520911
0.00217537168165384
0.00166148466292412
0.00107690523284743
0.000356350674760527
0.00477632797736232
0.00459034040920427
0.00435465257420652
0.00407037175706481
0.0037426030750853
0.00337761776851676
0.00297961293215187
0.00254900979114368
0.00208277411462218
0.00157551042818396
0.00100910091204006
0.000329251781083819
0.00492996846433251
0.00476816002487133
0.00455782654461801
0.00429918079067852
0.00399641556347111
0.00365537616866459
0.00328102205562558
0.0028764166009519
0.00244223504848854
0.00197703805784723
0.00147823934837856
0.000932906995961093
0.000299007210209354
0.00506098865105315
0.00492148938597116
0.00473489754598535
0.00450064282033215
0.00422203813127021
0.00390422148008908
0.00355188171791468
0.00316877024720644
0.00275782851461466
0.0023206827650967
0.00185771742833155
0.00136928000378889
0.000848122515211986
0.000265649455799626
0.00517150013072692
0.00505233054158958
0.00488774559051259
0.00467649111407097
0.00442107742328171
0.00412588804273669
0.0037950254142497
0.00343197329968392
0.00304019762433779
0.00262322533967927
0.00218388567277086
0.0017244501024003
0.00124835799374777
0.00075457835330047