/*--------------------------------*- C++ -*----------------------------------*\
  =========                 |
  \\      /  F ield         | OpenFOAM: The Open Source CFD Toolbox
   \\    /   O peration     | Website:  https://openfoam.org
    \\  /    A nd           | Version:  12
     \\/     M anipulation  |
\*---------------------------------------------------------------------------*/
/*   Windows 32 and 64 bit porting by blueCAPE: http://www.bluecape.com.pt   *\
|  Based on Windows porting (2.0.x v4) by Symscape: http://www.symscape.com   |
\*---------------------------------------------------------------------------*/
FoamFile
{
    format      ascii;
    class       volScalarField;
    location    "100";
    object      nut;
}
// * * * * * * * * * * * * * * * * * * * * * * * * * * * * * * * * * * * * * //

dimensions      [0 2 -1 0 0 0 0];

internalField   nonuniform List<scalar> 
10068
(
0.00010728191836485
0.00010725800976021
0.000887902721702891
0.00010938001027698
0.000107238272582861
0.000887805305752983
0.000109357026976154
0.00209043196046981
0.000901258206295929
0.000111901276253424
0.00010722110935502
0.000887774663639232
0.000109337506699538
0.00209031237028463
0.000901180075839612
0.000111876986866177
0.00338854392592017
0.00210785022642219
0.000918030192770467
0.000113409862519562
0.00010720591089122
0.000887724310341727
0.0001093198163304
0.00209018755602027
0.000901202657417424
0.000111859023733456
0.00338842355774043
0.00210775778674218
0.000917952629675555
0.000113381665386214
0.00462822234771685
0.0034017127094942
0.0021280104255776
0.00092851195699772
0.000113151041509394
0.000107191832197043
0.000887658094142065
0.00010930400132764
0.00209003782572203
0.000901171497159434
0.000111840948428394
0.00338819846596873
0.00210765749705213
0.000918033917592235
0.000113365687116739
0.00462812405068115
0.00340162365152868
0.00212793599873576
0.000928414122641417
0.000113120506170255
0.00574493094421455
0.00463305855657963
0.00341252881334998
0.0021387664852084
0.000927349033807969
0.000111628446092649
0.000107178105662715
0.000887584992090162
0.000109289420702815
0.00208987515724012
0.000901104462496123
0.000111824376151377
0.00338795626002213
0.0021075226384613
0.000918034089401401
0.000113350068404765
0.00462783379585132
0.00340141475664024
0.00212787256851219
0.000928536942980052
0.000113105074613161
0.00574487900522204
0.00463299301869022
0.00341246866690401
0.00213869092833491
0.000927234970382183
0.000111596735737946
0.00672093758904577
0.00574119573778932
0.00462917632719166
0.00341130473649766
0.00213224239360321
0.000916532873500085
0.000109614855885978
0.000107163732546534
0.000887513937770076
0.000109275191518885
0.0020897160359548
0.000901028674224271
0.00011180906872612
0.00338770772228021
0.00210736368299492
0.000917974118594656
0.000113333387419063
0.00462751651851161
0.00340117944102163
0.00212776151717711
0.000928573749975573
0.000113092836549356
0.00574455731895437
0.00463271738437324
0.003412283612075
0.00213865660500506
0.00092738048709374
0.000111581564931832
0.00672095000985504
0.00574117573305567
0.00462914538835292
0.00341125173807781
0.00213215665253383
0.000916406900069305
0.000109581972777822
0.00756078280420284
0.00671126215510786
0.00572268541584086
0.00460983159180376
0.00339118132597785
0.00210939932018937
0.000900546313991111
0.000107418304224142
0.000107146874837309
0.000887434334294554
0.000109259842372736
0.00208954837308849
0.000900952060637446
0.000111794104734038
0.00338745269833725
0.00210719786881582
0.000917896406456597
0.000113317433246028
0.00462718748359646
0.00340093130698858
0.00212760920833187
0.000928524916179907
0.00011307767173317
0.00574418365890923
0.00463240374716342
0.00341206104257691
0.00213857044435394
0.000927448018695218
0.000111570230701445
0.00672062351967137
0.00574086829264235
0.00462889024263741
0.0034110831394152
0.00213213787909684
0.000916564817983296
0.00010956706025157
0.00756087190750398
0.00671130462576325
0.00572270271013928
0.00460980923558297
0.00339111912702712
0.00210929813060095
0.000900407636938068
0.000107384957385181
0.00827773580759266
0.00754801593014704
0.00668177569839304
0.00568497344743068
0.00457040504339727
0.00335174652381116
0.0020749860077974
0.000881772667792262
0.000104973055249263
0.000107125061095448
0.000887341858504926
0.000109242677600322
0.00208936046342827
0.000900868787610082
0.000111777717563738
0.00338717575034118
0.00210702376264773
0.000917814193287858
0.00011330164779094
0.00462684075377966
0.00340067298480185
0.00212743838562955
0.000928445593534463
0.000113061607964918
0.00574378602726086
0.00463207496303099
0.0034118149366806
0.00213842558504851
0.000927413224783105
0.000111557844691158
0.0067202156517573
0.00574049826920031
0.00462858416861359
0.00341087145323624
0.00213206960217395
0.000916645780262887
0.000109556187378956
0.00756056206093138
0.00671099262361639
0.00572241502598592
0.00460956435348343
0.00339095407460292
0.00210928343229034
0.000900572281585385
0.000107370229692682
0.00827790930540711
0.0075481319723555
0.00668185677865113
0.00568499833870191
0.0045703699729884
0.0033516647746094
0.00207486169685864
0.000881622088039679
0.000104938821574075
0.00888661440735601
0.00826350545629453
0.00751169125823835
0.00662918098248141
0.00562520253832594
0.00450990027680843
0.00329562727777037
0.00203188396475638
0.000860288301721063
0.000102139436646916
0.00010709553880094
0.000887211425801941
0.00010921983386788
0.00208911507693891
0.000900767583699774
0.000111759709061097
0.00338684896523436
0.00210682660004654
0.000917723874573307
0.000113284746171598
0.00462645299686459
0.0034003919461891
0.00212725412796042
0.000928356333444286
0.000113045275368711
0.0057433524714207
0.00463172619049492
0.00341155034696747
0.0021382486937951
0.000927333041748232
0.000111543508035718
0.00671976153528783
0.00574009993629106
0.00462825480315748
0.00341062528006246
0.00213193044113066
0.000916624685177943
0.000109544243858454
0.0075601381934637
0.0067105878803088
0.00572205081174671
0.00460926161935891
0.00339074554437952
0.0021092216782774
0.000900658071385211
0.00010735951843005
0.00827763187569904
0.0075478363469987
0.00668156436948853
0.00568471766024772
0.0045701202674524
0.00335149177548142
0.00207484230677176
0.000881793182352425
0.000104924125639216
0.00888687749096895
0.00826370168788564
0.00751184589106967
0.0066292682702835
0.00562521001470177
0.00450983984767151
0.00329551761943471
0.00203172303752493
0.000860125338091384
0.000102104941351779
0.00940103503403485
0.0088715054315938
0.00822307670678691
0.00744833783999401
0.00655133579170431
0.00554213558273081
0.00442871838065001
0.00322426941156757
0.00198029762164483
0.000835341085348428
9.88186193362699e-05
0.000107054563242228
0.000887025393360579
0.000109189088139318
0.00208878139521152
0.000900629025019073
0.000111734712587499
0.00338642200685181
0.00210657602866829
0.000917613522513885
0.000113264822484499
0.00462597674652084
0.00340005904800238
0.00212704323881444
0.00092825620366537
0.000113027441883622
0.00574285006355264
0.00463133427163663
0.00341125776889492
0.00213805041320837
0.000927235739553852
0.000111527241521231
0.0067192499860161
0.0057396646584986
0.00462789925153705
0.00341035045318829
0.00213174625136864
0.000916549909002327
0.000109531544197013
0.00755964411183957
0.00671013349800093
0.00572165052293485
0.00460892742301085
0.00339049464293853
0.00210908486390292
0.000900638767731302
0.000107347590462639
0.0082772101655716
0.00754741592348492
0.00668116442222335
0.0056843530579971
0.00456981158242046
0.00335127754829789
0.0020747791403001
0.000881881197785055
0.000104913641555483
0.00888664589472826
0.00826343827426154
0.00751156941997976
0.00662898082430236
0.00562491892656919
0.004509573168167
0.00329532827593235
0.00203169311941823
0.000860304402526078
0.000102090521586599
0.00940139096024727
0.00887178591127685
0.00822331031585397
0.00744849729492279
0.00655140145487227
0.00554211148460132
0.00442862499564879
0.00322412454691121
0.00198010939674807
0.000835166383284372
9.8784596331074e-05
0.0098329574802688
0.00938515645036499
0.00882831577237959
0.00815198522423839
0.00735562539698259
0.00644680316539024
0.00543455735432737
0.0043263187909398
0.00313707318674264
0.00191904859970097
0.000806070673338358
9.49381469854734e-05
0.000106997264597827
0.000886755213735376
0.00010914658993166
0.00208830447246396
0.000900432316212545
0.000111701969027438
0.00338582930658859
0.00210623328722526
0.000917463281054781
0.000113238223846753
0.00462534389096941
0.00339962556809494
0.00212677700943651
0.000928133698221072
0.000113006051223505
0.00574221973001715
0.00463085395288797
0.00341090898660789
0.00213782010291187
0.000927123440674833
0.000111508933927622
0.00671863860011365
0.00573915982107039
0.00462749539481744
0.0034100398595175
0.00213153159114777
0.000916448351604244
0.000109517782410152
0.00755906514538393
0.0067096198907436
0.0057212081464308
0.00460855923323552
0.00339020572860172
0.00210889499304192
0.000900568088819848
0.000107334950145303
0.0082766897988356
0.00754692077768921
0.00668070736132723
0.00568394539232017
0.00456946605061432
0.00335101756056875
0.00207463916918593
0.000881859369401073
0.000104901973978787
0.00888623867828464
0.00826301891919162
0.00751115299934745
0.00662857831213125
0.00562454314521618
0.0045092497933055
0.00329510216960889
0.00203162674207125
0.000860395816260324
0.000102080506185778
0.00940121531576394
0.0088715672212121
0.00822306521716077
0.00744822415620383
0.00655109975142783
0.0055417969154232
0.0044283338805009
0.00322391388426937
0.0019800735355404
0.000835349851123229
9.87706924700453e-05
0.00983340813250036
0.00938552362599497
0.00882863118354634
0.00815222199983266
0.00735575975133705
0.00644683165148711
0.00543449448631194
0.00432618814187359
0.00313689352547584
0.00191884502880104
0.000805909219477404
9.49055527156314e-05
0.0101929682885069
0.00981630336887564
0.00933979164051821
0.00875131880175583
0.00804717597204027
0.00723188152527227
0.00631346160572463
0.00530019685178713
0.00420065568812075
0.00303197328379618
0.00184632404674626
0.000771719291818668
9.04395477901754e-05
0.000106917009032673
0.000886362962513653
0.000109087216909917
0.0020876128796446
0.000900149450836784
0.000111656882752098
0.00338497884861937
0.00210574453421868
0.000917252027700965
0.000113203426862499
0.00462445787817926
0.00339902431534466
0.0021264139107214
0.000927969002601607
0.000112978811310789
0.00574137063958047
0.00463021630819858
0.00341045570381947
0.00213752988648991
0.000926985681543859
0.000111487088370057
0.00671785503366007
0.00573852629258206
0.00462699889437098
0.00340966653173246
0.00213127825401396
0.000916326069540321
0.00010950049768542
0.00755835384693529
0.00670900645892323
0.00572069174422345
0.00460813570158211
0.00338987287823977
0.00210866641747724
0.000900472867810726
0.000107321362895011
0.00827605674711575
0.00754633999218053
0.00668018614111685
0.00568348923062386
0.00456907975333063
0.00335071344961082
0.00207444438973826
0.000881784626711029
0.000104889548326124
0.00888570685887819
0.00826249760078815
0.00751065424241963
0.00662811239240792
0.00562412055756508
0.00450888768345645
0.0032948301723713
0.00203148316900461
0.000860371991869787
0.000102069343563581
0.00940083519428953
0.00887116247810852
0.00822264866730577
0.00744780356058406
0.00655068288652618
0.00554140070269797
0.00442799059772907
0.00322367358906942
0.00198000464373264
0.000835445131367277
9.87615601106307e-05
0.00983329642823007
0.0093853594967073
0.00882842930128537
0.00815197854913099
0.00735546946771965
0.00644650172184301
0.0054341494548739
0.00432586949407914
0.00313666187417838
0.00191880774573452
0.000806116598021582
9.48932555860329e-05
0.0101935143555146
0.00981675856796637
0.00934019022596356
0.0087516352283826
0.00804738457061339
0.00723197391931818
0.00631344557144161
0.00530009235263478
0.00420048819711159
0.00303176913306225
0.00184612400503717
0.000771575005104963
9.0409243580183e-05
0.0104905925825014
0.0101755538596184
0.00976907341389445
0.00925800095891213
0.00863650935032139
0.00790667015545778
0.00707457944494342
0.00614786146252875
0.00513549100255051
0.00404830660012411
0.0029058135617148
0.00175981819864838
0.000731425392511216
8.52624153891963e-05
0.000106805558815278
0.000885801920063107
0.000109004119691505
0.00208661655215503
0.000899743864498892
0.000111593933900232
0.00338375015276555
0.0021050385673094
0.000916950937447579
0.000113155634941542
0.00462318691129484
0.0033981633127732
0.00212589885343198
0.000927739890510483
0.000112942376024993
0.00574017553292198
0.00462932427207614
0.00340982892849116
0.00213713697340256
0.000926802807014005
0.000111459084171414
0.00671678988911152
0.00573767399141772
0.00462634035308901
0.00340918218455474
0.00213095910350958
0.000916174177671403
0.000109478704228937
0.00755742636172338
0.00670822109102576
0.00572004226830814
0.00460761287296636
0.0033894700541443
0.00210839211317708
0.000900349381544784
0.000107306366608614
0.00827525818535263
0.0075456270550039
0.00667956117858859
0.00568295286570667
0.0045686312860927
0.0033503587672824
0.00207420859180015
0.000881686669498312
0.000104876495501122
0.00888503332012864
0.00826186277848464
0.00751006538841688
0.00662757672911577
0.00562364448894637
0.00450848071659429
0.00329451189901056
0.00203128402582074
0.000860292792439513
0.000102057453902876
0.00940030330607727
0.0088706289691885
0.00822212289955667
0.00744729476667391
0.00655020009354712
0.00554095739918301
0.00442760968625883
0.00322338965024669
0.00197985697079139
0.00083542108995066
9.87512895132838e-05
0.00983295313415869
0.00938498125009312
0.0088280262853912
0.0081515562653983
0.00735503234433902
0.00644606082629449
0.00543372799949889
0.00432550512898667
0.00313640836243905
0.00191873999150355
0.000806221671529148
9.4885625708786e-05
0.0101934725455191
0.00981665669398958
0.00934004082679642
0.00875143297259063
0.0080471214591686
0.00723165177997402
0.00631308046486153
0.00529971510222215
0.00420014369476221
0.00303152719580724
0.00184610239498628
0.00077181861517877
9.03995522315312e-05
0.0104912337359679
0.0101760974632961
0.00976955564622089
0.00925839785814116
0.00863679461459047
0.00790683259703171
0.00707462203818887
0.00614779848938598
0.00513534602710321
0.00404810808866175
0.00290560125133594
0.00175963568533021
0.000731306435717515
8.5236377867504e-05
0.0107344703295186
0.0104724755196202
0.0101267161486624
0.00968327096352162
0.00913480131218956
0.00848152544167928
0.0077277607636336
0.0068795904831614
0.00594519858621716
0.00493556158337133
0.00386445282104653
0.00275417125946153
0.00165633657675443
0.000683866586539704
7.9238626525947e-05
0.000106652405211298
0.000885010563239672
0.00010888908106868
0.00208519500169054
0.000899168807389391
0.000111506386280601
0.00338198131946918
0.00210402344686657
0.000916521381050579
0.000113089150764077
0.00462135520999337
0.0033969203739503
0.00212515909237224
0.000927415991333307
0.000112892585627927
0.00573846498420408
0.00462804566228573
0.0034089349478381
0.00213658446835374
0.000926551340856738
0.000111421478742727
0.00671528892954975
0.00573647629760625
0.00462542135893668
0.00340851621423079
0.00213053064815183
0.000915972990971868
0.000109450445841952
0.00755615560020831
0.00670715455699496
0.00571916939290842
0.0046069207082284
0.00338894877100131
0.00210804538818972
0.000900189742771067
0.000107287638487533
0.00827420019371846
0.00754469844905093
0.00667876032336279
0.00568227702976788
0.00456807659930033
0.00334992751726629
0.00207392157669602
0.000881568450982464
0.00010486195368623
0.00888416159999507
0.0082610628102112
0.00750934075243394
0.00662693186998453
0.00562308268095898
0.00450800661761308
0.00329413984036164
0.00203104398822157
0.000860190229610325
0.000102044903933392
0.00939960281748076
0.00886995378729111
0.00822147944526592
0.00744669094213229
0.00654964390578333
0.00554045838894129
0.00442718288969753
0.00322305974770827
0.00197965213095652
0.000835339857726077
9.87403754150082e-05
0.00983243252548479
0.00938444780775106
0.00882748727664517
0.00815101936678036
0.00735450548684355
0.00644555525041925
0.00543326200674607
0.00432510660142459
0.00313611473365612
0.00191859182132871
0.000806200715678297
9.48767163754924e-05
0.0101931739379164
0.00981631473117935
0.00933966292863575
0.00875102260715985
0.00804668085194965
0.00723118824426368
0.00631261092103725
0.00529926828176234
0.00419976110652073
0.00303126969360897
0.00184604663043074
0.000771946296799893
9.03941703412609e-05
0.0104912657376573
0.0101760635708545
0.00976946594341918
0.0092582456410075
0.00863657018185296
0.00790653456731105
0.0070742609325318
0.0061473970755544
0.00513493958953587
0.00404774515500286
0.00290536409496172
0.00175964777708902
0.000731602772867473
8.52309942461706e-05
0.0107352041061804
0.0104731069075902
0.010127281768396
0.00968374831650601
0.00913516398906212
0.00848176067906375
0.00772786858385798
0.00687958074825407
0.00594509013092541
0.00493538161720818
0.00386423836483302
0.0027539685724863
0.00165618789155096
0.000683781115670322
7.92199504548988e-05
0.0109324304107987
0.0107157352877775
0.0104222960153098
0.0100375589664415
0.00955300563572649
0.00896739824372182
0.00828353639238622
0.00750594905310252
0.00664123600410566
0.00569934777863688
0.00469402937105942
0.00364256455358456
0.00257077389100882
0.00153088895709821
0.000626341644339232
7.19174499396952e-05
0.000106443878545869
0.000883900290236157
0.000108730791263094
0.00208319247950469
0.000898360032938548
0.00011138530491267
0.00337946983058968
0.00210257911864457
0.000915919579866514
0.000112996976735493
0.00461873117375118
0.00339513481537632
0.00212410003488978
0.000926957483402485
0.000112823559383206
0.00573600702479885
0.00462620389975558
0.00340764932500869
0.00213579728434252
0.000926201557139414
0.000111370311835955
0.0067131417121385
0.00573476163853761
0.00462410789191447
0.00340757259053346
0.00212993442172467
0.000915698700092097
0.000109412106318013
0.00755436161459398
0.00670565267239621
0.00571794551682766
0.00460595904566305
0.0033882369937442
0.00210758228819318
0.000899975973636961
0.000107260440460962
0.00827273963459701
0.00754342730450766
0.00667767380951911
0.00568137051845678
0.00456734479717133
0.00334937072754829
0.00207355564898519
0.000881416147656378
0.000104843941721761
0.00888298869430993
0.00826000411911635
0.00750839667982519
0.00662610519649886
0.00562237524647778
0.00450742076270017
0.00329368669496944
0.00203075423073386
0.000860069678553883
0.000102030997172722
0.00939867227872073
0.00886908084525518
0.00822066738975312
0.00744594644137015
0.0065489741552537
0.00553987035929174
0.00442668679296285
0.00322267568434673
0.0019794060801128
0.000835235153079983
9.87287619165516e-05
0.00983171700515288
0.00938374551253206
0.00882680278721152
0.00815036037359826
0.00735388103864513
0.006444975745825
0.00543274102794492
0.00432466374516711
0.00313577694827849
0.00191838514165486
0.000806122885697075
9.48670926695046e-05
0.0101926737343471
0.00981579239355142
0.00933912307295505
0.00875047128884934
0.00804612498636499
0.00723063765545001
0.00631208092301346
0.00529878172603391
0.00419934944421825
0.00303097440542881
0.00184590637732155
0.000771938684945709
9.03873609204872e-05
0.0104910174531688
0.0101757656854822
0.00976912276884125
0.00925785855691754
0.0086361397412016
0.00790606573446467
0.0070737665239213
0.00614689943369476
0.00513447178305558
0.00404735234026022
0.00290511546125935
0.00175962090712349
0.000731768188607929
8.52292109701692e-05
0.0107353117384952
0.0104731447585101
0.0101272571116416
0.0096836529502621
0.00913498689734728
0.00848149845425884
0.00772752831486376
0.00687917974790147
0.00594465617169886
0.0049349539136815
0.00386387387895445
0.00275375626272379
0.0016562562030499
0.00068415391545152
7.92223282739161e-05
0.0109332537178133
0.0107164525153669
0.010422943974577
0.0100381161337869
0.00955344558380332
0.00896770717639946
0.00828371250785137
0.00750599934547559
0.00664117523218941
0.0056991992005762
0.00469382511064605
0.00364235137309517
0.00257060194960908
0.00153079640279867
0.000626320034396971
7.19135917691359e-05
0.011091523056455
0.0109131718075091
0.0106644834390456
0.0103303879829488
0.00990138697833397
0.00937504129102117
0.0087528317260802
0.00803782781689747
0.00723498724723735
0.00635246450170378
0.00540269073672664
0.00440264891326295
0.00337372876117468
0.0023464011465615
0.00137510127412205
0.000553714039892278
6.68951219735961e-05
0.000106163222144966
0.000882362677644136
0.000108515374570902
0.00208040559236602
0.000897225825594845
0.000111219117479754
0.00337594752967272
0.00210054661204984
0.000915070586860473
0.000112869918212288
0.00461501513802412
0.00339259995232425
0.00212260003117516
0.000926316869860466
0.000112727922018467
0.0057325002423401
0.00462356705153355
0.00340580920400947
0.00213467782610471
0.000925713001312761
0.000111299511205215
0.00671006743706811
0.00573229933722123
0.0046222212794766
0.00340622397493198
0.00212909382581925
0.000915323101531365
0.000109360102336126
0.007551798353064
0.00670350509583104
0.00571619687835854
0.00460459137252712
0.00338723647249827
0.00210694352548894
0.000899684941112037
0.000107222286089146
0.00827067309509873
0.0075416338283484
0.00667614638789267
0.00568010399968658
0.00456633393058899
0.00334861514573038
0.00207306609746148
0.000881201423977313
0.00010481990891089
0.00888135710439
0.00825854382324702
0.00750710563211787
0.00662498586203436
0.0056214298275235
0.00450665129342157
0.00329310244429782
0.00203038408083176
0.000859917760348488
0.000102013813341796
0.00939740078386167
0.00886790759249516
0.00821959290014568
0.0074449769896523
0.00654811738584677
0.005539132579984
0.00442607586232285
0.00322220987414282
0.00197911157425186
0.000835113327813378
9.87160912006796e-05
0.00983074120395786
0.00938281390701413
0.00882591723100496
0.00814952832814774
0.00735311258779294
0.00644428105925239
0.00543213066464456
0.00432415222394271
0.00313538648613881
0.00191813717688459
0.000806022778752718
9.4856639433866e-05
0.0101919540058962
0.00981507504647165
0.00933841067597452
0.00874977057280972
0.00804544541918534
0.00722999049312592
0.00631147963832221
0.0052982435484905
0.00419889698824519
0.00303063623376376
0.00184570637214359
0.000771870696136163
9.03795442412662e-05
0.0104905452503811
0.0101752636460014
0.00976859296562778
0.00925730512396423
0.00863556855665347
0.00790548568025445
0.0070731910388926
0.00614634790614659
0.00513397077846803
0.00404693634819692
0.0029048302737953
0.00175950320619756
0.000731786475089907
8.52253427464643e-05
0.0107351179842936
0.0104728966914556
0.0101269563054141
0.00968329851939753
0.00913457784025062
0.00848103812792328
0.00772702696866286
0.00687865543106963
0.00594413569501183
0.00493447422579508
0.00386348701012957
0.00275353519798141
0.00165628018703818
0.000684379555073362
7.92262961075992e-05
0.0109334368620228
0.0107165638536492
0.0104229878637036
0.0100380826439337
0.0095533224155078
0.00896748939511779
0.00828340497576376
0.00750561588998458
0.00664073835259603
0.00569874109321745
0.00469338974007886
0.00364200529407287
0.00257043968666198
0.00153095242977502
0.000626818701794516
7.19321131511602e-05
0.0110924315969521
0.0109139719244103
0.0106652117474023
0.0103310236782411
0.00990190346030063
0.00937542384904097
0.00875307723147975
0.00803794140265203
0.00723498089338727
0.00635235755495294
0.00540251174038737
0.00440243773461514
0.00337353904490039
0.0023462891457612
0.001375106978531
0.000553797123647375
6.70085086574201e-05
0.0112180392181506
0.0110718329715143
0.0108611013953623
0.01057038274743
0.0101893520270576
0.00971454445941832
0.00914627621118281
0.00848624392445938
0.00773779207188006
0.00690720079816083
0.00600479535669315
0.0050458175746748
0.00405079876232821
0.00304580346062081
0.00206758839171002
0.00117572967252024
0.000458685466652123
3.6498376832529e-05
0.000105793203316885
0.00088026734575194
0.000108225422733684
0.00207657845199759
0.00089567264916602
0.000110992965632865
0.0033710780585331
0.00209771977254209
0.000913891313084575
0.000112695520881212
0.00460982778529571
0.00338904737739004
0.00212049505876738
0.000925432307592084
0.000112596447612634
0.00572755294131323
0.00461983533573504
0.003403203967087
0.00213310061486464
0.000925033411478642
0.000111201622952599
0.00670569409005834
0.00572878691501408
0.00461952728365589
0.00340430397220537
0.00212790859062142
0.000914806688889698
0.000109288103433016
0.00754813511517787
0.00670043036664934
0.00571369126446951
0.00460263605522785
0.00338581713131758
0.00210605173244673
0.000899292526412934
0.000107169918298033
0.00826772170197982
0.00753907196795297
0.00667396613714753
0.00567830118773565
0.00456490498206549
0.00334756078055184
0.00207239374439144
0.000880906558521788
0.000104785816384987
0.00887904233307597
0.00825647874545977
0.00750528671280229
0.00662341686974206
0.00562011523449077
0.00450559470401451
0.0032923125464891
0.0020298826437712
0.000859713421638436
0.000101990969914996
0.00939561813233921
0.00886627680061651
0.0082181123510847
0.00744365383642306
0.0065469614853243
0.00553815159486792
0.00442527729077481
0.00322161094783908
0.00197873878610119
0.000834961274747191
9.8700025416609e-05
0.0098293871370247
0.00938154243253571
0.00882472770063668
0.00814842865841792
0.00735211494024951
0.00644339684249328
0.00543136942357353
0.00432352600201861
0.00313491596283546
0.00191784179250698
0.000805904111111712
9.48451961680752e-05
0.0101909451132313
0.00981409835781727
0.00933746584739471
0.00874886473589304
0.00804459041074554
0.00722919931284684
0.00631076487749648
0.00529761860625992
0.00419837893109587
0.00303024703621803
0.00184546531365881
0.000771779416634817
9.0370824404083e-05
0.0104898293639967
0.0101745418282016
0.00976786469150515
0.00925657567282541
0.00863484724929942
0.00790478438661589
0.00707252356468395
0.00614573059589413
0.0051334237533679
0.00404648439503056
0.00290450340394052
0.00175932225189567
0.000731738925338705
8.52198971366105e-05
0.0107346785627196
0.0104724222094218
0.0101264456671553
0.00968275370758122
0.00913400350457495
0.00848044238850472
0.0077264221220127
0.0068780586015896
0.005943569798669
0.00493396910512697
0.00386308207220289
0.00275327716455873
0.00165620438270302
0.000684440839712129
7.92265017544173e-05
0.0109332988133491
0.0107163693580819
0.0104227350571147
0.0100377683084403
0.00955294390271705
0.00896704871113759
0.00828291066731703
0.00750508326275223
0.0066401898651081
0.0056982075068682
0.00469291251885175
0.00364164376547436
0.00257027032849663
0.00153105727293459
0.000627140472358085
7.19470847803127e-05
0.0110926875607546
0.0109141565005421
0.01066532579505
0.0103310553480567
0.00990183904271118
0.00937525698620954
0.00875281108841314
0.00803758748865679
0.00723455824331489
0.00635189321990763
0.0054020427077203
0.00440201562810705
0.00337323700139063
0.00234621077628902
0.00137540171743539
0.000554483223548557
6.71900680866728e-05
0.0112190273742221
0.0110727119299706
0.0108619071165082
0.0105710949207543
0.010189943724656
0.0097149999658269
0.00914659116674206
0.00848642204748276
0.00773784346122106
0.00690714204627352
0.00600465080406793
0.00504562240973363
0.00405060157802887
0.00304566714198364
0.00206758266767235
0.00117591186930085
0.000459036769780145
3.66812096279661e-05
0.0113175320828993
0.0111980014178767
0.0110191672668872
0.01076530857162
0.0104254187107889
0.00999515068047717
0.00947378698691701
0.00886174649361155
0.00816080079846293
0.00737536575780992
0.00651357739829764
0.00558816452508631
0.00461728157582901
0.00362509177144605
0.0026431558223012
0.00171730774858447
0.000916199695691747
0.000309359328798812
1.14288784943486e-05
0.000105318019997205
0.000877455499029659
0.000107842565512471
0.00207141748825846
0.00089357475768935
0.000110689568727507
0.00336444635344837
0.00209384729459318
0.000912294446071702
0.00011245879586506
0.00460268765850859
0.00338413735618428
0.00211757611397589
0.000924190680976929
0.000112416477121508
0.00572066816864872
0.00461462616607374
0.00339956114514176
0.00213090050848872
0.000924099330831888
0.000111067129099988
0.00669954401937074
0.0057238330480193
0.00461572311486701
0.0034015973152906
0.00212624836146993
0.000914095076788786
0.00010918865889548
0.0075429395533505
0.00669605796278386
0.00571012406742577
0.00459985535809327
0.00338380895769477
0.00210480450834431
0.00089875271467137
0.00010709734307778
0.00826351138300711
0.00753541201627136
0.0066708498286475
0.0056757271375917
0.00456287329169863
0.0033460753047815
0.00207146094045679
0.00088049977207429
0.000104734399673987
0.00887573598149084
0.00825353021223447
0.00750269242417317
0.00662118397913188
0.00561825272176959
0.00450410990618983
0.00329121576680894
0.00202919260695733
0.00085943070683981
0.000101958487562645
0.009393081034426
0.00886396423490937
0.00821602142004691
0.0074417943155375
0.00654534766165018
0.00553679469384975
0.00442418634699158
0.0032208021071888
0.00197824011422765
0.000834757984396172
9.86784705417723e-05
0.00982747342622939
0.00937976112882198
0.00882307613565965
0.00814691643510367
0.00735075806320345
0.00644220995473443
0.00543036310460676
0.00432271164564231
0.00313431426246161
0.00191747014793762
0.000805755914137604
9.48306378723188e-05
0.0101895234181085
0.00981274468752155
0.00933617758091794
0.0087476500332382
0.00804346444585701
0.00722817810154292
0.00630986172635489
0.00529684512220383
0.00419774936972082
0.00302978015006611
0.00184517726794561
0.000771668353894197
9.03609852556331e-05
0.0104887983326118
0.0101735323251398
0.00976687415963838
0.00925561012530203
0.00863391930424926
0.00790390916706209
0.0070717159153424
0.00614500488062048
0.0051327954016933
0.00404597178807165
0.00290412761690004
0.00175909929390483
0.000731663308125246
8.52134049032414e-05
0.0107339733377292
0.0104717044264811
0.0101257120133918
0.00968200742216006
0.00913325326556024
0.00847970035150266
0.00772570251889898
0.00687737756809902
0.00594294613618969
0.00493342534328525
0.00386264596340257
0.00275297772274403
0.00165605947507311