/*--------------------------------*- C++ -*----------------------------------*\
  =========                 |
  \\      /  F ield         | OpenFOAM: The Open Source CFD Toolbox
   \\    /   O peration     | Website:  https://openfoam.org
    \\  /    A nd           | Version:  12
     \\/     M anipulation  |
\*---------------------------------------------------------------------------*/
/*   Windows 32 and 64 bit porting by blueCAPE: http://www.bluecape.com.pt   *\
|  Based on Windows porting (2.0.x v4) by Symscape: http://www.symscape.com   |
\*---------------------------------------------------------------------------*/
FoamFile
{
    format      ascii;
    class       volScalarField;
    location    "100";
    object      omega;
}
// * * * * * * * * * * * * * * * * * * * * * * * * * * * * * * * * * * * * * //

dimensions      [0 0 -1 0 0 0 0];

internalField   nonuniform List<scalar> 
10068
(
4.40705158201625
4.40615715808862
1.51548577855948
4.3382813770586
4.40543405267703
1.5149693002437
4.33749969425854
0.943579758113724
1.49446676121516
4.26179254980675
4.40478831471116
1.5144456903673
4.33683692133938
0.943180628877431
1.49397172790173
4.26114858942952
0.730820954394164
0.935696668413445
1.46587321043046
4.18535070807863
4.40419243789402
1.5140332411763
4.33622146597851
0.942827119989056
1.49339844567324
4.26049008653727
0.730482890976714
0.935315666292362
1.46541000439384
4.18491075820373
0.628281888282951
0.72756095398591
0.923035271994428
1.43885212811181
4.12163373244923
4.40364816902166
1.51370137599556
4.33563818096474
0.942541008795441
1.49296800785716
4.25990047886181
0.730192667614435
0.934962154091713
1.46478678416564
4.1842455992989
0.627976524254882
0.72723890432618
0.922668786759331
1.43843113970026
4.12130557640905
0.572016670557045
0.626900612985883
0.721244344443495
0.909365219045768
1.41717745097781
4.06481769759019
4.40314446500516
1.51341861707548
4.33509956393753
0.942305801066567
1.49263949524367
4.25932961902932
0.729951845254283
0.934674495340664
1.46432845648468
4.18359662145653
0.62771545052503
0.726952378272306
0.922313334195326
1.43777801028434
4.12067318498375
0.571729343615077
0.626609821828044
0.72093312886764
0.909009732621367
1.41678309155913
4.06454438629988
0.538735833634039
0.571403422104269
0.623360287358813
0.713328737121536
0.896761503947286
1.39840876480922
4.00271661507124
4.40263723879268
1.51315611909678
4.33459732098464
0.942102430707356
1.49236219746923
4.25879297862553
0.72975029611079
0.934439860566918
1.46399476597387
4.18302674376032
0.627496810938839
0.726712513446651
0.92202271559115
1.43728651086584
4.1199421615428
0.57148378705345
0.626352531999375
0.720650555246942
0.908652374370215
1.41611506249049
4.0639337779642
0.538459087426319
0.571129888748388
0.623078919722419
0.713023529029418
0.896413315396672
1.39803012101318
4.00248055283567
0.518105721010924
0.538389678917511
0.569108576476021
0.618254617298461
0.704943252983448
0.884868934183785
1.37833789154896
3.92857572845366
4.40207535787997
1.51289841590273
4.33409611542034
0.941918773528969
1.49210739361776
4.25828580180224
0.729577048773211
0.934239346989968
1.46371966765742
4.18248816886928
0.627312604929779
0.72651169729732
0.92178813321829
1.4369428196951
4.11932507167957
0.571277716763028
0.626135094948019
0.720412083681453
0.908357473586
1.41559451862477
4.06319964249677
0.538222620795188
0.570887979187514
0.622826054866301
0.712743817595244
0.896054790667357
1.39735162748498
4.00187382491742
0.517835747370538
0.53812629262572
0.568843816684076
0.617977940108551
0.704641511682664
0.884526508999
1.37797335433013
3.92837803280324
0.504936224488234
0.517831218737181
0.536621592081356
0.565418477802393
0.612235426722525
0.696327849074777
0.872333814442506
1.35452038912605
3.84046393066531
4.40137351989261
1.51261539422295
4.33353207923787
0.941740604572818
1.491855074032
4.25777936293446
0.729422255243088
0.934058304707995
1.46346901081661
4.18197273424203
0.627154379946419
0.726339330944601
0.921589715425055
1.43666797775928
4.11877170015206
0.571103733177062
0.62595141193025
0.720212377598635
0.908121981661206
1.41523597698079
4.06249828135461
0.538024187240698
0.570683033315942
0.622610599936843
0.712506527107948
0.89575593206619
1.39681873676488
4.00113891315819
0.517605110122938
0.537893372472941
0.568606224285417
0.617728535594452
0.704363666367867
0.88416771092176
1.37728698511118
3.92778707043176
0.504671064995732
0.517574326570535
0.536366665131845
0.56515793459149
0.611961189715324
0.696029088455209
0.871998741639036
1.35417167280636
3.84030389625543
0.496395527153372
0.504679917960027
0.516279360738284
0.533642820477041
0.560784557171807
0.605671900091313
0.687169299017441
0.858165487006733
1.32623488027829
3.73711186686623
4.40043521576271
1.51228517923131
4.33283491764425
0.941555355705861
1.49158207628538
4.25720285054242
0.729275684604129
0.933883266289723
1.46322062575227
4.18144901491329
0.627014086184143
0.726185381138558
0.921411257819998
1.43642064034592
4.11824053936464
0.570954652878393
0.625793585808474
0.720041304892259
0.907925208380671
1.41495949887455
4.06187780627892
0.537856850390367
0.570509521922576
0.622428028371566
0.712308028673452
0.895518840672871
1.39644444992575
4.00043184290846
0.517411765107107
0.537696040621843
0.568403246634155
0.617515145487637
0.704127286284981
0.883867118006035
1.37674945228704
3.92705316092423
0.504444583937562
0.517347180616898
0.536137949188058
0.564923769550233
0.611714131399408
0.69575291133937
0.871641353932025
1.35347860685035
3.83974272717142
0.496134130241617
0.504427625545436
0.516030755559109
0.533391912541199
0.560526083874453
0.605399681021372
0.686874406839225
0.857842692219241
1.32590389074331
3.7369941699769
0.49083460530871
0.49615275296208
0.503234636283093
0.513678816027156
0.529844311197556
0.555591112735439
0.598636546252871
0.67713083308732
0.841931496194201
1.29321426888319
3.61643988560981
4.39912256199453
1.51186481318827
4.33189857177258
0.941342801566461
1.49126123806308
4.25650038046235
0.729126538031876
0.93370011244051
1.46295154199024
4.18086043179114
0.626883726081631
0.726039817442757
0.921238803319711
1.43617590501001
4.11769763706403
0.570823574541575
0.625653724852435
0.719888641148038
0.907749414987403
1.41471553793486
4.06132137312621
0.537713924503018
0.570360694453907
0.622271019289397
0.712138513613653
0.89532330250975
1.39615896197431
3.99975974748776
0.517249006339712
0.53752911578145
0.56823073647873
0.617334012093307
0.703929917888466
0.883628523873472
1.37637366382262
3.92634060046441
0.504254899714333
0.517154906049314
0.53594252687738
0.564722909048378
0.611502519742993
0.695517603330821
0.871341040361652
1.35293953776755
3.83902420399758
0.49591089264932
0.504204583127234
0.51580773254589
0.53316652462678
0.560294239419546
0.605154489000254
0.686600492733435
0.857488975837325
1.32520569189235
3.73648023366147
0.490576368828617
0.495904047003838
0.502990501895003
0.513434119320621
0.529595283734991
0.555334210084007
0.598366776115917
0.676841579541162
0.841619972005041
1.29290650680056
3.61639854282938
0.487237685567228
0.490610302468189
0.494784231363837
0.500870611699693
0.510420766037221
0.525604410489938
0.550049081920224
0.591098027763365
0.666042348398975
0.823471059867604
1.25513356763451
3.47568025643934
4.39725361574253
1.51130456890997
4.3305897351588
0.941079864069884
1.49085302606203
4.2555517499096
0.72896106764368
0.93349053318002
1.46263503103739
4.18013637966105
0.626754166006556
0.725891657563026
0.92105773188369
1.43590982643461
4.11708753712741
0.570703477121714
0.625523756691111
0.719744231827335
0.907579794639626
1.41447589205074
4.06075702003987
0.537589229248231
0.570229808630373
0.622131806973623
0.711987522324478
0.895150260244913
1.39591479112832
3.99910841947662
0.517110561106348
0.537386397133822
0.568082477803735
0.617178182594834
0.703762059667105
0.883433178113107
1.37608229026252
3.92566560570253
0.504095583018424
0.516992554649571
0.53577651125998
0.564551725821887
0.611322883292292
0.695321342299413
0.87110290866354
1.35256770899288
3.83831589366918
0.495724118389119
0.504015969345315
0.515617311232987
0.532973138556844
0.560095204875154
0.604944468364416
0.686366755209867
0.857190159100769
1.32466757693072
3.7357910986404
0.490355859619701
0.495684206648602
0.502771509154369
0.513214327367959
0.529372095515839
0.555104092946051
0.598123573911781
0.676571060254532
0.841270318386792
1.29221400466173
3.61597225590921
0.486982223555617
0.490364606738668
0.494543569337476
0.500630296083886
0.510177806688997
0.525356661459683
0.549793917886584
0.590831463422996
0.665759714530397
0.823169801231205
1.25482868476092
3.47575621218897
0.484949736064839
0.487035076019229
0.489312169047712
0.492598737905796
0.497999993837828
0.506880043030165
0.521176916563361
0.544270902586627
0.583074524566703
0.653905482078539
0.802744109062418
1.21141715317339
3.31116631607154
4.39460910437805
1.51054097482924
4.32873975132561
0.94073681889024
1.49030697516782
4.25423040871486
0.728762277586456
0.933231272375303
1.46223142345675
4.17916324926908
0.626614434997857
0.725727351744219
0.920850193998827
1.43559523811337
4.11632874754982
0.570586616013848
0.625394606365505
0.719596934440261
0.907401214778041
1.41421515806153
4.060119560338
0.53747649045936
0.570109903494903
0.622002270467717
0.711844654617202
0.894983981032015
1.39567914641486
3.99849726382802
0.516990644087414
0.537261814634608
0.567951901137776
0.617039941838532
0.703613032442513
0.883262143632915
1.3758277702816
3.92500877225765
0.503960584491932
0.51685427952715
0.535634228767077
0.564404335946232
0.611168439791777
0.69515500323873
0.870907961261766
1.35228192043791
3.83764173939212
0.495567538709182
0.503857040101012
0.515455807898511
0.532808308728378
0.559925400572634
0.604766289036814
0.686171945082591
0.85695369928767
1.32430279383453
3.73510045759001
0.490171526468079
0.495498481007564
0.502584700979923
0.513025844952191
0.529180414374949
0.554906594134593
0.597915216738318
0.676339597918374
0.840974603262419
1.29168223040952
3.6153391482802
0.486764113085005
0.490147454923638
0.494327709426385
0.500414440598425
0.509960076885323
0.525134993043678
0.549565421680281
0.590590727053739
0.665493605276021
0.822825646899307
1.25412837933212
3.47545662015075
0.484696759011828
0.486792023562309
0.489074411845117
0.492361808726527
0.49776128521666
0.50663812188049
0.520930444950534
0.54401783801961
0.582811801813302
0.653629500904473
0.802450479945795
1.21112347304589
3.311390293433
0.483534586612469
0.484769053513674
0.48580429141933
0.487278076569966
0.490032534555842
0.495000573362625
0.503321517531734
0.51674076837531
0.538395642411965
0.574716970618447
0.640896433601505
0.779825184955986
1.16138517520767
3.1178924598844
4.39090014437741
1.50948965714993
4.32613603126682
0.940274779907196
1.48955785818885
4.25236749354735
0.728508347554518
0.932892486976183
1.4616903250516
4.17781296938659
0.626450908848947
0.725529889049968
0.920593001434879
1.43519281630896
4.11532011315003
0.570463759937128
0.625255334432419
0.719433245735782
0.907195767001301
1.41390557738496
4.05932956209676
0.53736883215008
0.569993214691622
0.621873279768001
0.711698562431529
0.894808799296261
1.39542457323253
3.99783260711228
0.516883501040018
0.537149145368814
0.56783206251038
0.61691109029594
0.703472156615857
0.883099106196223
1.37558913964411
3.9243224820857
0.503844425968768
0.516734426223946
0.535509775680239
0.564274278257884
0.611031455726453
0.695007909163636
0.870737413715637
1.35203110840016
3.83698355848622
0.495435337469817
0.50372218860157
0.515317880433669
0.532666673530505
0.559779050633724
0.604613274830061
0.686007145815543
0.856760534475528
1.32402668703062
3.73443742174776
0.490017266566902
0.495342283817418
0.502426566359102
0.512865403996873
0.529016768367417
0.554738092289335
0.597738557559198
0.676146748899799
0.840741932673637
1.29132798669547
3.61468509202397
0.486581920752867
0.489964155612986
0.494143738345818
0.500229476972023
0.509773148626714
0.524944653132679
0.549369360731628
0.590384338622569
0.665265405084248
0.822534710137568
1.25360520573016
3.47491959526499
0.484480799614555
0.486577233909051
0.4888611747867
0.492148996042742
0.497547356093241
0.506421698571938
0.520710050817907
0.543791128329977
0.582574070321058
0.653367978467844
0.802110091127358
1.21041407158655
3.31128139891783
0.483283835116977
0.484528368521895
0.485569080826639
0.487043969650805
0.489797092494905
0.494762693288499
0.503080514196462
0.516495733889612
0.538145027857924
0.574458576554277
0.640626638173327
0.779539795746047
1.16110889504091
3.11828706792028
0.482696509102294
0.483374168122224
0.483600977871868
0.483903883397309
0.484965041494128
0.487470696046224
0.492141449550295
0.499956038312108
0.512510273523224
0.532689379760885
0.566379935459149
0.627453817664503
0.755066538028164
1.10447364482089
2.89022052036536
4.38575207857458
1.5080457860326
4.32248338292988
0.939645337530463
1.48852152230499
4.24974698319711
0.728172014373676
0.932435625828378
1.46094783882999
4.17591364746442
0.626246394800719
0.725277611323866
0.920256322737175
1.43465259452107
4.11392617113693
0.570323374151926
0.625092322018343
0.719236134467274
0.906940247817889
1.41350802391202
4.05828282655192
0.537258172350511
0.56987047824675
0.621733845619836
0.711535646243228
0.894606552387146
1.39512279373838
3.99701496400609
0.516782922376628
0.537041514282582
0.567715139803441
0.616782384683137
0.703327859404177
0.882927912800666
1.37533743384096
3.92354671955674
0.503741745249066
0.516627287939586
0.535396957190038
0.564154587383671
0.610903626244257
0.69486921461792
0.870576185046546
1.35178589129155
3.83630372907131
0.495322261684993
0.503606061436852
0.515198044322741
0.53254244575116
0.559649713935105
0.604477678864142
0.685861758921905
0.85659150229423
1.32378602566328
3.73379117800712
0.48988742707052
0.495210209219645
0.502291997645579
0.512727960506867
0.528875875410446
0.554592824396106
0.597587008681684
0.675983858521988
0.840553177717096
1.29106407280042
3.61405192700404
0.486429684991541
0.489810263560592
0.493988291200771
0.500072297882711
0.509613702327282
0.524782055756089
0.549202120689364
0.590209411297702
0.66507544179923
0.822307538404678
1.25326587159048
3.4743382481142
0.484300520890704
0.486396060174508
0.488679583184343
0.491966781205129
0.497363800338937
0.506235893944103
0.520520848958241
0.543596589965685
0.582370093242498
0.653143466674349
0.801824380773974
1.20989704770093
3.31090689224513
0.483069805515647
0.484315696740928
0.485358145923106
0.486833696645452
0.489586081106571
0.494549872275627
0.502865054520664
0.516276612140378
0.537920366302994
0.574224321071075
0.64036962358358
0.779202577052197
1.1603891642409
3.11846137423246
0.482447728459394
0.483135603966629
0.483368047904557
0.483672247614558
0.484732316418004
0.487235903388782
0.491904191670239
0.499715987784207
0.512266845313206
0.532441487873732
0.566125786915839
0.6271900833003
0.754790639628975
1.10422764783145
2.89086994077919
0.482233728732503
0.482553868323454
0.482262502173872
0.481818759806308
0.481806780507672
0.48276668212059
0.485186703798198
0.489651511132813
0.497045360397241
0.508834160846425
0.527640099475328
0.558746325091482
0.614494763216216
0.729505343976121
1.04116607076684
2.62527233115997
4.378688038733
1.50608988266
4.31740909019952
0.938788854059328
1.4870956401132
4.24608536697929
0.727718366278181
0.93181212867252
1.45991478938219
4.17324869500408
0.625979353075117
0.724943095030521
0.919801866751162
1.43391030263785
4.11197573543613
0.57015127643827
0.62488842023321
0.718983924677595
0.906604818958223
1.41297022367685
4.05684009707449
0.537134641474149
0.569730234528037
0.621570280723164
0.711338777285804
0.894353859472411
1.39473388457692
3.99593657321646
0.516681719396766
0.536930826061696
0.567591788594289
0.616642720500769
0.703166379495757
0.88273007292006
1.37504180410214
3.92268892849255
0.503646859079093
0.516526653661813
0.535288852387649
0.564037350411266
0.610775573371464
0.694727164439173
0.870408140499113
1.35152409641766
3.83553743583717
0.495223268204397
0.503503342363087
0.515090623702683
0.532429424481844
0.559530365930374
0.60435110761766
0.685725067858163
0.856430873860007
1.32354917225513
3.73312751337017
0.489776964803673
0.495097140013807
0.502175810308969
0.512608146392564
0.528751971050671
0.55446432332701
0.597452837317545
0.675840378388477
0.84038880199902
1.29083605973133
3.61343750720826
0.486301902560386
0.48968053673904
0.493856448077308
0.499938086277064
0.509476758072365
0.524641889787543
0.549057942324801
0.590059481987612
0.664915342624508
0.822124912779069
1.25301528223896
3.47376421499735
0.48415008643162
0.486244181042099
0.488526399958667
0.49181219820875
0.497207448523594
0.506077242288204
0.520359182893693
0.54343066977921
0.582197266871713
0.652957032467694
0.8016038663509
1.20957195078287
3.31045007156323
0.482891242764392
0.484136422332304
0.485178638343567
0.486653783189141
0.489405143034156
0.494367235864253
0.502680091547521
0.516088502882532
0.537727541610519
0.57402320240171
0.640149122079704
0.778921763715244
1.15987852402316
3.11834554376076
0.482235404218105
0.482924832145499
0.483159178197631
0.483464203787745
0.484523735938179
0.48702582697601
0.491692064243107
0.499501382964581
0.512049094126778
0.532219116056733
0.565894962222541
0.62693729677153
0.75445594520807
1.10349588252208
2.89148706384022
0.481986646309952
0.482317177522478
0.482031617146386
0.481589340054185
0.481576439508551
0.482534460053607
0.484952292821472
0.489414825410939
0.496806310965643
0.508592452537542
0.527395045600281
0.558496249795871
0.614236790228989
0.729239907781151
1.04094944542232
2.6263628969843
0.482008949368469
0.482106192476285
0.481491547240667
0.480583506552089
0.479906864585628
0.479914322233915
0.480961610491904
0.483422050185472
0.48782407357999
0.494996734579337
0.506297722597716
0.524103619060513
0.55308651759561
0.603906548351888
0.705905717345083
0.974870180086356
2.21610560966242
4.36908984460786
1.50347300343851
4.31044239596356
0.937634329901877
1.48516438136783
4.24101119860259
0.727105499507524
0.930963270692317
1.45850118075856
4.16953674642368
0.62562297551697
0.7244918540085
0.919180887086848
1.43287959859885
4.10924597502425
0.569929648609923
0.624622085441487
0.718649133554396
0.906151253124856
1.41222702658902
4.05482824080641
0.536986032706264
0.569558237465108
0.621365351710494
0.711086171164481
0.894020486580992
1.39420232894736
3.99445281032102
0.516571220882982
0.536807200620568
0.567450477705759
0.616478271899793
0.702970424379267
0.88248181212624
1.37466060314866
3.9215891052284
0.503553293206753
0.51642531675241
0.535177283742374
0.563913095097449
0.61063604319964
0.694567823538262
0.870214640011942
1.35122774365725
3.83459542488213
0.495133106497197
0.50340834423102
0.514989363949388
0.532320605936225
0.559412980053023
0.60422405709042
0.685585280311093
0.856263476320583
1.3232933870282
3.73238397020176
0.489681103462085
0.49499807611064
0.502072719565534
0.512500282767342
0.528638804390555
0.554345486898349
0.597327616604
0.675705542557236
0.840232561686163
1.29061214744203
3.61280673081749
0.486193711767444
0.489570061385372
0.493743261399081
0.499821771618622
0.509356965367555
0.524518349791268
0.548930325623136
0.589926846843737
0.664774643220425
0.821967042537329
1.25279924572877
3.47320773906381
0.48402412160629
0.486116499294706
0.488396863956631
0.491680611280599
0.497073538317521
0.505940711247087
0.520219693010495
0.543287631234365
0.582049274170747
0.652800537597814
0.801428382536962
1.20933723209492
3.3099776064184
0.482742413792404
0.483986334066042
0.485027433770424
0.486501387306228
0.489251245222962
0.49421145166048
0.502522049590889
0.515927725340723
0.537563084222295
0.573852897179547
0.639966728597063
0.778708060208095
1.15956859066126
3.11809662455417
0.482058355697553
0.482747258649697
0.482981534869464
0.483286308661774
0.484344988139648
0.486845630845706
0.491510003719475
0.499317128154838
0.511862127205413
0.532028206269222
0.56569674508668
0.62672071103858
0.754179441582879
1.10299073396276
2.89180353739165
0.481775782441179
0.482108084833762
0.481824603152878
0.481383300934985
0.481369998730165
0.482326671479558
0.48474268457061
0.489203208391662
0.496592551737261
0.508376171378338
0.527175091945571
0.558268681953342
0.613987520239792
0.728905602978623
1.04018514017315
2.62774680719832
0.481763258465337
0.481871108719003
0.48126246985139
0.480356080334023
0.479678672725783
0.479684370917735
0.480729581091712
0.483187911408125
0.487587923037412
0.494758685749074
0.506057698243059
0.523861088031516
0.55283971827996
0.603652522176006
0.705646065604904
0.974688502498014
2.21610688980994
0.481929679981741
0.481893969320285
0.481086119641542
0.47990135388903
0.478829771959488
0.478272648330395
0.478510162130997
0.47980130418084
0.482492483700539
0.487108259275327
0.494466081186677
0.505879553487625
0.523583435914218
0.551801708308858
0.599705978671753
0.691375836976564
0.914730038318167
2.2870039387159
4.35619555712178
1.50000382167891
4.30097106210599
0.936096914216949
1.482556432854
4.23406149071506
0.726282691072699
0.929818775297763
1.45657735090459
4.16440184270267
0.625144298401769
0.723882003649308
0.918335607157742
1.43145152632202
4.10544861276721
0.569636515007855
0.624266495132214
0.718197371802556
0.905531047150529
1.41119547230812
4.05201966636289
0.536797317338602
0.569336693219306
0.621097408080612
0.710750256644155
0.893568074683773
1.39346022062881
3.99238886270377
0.516440856574776
0.536658432374492
0.567276830135007
0.616271637633135
0.702718010009957
0.882152310391906
1.37413205325183
3.92008223291701
0.503453344745227
0.516314594491188
0.535052269501427
0.56377013104478
0.610471031222088
0.694373693921621
0.869971303778639
1.3508472600412
3.8333726935134
0.495045894274338
0.503314571407099
0.514886973689607
0.532207677936366
0.559287926797826
0.60408512041897
0.685428378556957
0.856072744877012
1.32299011171573
3.73146134610098
0.489594958005247
0.494907760845495
0.501976993748149
0.512398032598659
0.528529258618263
0.554228165357575
0.597201754912397
0.675567681763532
0.840069000051785
1.29036998527497
3.61210469763496
0.486100567405204
0.489474104329119
0.493643761570138
0.499718065007418
0.509248593097683
0.52440510110995
0.548812092994205
0.589803042945688
0.664642476392605
0.821817536055089
1.25259059387817
3.47263618662035
0.48391793860092
0.486008279600402
0.488286227560456
0.491567183787362
0.496957010472242
0.505820895182483
0.520096508915099
0.54316094764223
0.581918453107536
0.652663556029394
0.801277996298344
1.20913753898398
3.30951171395816
0.482618071864503
0.483860464030493
0.484899910935802
0.486372027360727
0.489119799887614
0.494077689868624
0.502385815548031
0.515788880011375
0.537421295300456
0.57370723594746
0.639814404970132
0.778540346187738
1.15935034424985
3.11779076342021
0.481910949093965
0.482598769678488
0.482832094080419
0.48313582951243
0.484193160889997
0.48669210860079
0.491354544321156
0.499159578167969
0.511702258747293
0.531865368632581
0.565529077495251
0.626542454158524
0.753972320572357
1.10269718861233
2.89189455614876
0.481600034419465
0.481932014244569
0.4816486324329
0.481207217776674
0.481193179720903
0.482148519662242
0.484562839768988
0.48902152644934
0.496408963135125
0.508190416975198
0.526986216491344
0.55807326367482
0.613774251054996
0.728631526104959
1.03967958792487
2.62881155038911
0.481553586351847
0.481663455481543
0.481057099737366
0.480151850080542
0.479474167677319
0.479478610145297
0.480522080715161
0.482978535156239
0.487376732102712
0.494545772337163
0.505842885344178
0.523643293625791
0.552614628516532
0.603404520118239
0.705303574829803
0.973868882766466
2.21610874385065
0.481685027455635
0.481660195452045
0.48085859382395
0.479675697836998
0.478603527350257
0.478044764519158
0.47828026198753
0.479569317010681
0.482258520086018
0.486872557765234
0.494228891541552
0.5056408777274
0.523342487468177
0.551555721433491
0.599449069527766
0.691098614534788
0.914412845850915
2.28699341886412
0.481934645075259
0.481824963498248
0.48090944791741
0.479571205189331
0.478281494956579
0.477412879626671
0.477204030233058
0.477853924361376
0.47961828382417
0.482877784742256
0.488211845626223
0.496519700245184
0.509241971993408
0.528807624240514
0.559667704562545
0.610934679432539
0.704501412531882
0.940100975617871
2.38169009876714
4.33928953226642
1.49546561564931
4.28820595488157
0.934069475111976
1.47907391929584
4.22460597885223
0.725189532537685
0.92829182001194
1.45396210367937
4.15737452949017
0.624504051390512
0.723063197242473
0.917195724133751
1.42953068820084
4.10020878842555
0.569244933780699
0.623788861283562
0.717586893338052
0.904685491216333
1.40976612650317
4.04812158048663
0.53654989610662
0.569043581647539
0.620739548557096
0.710296644375701
0.892948670795409
1.39242502121248
3.98951181026103
0.516277604078599
0.536469423980332
0.567052913180176
0.616000984057473
0.702381418589791
0.881702991742869
1.37339496518965
3.91798712097124
0.503337720230818
0.516183873323871
0.534901470917694
0.563593873578644
0.610262919077468
0.694122565265954
0.869646711041471
1.3503291339524
3.83183779297833
0.494954732470158
0.503214303098958
0.514774658730047
0.53208047980635
0.559143311539712
0.603920100272484
0.685236669550695
0.855833293770607
1.32259988802911
3.73025857323544
0.489513148515035
0.494820288001346
0.501882049766561
0.512293964055455
0.528414851299412
0.554102559084653
0.597063717039253
0.675413021122418
0.839880179850059
1.29008078146916
3.61123021875047
0.486017898009713
0.489387772903848
0.493552646180464
0.499621149853247
0.509145185150371
0.524294891388089
0.548694972095726
0.589678424123737
0.664507110715319
0.821660994242092
1.25236550465794
3.47199795837214
0.483827188185377
0.485915019366069
0.488189786999519
0.491466939617274
0.496852518012877
0.505711967429845
0.519983194230941
0.543043365359932
0.581796299251417
0.6525351543425
0.801136765588064
1.20894810737438
3.30902999080252
0.482513677026044
0.4837542388114
0.484791497115047
0.486261063225724
0.48900597544296
0.493960823380804
0.502265894223595
0.515666026108425
0.537295625246402
0.573578583009043
0.639681747289926
0.778398359054185
1.15917048975046
3.11746087486196
0.481788054433622
0.48247451759745
0.482706360209363
0.483008420688407
0.484063815459137
0.486560594326373
0.491220753707009
0.499023539961403
0.511564055044087
0.531724949126811
0.565385928056192
0.626394499364658
0.753812295112564
1.10249678687045
2.8918510561916
0.481453864978005
0.481784943266159
0.481500771693926
0.481058455105998
0.481043177403843
0.481996912193216
0.484409403069028
0.488866215917158
0.496251844705336
0.508031494833014
0.526825093999193
0.557908213216782
0.613599756085083
0.728429955016484
1.03940530904142
2.62948047437275
0.481378903388909
0.481488677556404
0.480882611814112
0.479977400833235
0.479299092651526
0.479302273044482
0.480344099408809
0.482798797262275
0.487195322110651
0.4943628346216
0.50565834878078
0.523456258224059
0.552421428948781
0.603192851531539
0.70502615537899
0.973328619887275
2.21611060402013
0.481476234086211
0.481453714666019
0.480654637530507
0.47947307869105
0.478400782637327
0.477840857729181
0.478074652960843
0.479361831850436
0.482049238660384
0.486661719966003
0.494016738964368
0.505427302329331
0.523126080522937
0.5513309441216
0.599195947158535
0.690724375631949
0.913315571709787
2.2869949506994
0.481690630374046
0.481592160795403
0.480683188334612
0.479347077376906
0.478056994219546
0.477186890659947
0.476976098712279
0.477623898176106
0.4793862017316
0.482643847956315
0.487976363089498
0.496282912208832
0.509003621167264
0.52856577487495
0.559415804630524
0.610651785678803
0.704085846486798
0.93954250722473
2.38167839879971
0.481984230890196
0.481838199033728
0.480869910169968
0.47945746634787
0.478063463993578
0.477046260889511
0.476623974884878
0.476967162328743
0.478290992540174
0.480915300978341
0.485324602972785
0.492265695962231
0.502932075016819
0.519326817190342
0.545023715860529
0.586876988901607
0.659398491142943
0.802420105493684
1.19674835782982
3.68517097144455
1.48964673986533
4.27145403763671
0.931425522124656
1.47459245684574
4.21183707305172
0.723753639472725
0.926278725811349
1.4504761604716
4.14783133901538
0.623656029652216
0.721975257883566
0.915673953856026
1.42691389018795
4.09304283800565
0.568722573963136
0.623149949139233
0.716767629103212
0.903547270019007
1.40782517428549
4.04275507437961
0.536221154905158
0.568651978877074
0.620258978943681
0.709683588906967
0.89210367827007
1.39099883941317
3.98552432869175
0.516065599716249
0.536221563514466
0.566756548395852
0.615639248341747
0.701926263571793
0.881086274203617
1.37237472459513
3.91506883347842
0.50319511924554
0.516020113501926
0.53470961423599
0.56336614884027
0.609989643266319
0.693786575644249
0.869202978821246
1.34960991060963
3.82973378329152
0.494851408032631
0.503098209120841
0.514641655835864
0.531926443254415
0.558964292842765
0.603711150860126
0.684987766676763
0.855514651645453
1.3220897418095
3.72863649217059
0.489429461745324
0.4947287379573
0.501780050645797
0.512179091184194
0.528285193246281
0.553956550817207
0.596899127660511
0.675223774136879
0.839642445942681
1.28970394644596
3.61007728934369
0.485940754943548
0.489305661183799
0.493463919488883
0.499524297081054
0.509039126124022
0.524179044699327
0.548568992200558
0.589541384187528
0.664354653141993
0.821479167850651
1.25209570849027
3.47120007772923
0.48374756903986
0.485832138668206
0.48810260291774
0.491374488142478
0.496754117131718
0.505607320356173
0.519872345277216
0.542926491719931
0.581673085172384
0.652403569701741
0.800989308375782
1.20874384591245
3.30848448648779
0.48242506237391
0.48366335620948
0.484697718173909
0.486163781736267
0.48890473134764
0.493855396898229
0.502156334461875
0.515552614753044
0.537178739121606
0.573458380096066
0.639557847278045
0.778266427020254
1.15900115407002
3.11710563484416
0.48168526290463
0.482370072654744
0.482599916641506
0.482899613342152
0.483952311205727
0.486446177724016