/*--------------------------------*- C++ -*----------------------------------*\
  =========                 |
  \\      /  F ield         | OpenFOAM: The Open Source CFD Toolbox
   \\    /   O peration     | Website:  https://openfoam.org
    \\  /    A nd           | Version:  12
     \\/     M anipulation  |
\*---------------------------------------------------------------------------*/
/*   Windows 32 and 64 bit porting by blueCAPE: http://www.bluecape.com.pt   *\
|  Based on Windows porting (2.0.x v4) by Symscape: http://www.symscape.com   |
\*---------------------------------------------------------------------------*/
FoamFile
{
    format      ascii;
    class       volScalarField;
    location    "100";
    object      p;
}
// * * * * * * * * * * * * * * * * * * * * * * * * * * * * * * * * * * * * * //

dimensions      [0 2 -2 0 0 0 0];

internalField   nonuniform List<scalar> 
10068
(
83333.331401623
83333.3314429346
83333.3314020785
83333.3314015819
83333.3314848529
83333.3314433821
83333.3314428224
83333.3314019285
83333.3314020099
83333.3314014254
83333.3315273614
83333.3314853117
83333.3314847091
83333.3314432798
83333.3314432287
83333.3314425891
83333.3314001332
83333.3314017658
83333.3314018245
83333.3314011141
83333.3315703879
83333.3315277915
83333.3315272311
83333.3314852225
83333.3314851334
83333.3314844434
83333.3314415654
83333.3314430515
83333.3314429623
83333.3314422149
83333.3313965388
83333.3313999287
83333.3314014907
83333.3314014781
83333.3314006211
83333.3316139123
83333.3315707856
83333.33157027
83333.3315276716
83333.3315276249
83333.3315269713
83333.3314835519
83333.3314849892
83333.3314848433
83333.3314840332
83333.331438054
83333.3314412809
83333.3314427088
83333.3314425543
83333.3314416698
83333.3313911914
83333.3313963358
83333.3313995636
83333.3314010581
83333.3314009351
83333.3313999313
83333.3316579171
83333.3316142907
83333.3316137992
83333.3315706447
83333.3315706309
83333.3315700172
83333.3315260337
83333.3315274575
83333.3315273419
83333.3315265559
83333.3314801296
83333.3314832665
83333.3314846358
83333.3314844012
83333.3314834496
83333.3314328242
83333.3314377647
83333.3314408557
83333.331442218
83333.3314419603
83333.3314409346
83333.3313842432
83333.3313910045
83333.3313958987
83333.3313990342
83333.3314004287
83333.3314001823
83333.3313990428
83333.3317023896
83333.3316582826
83333.3316578047
83333.3316141485
83333.331614142
83333.3316135483
83333.331569053
83333.331570444
83333.3315703542
83333.3315696005
83333.3315227161
83333.3315257755
83333.3315271158
83333.3315268911
83333.331525958
83333.3314750414
83333.3314798424
83333.3314828418
83333.3314841199
83333.3314837725
83333.3314826743
83333.3314260356
83333.3314325531
83333.3314372697
83333.3314402718
83333.3314415402
83333.3314411629
83333.3314400034
83333.3313758763
83333.3313840591
83333.331390539
83333.3313952991
83333.3313983105
83333.3313995796
83333.3313992159
83333.3313979643
83333.3317473245
83333.3317027433
83333.3317022752
83333.3316581486
83333.3316581358
83333.3316575512
83333.3316126155
83333.3316139546
83333.3316138681
83333.3316131279
83333.331565852
83333.3315688151
83333.3315701109
83333.331569899
83333.3315689925
83333.3315177906
83333.3315224604
83333.3315253694
83333.3315265959
83333.3315262451
83333.331525161
83333.3314684432
83333.3314747747
83333.331479349
83333.3314822409
83333.331483411
83333.3314829386
83333.3314817029
83333.3314178759
83333.3314257691
83333.3314320247
83333.3314366142
83333.3314395049
83333.3314406518
83333.3314401574
83333.3314388817
83333.3313662397
83333.3313756758
83333.3313836072
83333.3313899049
83333.3313945007
83333.3313973646
83333.3313985049
83333.3313980515
83333.3313967102
83333.331792721
83333.3317476659
83333.3317472056
83333.3317026206
83333.3317025951
83333.3317020148
83333.3316566834
83333.3316579573
83333.3316578609
83333.3316571225
83333.3316095387
83333.3316123875
83333.3316136266
83333.3316134085
83333.331612508
83333.3315611019
83333.3315656212
83333.331568424
83333.3315695898
83333.3315692405
83333.3315681775
83333.3315114012
83333.3315175579
83333.331521988
83333.3315247699
83333.3315258715
83333.3315253875
83333.3315241631
83333.3314605167
83333.3314681809
83333.3314742477
83333.3314786788
83333.3314814477
83333.3314824886
83333.3314818943
83333.3314805383
83333.3314084827
83333.3314176024
83333.3314252642
83333.3314313369
83333.3314357754
83333.3314385243
83333.3314395434
83333.3314389538
83333.3314375825
83333.3313554923
83333.3313660422
83333.3313752542
83333.3313829662
83333.3313890566
83333.3313934694
83333.3313961825
83333.3313972123
83333.3313967028
83333.3313953007
83333.3318385821
83333.3317930485
83333.3317925953
83333.3317475557
83333.3317475134
83333.3317469339
83333.331701229
83333.3317024282
83333.3317023146
83333.3317015723
83333.3316537388
83333.3316564578
83333.3316576306
83333.3316573941
83333.3316564863
83333.3316049712
83333.33160932
83333.331612006
83333.3316131043
83333.3316127374
83333.3316116723
83333.3315549347
83333.331560893
83333.3315651673
83333.3315678284
83333.3315688541
83333.3315683636
83333.3315671542
83333.3315037254
83333.3315111722
83333.3315170499
83333.3315213228
83333.3315239641
83333.3315249252
83333.3315243144
83333.3315229676
83333.3314514006
83333.331460254
83333.331467682
83333.3314735467
83333.3314778163
83333.3314804366
83333.3314813451
83333.3314806496
83333.3314791897
83333.3313980286
83333.3314082344
83333.331417128
83333.3314245683
83333.3314304493
83333.3314347114
83333.3314373129
83333.3314382194
83333.3314375655
83333.3314361223
83333.3313437679
83333.3313553028
83333.3313656448
83333.3313746238
83333.3313820917
83333.331387959
83333.33139219
83333.3313947672
83333.3313957205
83333.3313951765
83333.3313937465
83333.3318849123
83333.3318388887
83333.3318384475
83333.3317929536
83333.3317928893
83333.3317923083
83333.331746243
83333.3317473586
83333.331747222
83333.3317464718
83333.3316984245
83333.3317009995
83333.3317020976
83333.331701835
83333.3317009137
83333.3316493632
83333.3316535224
83333.3316560801
83333.3316571042
83333.3316567074
83333.3316556256
83333.3315990354
83333.3316047713
83333.3316088791
83333.3316114139
83333.331612359
83333.3316118402
83333.3316106209
83333.3315475204
83333.3315547302
83333.3315604064
83333.3315645101
83333.3315670142
83333.331567888
83333.3315672655
83333.3315659282
83333.3314949018
83333.3315034961
83333.3315106941
83333.3315163562
83333.3315204497
83333.3315229302
83333.3315237528
83333.3315230375
83333.3315215837
83333.331441259
83333.3314511663
83333.3314597858
83333.3314669728
83333.331472636
83333.3314767235
83333.3314791933
83333.3314799849
83333.3314792167
83333.3314776707
83333.3313866342
83333.3313977938
83333.3314077808
83333.331416445
83333.3314236536
83333.3314293195
83333.3314334047
83333.3314358714
83333.3314366953
83333.3314359987
83333.3314345118
83333.3313311808
83333.3313435875
83333.3313549275
83333.3313650303
83333.3313737409
83333.3313809502
83333.3313866008
83333.3313906655
83333.3313931369
83333.3313940459
83333.3313935105
83333.3313920689
83333.3319317153
83333.3318851938
83333.331884766
83333.3318388159
83333.3318387247
83333.3318381407
83333.3317917271
83333.3317927488
83333.3317925825
83333.3317918205
83333.3317435875
83333.3317460039
83333.3317470194
83333.3317467228
83333.3317457836
83333.3316942514
83333.3316982025
83333.3317006203
83333.3317015613
83333.3317011269
83333.3317000212
83333.3316436692
83333.3316491636
83333.3316530877
83333.3316554881
83333.3316563472
83333.331655786
83333.331654541
83333.3315918911
83333.3315988425
83333.3316043036
83333.3316082281
83333.3316105926
83333.331611374
83333.3316107153
83333.3316093614
83333.3315389964
83333.3315473144
83333.3315542685
83333.3315597206
83333.3315636308
83333.3315659616
83333.3315666896
83333.3315659583
83333.3315645103
83333.3314850795
83333.3314946938
83333.3315030479
83333.3315099911
83333.3315154357
83333.3315193353
83333.331521659
83333.3315223615
83333.3315215691
83333.3315200265
83333.3314302062
83333.3314410393
83333.3314507178
83333.3314590888
83333.3314660338
83333.331471477
83333.331475386
83333.3314777199
83333.3314784225
83333.3314776067
83333.3314759986
83333.3313744062
83333.3313864091
83333.3313973628
83333.3314071133
83333.3314155203
83333.3314224792
83333.3314279345
83333.3314318565
83333.3314342149
83333.3314349854
83333.33143428
83333.3314327724
83333.3313178267
83333.3313310069
83333.3313432296
83333.3313543301
83333.3313641513
83333.3313725775
83333.3313795368
83333.3313849877
83333.3313889125
83333.3313913101
83333.3313922184
83333.3313917271
83333.3313903038
83333.3319789972
83333.3319319755
83333.331931555
83333.3318851498
83333.3318850247
83333.3318844343
83333.3318376851
83333.3318386028
83333.3318383992
83333.3318376199
83333.3317892325
83333.3317914746
83333.3317923964
83333.3317920562
83333.3317910937
83333.3317396291
83333.3317433536
83333.3317456189
83333.3317464666
83333.3317459855
83333.33174485
83333.3316888114
83333.3316940456
83333.3316977682
83333.331700022
83333.3317007865
83333.3317001746
83333.331698895
83333.331636805
83333.3316434771
83333.3316487042
83333.3316524383
83333.3316546573
83333.3316553404
83333.3316546291
83333.3316532422
83333.3315836717
83333.3315916958
83333.3315983902
83333.3316036213
83333.3316073428
83333.3316095227
83333.3316101489
83333.3316093756
83333.3316079057
83333.3315294994
83333.3315388039
83333.33154688
83333.3315535733
83333.3315587939
83333.3315624989
83333.3315646648
83333.3315652679
83333.3315644557
83333.3315629173
83333.3314743711
83333.3314848848
83333.3314942655
83333.3315023555
83333.3315090411
83333.3315142548
83333.3315179702
83333.3315201553
83333.3315207652
83333.3315199238
83333.3315183142
83333.3314183434
83333.3314299962
83333.3314406132
83333.3314500355
83333.3314581376
83333.3314648284
83333.3314700602
83333.3314738065
83333.3314760301
83333.3314766732
83333.3314758354
83333.3314741923
83333.3313614348
83333.331374187
83333.3313859953
83333.3313967107
83333.33140619
83333.3314143222
83333.3314210384
83333.3314262988
83333.3314300816
83333.3314323606
83333.3314331151
83333.3314324373
83333.3314309408
83333.3313037913
83333.331317659
83333.3313306646
83333.3313426521
83333.3313534654
83333.3313629859
83333.3313711354
83333.3313778617
83333.3313831352
83333.3313869492
83333.3313893113
83333.3313902631
83333.3313898539
83333.3313885065
83333.3320267663
83333.3319792393
83333.3319788197
83333.3319319652
83333.3319317925
83333.3319311924
83333.3318841248
83333.3318849275
83333.331884677
83333.3318838723
83333.3318353706
83333.3318374214
83333.3318382333
83333.331837838
83333.3318368443
83333.3317855039
83333.3317889818
83333.3317910792
83333.3317918203
83333.3317912807
83333.3317901082
83333.3317344581
83333.3317394107
83333.3317429147
83333.331745007
83333.3317456655
83333.3317449935
83333.3317436718
83333.3316822404
83333.3316886119
83333.3316935849
83333.3316971133
83333.331699175
83333.3316997515
83333.331698978
83333.3316975477
83333.3316288976
83333.3316366093
83333.3316430269
83333.3316480209
83333.3316515434
83333.3316535673
83333.331654085
83333.3316532519
83333.3316517427
83333.3315745058
83333.3315834856
83333.3315912677
83333.3315976985
83333.3316026872
83333.3316061942
83333.3316082002
83333.3316086954
83333.3316078366
83333.331606272
83333.3315191393
83333.3315293181
83333.3315383897
83333.3315461927
83333.3315526154
83333.331557595
83333.3315611084
83333.331563131
83333.3315636375
83333.3315627743
83333.3315611671
83333.3314628741
83333.3314741858
83333.3314844776
83333.3314935858
83333.331501391
83333.3315078122
83333.3315128093
83333.33151636
83333.3315184329
83333.3315189809
83333.3315181136
83333.3315164641
83333.3314057566
83333.3314181394
83333.3314295871
83333.3314399445
83333.3314490829
83333.3314569058
83333.3314633537
83333.3314683923
83333.3314720001
83333.331474141
83333.3314747565
83333.3314739335
83333.3314722823
83333.3313478011
83333.3313612207
83333.3313737873
83333.3313853608
83333.3313957986
83333.3314049873
83333.331412851
83333.3314193402
83333.3314244265
83333.3314280967
83333.3314303315
83333.3314311109
83333.3314305002
83333.3314290702
83333.3312891506
83333.331303631
83333.3313173331
83333.3313301112
83333.3313418123
83333.3313523166
83333.3313615416
83333.3313694295
83333.3313759424
83333.331381064
83333.331384799
83333.3313871648
83333.3313882064
83333.3313879438
83333.331386766
83333.3320750347
83333.3320269951
83333.332026566
83333.3319792683
83333.3319790311
83333.3319784189
83333.3319310648
83333.3319317298
83333.3319314191
83333.3319305794
83333.3318820157
83333.3318838559
83333.3318845376
83333.3318840735
83333.3318830366
83333.3318318914
83333.3318350995
83333.3318370103
83333.3318376273
83333.3318370145
83333.3318357944
83333.3317806187
83333.3317852677
83333.3317885338
83333.331790447
83333.331790984
83333.3317902386
83333.3317888659
83333.3317281948
83333.3317342443
83333.3317389436
83333.3317422468
83333.3317441355
83333.3317445936
83333.3317437479
83333.3317422642
83333.3316746556
83333.3316820367
83333.3316881575
83333.3316928944
83333.3316962014
83333.3316980581
83333.3316984586
83333.3316975544
83333.3316959956
83333.3316200706
83333.3316287111
83333.3316361816
83333.3316423321
83333.3316470748
83333.3316503742
83333.3316522155
83333.3316525955
83333.3316516714
83333.3316500623
83333.3315644994
83333.3315743295
83333.331583077
83333.3315905802
83333.3315967306
83333.3316014699
83333.3316047779
83333.3316066348
83333.3316070294
83333.3316061161
83333.3316044804
83333.3315080103
83333.331518967
83333.3315289224
83333.3315377114
83333.3315452173
83333.3315513661
83333.3315561228
83333.3315594675
83333.3315613749
83333.3315618173
83333.3315609268
83333.3315592771
83333.3314506702
83333.3314626945
83333.3314737943
83333.3314838091
83333.331492617
83333.3315001328
83333.3315063065
83333.3315111092
83333.331514521
83333.3315165099
83333.3315170259
83333.3315161673
83333.3315145045
83333.331392523
83333.3314055573
83333.3314177434
83333.3314289336
83333.3314389997
83333.3314478428
83333.3314553975
83333.3314616212
83333.3314664882
83333.3314699832
83333.3314720741
83333.3314727004
83333.3314719257
83333.331470315
83333.3313335776
83333.3313475932
83333.3313608352
83333.331373174
83333.33138447
83333.3313946088
83333.3314035107
83333.3314111202
83333.3314174012
83333.3314223373
83333.331425925
83333.3314281523
83333.3314290018
83333.3314285171
83333.3314272433
83333.331273971
83333.331288999
83333.3313033232
83333.3313168085
83333.3313293064
83333.3313406969
83333.3313508944
83333.3313598366
83333.33136748
83333.3313738014
83333.3313787985
83333.3313824896
83333.3313849025
83333.3313861
83333.3313861063
83333.3313852026
83333.3321238112
83333.3320752471
83333.3320748023
83333.3320270652
83333.3320267524
83333.3320261161
83333.3319785102
83333.3319790151
83333.331978624
83333.3319777435
83333.331929183
83333.3319307855
83333.3319313163
83333.3319307666
83333.3319296713
83333.3318788112
83333.331881723
83333.3318834243
83333.3318838948
83333.3318831902
83333.3318819085
83333.3318273123
83333.3318316333
83333.3318346392
83333.3318363513
83333.3318367464
83333.33183591
83333.3318344738
83333.3317746785
83333.3317803865
83333.3317847903
83333.331787846
83333.3317895419
83333.3317898646
83333.3317889326
83333.3317873846
83333.3317209475
83333.3317279786
83333.3317337807
83333.3317382378
83333.3317413091
83333.3317429823
83333.3317432546
83333.3317422672
83333.3317406484
83333.3316661788
83333.3316744635
83333.3316816023
83333.3316874513
83333.3316919282
83333.3316950041
83333.3316966699
83333.3316969251
83333.3316959238
83333.3316942604
83333.3316104253
83333.3316198937
83333.3316282998
83333.3316354857
83333.3316413481
83333.331645834
83333.3316489277
83333.3316506143
83333.3316508898
83333.3316499067
83333.3316482241
83333.3315537417
83333.331564331
83333.3315739363
83333.3315823938
83333.3315895907
83333.3315954594
83333.3315999696
83333.3316031044
83333.3316048429
83333.3316051715
83333.3316042283
83333.3316025496
83333.3314961896
83333.3315078426
83333.3315185842
83333.3315282521
83333.331536728
83333.3315439349
83333.3315498307
83333.33155439
83333.3315575944
83333.3315594165
83333.331559825
83333.3315589399
83333.3315572764
83333.3314378332
83333.3314504951
83333.3314623146
83333.3314731384
83333.3314828447
83333.3314913465
83333.3314985897
83333.331504539
83333.3315091712
83333.3315124704
83333.3315144066
83333.3315149272
83333.3315141079
83333.3315124772
83333.3313787119
83333.3313923293
83333.3314051743
83333.3314171084
83333.3314280062
83333.3314377681
83333.3314463248
83333.3314536288
83333.3314596485
83333.3314643682
83333.331467779
83333.3314698543
83333.3314705326
83333.3314698554
83333.3314683611
83333.3313188276
83333.3313333771
83333.3313472236
83333.3313602474
83333.3313723141
83333.3313833093
83333.3313931504
83333.3314017775
83333.3314091493
83333.3314152433
83333.3314200555
83333.3314235941
83333.3314258559
83333.331426838
83333.3314265733
83333.3314255605
83333.3312583097
83333.3312738292
83333.3312887115
83333.3313028318
83333.3313160474
83333.3313282392
83333.331339319
83333.3313492201
83333.3313578943
83333.3313653131
83333.3313714683
83333.3313763725
83333.331380061
83333.3313825844
83333.3313840477
83333.3313844239
83333.3313840218
83333.3321731138
83333.3321240087
83333.3321235342
83333.3320753582
83333.332074969
83333.332074293
83333.3320264612
83333.3320267904
83333.3320262988
83333.3320253672
83333.3319768727
83333.33197822
83333.3319785732
83333.3319779142
83333.3319767483
83333.3319262809
83333.3319288688
83333.3319303333
83333.33193063
83333.3319298091
83333.3319284495
83333.3318745619
83333.3318785281
83333.331881248
83333.3318827321
83333.3318829589
83333.3318820091
83333.3318804938
83333.3318217158
83333.3318270589
83333.3318311424
83333.3318339251
83333.3318354035
83333.3318355675
83333.3318345287
83333.3318329038
83333.3317677896
83333.3317744507
83333.3317799093
83333.3317840616
83333.3317868734
83333.3317883417
83333.3317884675
83333.3317873807
83333.3317856904
83333.3317128356
83333.3317207461
83333.3317275308
83333.3317330544
83333.3317372421
83333.3317400736
83333.3317415478
83333.3317416667
83333.3317405751
83333.331738847
83333.3316569048
83333.3316659965
83333.3316740422
83333.3316808894
83333.3316864424
83333.3316906555
83333.3316935193
83333.3316950249
83333.3316951714
83333.3316941069
83333.3316923686
83333.3316000448
83333.3316102546
83333.3316194943
83333.3316276034
83333.3316344751
83333.3316400488
83333.3316443001
83333.3316472166
83333.331648782
83333.3316489898
83333.3316479736
83333.3316462494
83333.3315423061
83333.3315535768
83333.3315639475
83333.3315732571
83333.3315813915
83333.3315882814
83333.3315938916
83333.3315982013
83333.3316011941
83333.3316028469
83333.3316031401
83333.3316022017
83333.33160051
83333.3314837475
83333.3314960256
83333.3315074693
83333.331517923
83333.3315272687
83333.3315354285
83333.3315423575
83333.3315480268
83333.3315524158
83333.3315555078
83333.3315572763
83333.3315576859
83333.3315568371
83333.3315552066
83333.3314244292
83333.3314376633
83333.3314501267
83333.3314616744
83333.3314721872
83333.3314815777
83333.3314897888
83333.3314967815
83333.3315025293
83333.3315070165
83333.3315102318
83333.3315121481
83333.3315127107
83333.3315119768
83333.3315104461
83333.3313643838
83333.331378525
83333.3313919607
83333.3314045618
83333.3314162075
83333.3314267984
83333.3314362628
83333.3314445487
83333.3314516205
83333.3314574584
83333.3314620564
83333.3314654154
83333.3314675141
83333.3314682986
83333.3314677934
83333.3314665025
83333.331303606
83333.3313186358
83333.3313330255
83333.3313466654
83333.3313594266
83333.3313711963
83333.3313818898
83333.3313914431
83333.3313998102
83333.331406964
83333.3314128961
83333.3314176153
83333.3314211449
83333.3314235007
83333.3314247061
83333.3314247439
83333.3314241901
83333.331242216
83333.3312581783
83333.3312735635
83333.3312882567
83333.3313021215
83333.3313150406
83333.3313269241
83333.3313377015
83333.3313473195
83333.3313557446
83333.3313629632
83333.3313689835
83333.3313738377
83333.3313775872
83333.3313803217
83333.3313821589
83333.3313830356
83333.331383401
83333.3322231428
83333.3321733085
83333.332172798
83333.3321241657
83333.3321236916
83333.3321229573
83333.3320749101
83333.3320750624
83333.3320744585
83333.3320734538
83333.3320250882
83333.3320261608
83333.3320263121
83333.3320255155
83333.3320242688
83333.3319743031
83333.331976552
83333.3319777456
83333.3319778356
83333.3319768704
83333.331975415
83333.3319223859
83333.3319259731
83333.3319283773
83333.3319296026
83333.331929627
83333.331928536
83333.3319269218
83333.3318693349
83333.3318742863
83333.3318780214
83333.331880502
83333.3318817325
83333.3318817072
83333.3318805345
83333.3318788161
83333.3318152082
83333.331821475
83333.3318265642
83333.3318303842
83333.3318329087
83333.3318341447
83333.331834098
83333.3318328884
83333.3318311132
83333.3317600612
83333.3317675767
83333.3317739831
83333.3317791548
83333.3317830268
83333.3317855886
83333.3317868488
83333.3317868121
83333.3317856134
83333.3317838088
83333.3317039462
83333.331712644
83333.3317203077
83333.331726792
83333.3317320105
83333.3317359265
83333.3317385397
83333.3317398483
83333.3317398529
83333.3317386947
83333.3317368902
83333.33164691
83333.331656727
83333.3316655833
83333.3316733232
83333.3316798478
83333.3316851053
83333.3316890786
83333.3316917617
83333.3316931439
83333.331693221
83333.3316921219
83333.3316903438
83333.3315889984
83333.3315998761
83333.3316098619
83333.3316187972
83333.3316265741
83333.3316331315
83333.3316384419
83333.3316424899
83333.3316452632
83333.3316467433
83333.3316469152
83333.3316459051
83333.3316441709
83333.3315302594
83333.3315421437
83333.3315532003
83333.3315632735
83333.3315722496
83333.331580059
83333.3315866658
83333.3315920473
83333.3315961864
83333.3315990679
83333.3316006678
83333.3316009621
83333.3316000607
83333.3315984049
83333.3314707473
83333.3314835879
83333.3314956617
83333.3315068204
83333.3315169482
83333.331525967
83333.3315338304
83333.3315405076
83333.3315459768
83333.3315502228
83333.3315532324
83333.3315549793
83333.3315554265
83333.3315546602
83333.3315531302
83333.3314105162
83333.3314242655
83333.3314373077
83333.3314495059
83333.3314607451
83333.3314709384
83333.3314800265
83333.3314879673
83333.3314947315
83333.331500302
83333.3315046705
83333.3315078331
83333.3315097658
83333.3315104209
83333.3315098399
83333.3315084843
83333.3313495914
83333.3313642048
83333.3313781726
83333.3313913747
83333.3314036954
83333.3314150369
83333.3314253258
83333.3314345064
83333.3314425388
83333.3314493997
83333.3314550813
83333.3314595882
83333.3314629331
83333.3314651098
83333.3314660756
83333.3314658177
83333.3314648771
83333.3312879599
83333.3313034235
83333.3313183037
83333.3313325002
83333.3313458905
83333.3313583635
83333.3313698336
83333.3313802334
83333.3313895124
83333.3313976387
83333.3314045994
83333.3314104008
83333.3314150695
83333.3314186506
83333.331421192
83333.3314227034
83333.3314231688
83333.3314232992
83333.331225732
83333.3312420953
83333.3312579357
83333.331273148
83333.3312876025
83333.3313011845
83333.3313138033
83333.3313253852
83333.3313358726
83333.3313452262
83333.3313534274
83333.3313604789
83333.3313664107
83333.3313712844
83333.331375202
83333.3313782804
83333.3313805905
83333.3313820717
83333.3313829557
83333.3322738129
83333.3322233126
83333.3322228689
83333.3321734961
83333.3321729508
83333.3321721579
83333.3321238701
83333.3321238466
83333.3321231163
83333.3321220163
83333.3320738123
83333.3320746037
83333.3320745432
83333.3320735966
83333.3320722357
83333.3320228751
83333.3320247643
83333.3320256615
83333.3320255125
83333.3320243723
83333.332022802
83333.3319707955
83333.3319739839
83333.331976039
83333.3319769702
83333.3319767532
83333.3319754887
83333.3319737513
83333.33191756
83333.3319220934
83333.3319254485
83333.3319275943
83333.3319285408
83333.3319282885
83333.3319269518
83333.3319251139
83333.3318632338
83333.3318690787
83333.3318737705
83333.3318772278
83333.3318794325
83333.3318804025
83333.3318801493
83333.3318787901
83333.3318769077
83333.3318078851
83333.3318149815
83333.3318209833
83333.3318257743
83333.3318293006
83333.3318315626
83333.3318325796
83333.3318323595
83333.3318310292
83333.3318291344
83333.3317515731
83333.3317598567
83333.331767115
83333.3317732096
83333.3317780654
83333.3317816564
83333.3317839928
83333.3317850817
83333.3317849266
83333.3317836573
83333.3317817728
83333.331694349
83333.3317037572
83333.3317122099
83333.3317195568
83333.3317257085
83333.3317306237
83333.3317342948
83333.331736724
83333.3317379073
83333.3317378403
83333.3317366474
83333.3317348049
83333.3316362598
83333.3316467328
83333.3316563172
83333.3316648584
83333.3316722562
83333.3316784591
83333.3316834486
83333.3316872164
83333.3316897559
83333.3316910542
83333.3316910965
83333.331690006
83333.3316882216
83333.3315773496
83333.3315888311
83333.3315994877
83333.3316091655
83333.3316177566
83333.3316252001
83333.3316314694
83333.3316365491
83333.3316404271
83333.3316430915
83333.3316445207
83333.3316446965
83333.3316437277
83333.3316420336
83333.3315176615
83333.3315301003
83333.3315417744
83333.3315525345
83333.331562269
83333.3315709082
83333.3315784154
83333.3315847686
83333.3315899511
83333.3315939499
83333.3315967521
83333.3315983325
83333.3315986649
83333.331597848
83333.3315962984
83333.3314572441
83333.3314705931
83333.3314832349
83333.3314950287
83333.3315058623
83333.3315156582
83333.3315243684
83333.3315319603
83333.3315384114
83333.3315437073
83333.3315478384
83333.3315507965
83333.3315525569
83333.3315530911
83333.3315524755
83333.3315511173
83333.3313961444
83333.3314103596
83333.3314239244
83333.3314367101
83333.3314486063
83333.3314595274
83333.331469413
83333.3314782177
83333.3314859093
83333.3314924688
83333.3314978886
83333.331502169
83333.3315053149
83333.3315073152
83333.331508132
83333.331507776
83333.3315067241
83333.3313343799
83333.3313494209
83333.3313638702
83333.3313776163
83333.3313905493
83333.3314025733
83333.3314136141
83333.3314236131
83333.3314325263
83333.3314403264
83333.3314470026
83333.3314525594
83333.3314570167
83333.3314604041
83333.3314627401
83333.3314639558
83333.3314640601
83333.3314636163
83333.3312719296
83333.3312877869
83333.331303112
83333.3313178139
83333.3313317763
83333.331344891
83333.3313570717
83333.3313682489
83333.3313783678
83333.3313873919
83333.3313953035
83333.3314021049
83333.3314078224
83333.3314125083
83333.3314162416
83333.3314190816
83333.3314209678
83333.3314219859
83333.3314225007
83333.331208896
83333.3312256221
83333.331241876
83333.3312575609
83333.3312725535
83333.3312867422
83333.3313000363
83333.3313123602
83333.3313236523
83333.3313338683
83333.3313429839
83333.331350997
83333.331357932
83333.3313638531
83333.3313688647
83333.3313731029
83333.3313766498
83333.3313795155
83333.3313814396
83333.3313821799
83333.3322739381
83333.3322735679
83333.332223516
83333.3322229634
83333.3322222117
83333.3321733734
83333.332173166
83333.3321723116
83333.3321711134
83333.3321230509
83333.3321235641
83333.3321232861
83333.3321221565
83333.3321206563
83333.3320719701
83333.332073493
83333.3320740794
83333.3320736733
83333.3320723287
83333.3320706118
83333.3320197829
83333.3320225492
83333.3320242304
83333.3320248339
83333.3320243368
83333.3320228662
83333.3320209768
83333.3319664041
83333.3319704921
83333.3319734368
83333.3319752132
83333.3319758353
83333.331975313
83333.3319737789
83333.3319717879
83333.3319118944
83333.3319172882
83333.3319215524
83333.3319246141
83333.3319264625
83333.3319271264
83333.3319266259
83333.3319250853
83333.3319230636
83333.3318563408
83333.3318629909
83333.3318685594
83333.3318729384
83333.3318760858
83333.3318780128
83333.3318787502
83333.3318783115
83333.3318768196
83333.3318748098
83333.3317998182
83333.3318076646
83333.3318144911
83333.3318201669
83333.3318246287
83333.3318278628
83333.3318298909
83333.3318307299
83333.3318303866
83333.331828982
83333.3318270019
83333.3317423885
83333.3317513692
83333.3317593953
83333.3317663227
83333.3317720726
83333.3317766158
83333.3317799561
83333.3317821053
83333.3317830676
83333.3317828405
83333.3317815351
83333.331779614
83333.331684105
83333.3316941589
83333.3317033229
83333.3317114471
83333.33171844
83333.3317242616
83333.331728904
83333.3317323678
83333.3317346538
83333.3317357548
83333.3317356548
83333.3317344746
83333.3317326309
83333.3316250138
83333.3316360825
83333.3316463241
83333.3316555879
83333.331663773
83333.3316708287
83333.3316767386
83333.331681496
83333.3316850951
83333.3316875295
83333.3316887803
83333.3316888317
83333.331687788
83333.3316860499
83333.3315651546
83333.3315771842
83333.3315884471
83333.331598795
83333.3316081214
83333.3316163657
83333.3316235015
83333.3316295156
83333.3316343979
83333.3316381393
83333.3316407293
83333.331642144
83333.3316423634
83333.3316414851
83333.3316399037
83333.3315045648
83333.3315175068
83333.3315297395
83333.3315411204
83333.3315515409
83333.3315609318
83333.3315692558
83333.3315764898
83333.3315826187
83333.3315876324
83333.3315915217
83333.3315942768
83333.3315958731
83333.3315962936
83333.3315956329
83333.3315942606
83333.3314432859
83333.3314570962
83333.3314702527
83333.3314826214
83333.3314940948
83333.3315045965
83333.3315140774
83333.3315225029
83333.3315298485
83333.3315361003
83333.3315412517
83333.3315452993
83333.3315482413
83333.331550064
83333.331550755
83333.3315503607
83333.3315493006
83333.3313813571
83333.3313959956
83333.3314100346
83333.3314233533
83333.3314358465
83333.3314474304
83333.3314580441
83333.3314676398
83333.3314761818
83333.3314836484
83333.3314900312
83333.3314953326
83333.3314995652
83333.3315027482
83333.3315048907
83333.331505941
83333.331505922
83333.3315053131
83333.3313187882
83333.3313342183
83333.3313491052
83333.3313633461
83333.331376837
83333.3313894844
83333.331401214
83333.3314119651
83333.3314216903
83333.3314303579
83333.3314379536
83333.3314444799