/*--------------------------------*- C++ -*----------------------------------*\
  =========                 |
  \\      /  F ield         | OpenFOAM: The Open Source CFD Toolbox
   \\    /   O peration     | Website:  https://openfoam.org
    \\  /    A nd           | Version:  12
     \\/     M anipulation  |
\*---------------------------------------------------------------------------*/
/*   Windows 32 and 64 bit porting by blueCAPE: http://www.bluecape.com.pt   *\
|  Based on Windows porting (2.0.x v4) by Symscape: http://www.symscape.com   |
\*---------------------------------------------------------------------------*/
FoamFile
{
    format      ascii;
    class       surfaceScalarField;
    location    "100";
    object      phi;
}
// * * * * * * * * * * * * * * * * * * * * * * * * * * * * * * * * * * * * * //

dimensions      [0 3 -1 0 0 0 0];

internalField   nonuniform List<scalar> 
28770
(
-8.19874867106643e-06
7.43731194553018e-08
2.71289456408148e-08
-8.30956385507848e-06
7.12699847057087e-08
3.95381406541159e-08
-2.32433476347045e-06
1.11005438067843e-07
2.57795180719909e-09
-1.00334836539882e-05
9.27023725439622e-08
6.21069144052748e-08
-8.41963457532578e-06
6.58600983759577e-08
4.41996947349197e-08
-2.36606569498302e-06
1.05707862377461e-07
7.28397525431103e-09
-1.01615855180982e-05
8.93193924150981e-08
7.82869241431053e-08
-1.78448849043819e-06
1.43092866361806e-07
2.40463383940616e-09
-2.94769997781237e-06
1.35402231879884e-07
5.62286293165152e-09
-1.12656099205057e-05
1.10434238157184e-07
9.97911729052105e-08
-8.52484410565563e-06
6.25432434490091e-08
4.26490016039137e-08
-2.40973551662175e-06
9.99927270342337e-08
9.52278642364636e-09
-1.02824481779313e-05
7.91617978250267e-08
8.58489526258669e-08
-1.82063829461867e-06
1.36892816963091e-07
4.96319364844481e-09
-2.9923210816325e-06
1.28945300551369e-07
1.22643019878898e-08
-1.14094352213545e-05
1.06622924955213e-07
1.15461464232346e-07
-1.73501295382006e-06
1.7576200131924e-07
2.58022342596716e-09
-2.20228641966829e-06
1.7302120176452e-07
4.0814561892024e-09
-3.37883219358562e-06
1.59066651286299e-07
7.99153623036578e-09
-1.26000526545156e-05
1.25630282604437e-07
1.41434032225261e-07
-8.6269037064206e-06
6.02955982419012e-08
4.17473992100595e-08
-2.45304770506337e-06
9.55135468208132e-08
1.03264590905542e-08
-1.04003051603589e-05
7.36207487709941e-08
8.68332452528581e-08
-1.85759190992636e-06
1.30900401928789e-07
6.0432092324674e-09
-3.04131550894238e-06
1.20987893488569e-07
1.66722769836038e-08
-1.15416171447845e-05
9.21193452929716e-08
1.25868882238319e-07
-1.77106728816195e-06
1.6889553810249e-07
4.05039617717756e-09
-2.24221273262972e-06
1.65712130112216e-07
8.11695786606354e-09
-3.42652369648958e-06
1.51237966232135e-07
1.53255696335257e-08
-1.27625027781809e-05
1.21724146073119e-07
1.56158520887147e-07
-1.7961368783477e-06
2.09303595204545e-07
3.1823123620948e-09
-2.07791400391127e-06
2.113634199875e-07
4.5285663539708e-09
-2.54261677440722e-06
2.03541854175149e-07
3.78733457276043e-09
-3.78211586625113e-06
1.79665261909306e-07
1.0353435370463e-08
-1.3569153475948e-05
1.35272459310292e-07
1.8643706360617e-07
-8.72798286989899e-06
5.83384637862524e-08
4.27279394032854e-08
-2.49592248771921e-06
9.18376196989075e-08
1.13197214303475e-08
-1.05172756094827e-05
7.07042331860951e-08
8.79697203238539e-08
-1.89447819364879e-06
1.25565004879321e-07
6.83173112408525e-09
-3.09189624677436e-06
1.15017646615502e-07
1.94890120659011e-08
-1.16700415416473e-05
8.42811745819737e-08
1.30927498756929e-07
-1.80736963395452e-06
1.62190511645659e-07
5.01014854308926e-09
-2.28420786505329e-06
1.58074982365433e-07
1.09433976010256e-08
-3.48018686602197e-06
1.40717665280754e-07
2.1714624798054e-08
-1.29096218756628e-05
1.04231604164325e-07
1.68708236501776e-07
-1.83308062378635e-06
2.01503459115907e-07
4.33489428215325e-09
-2.11858508722762e-06
2.03008995214444e-07
7.42085420470567e-09
-2.58667531490047e-06
1.94572760502061e-07
8.83523129116066e-09
-3.83431706866996e-06
1.70816999152264e-07
1.84160490658461e-08
-1.37450669699073e-05
1.31219766272549e-07
2.00823029898559e-07
-1.88933791157474e-06
2.43694661592461e-07
3.65698592381949e-09
-2.08900301941547e-06
2.50151201577872e-07
5.67345247046906e-09
-2.38316303201277e-06
2.47904482313767e-07
5.61978164225737e-09
-2.79925001177053e-06
2.28535001796203e-07
3.31425452734811e-09
-3.98478308287886e-06
1.90018468005259e-07
1.45716573306059e-08
-1.40316223980504e-05
1.38863892252636e-07
2.33455063418153e-07
-8.82959285547228e-06
5.64834283071791e-08
4.51129468816825e-08
-2.5389924958213e-06
8.85361962999336e-08
1.28627026493228e-08
-1.06345144614509e-05
6.85380654798184e-08
9.13952271366951e-08
-1.9313588688784e-06
1.20687325786345e-07
8.02866272805343e-09
-3.14280013383863e-06
1.10423028069568e-07
2.24860960448956e-08
-1.17984280989756e-05
8.05673432598768e-08
1.35751994685744e-07
-1.84362580569377e-06
1.55856404162338e-07
5.96277213070759e-09
-2.32712385686245e-06
1.51304610324533e-07
1.34534020303034e-08
-3.53650731789225e-06
1.33023521784296e-07
2.70452287469254e-08
-1.3050877318196e-05
9.45726426145698e-08
1.77565557996311e-07
-1.86993481116078e-06
1.93892797070488e-07
5.15047760551061e-09
-2.15990060324175e-06
1.94745147583601e-07
9.65046783091523e-09
-2.63370885341428e-06
1.850072250154e-07
1.36797410949349e-08
-3.89314474908892e-06
1.58074270183704e-07
2.66741890769656e-08
-1.39030540822935e-05
1.11711089084962e-07
2.14936483935947e-07
-1.92723559884103e-06
2.34781045992312e-07
4.61927442228051e-09
-2.13028510347856e-06
2.40610860603014e-07
8.01181336201119e-09
-2.42851313518792e-06
2.37853406459843e-07
9.48600179894099e-09
-2.8472560604366e-06
2.18323946469958e-07
9.32783683055385e-09
-4.03915820884832e-06
1.8050194639453e-07
2.34893820721485e-08
-1.42135447561041e-05
1.34670711406185e-07
2.48042217579377e-07
-1.99164134426905e-06
2.78571177242432e-07
4.19583590247646e-09
-2.15448234490771e-06
2.88645183703809e-07
7.54172239706736e-09
-2.3646403406505e-06
2.91679810163523e-07
8.60662172385138e-09
-2.5871142560246e-06
2.7659274128631e-07
7.08279900566359e-09
-2.85661770346974e-06
2.38687698351749e-07
3.99189907337921e-09
-3.99222528469877e-06
1.90858573871361e-07
2.12121325664041e-08
-1.41059994992565e-05
1.38296699317432e-07
2.80812013041315e-07
-8.93287752746468e-06
5.46623720703965e-08
4.86138444757418e-08
-2.58284044367152e-06
8.53637259113663e-08
1.49611476882834e-08
-1.07529886791697e-05
6.65148292275048e-08
9.70463392946232e-08
-1.96858555252863e-06
1.16093375217519e-07
9.66742346229683e-09
-3.1941942587069e-06
1.06437875041399e-07
2.63445450438861e-08
-1.19279345754413e-05
7.80798426480078e-08
1.42787269912721e-07
-1.88000468523816e-06
1.49848804790635e-07
7.21565339660043e-09
-2.3704220458728e-06
1.45277275306476e-07
1.64667551537767e-08
-3.59363947484332e-06
1.27449044195607e-07
3.27181498725479e-08
-1.31917404562518e-05
9.00781547193927e-08
1.86491053650138e-07
-1.90668924583532e-06
1.8656123415304e-07
6.04796743406543e-09
-2.20159952389516e-06
1.86985029559381e-07
1.19758741181631e-08
-2.68239227507362e-06
1.76714658128462e-07
1.84377286531268e-08
-3.95493403501168e-06
1.48770587251744e-07
3.46114396415912e-08
-1.4053335489571e-05
1.00891650425309e-07
2.26901201875398e-07
-1.96483671911517e-06
2.26132981089671e-07
5.35969794600535e-09
-2.17173624386527e-06
2.31366284502905e-07
9.97655901631188e-09
-2.47512141674902e-06
2.27822962816572e-07
1.34373754445127e-08
-2.8985852811676e-06
2.07104130714165e-07
1.59713224906059e-08
-4.10055885282712e-06
1.66333513511839e-07
3.34276866773213e-08
-1.43757465133932e-05
1.13811118349197e-07
2.63277240268192e-07
-2.03036032454603e-06
2.68426609470558e-07
5.07275408487078e-09
-2.19651103198103e-06
2.77908986296587e-07
9.34738750477528e-09
-2.41085702736962e-06
2.80346607406565e-07
1.17323173343909e-08
-2.63638036007117e-06
2.65174419494368e-07
1.18971734511789e-08
-2.90555706912051e-06
2.27759717691618e-07
1.10023033840033e-08
-4.04605130413066e-06
1.80940183438512e-07
3.10207547593312e-08
-1.42879482748507e-05
1.34005943890269e-07
2.95946281927382e-07
-2.09801145656628e-06
3.13611012936615e-07
4.91271956589747e-09
-2.24848817012541e-06
3.26985176172685e-07
9.25896939224819e-09
-2.41562051031958e-06
3.34787544894118e-07
1.20761271837664e-08
-2.53520259765824e-06
3.23294022721525e-07
1.2294137584498e-08
-2.59572365100264e-06
2.8659917776006e-07
9.42412261991811e-09
-2.75147340277811e-06
2.36192642559683e-07
6.35003123930892e-09
-3.87722253496261e-06
1.86091071956573e-07
2.98820254213368e-08
-1.39746914881616e-05
1.35955204184655e-07
3.26967589721847e-07
-9.03887375643312e-06
5.28162318549028e-08
5.3175170349438e-08
-2.6279885518273e-06
8.22009141278646e-08
1.76036097843053e-08
-1.08736485039489e-05
6.4489111822921e-08
1.04762665308427e-07
-2.00657422975147e-06
1.11627374080138e-07
1.17237079796639e-08
-3.24655601241699e-06
1.02625810644993e-07
3.12016978803567e-08
-1.20593213972842e-05
7.5853040419024e-08
1.52552708512169e-07
-1.91681784131104e-06
1.44101010404217e-07
8.8043080091594e-09
-2.414216312729e-06
1.39695885296599e-07
2.0198578996915e-08
-3.65155184658647e-06
1.22834319168686e-07
3.94873536096559e-08
-1.33340680301021e-05
8.72829388225503e-08
1.97797045023475e-07
-1.94359966725386e-06
1.79512157763193e-07
7.24593450063472e-09
-2.24364039383553e-06
1.79679623325732e-07
1.48499817673772e-08
-2.73181832308648e-06
1.69536835212545e-07
2.3798376482012e-08
-4.01763399792116e-06
1.42264623107416e-07
4.32102764712403e-08
-1.42023797686854e-05
9.59579858668155e-08
2.39535025419504e-07
-2.00227655313594e-06
2.17782946327474e-07
6.21693357176585e-09
-2.21337594692597e-06
2.22533023472732e-07
1.21357507606788e-08
-2.52266968560454e-06
2.18545780941062e-07
1.76878619922971e-08
-2.95185951719979e-06
1.9745269807302e-07
2.30216187578858e-08
-4.16491379930681e-06
1.56063957601852e-07
4.37710893014158e-08
-1.45290197909744e-05
1.02390297734867e-07
2.77732892403542e-07
-2.06866848989622e-06
2.58672940114727e-07
5.76725293683552e-09
-2.23844478764433e-06
2.67548926389079e-07
1.11077814539793e-08
-2.45744867502164e-06
2.69314886673763e-07
1.50724869675896e-08
-2.68693124925347e-06
2.53660551145852e-07
1.74257366781004e-08
-2.95807631476785e-06
2.15573067636142e-07
1.92419352780058e-08
-4.10723205381674e-06
1.65964466664298e-07
4.24264668479905e-08
-1.4449133957226e-05
1.1223524652093e-07
3.12171076984125e-07
-2.13749742762803e-06
3.02210691895615e-07
5.70143303416812e-09
-2.29141898104971e-06
3.14858203521627e-07
1.10525611113671e-08
-2.46258188288656e-06
3.21936144482934e-07
1.47166688909644e-08
-2.58503109183037e-06
3.10464185743721e-07
1.62673731864081e-08
-2.64573480830414e-06
2.74487018336706e-07
1.51759085574563e-08
-2.79882416874485e-06
2.24980270551277e-07
1.43044075493195e-08
-3.92870299115829e-06
1.75918594844491e-07
4.05625940142796e-08
-1.4153338398151e-05
1.31564875271338e-07
3.42979872774852e-07
-2.20793018258314e-06
3.48653268130698e-07
5.66385450098558e-09
-2.35808885743703e-06
3.65138505269776e-07
1.11705619799658e-08
-2.5122454046684e-06
3.77356894017157e-07
1.54225636558241e-08
-2.57189483945374e-06
3.69019300656315e-07
1.75753444328086e-08
-2.52010592845729e-06
3.33241748135861e-07
1.6613201512613e-08
-2.45605256839149e-06
2.81390470298861e-07
1.26651232251262e-08
-2.55879431707464e-06
2.26927872414491e-07
1.01469917361629e-08
-3.70338277308427e-06
1.78893434212242e-07
4.01882731005135e-08
-1.37661049863066e-05
1.33368580513605e-07
3.70934012605041e-07
-9.14854405629021e-06
5.08849848416203e-08
5.87793723984773e-08
-2.67495037005163e-06
7.89726493457246e-08
2.08006420161074e-08
-1.09974866663042e-05
6.24297406381576e-08
1.14566911320499e-07
-2.04577504179087e-06
1.071906272236e-07
1.42099352266961e-08
-3.30040722342671e-06
9.88136326987599e-08
3.71224354465695e-08
-1.21933904892774e-05
7.36294103882275e-08
1.65177149669441e-07
-1.95443985167188e-06
1.38518960250211e-07
1.07293493325932e-08
-2.45890086174429e-06
1.34307052696399e-07
2.47230245086439e-08
-3.71065030946154e-06
1.1850185506593e-07
4.76406453280989e-08
-1.3478661736646e-05
8.49014936716862e-08
2.12219697186718e-07
-1.98099228264117e-06
1.72727125132344e-07
8.76553124991792e-09
-2.28624152936435e-06
1.72717815446924e-07
1.83805167534777e-08
-2.78193494390599e-06
1.63031294450037e-07
3.01125463726165e-08
-4.08118190779991e-06
1.37108771493623e-07
5.3194194493905e-08
-1.43527124185569e-05
9.30883498306557e-08
2.55006326915195e-07
-2.03987567121364e-06
2.09743581045617e-07
7.36683789987808e-09
-2.25534748167149e-06
2.1406963917073e-07
1.4824302887293e-08
-2.57087378387244e-06
2.09946682159079e-07
2.26398009849806e-08
-3.00600075743262e-06
1.89268021940841e-07
3.09288741018202e-08
-4.2300395558591e-06
1.49096585528502e-07
5.51738746015192e-08
-1.46804472036104e-05
9.74086843024005e-08
2.93502641177544e-07
-2.10677434852422e-06
2.49297012625432e-07
6.59094872945155e-09
-2.28042838335493e-06
2.5761887546235e-07
1.3111967276933e-08
-2.50451727232154e-06
2.58886909089646e-07
1.88596574001304e-08
-2.73853389050269e-06
2.4309975303038e-07
2.36373587069089e-08
-3.01262181893325e-06
2.05216118473962e-07
2.84052124736144e-08
-4.17123065274173e-06
1.55277497500057e-07
5.48538062568918e-08
-1.46004451280506e-05
1.00514885856434e-07
3.28471645865185e-07
-2.17648261866953e-06
2.91311212639273e-07
6.34622616577527e-09
-2.33403636978694e-06
3.03298434345618e-07
1.26326755239893e-08
-2.50951179523251e-06
3.09696006349268e-07
1.76531558938673e-08
-2.63525526379127e-06
2.97989124446955e-07
2.09641418504084e-08
-2.69709795584354e-06
2.62227089790255e-07
2.21289640766063e-08
-2.84997978381953e-06
2.12403959300255e-07
2.39471699070154e-08
-3.98781708432692e-06
1.60470371328229e-07
5.32691007782925e-08
-1.43103907855601e-05
1.08883620284032e-07
3.60272809248483e-07
-2.24814849650076e-06
3.35928359974461e-07
6.50020318545545e-09
-2.40184651952437e-06
3.51574340494038e-07
1.27413641199987e-08
-2.56009518839689e-06
3.63022005949512e-07
1.78144002457481e-08
-2.62233582550452e-06
3.54635370423932e-07
2.09839111153015e-08
-2.57051794627375e-06
3.1974512990495e-07
2.14174049953639e-08
-2.50432402235736e-06
2.69134767508354e-07
1.92870037807806e-08
-2.60316798771005e-06
2.15642130324841e-07
1.89436280685999e-08
-3.75145187969947e-06
1.68497876228786e-07
5.1663113883491e-08
-1.39401503398491e-05
1.28763757344811e-07
3.88202667964338e-07
-2.31989508801374e-06
3.83606325150828e-07
6.45539724454931e-09
-2.47601342606719e-06
4.03303733826283e-07
1.27823711436892e-08
-2.63445685336942e-06
4.19875349571462e-07
1.84296980348207e-08
-2.66971290545365e-06
4.14415314863684e-07
2.23963726469409e-08
-2.54892871592007e-06
3.79124705383661e-07
2.34783152807268e-08
-2.36819306496721e-06
3.25908068028992e-07
2.12472266833788e-08
-2.24185612572421e-06
2.68398383599521e-07
1.66093028859948e-08
-2.32753430253713e-06
2.14850315595879e-07
1.50627134028944e-08
-3.50754822830714e-06
1.70914038801509e-07
5.2212045748083e-08
-1.35475253435312e-05
1.29166250533938e-07
4.13634014601519e-07
-9.26285198599131e-06
4.86908685814685e-08
6.56101895735875e-08
-2.7242505275984e-06
7.56044720782915e-08
2.45763923505319e-08
-1.11256123605465e-05
6.02830068339209e-08
1.26606115686283e-07
-2.08665527497784e-06
1.02703097046271e-07
1.71486407017323e-08
-3.35628458113033e-06
9.4908901847756e-08
4.4192133556258e-08
-1.23311288072127e-05
7.13325623653722e-08
1.80957251080093e-07
-1.99328866767264e-06
1.3302217384792e-07
1.30164749055591e-08
-2.50495914247155e-06
1.28970928174153e-07
3.01082233696745e-08
-3.77143957958248e-06
1.14165297735537e-07
5.73672317423559e-08
-1.36263407449353e-05
8.25640819729155e-08
2.30268330746194e-07
-2.01923616154686e-06
1.66155496949261e-07
1.06066889866931e-08
-2.32980270745779e-06
1.65967418926638e-07
2.26273798433184e-08
-2.83309320663235e-06
1.56802096369838e-07
3.75774065491906e-08
-4.14599396567489e-06
1.32394481199402e-07
6.49477843431593e-08
-1.45053500071722e-05
9.07733062111852e-08
2.7405566560439e-07
-2.07798371192521e-06
2.02012717855355e-07
8.82169114525489e-09
-2.29791547119929e-06
2.0592922938688e-07
1.81196361905842e-08
-2.61979306573204e-06
2.01839159129098e-07
2.84884463909882e-08
-3.06083904720197e-06
1.81993070460743e-07
4.00606026857341e-08
-4.29588507754456e-06
1.43794252189583e-07
6.83155003088736e-08
-1.48325419592872e-05
9.46486193051474e-08
3.12411051281732e-07
-2.14503495205323e-06
2.40304945281398e-07
7.69848006969467e-09
-2.32270848071684e-06
2.48075882218189e-07
1.56383511894303e-08
-2.5521115148679e-06
2.48985763106376e-07
2.33760194375479e-08
-2.79086157325599e-06
2.33433828087667e-07
3.07978961233309e-08
-3.06798751285654e-06
1.96628179026473e-07
3.87558793493755e-08
-4.23568237950897e-06
1.48275386553643e-07
6.87360226794585e-08
-1.47493170912997e-05
9.56749767105052e-08
3.4664896022989e-07
-2.21523014188128e-06
2.80903315363024e-07
7.14049740961356e-09
-2.37661053236234e-06
2.92272919967086e-07
1.45087889696044e-08
-2.55669061181087e-06
2.98087058595062e-07
2.1087786205387e-08
-2.68603553551379e-06
2.8629798316359e-07
2.64375492432052e-08
-2.74951883501136e-06
2.51099738690803e-07
3.01688918914567e-08
-2.90313070244971e-06
2.01877607831541e-07
3.49467925095641e-08
-4.04956445485484e-06
1.49646946919087e-07
6.74375183979243e-08
-1.44568285778476e-05
9.69157839698348e-08
3.77923903585931e-07
-2.28779371291231e-06
3.23894353082764e-07
7.06157195423475e-09
-2.44521025911952e-06
3.38801867430153e-07
1.42046365646854e-08
-2.60774604718337e-06
3.49490951788567e-07
2.04861000297766e-08
-2.67274747400752e-06
3.40936133760398e-07
2.51144240469307e-08
-2.62132777464929e-06
3.06636440207496e-07
2.73594283078007e-08
-2.55402759383486e-06
2.5672867102793e-07
2.75005963321761e-08
-2.65152228365439e-06
2.02962903621251e-07
2.97969987503735e-08
-3.80750555590343e-06
1.52648289515201e-07
6.55185476640184e-08
-1.40914727094307e-05
1.05026243844797e-07
4.06495923224936e-07
-2.36074468480461e-06
3.69572626559763e-07
7.20508573664537e-09
-2.52054003352713e-06
3.88339243168333e-07
1.42607009153846e-08
-2.68331594562118e-06
4.03989802890093e-07
2.06311438230557e-08
-2.72113806539405e-06
3.98423270555064e-07
2.54497459187432e-08
-2.59992939341717e-06
3.64101152329885e-07
2.76255006735173e-08
-2.41684706184542e-06
3.12385824426429e-07
2.68157088014211e-08
-2.28718352265289e-06
2.56262378996334e-07
2.39862807444107e-08
-2.36823344372527e-06
2.0353866712336e-07
2.45890419007444e-08
-3.55177430979016e-06
1.6024264091275e-07
6.4371562978873e-08
-1.37161009927138e-05
1.25154246305756e-07
4.31559089002841e-07
-2.43071520458285e-06
4.18568353978587e-07
6.96161329686728e-09
-2.59744536714353e-06
4.41669428735008e-07
1.40759711814784e-08
-2.76904091782015e-06
4.62582756082099e-07
2.08880335347894e-08
-2.80122581216958e-06
4.59959724239445e-07
2.65025641484939e-08
-2.64805073761302e-06
4.24967445885175e-07
2.95749596999261e-08
-2.39420728051125e-06
3.70108995004078e-07
2.93216672694931e-08
-2.14919514929496e-06
3.09801199368586e-07
2.60140583198589e-08
-1.99515543491317e-06
2.52150871350338e-07
2.10430423912088e-08
-2.07980222402752e-06
2.01706209352436e-07
2.09883907026122e-08
-3.31168046444539e-06
1.62730593256942e-07
6.46101571927496e-08
-1.33496967699517e-05
1.28204069321338e-07
4.51810690800499e-07
-9.3828136039341e-06
4.62037806613079e-08
7.37543823135222e-08
-2.77647300138758e-06
7.19785832632352e-08
2.89289807513141e-08
-1.12590994495825e-05
5.79486946130208e-08
1.41130970730924e-07
-2.12970244397092e-06
9.80807110006135e-08
2.0569800595233e-08
-3.41473814862403e-06
9.08201370776978e-08
5.2484619183324e-08
-1.24736497116727e-05
6.89713840155829e-08
2.00136466722807e-07
-2.03381291264489e-06
1.27529480532281e-07
1.56972527379215e-08
-2.55290840542696e-06
1.2357438923799e-07
3.64303250061832e-08
-3.83448265457362e-06
1.09703144475318e-07
6.88560640638007e-08
-1.37781110893617e-05
8.01056094622314e-08
2.52597786481113e-07
-2.05873727675793e-06
1.59734454485553e-07
1.27882756803074e-08
-2.37477171203919e-06
1.59315456417189e-07
2.76386744242383e-08
-2.88578957150338e-06
1.50613681621317e-07
4.63531823510224e-08
-4.21256531975487e-06
1.27713248919202e-07
7.87801373368737e-08
-1.46610960001193e-05
8.85710223197224e-08
2.97417178803607e-07
-2.11697462553481e-06
1.94561665143633e-07
1.05843029117488e-08
-2.34145101762436e-06
1.98033835027291e-07
2.20739488251544e-08
-2.66974453313052e-06
1.94004892530636e-07
3.53732455539078e-08
-3.11669035605697e-06
1.75118334044801e-07
5.06999357127077e-08
-4.36287451729487e-06
1.39075683554113e-07
8.36189804072905e-08
-1.49864633149802e-05
9.25200553126824e-08
3.35430429004602e-07
-2.18382320285467e-06
2.31700985078049e-07
9.0995670732854e-09
-2.36560149608588e-06
2.38895576848876e-07
1.8746682885552e-08
-2.60043926003028e-06
2.39523386096043e-07
2.87611255391151e-08
-2.84394815899603e-06
2.24426489543261e-07
3.91377270813619e-08
-3.12397149325195e-06
1.89176634941603e-07
5.06568659328145e-08
-4.30056082440451e-06
1.43147248774893e-07
8.46729714559001e-08
-1.48984848129796e-05
9.31826124876265e-08
3.68352163665499e-07
-2.25413174321652e-06
2.70994391208993e-07
8.21163333041931e-09
-2.41945621552738e-06
2.81712196161876e-07
1.69063095261778e-08
-2.60431966864838e-06
2.86998220069424e-07
2.52526023985401e-08
-2.73740725077336e-06
2.7529386955048e-07
3.28840048785742e-08
-2.80261017865903e-06
2.41061105299531e-07
3.94513469123242e-08
-2.95691582748052e-06
1.93353093550633e-07
4.74537848448016e-08
-4.11136720476903e-06
1.4280711951743e-07
8.33770164340201e-08
-1.46001683280562e-05
9.2231473152215e-08
3.97694603072785e-07
-2.3271749402266e-06
3.12497477889022e-07
7.78652014501994e-09
-2.48848633672158e-06
3.26699839412974e-07
1.59880660197515e-08
-2.65552121024001e-06
3.36691969633486e-07
2.36767297616768e-08
-2.7234505048867e-06
3.28036844296333e-07
3.00483484105375e-08
-2.67266926708999e-06
2.94452301410974e-07
3.44223401754516e-08
-2.60473304072304e-06
2.45598296273186e-07
3.71470468779434e-08
-2.70179819498176e-06
1.92526060251491e-07
4.23328046209375e-08
-3.86604973942864e-06
1.41768493622081e-07
8.10927566697315e-08
-1.42313591664647e-05
9.27770383568329e-08
4.24961998503155e-07
-2.40100199107323e-06
3.56404653784103e-07
7.74661623689108e-09
-2.56465008404861e-06
3.74331699841392e-07
1.56403259257573e-08
-2.73187450692714e-06
3.89124859003238e-07
2.3127458888083e-08
-2.77231166722183e-06
3.83378186220987e-07
2.92149394696423e-08
-2.65087112322953e-06
3.49822182541338e-07
3.28671684070098e-08
-2.4659110809744e-06
2.99284897565351e-07
3.38624422253946e-08
-2.33398290941249e-06
2.43990995650179e-07
3.32643935440798e-08
-2.41309931133628e-06
1.90818580788051e-07
3.64780027734223e-08
-3.60427636302072e-06
1.43907441335631e-07
7.90948448995201e-08
-1.38608911545818e-05
1.01066964177032e-07
4.50143488978104e-07
-2.47206259131511e-06
4.03238476292831e-07
7.68128487937324e-09
-2.6426751935106e-06
4.25284398166038e-07
1.54888360864437e-08
-2.81888282280152e-06
4.45122129553373e-07
2.29690293901741e-08
-2.85380883211086e-06
4.42311883108237e-07
2.93235745342357e-08
-2.70012478478908e-06
4.08330894964988e-07
3.32917960043051e-08
-2.44350160168148e-06
3.55154191144152e-07
3.41482410675149e-08
-2.19492571805616e-06
2.96560645687103e-07
3.22434751844849e-08
-2.03690580673076e-06
2.40212029144476e-07
2.90547620717424e-08
-2.11645008260132e-06
1.9032944935778e-07
3.11361579296923e-08
-3.3518000219038e-06
1.51732039150988e-07
7.78724412634161e-08
-1.35122438634157e-05
1.22902200121018e-07
4.71137605675103e-07
-2.53694319253724e-06
4.53534462944854e-07
7.25451751848182e-09
-2.71807585509685e-06
4.80206299778704e-07
1.49634354207847e-08
-2.90812934909462e-06
5.05606405162337e-07
2.27505634565181e-08
-2.94829655204875e-06
5.05872667889608e-07
2.97810882124144e-08
-2.78467101048783e-06
4.7116906483136e-07
3.46974221127994e-08
-2.49382777907865e-06
4.14569758005364e-07
3.6481962400667e-08
-2.1750560928413e-06
3.51349913517899e-07
3.49519216935114e-08
-1.90163540518192e-06
2.90022704420165e-07
3.08208249532934e-08
-1.73390546661117e-06
2.34531465567669e-07
2.59381264912839e-08
-1.8279385255547e-06
1.88436907294539e-07
2.75910528081506e-08
-3.13151318892505e-06
1.5618390691733e-07
7.83459899589682e-08
-1.31831955273593e-05
1.29486622571029e-07
4.83077288771917e-07
-9.50960860534411e-06
4.34130793564734e-08
8.33755843042692e-08
-2.83220604465136e-06
6.80182250623536e-08
3.39126827848249e-08
-1.13990335801104e-05
5.53050004000183e-08
1.58366139390872e-07
-2.17543307207964e-06
9.32290874038228e-08
2.4479112653547e-08
-3.47638958731821e-06
8.64424664383773e-08
6.20787285841221e-08
-1.26220475309871e-05
6.64023991182171e-08
2.23108626890715e-07
-2.07648051119738e-06
1.21952865773565e-07
1.87947984210223e-08
-2.60329333239578e-06
1.180096910925e-07
4.37633412564368e-08
-3.90032176891315e-06
1.05022610640666e-07
8.2263528416161e-08
-1.39349682780118e-05
7.75543288581097e-08
2.79416546181978e-07
-2.09993919323666e-06
1.5339109919132e-07
1.53398842231889e-08
-2.42162585760256e-06
1.52648756727746e-07
3.34752221992661e-08
-2.9405925930054e-06
1.44344144956868e-07
5.65893369424108e-08
-4.28147474257864e-06
1.22890986687866e-07
9.49692334087907e-08
-1.48208774750924e-05
8.62688181059353e-08
3.26087612582372e-07
-2.15725527922912e-06
1.87340748740036e-07
1.26739940115778e-08
-2.38639202929219e-06
1.90298067271101e-07
2.67451730491314e-08
-2.72121568373409e-06
1.86282071141172e-07
4.34392496894874e-08
-3.17409055505743e-06
1.68352737650136e-07
6.31103581363691e-08
-4.43148851581036e-06
1.34471346782882e-07
1.01480050266273e-07
-1.51431067647139e-05
9.05694782388317e-08
3.63464680748148e-07
-2.22352240394669e-06
2.23461819027652e-07
1.07987137415458e-08
-2.40949283931344e-06
2.30028341443885e-07
2.24799290372069e-08
-2.64986680338026e-06
2.30379698110793e-07
3.51245251107299e-08
-2.89813590394683e-06
2.15809260906728e-07
4.8867019540531e-08
-3.18089878857196e-06
1.82261263333038e-07
6.44372434991692e-08
-4.36629543019752e-06
1.38714811535623e-07
1.03143782297556e-07
-1.50487543176622e-05
9.13115792417944e-08
3.94358231984022e-07
-2.29357739376202e-06
2.61579786785816e-07
9.56640695015509e-09
-2.46292953875798e-06
2.71593677932347e-07
1.98735412964149e-08
-2.65269033657236e-06
2.76374420263346e-07
3.02645395060926e-08
-2.78955694760861e-06
2.64857999652128e-07
4.04768174119196e-08
-2.85635782707105e-06
2.31841268184336e-07
5.02166029224038e-08
-3.01107073237435e-06
1.86136861486295e-07
6.18148940986193e-08
-4.17318257847262e-06
1.38003989918812e-07
1.01646806715979e-07
-1.47431810105973e-05
9.00493686607738e-08
4.21267239091153e-07
-2.36671554397059e-06
3.01710363146701e-07
8.82416981931699e-09
-2.53202437529076e-06
3.15167862206795e-07
1.82928747855319e-08
-2.70370128920294e-06
3.24483354769507e-07
2.75994456346755e-08
-2.77465301672157e-06
3.15789722815588e-07
3.5956620392959e-08
-2.72454906957107e-06
2.83090692421698e-07
4.27306518518249e-08
-2.65595861099561e-06
2.35707793225219e-07
4.83159377134762e-08
-2.75246011942747e-06
1.84273445900913e-07
5.66400955103644e-08
-3.92424918742104e-06
1.35136209558218e-07
9.8642859704711e-08
-1.43675796082728e-05
8.82371610931772e-08
4.4561487069448e-07
-2.44099202668471e-06
3.44023845887241e-07
8.46318457254426e-09
-2.60866124131697e-06
3.61144886162972e-07
1.73514647184902e-08
-2.78048834836594e-06
3.75135978984729e-07
2.6156052022094e-08
-2.82362719057731e-06
3.69233872705216e-07
3.37926548466698e-08
-2.70206212291205e-06
3.3646105337931e-07
3.92273206476161e-08
-2.51543394480685e-06
2.87207948852424e-07
4.23305557782533e-08
-2.38167679571825e-06
2.33112993901086e-07
4.42464449997958e-08
-2.45980950994791e-06
1.80532857909553e-07
5.02649227869132e-08
-3.65912213553018e-06
1.32944024669913e-07
9.57313684420491e-08
-1.39937458294681e-05
8.86299519379903e-08
4.69110482388247e-07
-2.51282040901464e-06
3.88944618969632e-07
8.21749940610828e-09
-2.68747122545367e-06
4.10043353194937e-07
1.68297557641676e-08
-2.86836886126415e-06
4.28895723602818e-07
2.53538977793035e-08
-2.90601490808709e-06
4.2585546590596e-07
3.28541005430723e-08
-2.75189105589062e-06
3.92722028571482e-07
3.80786287978905e-08
-2.4927179928835e-06
3.40985351658533e-07
4.03788736423664e-08
-2.2410750579205e-06
2.83770420073137e-07
4.02266646334948e-08
-2.0802209501406e-06
2.28160208214034e-07
3.92287201006429e-08
-2.15747973697691e-06
1.77521015360725e-07
4.38787072347097e-08
-3.40045301966437e-06
1.34917387571491e-07
9.38518266204987e-08
-1.36499656537213e-05
9.70690161260356e-08
4.90724278729764e-07
-2.5785930591302e-06
4.36919320583872e-07
7.96883677944809e-09
-2.76385600323781e-06
4.62397703574239e-07
1.63473624631858e-08
-2.95883865737901e-06
4.86555564190672e-07
2.47638657977878e-08
-3.00201114734404e-06
4.86536552053328e-07
3.24575810152564e-08
-2.83801386151598e-06
4.52860955846187e-07
3.81343421293172e-08
-2.54427321206672e-06
3.98074948680406e-07
4.08138542920725e-08
-2.22152177716767e-06
3.36810825999143e-07
4.03602131210196e-08
-1.94393162931313e-06
2.77161832841278e-07
3.75843855482733e-08
-1.77174512303504e-06
2.22768345523875e-07
3.44455470826786e-08
-1.86031503147694e-06
1.76874669298602e-07
3.83534553400806e-08
-3.1673869390361e-06
1.44256505895124e-07
9.23526428943296e-08
-1.33395302483496e-05
1.23290727392209e-07
5.04110663298032e-07
-2.63599575003608e-06
4.88421715185614e-07
7.36706091756758e-09
-2.83414768830754e-06
5.18844728589316e-07
1.54697227532951e-08
-3.04611396740404e-06
5.4892493738089e-07
2.40131165354443e-08
-3.10093440085836e-06
5.52224387401931e-07
3.22236653413434e-08
-2.93814880259878e-06
5.17881902698445e-07
3.87619656758562e-08
-2.63203187222333e-06
4.59583043817711e-07
4.25122966055685e-08
-2.27486363432491e-06
3.93467225688815e-07
4.2954539560856e-08
-1.928730446389e-06
3.28487352099727e-07
4.03258678124647e-08
-1.64052076393101e-06
2.68617804216773e-07
3.56749507675373e-08
-1.46788593205716e-06
2.16599869045058e-07
3.1230844140244e-08
-1.58302867130611e-06
1.76244729774727e-07
3.50659121828956e-08
-2.98217320309942e-06
1.52212380275223e-07
9.27137808248098e-08
-1.30436782649192e-05
1.33983795035678e-07
5.03547210389995e-07
-9.64439229748354e-06
4.00929027994267e-08
9.46841851261694e-08
-2.89203935982195e-06