/*--------------------------------*- C++ -*----------------------------------*\
  =========                 |
  \\      /  F ield         | OpenFOAM: The Open Source CFD Toolbox
   \\    /   O peration     | Website:  https://openfoam.org
    \\  /    A nd           | Version:  12
     \\/     M anipulation  |
\*---------------------------------------------------------------------------*/
/*   Windows 32 and 64 bit porting by blueCAPE: http://www.bluecape.com.pt   *\
|  Based on Windows porting (2.0.x v4) by Symscape: http://www.symscape.com   |
\*---------------------------------------------------------------------------*/
FoamFile
{
    format      ascii;
    class       volVectorField;
    location    "100";
    object      U;
}
// * * * * * * * * * * * * * * * * * * * * * * * * * * * * * * * * * * * * * //

dimensions      [0 1 -1 0 0 0 0];

internalField   nonuniform List<vector> 
10068
(
(-5.38259739712111e-06 0.000489382227336294 2.16638869516922e-05)
(-3.45999813914205e-06 0.000500125755092381 2.00512039620221e-05)
(-2.70306972086243e-06 0.000549812626722383 3.94352920941575e-05)
(-1.36509815462203e-05 0.000251398574602863 2.4695108724046e-05)
(-1.81900042520558e-06 0.000513614454445013 1.85281769490784e-05)
(-1.93034353015094e-06 0.000561667173146688 3.66313774752356e-05)
(-9.86178531886303e-06 0.000257533288468121 2.18106722184968e-05)
(-1.17755891834222e-06 0.000688914219070312 5.84331107158479e-05)
(-8.14657247889645e-06 0.000387786341940941 3.9362473889087e-05)
(-1.91653368249936e-05 0.000174475277359087 2.73092142245611e-05)
(-1.39496455045563e-06 0.000529581775749287 1.7785261240078e-05)
(-1.17908641853753e-06 0.000577169630087827 3.40927092349791e-05)
(-6.42947104114275e-06 0.000258549636701109 1.83644952527616e-05)
(-8.33818515158296e-07 0.000704230758332358 5.52954152939865e-05)
(-6.43575788388214e-06 0.000391065988469068 3.60575556490396e-05)
(-1.49505244803275e-05 0.000177733854835499 2.35307068899802e-05)
(-5.09885123994508e-07 0.000779160302040236 7.82723334306573e-05)
(-3.57973628981082e-06 0.000610311197333627 5.78578164088275e-05)
(-1.21664141851247e-05 0.000315375188944948 4.00721388276495e-05)
(-2.40593163024925e-05 0.000123104858412333 2.83849781076417e-05)
(-1.21891454184474e-06 0.000546103812166593 1.75703333121946e-05)
(-7.52004237802426e-07 0.00059368381080536 3.25890196423893e-05)
(-4.99380516820401e-06 0.000267661845255923 1.70933692595427e-05)
(-4.30124059841903e-07 0.000721518104271906 5.24711153747963e-05)
(-4.31487492487329e-06 0.000400761245283084 3.29993128205337e-05)
(-1.10101651017532e-05 0.000173691380026698 1.88771895638879e-05)
(-2.9014730265132e-07 0.000796438686588994 7.48791446008541e-05)
(-2.69012411204085e-06 0.000620933031807777 5.44742198004589e-05)
(-1.00100256163704e-05 0.000313739204499025 3.62612481520618e-05)
(-1.97518336256962e-05 0.000125866238256353 2.42292582211505e-05)
(-6.63181890488407e-08 0.000864143252221254 9.83224488070945e-05)
(-1.36302096032509e-06 0.000730031354778241 7.72041295897138e-05)
(-6.12468566228533e-06 0.000558960645759735 5.75711386302172e-05)
(-1.64242820347379e-05 0.00025662769344805 4.02647844308115e-05)
(-2.87797681040127e-05 5.44424741684279e-05 2.86738087410694e-05)
(-9.33542818498834e-07 0.000563641152541496 1.752045151307e-05)
(-4.16056479652351e-07 0.000610336569549898 3.16965361399432e-05)
(-4.01991798975666e-06 0.000279782759131397 1.71169355072642e-05)
(-9.97706188991657e-08 0.00073927232795396 5.03164909585921e-05)
(-2.8438089993947e-06 0.000414207719196227 3.14524019883829e-05)
(-8.61071962470733e-06 0.000180188801046278 1.72165752932962e-05)
(-1.07514737459234e-08 0.000814650435591653 7.16860137338367e-05)
(-1.51505010133681e-06 0.000635444181232611 5.13592893880272e-05)
(-7.54368359026999e-06 0.000320374025325618 3.25868767252019e-05)
(-1.5398929106831e-05 0.000119253790115367 1.89104391431402e-05)
(1.00434209905226e-07 0.000882810834424844 9.44896489071892e-05)
(-7.59704152796828e-07 0.000744554959489118 7.37555269257367e-05)
(-4.77644124954697e-06 0.000566434184925448 5.39287950231671e-05)
(-1.38327173929558e-05 0.000252466740402535 3.60813692070784e-05)
(-2.4099268364879e-05 5.70791532713286e-05 2.42762400267368e-05)
(2.88776594382734e-07 0.000951783041557905 0.00011861893700573)
(3.91065288119056e-08 0.000824870547095581 9.67636364895809e-05)
(-2.48872227931157e-06 0.000688494002148399 7.63541970246225e-05)
(-8.56757373979422e-06 0.000505353099746304 5.67987289630195e-05)
(-2.04811194753953e-05 0.000184273107809525 3.95031467080355e-05)
(-3.34320903452172e-05 -3.4085368512153e-05 2.82233830370098e-05)
(-4.77848237361853e-07 0.000582276911865355 1.74649681998019e-05)
(-3.40902585843738e-08 0.00062742613722407 3.10178342286779e-05)
(-2.73255060967233e-06 0.000293988730075423 1.75559563645615e-05)
(2.23054534968033e-07 0.000757240550716742 4.85740575999488e-05)
(-1.63287148662939e-06 0.000428646522516319 3.07523054271585e-05)
(-6.4767444421162e-06 0.000190455107252425 1.73504453164825e-05)
(2.6209396029509e-07 0.00083312235931192 6.88617637265804e-05)
(-4.47774175143669e-07 0.000651798697242966 4.91556425304084e-05)
(-5.3962862806583e-06 0.000332259771756691 3.08385737396688e-05)
(-1.1992603244666e-05 0.000124207197391842 1.69688855630081e-05)
(3.19596782669965e-07 0.000901902427903394 9.07965080393958e-05)
(7.53508332185149e-08 0.000761139449292701 7.04516712652091e-05)
(-3.03778116157232e-06 0.000579092827548601 5.05123037466348e-05)
(-1.08409857753564e-05 0.000257129958067469 3.19713971783808e-05)
(-1.923393146148e-05 4.82285843592034e-05 1.8494509855536e-05)
(4.29092050118684e-07 0.000971641179823165 0.000114178355500855)
(5.10907467104098e-07 0.000841501383116487 9.28585436647639e-05)
(-1.52167554477222e-06 0.000700741876637464 7.2659191102121e-05)
(-6.73780621108089e-06 0.000510850523007761 5.29593795514479e-05)
(-1.7435837029652e-05 0.000178258920094698 3.50281061945173e-05)
(-2.81286528760428e-05 -3.17323961618801e-05 2.36525854062433e-05)
(5.81867436114463e-07 0.00104108039761005 0.000139024514994604)
(1.06589848271209e-06 0.000914746098163013 0.000116445960114057)
(-1.46727922552589e-08 0.000786207900491021 9.53457374637475e-05)
(-3.54745016307437e-06 0.000638179930267914 7.4743377255225e-05)
(-1.08874517833775e-05 0.000436324505658386 5.47978239569049e-05)
(-2.43435886804705e-05 9.75382113234e-05 3.77472408575883e-05)
(-3.77568355941401e-05 -0.000140217681531442 2.70761685559691e-05)
(9.19205283901608e-08 0.000601930834120452 1.73893603642939e-05)
(4.28167032619845e-07 0.000645067836139029 3.03587878100834e-05)
(-1.12366107235271e-06 0.000309756253499289 1.79382078059063e-05)
(5.88387538252038e-07 0.000775550688355161 4.70345277126282e-05)
(-3.35833905720243e-07 0.000443879283005109 3.03333765734663e-05)
(-3.96145215685493e-06 0.00020324771206773 1.80084865925899e-05)
(5.51436273852379e-07 0.000851828980482662 6.63114027811229e-05)
(6.14364626478397e-07 0.000668773559568528 4.75248451509265e-05)
(-3.26652849713633e-06 0.000345494243032764 3.01917573504711e-05)
(-8.63128781999874e-06 0.000133204775677273 1.71032539036514e-05)
(5.53347884818684e-07 0.000921125993583774 8.73253402686054e-05)
(9.43101289386674e-07 0.000778791358460236 6.76124739481391e-05)
(-1.25951747857718e-06 0.000594519003493155 4.81951332766452e-05)
(-7.89282464088144e-06 0.000267870872568032 3.00653813252815e-05)
(-1.48491435949423e-05 5.16013176338359e-05 1.63286464711015e-05)
(6.15933580723208e-07 0.00099165460080028 0.000109888092184543)
(1.18077894551462e-06 0.000859392476523038 8.91165125893011e-05)
(-1.92272276782917e-07 0.000716012717527363 6.91602241059985e-05)
(-4.45020211920045e-06 0.000522062980940546 4.92889439759912e-05)
(-1.38913546157764e-05 0.000181182723629668 3.0604308732691e-05)
(-2.26670316291537e-05 -4.28545591912201e-05 1.7509837680514e-05)
(7.07318339452228e-07 0.00106197938680548 0.000133878687435615)
(1.47414586607216e-06 0.000932928190415758 0.000111944315074405)
(7.68486289058751e-07 0.000801209232346031 9.13252569223155e-05)
(-2.13443434315174e-06 0.00064896988511587 7.09839922721438e-05)
(-8.58018646911823e-06 0.000440187240490843 5.07958549001991e-05)
(-2.08184300241867e-05 8.97441073275535e-05 3.30471914030594e-05)
(-3.1702576303e-05 -0.000138392021564644 2.24024324247298e-05)
(8.17303681716435e-07 0.00112949428227882 0.000159463479225666)
(1.87107711835818e-06 0.00100329787110652 0.000136199798130028)
(1.82556387576057e-06 0.000875407966776271 0.000114371200279126)
(-1.99914027815397e-08 0.000736016533563384 9.29398116473137e-05)
(-4.51852028433062e-06 0.000570906130987341 7.15919093314064e-05)
(-1.30437367642306e-05 0.000352319025255288 5.15204231673301e-05)
(-2.78618000773724e-05 -1.46567514777344e-06 3.5088937665826e-05)
(-4.1610926456694e-05 -0.000260996129248919 2.54048649526245e-05)
(7.66245013243342e-07 0.000622836204501865 1.73127917758122e-05)
(9.76877618420737e-07 0.000663416379179014 2.96735791028468e-05)
(7.85455344918987e-07 0.000326768248668531 1.82098094154271e-05)
(1.01422959105331e-06 0.00079428438334461 4.55663085674551e-05)
(1.16300319912653e-06 0.00045982026572441 2.99128909264877e-05)
(-9.86878828721066e-07 0.000217869299001074 1.86244511319565e-05)
(8.82292148751182e-07 0.000870862884176095 6.39522412131999e-05)
(1.78826986617499e-06 0.000686252522625985 4.61553113721068e-05)
(-9.10141120013191e-07 0.000359679185038079 2.99285734330245e-05)
(-4.74367989844163e-06 0.000144965932981845 1.79108261166803e-05)
(8.12571669624245e-07 0.000940550604308372 8.40655109996053e-05)
(1.87031164165712e-06 0.000796928114100373 6.51295013222789e-05)
(6.27546826270234e-07 0.000610784341072296 4.65912254355037e-05)
(-4.77695059632253e-06 0.000280129428926905 2.94463367678724e-05)
(-1.02402987103995e-05 5.91446762191603e-05 1.64480544916088e-05)
(8.24173503553131e-07 0.00101169744235952 0.000105784450550308)
(1.92590952065874e-06 0.00087801476153171 8.56736085714906e-05)
(1.305713701013e-06 0.000733035962126736 6.62759826208356e-05)
(-1.95234767877207e-06 0.000536612575819218 4.68596094994059e-05)
(-1.01348266911422e-05 0.000190687627607354 2.85984212844105e-05)
(-1.73497128717483e-05 -4.13274833217865e-05 1.51757271875472e-05)
(8.75687722597806e-07 0.00108290132304229 0.000128945647991715)
(2.05306038238467e-06 0.00095193524179011 0.000107648825960007)
(1.87215589634737e-06 0.000818090987669877 8.74917574234337e-05)
(-2.89262550453514e-07 0.00066313285658194 6.73630583088506e-05)
(-5.73256495848317e-06 0.000450008955052143 4.69520132313405e-05)
(-1.66809228008911e-05 9.09467954914886e-05 2.83935967237861e-05)
(-2.55748641198151e-05 -0.000151897092545209 1.60064057111771e-05)
(9.31172199744249e-07 0.0011513459597983 0.000153580325783875)
(2.23653339557837e-06 0.0010227506034854 0.000131016195406434)
(2.50748812303531e-06 0.000892202633352641 0.000109784943698672)
(1.15515048570329e-06 0.000749745302220064 8.88685553576226e-05)
(-2.66365402265692e-06 0.000580328417558477 6.77773051660257e-05)
(-1.02845359288091e-05 0.000354574835937072 4.73947847689168e-05)
(-2.38461112403616e-05 -1.11081586019234e-05 3.02112412465025e-05)
(-3.47536345492995e-05 -0.000259673772773634 2.06992779400618e-05)
(9.90431437168028e-07 0.00121497763110618 0.000179953898408587)
(2.52648762655653e-06 0.00109035071651671 0.000156060823239567)
(3.26195500785198e-06 0.000961947203989591 0.000133476512869399)
(2.65934363145755e-06 0.000823559253570892 0.000111205349453215)
(6.6724899555079e-08 0.000668441868795691 8.87643005612485e-05)
(-5.40047198111454e-06 0.000488045901730191 6.6903628133666e-05)
(-1.4972071101045e-05 0.000255592303351844 4.71285697734426e-05)
(-3.09110287584049e-05 -0.000110682644978456 3.17270189490943e-05)
(-4.50607532657598e-05 -0.000393833122077762 2.32262938762896e-05)
(1.54986382073852e-06 0.000645229106752412 1.723248958376e-05)
(1.61658325658867e-06 0.000682703480528975 2.8953739804541e-05)
(3.01882132998217e-06 0.000345029819813128 1.84538557567432e-05)
(1.51130918836537e-06 0.000813620260116077 4.41131184704674e-05)
(2.90548361468643e-06 0.000476516085816799 2.9440823199865e-05)
(2.44737755666785e-06 0.00023385937850798 1.91136080673529e-05)
(1.26770093016431e-06 0.000890313743552955 6.17056252196813e-05)
(3.13282758350907e-06 0.000704216206806894 4.48678310920359e-05)
(1.77606242070075e-06 0.000374639844328498 2.96786868635285e-05)
(-2.58206674324949e-07 0.000158713774197641 1.87049487814609e-05)
(1.11360610971194e-06 0.000960287289300435 8.09904568435107e-05)
(2.91731548142675e-06 0.000815485418579693 6.28811593752219e-05)
(2.72906734067036e-06 0.000627635399899917 4.53188250232801e-05)
(-1.28287291772258e-06 0.000293401321512087 2.93044967053765e-05)
(-4.93021204426951e-06 6.96022328235569e-05 1.7391294182648e-05)
(1.06274011910597e-06 0.00103189750668843 0.000101878508780592)
(2.75159680932998e-06 0.000897037783733645 8.24970554778036e-05)
(2.97061893376659e-06 0.000750741531154461 6.38514943310381e-05)
(8.01276501569769e-07 0.000552126307301387 4.52636587738726e-05)
(-6.02020775221832e-06 0.000201789880239421 2.80283728275679e-05)
(-1.15285950973193e-05 -3.55306166684075e-05 1.53267789363572e-05)
(1.0680224001998e-06 0.00110378363085837 0.000124224508513233)
(2.71966271284171e-06 0.00097145167163782 0.000103606714654153)
(3.17588883968828e-06 0.000836165724980023 8.4035479858635e-05)
(1.85608490143918e-06 0.000679413051187315 6.44201071009748e-05)
(-2.51418400552239e-06 0.000463504611995475 4.44685846225132e-05)
(-1.21291857546955e-05 9.90441984104264e-05 2.63394336694138e-05)
(-1.93411875183967e-05 -0.000152472712257644 1.35809168510796e-05)
(1.08431439252772e-06 0.00117311644581516 0.000147982906481444)
(2.75838896756274e-06 0.00104276153754718 0.000126106821515817)
(3.47531455055041e-06 0.000910322483938636 0.000105448173694364)
(2.72481440640644e-06 0.000765666792782778 8.49821767952957e-05)
(-2.93218246962093e-07 0.000593316713060939 6.40921814466808e-05)
(-6.8806144239145e-06 0.000362962099349235 4.34446925530243e-05)
(-1.91157364757183e-05 -1.17008138699111e-05 2.53988247986717e-05)
(-2.78584212428584e-05 -0.00027582165924886 1.39760935217035e-05)
(1.09266662970812e-06 0.00123762454064162 0.000173305036317073)
(2.86439521703832e-06 0.00111081702936731 0.000150135018502953)
(3.87422949899701e-06 0.000980107354489433 0.000128227699674827)
(3.68077894544301e-06 0.000839205517549961 0.000106600414800918)
(1.62876296414762e-06 0.000680950656857339 8.47030659433248e-05)
(-3.12942679212918e-06 0.000496053501851937 6.30727468392418e-05)
(-1.17929076772324e-05 0.000256157289493408 4.29164721664852e-05)
(-2.64169397389276e-05 -0.000122291103570474 2.66943347508084e-05)
(-3.72670357027972e-05 -0.000392759495324716 1.85633024443832e-05)
(1.12288611728881e-06 0.00129604484166788 0.000200528936936435)
(3.0427001576311e-06 0.00117460920311987 0.000176048188615177)
(4.41388538047976e-06 0.00104678692100815 0.00015273824531491)
(4.78869868688513e-06 0.000907838411470479 0.000129592014421381)
(3.58872218891223e-06 0.000754679796606848 0.000106120680282378)
(1.77303753151624e-07 0.000585369955554541 8.2854945041451e-05)
(-6.17668415644727e-06 0.000392371361343744 6.089858425345e-05)
(-1.66297894413241e-05 0.000148464484932807 4.18602768474984e-05)
(-3.33773246183166e-05 -0.000228339529128423 2.78836142271808e-05)
(-4.73492892099301e-05 -0.000536556459075851 1.82014910679511e-05)
(2.51785739626481e-06 0.000669320849215303 1.70524475215435e-05)
(2.35100964601002e-06 0.000703166118361385 2.82096165080269e-05)
(5.57316503886739e-06 0.000364735088338777 1.86948779491986e-05)
(2.08764117450723e-06 0.000833797846931959 4.26500826085068e-05)
(4.920248207603e-06 0.000494138633728463 2.89321330973057e-05)
(6.38755371772491e-06 0.000251133461401292 1.95162609432225e-05)
(1.71752242503659e-06 0.000910354953875213 5.9521693126516e-05)
(4.68715681091725e-06 0.000722792159528804 4.35982762096454e-05)
(4.85857711862858e-06 0.000390366832185314 2.93640161607419e-05)
(4.87513092741687e-06 0.000173876195467793 1.93450918303573e-05)
(1.46727154173759e-06 0.000980448069876017 7.80579721885958e-05)
(4.12621141801771e-06 0.000834499877364823 6.07750440554995e-05)
(5.1207365907658e-06 0.000644991585478848 4.41531281173534e-05)
(2.68457408648799e-06 0.000307463057765452 2.91982352022628e-05)
(1.13528608466487e-06 8.2146620890753e-05 1.83487555848166e-05)
(1.34388218721641e-06 0.00105239614467564 9.81682391668257e-05)
(3.7011871061453e-06 0.000916451822222865 7.95429532589688e-05)
(4.85498800024803e-06 0.00076894417590822 6.17214311365993e-05)
(3.90289784601077e-06 0.000568251177879874 4.40680262173626e-05)
(-1.36950751540601e-06 0.000213920331226914 2.80192663283543e-05)
(-4.82334932979609e-06 -2.67543567882805e-05 1.63715613666693e-05)
(1.29245662895498e-06 0.00112478855939148 0.000119723045225133)
(3.47625755428258e-06 0.000991282924337285 9.98002349726519e-05)
(4.66625958204549e-06 0.000854768030135937 8.08977812556541e-05)
(4.29921687220852e-06 0.000696456999889278 6.20015900891188e-05)
(1.10739487347869e-06 0.000478025969007562 4.29216457894511e-05)
(-7.0534981845139e-06 0.000108768408007342 2.58531258207907e-05)
(-1.24182541581956e-05 -0.00014877142816836 1.37786837554732e-05)
(1.26532286360392e-06 0.00119479823346673 0.000142652509222624)
(3.37287030282978e-06 0.00106313806924835 0.000121472870184225)
(4.64889061398049e-06 0.000929319037576739 0.000101427818720197)
(4.61417285634727e-06 0.000783072298552738 8.15256531364834e-05)
(2.50265330345925e-06 0.000608646943554175 6.1153419101095e-05)
(-2.96780938661128e-06 0.000375216537969393 4.09649704335693e-05)
(-1.38179957907463e-05 -5.17275522961589e-06 2.33390588723025e-05)
(-2.07179734373017e-05 -0.000278773375098602 1.14031186284773e-05)
(1.235519265544e-06 0.00126014080750483 0.000167030715617081)
(3.3452619846245e-06 0.00113171638471958 0.000144580013146313)
(4.75177946086893e-06 0.000999278775632995 0.0001233122393302)
(5.06978371669375e-06 0.000856436008091568 0.000102260935903646)
(3.67232717668111e-06 0.000695801809939205 8.08307432902978e-05)
(-2.50273809790381e-07 0.000507757403660906 5.93824519680207e-05)
(-7.86614467181096e-06 0.000263000922099315 3.89046651594837e-05)
(-2.11121262624573e-05 -0.000124805153213045 2.17338422577221e-05)
(-2.95747572336699e-05 -0.000411913028179236 1.15572100085237e-05)
(1.22199743711229e-06 0.00131932965791779 0.000193102631168328)
(3.3565690658736e-06 0.00119592923384624 0.000169368734005862)
(4.98255131100399e-06 0.00106604504934632 0.000146778126770365)
(5.70634267155017e-06 0.000924914964418425 0.000124352333040515)
(4.95000844058819e-06 0.000769184976988316 0.000101574212856909)
(2.10800816959386e-06 0.000596581256250354 7.88573966150122e-05)
(-3.53198130068739e-06 0.000398857362746047 5.70885022429601e-05)
(-1.30728143061512e-05 0.000147187927710655 3.75744601224091e-05)
(-2.84401433671894e-05 -0.000242068066233774 2.26672501220202e-05)
(-3.89291642256003e-05 -0.000535343891901287 1.46710282640533e-05)
(1.21488433962378e-06 0.00137169327544378 0.00022121610220946)
(3.44306769950088e-06 0.0012548338426846 0.000196195140261016)
(5.33274744052891e-06 0.001129230506534 0.000172193608755819)
(6.50111778931734e-06 0.000990531350409586 0.000148186016652997)
(6.4010745230124e-06 0.00083736922229359 0.000123679167634427)
(4.49097840665138e-06 0.00067088051221081 9.91529722226609e-05)
(2.76287171299182e-07 0.000489816782396549 7.54586110710012e-05)
(-6.85186193451145e-06 0.00028647870903405 5.3826808081849e-05)
(-1.79897834383845e-05 3.3116522040665e-05 3.59315469240363e-05)
(-3.52644624677118e-05 -0.000352614134135633 2.35920894627341e-05)
(-4.95840383952077e-05 -0.000687008956156064 1.561891603423e-05)
(3.63888908168829e-06 0.000695339543571318 1.68492048464789e-05)
(3.18291936979169e-06 0.000725073280482318 2.74063307117584e-05)
(8.49696874975122e-06 0.000386075004699542 1.89535472805945e-05)
(2.74906125459141e-06 0.000855071585086721 4.11534653002353e-05)
(7.22499616775847e-06 0.000512905390675465 2.84056930686978e-05)
(1.09115770679259e-05 0.000269839746074171 1.99260988121666e-05)
(2.2395122033648e-06 0.000931211022942657 5.73626948373593e-05)
(6.47906489571288e-06 0.000742194630462577 4.23265344078034e-05)
(8.39422329093945e-06 0.000406998784214485 2.90070447325032e-05)
(1.07738449902067e-05 0.000190345739278347 1.9800324378468e-05)
(1.88202900878203e-06 0.00100120406274312 7.5229119211966e-05)
(5.52912232095906e-06 0.00085412567635723 5.87591951578396e-05)
(7.86528172367645e-06 0.000662942253235372 4.30090299111796e-05)
(7.20801663749537e-06 0.000322259355214071 2.90193769639211e-05)
(8.05407829670909e-06 9.60918245330827e-05 1.91251386686701e-05)
(1.67611298337548e-06 0.00107332827219294 9.46343918445162e-05)
(4.80925195454778e-06 0.000936311289425127 7.67553339287857e-05)
(7.01373934566773e-06 0.000787588004493442 5.97480584405081e-05)
(7.43254685182681e-06 0.000584860984657129 4.30093913513355e-05)
(3.91166219525421e-06 0.000226818656874637 2.80646551440046e-05)
(2.80828337929554e-06 -1.58611732012366e-05 1.74502394769861e-05)
(1.55968048664391e-06 0.00114607895357147 0.000115448458313909)
(4.35709257562396e-06 0.00101147649256864 9.62168010623532e-05)
(6.38042991814803e-06 0.00087380153541503 7.80178388341505e-05)
(7.08751269795944e-06 0.000714002255731932 5.99236078122069e-05)
(5.21915531861733e-06 0.000493150632930688 4.18363156333041e-05)
(-1.29793884117424e-06 0.000119491927722235 2.59897177580581e-05)
(-4.44634425970534e-06 -0.000142052590125106 1.49157878132226e-05)
(1.48138959632349e-06 0.00121657619538608 0.000137591287192115)
(4.08671297929884e-06 0.00108376742004439 0.000117087979893238)
(6.0150620244292e-06 0.000948732359029181 9.76814383367485e-05)
(6.81509333952171e-06 0.000801077587254993 7.84344255011183e-05)
(5.72573475881063e-06 0.00062478612778427 5.8801809743308e-05)
(1.47621111961597e-06 0.000388506746276528 3.9513294097331e-05)
(-7.86583506082351e-06 2.95845065564047e-06 2.29539863642697e-05)
(-1.2798830884715e-05 -0.000277481754544186 1.16448601083121e-05)
(1.41067509378878e-06 0.0012825356455044 0.000161098920811467)
(3.92423856354716e-06 0.00115289035389405 0.000139357134344231)
(5.83532222896748e-06 0.00101912775287286 0.000118727797893329)
(6.77766576536063e-06 0.000874776145994012 9.82819821626942e-05)
(6.15127023488806e-06 0.000712304095535654 7.7432234890551e-05)
(3.16437567009994e-06 0.000521924568693495 5.65035550628914e-05)
(-3.32109527234677e-06 0.000273838153127473 3.64672518181129e-05)
(-1.5135997638991e-05 -0.000120008340296331 1.96781384628866e-05)
(-2.16269763060305e-05 -0.000417644861996922 8.85432634806539e-06)
(1.35994035824912e-06 0.00134245592579769 0.000186148112347827)
(3.81006259416948e-06 0.00121759524705359 0.000163154914975898)
(5.8002259015717e-06 0.00108613039585177 0.0001412452322)
(6.97165003702726e-06 0.000943225247968461 0.000119471648679363)
(6.76752826688959e-06 0.000785394953309676 9.73043898430242e-05)
(4.60866902083682e-06 0.000610223540209581 7.50603045857109e-05)
(-1.8950066120774e-07 0.000409142396672754 5.34351649075486e-05)
(-8.67255663811118e-06 0.000152346531465214 3.351350964846e-05)
(-2.26106421940172e-05 -0.000246679075302978 1.75069291111179e-05)
(-3.08277765072741e-05 -0.000558427238178727 8.51344884063849e-06)
(1.31378232513841e-06 0.0013954469099907 0.000213011897279308)
(3.74633914964509e-06 0.00127683801358947 0.00018875296625909)
(5.87370462304895e-06 0.00114939061648103 0.000165496307501895)
(7.34364894244692e-06 0.00100874711632393 0.00014226152311254)
(7.62005458594498e-06 0.000853346832074985 0.000118536666711947)
(6.17667819758222e-06 0.000684149495350967 9.47291288769392e-05)
(2.53472111204865e-06 0.000499605554600982 7.15662768977591e-05)
(-3.88629780443428e-06 0.000291295903449783 5.00556072828572e-05)
(-1.41048935610984e-05 2.98332053665188e-05 3.15541027485231e-05)
(-2.99110597610189e-05 -0.000368643827472274 1.81519870092369e-05)
(-4.02640844656681e-05 -0.000686339120831793 1.12727554103092e-05)
(1.27251925974096e-06 0.00144128837570766 0.000241993076063913)
(3.73059700471974e-06 0.00133002237880265 0.000216497122315172)
(6.03849979966486e-06 0.00120817283048452 0.000191855977688904)
(7.85913886442214e-06 0.00107126976350357 0.000167025390062779)
(8.66593671999396e-06 0.000918620063037741 0.000141508817009872)
(7.9443164157804e-06 0.000752747995371699 0.000115765529838061)
(5.28699403315784e-06 0.000575195120563062 9.0561563564186e-05)
(3.33258191520754e-07 0.000384519989537584 6.68525298284142e-05)
(-7.43763628427631e-06 0.000172785018504286 4.59343259493104e-05)
(-1.90713305583751e-05 -8.82472283532758e-05 2.95044714899803e-05)
(-3.67360599896842e-05 -0.000481569113014885 1.9349415637627e-05)
(-5.18211943637492e-05 -0.000844645888850262 1.37582205085047e-05)
(4.86939624029639e-06 0.00072356403579681 1.67300210199021e-05)
(4.12272126043185e-06 0.000748713181286558 2.65300985881919e-05)
(1.18144503559116e-05 0.000409249666294829 1.92554897669141e-05)
(3.49816773639944e-06 0.000877713703883029 3.95854118705708e-05)
(9.82281741940937e-06 0.000533048733676205 2.78622983859774e-05)
(1.60349750986437e-05 0.000290159395142758 2.03575101924607e-05)
(2.83854732959259e-06 0.000953132994567948 5.51928624947512e-05)
(8.52928555370656e-06 0.000762667861099679 4.10363945117556e-05)
(1.24231000885999e-05 0.000424736572175546 2.8639442890913e-05)
(1.74102972016287e-05 0.000208220799692978 2.01808421121366e-05)
(2.36491580435734e-06 0.00102277728805092 7.24673855529115e-05)
(7.14969624132451e-06 0.000874550935516786 5.67853675535119e-05)
(1.10132857466291e-05 0.000681688154738046 4.18670835966407e-05)
(1.23671656722018e-05 0.000337899860463201 2.87862320860602e-05)
(1.59987871801935e-05 0.000111301006609146 1.96810351013299e-05)
(2.06705698323216e-06 0.00109487094378635 9.12481808209122e-05)
(6.10259188507611e-06 0.000956760582034272 7.40898369447261e-05)
(9.49874478177042e-06 0.000806766105626021 5.78532666452779e-05)
(1.14693234560076e-05 0.000602017752952159 4.19850390238694e-05)
(9.91882473123513e-06 0.00024038140729748 2.80370037765458e-05)
(1.14634547268841e-05 -3.57057637828369e-06 1.83389717420145e-05)
(1.87840579286436e-06 0.00116781146855001 0.000111392390546974)
(5.39550103872619e-06 0.00103212068613674 9.28302493801916e-05)
(8.36477913104698e-06 0.00089328041271671 7.53310523982339e-05)
(1.02822357891912e-05 0.00073197412744808 5.8039216492644e-05)
(9.90575371616216e-06 0.000508716297717743 4.09166823034055e-05)
(5.23812249678181e-06 0.000130922070699545 2.61990668124412e-05)
(4.6006117416813e-06 -0.000133177521433927 1.60771247947409e-05)
(1.74139856999122e-06 0.00123863089998202 0.000132805390177459)
(4.92854581415151e-06 0.00110473252444149 0.000112949406876883)
(7.6064310065257e-06 0.000968532714721195 9.41856687183263e-05)
(9.36252639547234e-06 0.00081951957648871 7.5637150445694e-05)
(9.42589374786653e-06 0.000641412067997855 5.68357820831788e-05)
(6.54071591025496e-06 0.000402360371107002 3.85741570579206e-05)
(-1.11110019510105e-06 1.20351612253535e-05 2.32441834937588e-05)
(-3.70530621345612e-06 -0.000273158181564373 1.2890938098548e-05)
(1.62415050524011e-06 0.00130500928765617 0.000155502402724606)
(4.60981404824074e-06 0.00117427508181686 0.000134428576512112)
(7.11992257268313e-06 0.00103931298541497 0.000114424290599984)
(8.80226786586297e-06 0.000893588868241858 9.46101740745307e-05)
(9.06409789481097e-06 0.000729441429854268 7.44394277811449e-05)
(7.11868024517719e-06 0.000536908436498715 5.42692592435693e-05)
(1.85913670779698e-06 0.000285690634630095 3.51397218992746e-05)
(-8.41201171646411e-06 -0.000113652017111456 1.93861159456825e-05)
(-1.28002210585118e-05 -0.000419090370638428 9.12515921137303e-06)
(1.53113261212482e-06 0.0013654420640624 0.000179622032920387)
(4.36745045287459e-06 0.00123947627638165 0.00015734576706917)
(6.82280630646937e-06 0.00110676323475075 0.000136094874414209)
(8.55266356184961e-06 0.000962408944724041 0.000114961603991375)
(9.01583787454506e-06 0.000802846225781616 9.34267148649336e-05)
(7.64459561456031e-06 0.000625600482721042 7.17751539293042e-05)
(3.77931955230117e-06 0.000421959822087112 5.06541773599712e-05)
(-3.57163735884609e-06 0.000161610576136294 3.11308055160975e-05)
(-1.60403770776016e-05 -0.00024376871185718 1.54398256804677e-05)
(-2.21508512091745e-05 -0.000567236206992227 5.90736314866172e-06)
(1.4500809219906e-06 0.00141902903572164 0.000205378151398865)
(4.18389718910509e-06 0.00129913462322951 0.000181873672498239)
(6.65137114117933e-06 0.00117025685683181 0.000159325994509888)
(8.52348716892009e-06 0.00102798001567466 0.000136793849872523)
(9.27844252876483e-06 0.000870658688343977 0.000113767187918763)
(8.40594251312782e-06 0.000699189983559935 9.05938081672055e-05)
(5.44703498284162e-06 0.000511891338513451 6.78879150037648e-05)
(-1.38542798405905e-07 0.000300014339265009 4.6457268301364e-05)
(-9.28963107499386e-06 3.31616126814698e-05 2.74220927553216e-05)
(-2.35906378293041e-05 -0.000375582741668823 1.27821919989489e-05)
(-3.12803147739885e-05 -0.000713545489963747 4.56001496156539e-06)
(1.37246376128324e-06 0.0014653310398002 0.000233012085709448)
(4.03045385171824e-06 0.00135253494305648 0.000208285980639911)
(6.56118793283633e-06 0.00122905127809557 0.000184410303738426)
(8.65222656006407e-06 0.00109041062699103 0.000160389565120803)
(9.78415573900382e-06 0.000935762139110548 0.000135715333996351)
(9.45202007226233e-06 0.0007675255839152 0.000110792672997316)
(7.25977183513969e-06 0.000587101810629071 8.63077494278137e-05)
(2.86631302508402e-06 0.000392742385381545 6.30881926396746e-05)
(-4.20824831234499e-06 0.000175773839460376 4.21948799609438e-05)
(-1.4902904366359e-05 -9.37243931480222e-05 2.49945349237632e-05)
(-3.09581637764001e-05 -0.000500250469793136 1.3446827521212e-05)
(-4.16114813125896e-05 -0.000844323949129569 9.18323596165574e-06)
(1.29969180794058e-06 0.001504529668325 0.000262801555299623)
(3.91459807410929e-06 0.00139948645232215 0.000236916343209488)
(6.54586337275471e-06 0.00128258850257496 0.000211708232618976)
(8.89749339253649e-06 0.00114902528518344 0.000186113610698214)
(1.04621463188229e-05 0.000998261284250516 0.000159637177936371)