/*--------------------------------*- C++ -*----------------------------------*\
  =========                 |
  \\      /  F ield         | OpenFOAM: The Open Source CFD Toolbox
   \\    /   O peration     | Website:  https://openfoam.org
    \\  /    A nd           | Version:  12
     \\/     M anipulation  |
\*---------------------------------------------------------------------------*/
/*   Windows 32 and 64 bit porting by blueCAPE: http://www.bluecape.com.pt   *\
|  Based on Windows porting (2.0.x v4) by Symscape: http://www.symscape.com   |
\*---------------------------------------------------------------------------*/
FoamFile
{
    format      ascii;
    class       volScalarField;
    location    "200";
    object      k;
}
// * * * * * * * * * * * * * * * * * * * * * * * * * * * * * * * * * * * * * //

dimensions      [0 2 -2 0 0 0 0];

internalField   nonuniform List<scalar> 
10107
(
0.000184040431851833
0.000101843824562626
0.000649167384182622
0.000145642120909627
4.44324251108172e-05
0.000345003312522271
6.37600481036786e-05
0.000691710739773957
0.000654588142372213
0.000502550649711519
1.46517477287168e-05
0.000132804213963747
3.61597771202063e-05
0.000466124000194668
0.000361938763796738
7.9330579109298e-05
0.000264964316401968
0.00072723792576526
0.000991531322251349
0.000699896792385351
0.000665719711419476
0.000762322898274085
0.000651827318116414
0.000604374358465572
0.000636455617740912
1.10676909181396e-05
2.87950209439058e-05
0.000227218252718352
0.000119179319091129
2.78627558090276e-05
0.000511084975934278
0.000456455124450192
0.000269887072392193
0.000383184783688484
0.00048149571962325
7.22649487433854e-05
0.000303352171276796
0.000330995597555422
0.000459457522261906
0.000752758261892141
0.000992931131439058
0.000717749902885985
0.00124453371405962
0.000999753807863532
0.000699648912013718
0.000595946092410756
0.000680659412924619
0.000768089934675245
0.000698174296445821
0.000615977539372891
0.000653082346649378
8.40888036528696e-06
2.3214488001871e-05
4.97059902855991e-05
0.000281616478487061
0.000215477249772074
0.000103474217393528
2.69725885672652e-05
0.000530111715587489
0.000489863030261967
0.000385433933518557
0.000513237723920403
0.000188857400260011
9.63847376060587e-05
0.000641990189026853
0.000492099984169461
0.000562827736097014
0.000762436087843964
0.00100110675433018
0.00073796359636343
0.00124082139854809
0.000989639778031439
0.000670619095872114
0.00145503556546696
0.00124268648207564
0.000972054078847826
0.000591453336058721
0.00067863623639627
0.000707172719905177
0.00066406537316079
7.23353969402873e-06
2.01043696761448e-05
4.19995846857421e-05
6.66995279398839e-05
0.000307313124178258
0.000260395147015868
0.000158167139952583
3.39803180776587e-05
0.000534995460672001
0.000505539296085756
0.000411732046505982
0.000246834006143606
0.000197353680933421
0.000627745521694041
0.000115730180599953
0.000577550807496544
0.000762666558346332
0.00100266357524185
0.000747119630882914
0.00123723879093136
0.000995187760723531
0.000693862152141174
0.00145263622508567
0.00123817337829003
0.000973547153143638
0.000634429936384558
0.00164154074201829
0.00145170807596732
0.00122979513711762
0.000961118050297893
6.62360296741173e-06
2.7842153330289e-05
5.6704743137043e-05
7.65376645116983e-05
0.000315387172139423
0.000280641730763126
0.000186292959036354
4.05203308483425e-05
0.000530594626114469
0.000509740996992476
0.000425406971117779
0.000240979923457228
0.000257559009351468
0.000649345993043068
0.000203943598762672
0.000123018794323207
0.00075574564535584
0.000998742256736948
0.000747240988197404
0.00123304108440428
0.000996755640016954
0.000703756070633713
0.00144836824416819
0.00123433787153434
0.000982092164435978
0.000648716149769195
0.00164041214861027
0.00144936739984634
0.00122706769941626
0.000962412794371978
0.000650981302315448
0.00163724890071317
0.00143907307917992
0.00120965842934528
0.000946930986850114
6.01537788202517e-06
3.30583283159211e-05
6.37141927708957e-05
7.86637105043616e-05
0.000313034298127725
0.000286805187951437
0.000199742053679973
4.4369363046457e-05
0.00051900485853424
0.000505323748143453
0.000430428195040067
0.000237802652874905
0.000245170837761088
0.000642901304416964
0.000258558071670274
0.000205080192072194
0.000125886203933679
0.000742623023307367
0.000989853462859805
0.000740262077344254
0.00122621389460283
0.000992966976493609
0.000703753710313697
0.00144238856228961
0.00123033798946572
0.00098405447039528
0.000657746061355639
0.00163691336055159
0.00144519038195414
0.00122455429108594
0.000966246018956289
0.000655412787711522
0.00163621632610717
0.00143731739342736
0.00120893609446879
0.000946982215367888
0.000642558201398379
0.00162298218343509
0.00141638703339902
0.00118322564907963
0.000923439229651156
6.54700689253105e-06
3.67444651220539e-05
6.60272706069169e-05
7.80065402540426e-05
0.00030333848545569
0.000284578968178884
0.000205240745886685
4.6739277967771e-05
0.000500378549694833
0.000493742848184299
0.000426684445165202
0.000232393881128231
0.000245897104445754
0.000620793184835881
0.000245391101623188
0.00025680296369585
0.000204506698393769
0.000123325663466623
0.000723310724603746
0.00097622881862807
0.000727160553424011
0.00121608030537785
0.000984174769431689
0.000696609064582876
0.00143419349171202
0.00122370071391568
0.000980310687291638
0.000656733650501896
0.00163064680774031
0.00143934991478702
0.0012210698588468
0.00096676502408864
0.000656169562739417
0.00180791465014951
0.00163280020855986
0.00143371728685835
0.00120744376896151
0.000947190458082322
0.000642369354442313
0.00162222985349739
0.00141549127342078
0.00118284966550915
0.00092286313568541
0.000621371394703713
0.00159763099782308
0.00138403301057843
0.00114867675418179
0.00088938342658
6.56732967398324e-06
3.72627868520554e-05
6.48599556929645e-05
7.32687442769866e-05
0.000287373092198381
0.000275340367708224
0.000204559263490538
4.6819520915746e-05
0.000472120281206065
0.000475557912467137
0.000415237654742872
0.000211795672517286
0.000231867622318874
0.00059132233340147
0.000245127395154719
0.000244908385442636
0.000253512335463586
0.00019890218105477
0.000118466109783987
0.000696562497523521
0.000958044760237992
0.000708139421563161
0.00120254886700536
0.000970681074095944
0.000683614228508137
0.00142333202790889
0.00121371579437157
0.00097161760622977
0.000649306871614023
0.00162187037799346
0.00143129529828404
0.00121469369368312
0.000962530338162098
0.000652625454926599
0.00180150739668328
0.00162663655769946
0.00142826657303695
0.00120409817239553
0.000945296062706939
0.000640486121563704
0.00196446181762379
0.00180298951260888
0.00161909670776872
0.00141266232263424
0.00118116911866236
0.000921551287083501
0.000620070871436168
0.00159730752758602
0.0013836478017497
0.00114828189416469
0.000889004529037785
0.000590588701024333
0.00156140824943948
0.00134278430619342
0.00110582881382501
0.000847725324918425
6.27487430121624e-06
3.63521268645728e-05
6.1235339828602e-05
6.71127213063881e-05
0.000261305881783513
0.000259903540023893
0.000196730475195187
4.43753747904606e-05
0.000424992504549056
0.000449668628350144
0.000397783570929773
0.000188484389122625
0.000210943977666214
0.000554615456743115
0.000231014210057666
0.000245085869118214
0.000248997559050088
0.000248666641887272
0.000192140347765846
0.000110064099909331
0.000659942040830534
0.000935519159952911
0.000682488520428257
0.00118599070191066
0.000952740552199391
0.000665365918464374
0.00140972164802486
0.00120032866889442
0.000958445780810057
0.000637160092383259
0.00161047617941556
0.00142055765977808
0.00120494490114876
0.000953907212018091
0.000645387056096503
0.00179239493608069
0.00161795855351947
0.00142048056482178
0.00119782976024445
0.000940278597185893
0.000637659447777158
0.00195818211691937
0.00179669221761642
0.00161319109807655
0.00140766675794868
0.00117747838498374
0.000918524642603951
0.000617347808536798
0.00210895457424548
0.00195899247614726
0.00178738060744172
0.00159461225274152
0.00138128334761578
0.00114636327744176
0.000887265170459733
0.000588924482501875
0.00156147062970217
0.00134263013246287
0.0011055243708532
0.000847172390570201
0.000553656639146927
0.00151544923726755
0.00129332579277112
0.00105561391502983
0.000799818672720089
5.65906730135072e-06
3.40892473703659e-05
5.56245806725692e-05
5.74959107499547e-05
0.000217171066532671
0.000236542739255336
0.000183429134305557
4.00609870321539e-05
0.000329936184029783
0.000411212973331027
0.000375548484245425
0.000164082100430721
0.000187599225181104
0.000513345611401852
0.000210190786171901
0.0002298152295017
0.000243939188517038
0.000247345234615402
0.000242372772696393
0.000180244544061671
0.000103081155505618
0.00061078292166446
0.000910883717155759
0.000646983296280219
0.0011675552420437
0.00093049738053118
0.000642763797911617
0.0013936804815208
0.00118392894745957
0.000941223599149104
0.00062057995073125
0.00159642332665475
0.00140705803905703
0.00119185080589159
0.000941350947665457
0.000635016300355796
0.00178051463360543
0.00160665406759042
0.00140997149360485
0.0011883387828517
0.000931886508352749
0.000631467393966417
0.00194888784677493
0.00178766222322734
0.00160472827067697
0.00140018465166186
0.00117117316582353
0.000913445087553535
0.000613320819589897
0.00210286846890778
0.00195281608283961
0.00178128757900386
0.00158907681236327
0.00137659076389512
0.00114245513861235
0.000883827377761241
0.00058606733055256
0.00224272614485071
0.00210309962623081
0.00194191275862534
0.0017600842919977
0.00155918410283021
0.00134048415894631
0.00110356014393441
0.000845317945329137
0.00055193382728965
0.00151579079900463
0.00129333316005516
0.00105535363157923
0.000799228101471359
0.000512364132127006
0.0014608248877802
0.00123634888816941
0.0009989142023639
0.000746666360457901
4.78131362401477e-06
3.04685347364273e-05
4.81088076493906e-05
4.52976328643802e-05
0.000143991842844174
0.000198836862403858
0.000163333615721194
3.55499990698709e-05
0.000115079854649848
0.000324402265541385
0.000349872497623414
0.000139277306801783
0.000163183843784546
0.00046861530410221
0.000186779757367295
0.00020864173543602
0.000227736680020952
0.000241959670814866
0.000248218849408865
0.000232891356575195
0.000169800505399679
0.000103618630286065
0.000589506914959017
0.000890529248496175
0.000613950352139658
0.00114987107522045
0.000904574635490597
0.000619632167938157
0.0013759727504565
0.00116571518534528
0.000920616437850866
0.000600690471127376
0.00157983647609155
0.00139110659815067
0.00117583194742044
0.000925230660902195
0.000621677621914816
0.00176579803498212
0.00159267568568916
0.00139668470890979
0.0011756787382066
0.000920305454026282
0.000622954668250787
0.00193656931109803
0.00177585027504569
0.00159360903329352
0.00138996617469128
0.00116197417289993
0.000905517233331517
0.000607531909674669
0.00209347710905946
0.00194359393628693
0.00177243458211169
0.00158091622734588
0.00136937821313209
0.00113623763765324
0.000878526915128715
0.000581919807072868
0.00223687275190259
0.00209711005633484
0.00193590675279722
0.0017542815530669
0.00155401886345931
0.00133599646748579
0.00109963812904778
0.000841907096736367
0.000549097418402627
0.00236654102948006
0.00223656767071901
0.00208485115450043
0.00191231632545575
0.00172125819761078
0.00151381227554224
0.00129135136050218
0.00105344652275871
0.000797397499940957
0.000510743734791578
0.00146137881911753
0.00123649173438091
0.000998722075866627
0.000746113313328527
0.000467751886240916
0.00139824605019909
0.00117242002134111
0.000936314213470003
0.000688837559063713
4.08754681995858e-06
2.56840938818443e-05
3.75490768691214e-05
2.64923520356621e-05
5.62248138190412e-05
0.000131035036331362
0.000130928303248086
3.37829689549677e-05
0.000158902899017465
0.000107570800739577
0.000314069887687169
0.00031428977786546
0.000114527080328763
0.000138537629527039
0.000420892622616755
0.000162420627867988
0.000185265389563471
0.000206351206889853
0.000224862784858779
0.000238610251678758
0.000242308432268979
0.000222525391023357
0.000162391355391458
9.18689156286706e-05
0.000584132445783511
0.0008809152043197
0.000583982185237368
0.00113511450263973
0.000892449526405412
0.000574997456241323
0.00061097106218807
0.00135745428105091
0.00114881513427591
0.000899474702716339
0.00061001991747103
0.00057860405548246
0.00156093410154305
0.00137348512974599
0.00115809610738391
0.000905887665845149
0.000606493972982897
0.00174821347949117
0.00157613828265107
0.00138090305070511
0.00116020315616317
0.000905898380954201
0.000612276822114207
0.00192113733493596
0.0017611868832821
0.00157978385550397
0.00137698103455502
0.00114989180995005
0.000894888232161147
0.000600059282887953
0.00208078026988712
0.00193133275503488
0.00176077473831619
0.00157006293342069
0.0013594891948139
0.00112741996442816
0.000871099020687354
0.000576382387371801
0.00222745090284751
0.00208778335571605
0.00192683644500082
0.00174569254614883
0.00154619321823075
0.0013290568883863
0.00109358267755512
0.000836790830261933
0.000545086555345935
0.00236096934048657
0.00223080514395406
0.00207900972731012
0.0019065464550538
0.00171578781453988
0.00150897196890509
0.00128707298362101
0.0010496801913402
0.000794122170410608
0.000508107292965911
0.00248082938457883
0.00236012424055802
0.00221734432915223
0.00205332693405635
0.00187056170425691
0.00167201714057863
0.00145964679403257
0.00123468020648901
0.000996933128012475
0.000744407198430959
0.000466362429119082
0.00139897838306568
0.00117269568816739
0.000936221525317069
0.00068841726809156
0.000420288481297584
0.00132818588747975
0.00110195392389503
0.000868175665923886
0.000626666098233845
4.29242834571059e-06
1.86515530556168e-05
2.24143917979841e-05
1.04355289306361e-05
5.03036752189847e-05
7.69296022644379e-05
2.72400239796684e-05
0.000178305449212033
0.000133804454717804
7.79394411578416e-05
0.000411754240206557
0.000232315707152197
0.00024381726025689
0.000416628960122916
0.000245425739910303
9.02310275067481e-05
0.00011404107334014
0.000370355692645528
0.000137981103332047
0.000161096929073365
0.000183117042147525
0.000203393495342553
0.000220972569365921
0.000233339383141679
0.000234518430017912
0.000212133224251817
0.000170903821056249
0.00055683835913124
0.000860651244570035
0.000583209475265249
0.0011188789109691
0.000892701152094198
0.00058427902542453
0.000427820786626544
0.000676283356848342
0.00133769823917131
0.00113530125824862
0.000895576016040407
0.00056514483112864
0.000485861176397206
0.000676704923229175
0.000584259832892252
0.00153972585258824
0.00135509012941016
0.00114184967477286
0.000883682348508538
0.000480068257371047
0.000592323567294381
0.000591921244681743
0.000570612292538182
0.0017277011716535
0.00155725348461652
0.0013633515201759
0.0011427800764714
0.000889226278313789
0.00060028979523737
0.0019024796731216
0.0017436342388691
0.00156334361566667
0.00136144049922405
0.00113519687400188
0.000882172262338159
0.000590847185712254
0.00206467395587137
0.00191594618098524
0.00174623555586262
0.00155647026932578
0.00134689660674285
0.00111599946856494
0.000861608336580391
0.000569425504944326
0.00221444357013812
0.00207513856193984
0.00191470884371
0.00173427006334285
0.00153566762224212
0.00131955067622648
0.00108523544215336
0.000829885477196502
0.000539881818247261
0.00235159352949818
0.00222144243916047
0.00206981815109723
0.00189770726981502
0.00170752149471189
0.00150149283032996
0.00128044248459637
0.00104392855796584
0.000789310982774017
0.000504403678291069
0.00247563627264568
0.00235463911674676
0.00221171367129443
0.00204768551491126
0.0018650788430417
0.00166688300802775
0.00145511029796267
0.00123065423537557
0.000993387724629617
0.000741377878553041
0.000464055221802575
0.0025858058777894
0.00247418545555939
0.00234005771324836
0.00218416407296362
0.00200901334024389
0.00181790259046288
0.00161351924497212
0.00139747179608622
0.00117107216650419
0.000934599394401321
0.00068693583052986
0.000419244146185233
0.00132907750883827
0.00110236589537712
0.000868218908837653
0.000626459292434331
0.000370134199716353
0.00125100584513963
0.00102525124918075
0.000794735411390867
0.000560266362359069
4.11482141606894e-06
1.06676987129998e-05
8.89233042606802e-06
3.0272123223508e-05
0.000198062072398322
0.000155828804783871
0.000187576489611726
0.000149005679951353
0.00038892559761358
0.000389920420852093
6.68521595650187e-05
9.00515114161101e-05
0.000317061585718191
0.000113760097980016
0.000136920913322341
0.000159212812461672
0.000180393620067376
0.000199737630424091
0.000216166642677786
0.000227139794094311
0.000226806894362695
0.000206111035191082
0.000212666450167009
0.000544317824496839
0.000830562537910366
0.000557098844557873
0.00109280015095527
0.000870710289864018
0.000571983313738442
0.000447168950662057
0.000670719137941962
0.000583303388194718
0.0013140668345309
0.00111896973834068
0.000884057183552246
0.0006178620107717
0.00052753700220776
0.00151557217547066
0.00133536306515081
0.00112811235222665
0.000871858181078418
0.000572546632903144
0.000564586861505966
0.000473968670014554
0.000575843018617772
0.00170403564622145
0.00153602810688789
0.00134483138585263
0.00112563442817894
0.000872215762753096
0.00047386879864481
0.000588552007719618
0.00058228991182632
0.000563879113922072
0.00188043131335557
0.00172312857830232
0.00154446527938517
0.00134387633780295
0.00111845006531903
0.000867809515811883
0.000580574790229314
0.00204501171892436
0.0018973203254663
0.00172876780475572
0.00154018800866102
0.00133172877959634
0.00110224342305888
0.000850234661868702
0.000561138711308243
0.00219773868669061
0.00205907697299972
0.0018994380484099
0.00171993801084678
0.00152239501858112
0.00130744860606243
0.00107459924134889
0.000821201945310417
0.000533485068721287
0.00233834389402816
0.00220848448551189
0.00205729756633928
0.00188579821339689
0.00169641300559964
0.00149135142291789
0.00127138772256168
0.00103610719753776
0.00078291631418717
0.000499640832541316
0.0024664324290982
0.0023453182894432
0.00220247416606104
0.00203870150509443
0.00185653728989865
0.00165897423875228
0.00144799869465152
0.00122438911416021
0.000987997543057171
0.000736948276316509
0.000460770956244245
0.00258121656129983
0.00246907493469825
0.00233469187032433
0.00217870711681752
0.00200362203660852
0.00181273430491146
0.00160871933789967
0.00139324564957294
0.00116733034807566
0.000931330884175923
0.000684237751210892
0.000417352314441486
0.00257897270815874
0.0024533775589595
0.00230542735117106
0.00213759574609485
0.00195329777085985
0.00175554265604737
0.001546522280775
0.00132779243740015
0.00110095066418939
0.000866826356019132
0.00062528319027669
0.000369537374441396
0.00125204190156491
0.00102580340642087
0.000794960942630674
0.000560345475379801
0.000317332800122983
0.00116700032832708
0.000942518717279947
0.000716107236106924
0.00048962354658477
4.95404583366905e-06
0.000191523954810285
0.000198503220510458
0.000198676289897337
0.000421676778258597
0.000446352368114926
4.50156613532817e-05
6.7001328316142e-05
0.000261038912214731
9.00950071379697e-05
0.000113008652757575
0.000135347489401749
0.000156841794372072
0.000177135734410661
0.000195452780338683
0.000210769640357638
0.000220591964550053
0.000221491777414561
0.000216733083565925
0.000194491897305396
0.000527987860911576
0.000807457012911558
0.000544936728330471
0.00105845159350567
0.000831652352887489
0.000556876380093994
0.0012838154143702
0.0010917948223183
0.00085106356309983
0.000569372913704231
0.000527059845492011
0.000613930151502882
0.00148720662985155
0.00131148356602121
0.00110951523648478
0.00085637264817312
0.000668546665089889
0.00167671525199895
0.00151181428587708
0.0013246460433655
0.00110926065634973
0.0008579136221586
0.000571808587009587
0.000572351128296305
0.00056899653955419
0.0018547239324359
0.00169944895026813
0.00152313473211127
0.00132483236310048
0.00110078306687736
0.000852800759478656
0.000569951685976622
0.000578159851386027
0.00057458533719677
0.000558166227542132
0.00202159588717927
0.00187529077547816
0.00170829869706634
0.00152132339981372
0.00131428637796196
0.00108648744572391
0.000837323097237654
0.000551862091952855
0.00217718126442958
0.00203945342964835
0.00188090824492621
0.00170263214320417
0.00150638110582715
0.00129282164968029
0.00106179361953635
0.000810828624263989
0.000525973917235255
0.00232111992444535
0.00219182605250582
0.00204135305051453
0.00187073156384526
0.00168238314888229
0.0014784979078604
0.00125987814958023
0.00102621362824842
0.00077493647343589
0.000493844103174128
0.00245298889794648
0.00233211639914241
0.00218963531385359
0.0020263887557968
0.00184493024044057
0.00164824697579747
0.00143830130263295
0.00121584082942175
0.000980720544932701
0.000731087171538216
0.000456524555182997
0.00257241877101035
0.00245992097888383
0.00232548520706765
0.0021696577756791
0.00199491314892191
0.00180453970638318
0.00160119709959695
0.0013865334299721
0.00116146809331199
0.000926358019156362
0.000680253393605816
0.000414548564494197
0.00257445168271932
0.00244837582287301
0.0023002146344099
0.00213235924455205
0.00194819392122411
0.00175070394811218
0.00154206220840061
0.00132389130574376
0.00109752283156515
0.000863898557075929
0.000622984812854162
0.000368134980924899
0.00255752329149998
0.00241746510987298
0.00225685728901726
0.00207913997298198
0.0018874535579772
0.00168423405216119
0.00147149416312198
0.00125097989499544
0.00102461908658386
0.000793848741905555
0.000559546345331696
0.000317283267358301
0.00116816686574199
0.000943227666617727
0.000716549124791064
0.000490055666082982
0.000261898856865599
0.00107638812843895
0.000853892593088018
0.000632278112974443
0.000414676880930808
0.00018719398016891
0.000193486037280163
0.000207348334280824
0.000564928749804114
2.59614843999078e-05
4.54368614421e-05
0.000202577213881167
6.73877262619449e-05
8.96967443631558e-05
0.000111774703577432
0.000133334685201973
0.000154016931266069
0.000173354284665016
0.000190627784919302
0.000204947634910592
0.000214127917627975
0.0002184313877039
0.000215712818281807
0.000201992979109944
0.000506024914427286
0.000779638035559334
0.000528307141688993
0.00102249992407999
0.000806147375985488
0.000545102001739618
0.00124741100965993
0.00105633865268704
0.000822722372475238
0.000554124991160787
0.00145356751050464
0.00128093875356645
0.00108086859456643
0.000834370359420703
0.00164506005762069
0.00148336888436361
0.00130009745730556
0.00108827377410903
0.000841813026622574
0.00182496825515133
0.00167211086505902
0.00149873726824613
0.00130367792770286
0.00108239566358012
0.000837692328150275
0.00199416219611187
0.00184959616909224
0.001684616617972
0.00149982429972372
0.00129484187355913
0.00106920550183619
0.000823284876708658
0.000541813982550773
0.000559030288301801
0.000567255584598238
0.000563645941932938
0.00215256846139263
0.00201607243402135
0.00185895720944635
0.00168226427599785
0.00148765398958745
0.00127580186537849
0.00104699114716598
0.000798939656852955
0.000517468395700236
0.00229977810854734
0.00217131454893497
0.0020218421064629
0.00185238920033751
0.00166535284488581
0.00146290417195173
0.00124592537643541
0.00101428689973411
0.000765409355024312
0.000487038354519911
0.00243530557848169
0.00231494067104891
0.00217309778323319
0.00201065331261832
0.00183016839552092
0.00163462038304454
0.00142596622739196
0.00120497408596412
0.000971537675733259
0.000723787405552557
0.000451335933644986
0.0025587475332469
0.00244652444361186
0.00231239880762362
0.00215702005662826
0.00198289387161646
0.00179330947283801
0.00159091315189242
0.00137733463375501
0.00115345846242594
0.000919646159935374
0.000674958136698684
0.000410852536609411
0.00267000199038723
0.00256568460952496
0.00243932612241956
0.00229118451350746
0.00212356622253016
0.00193981629451405
0.0017428953269814
0.00153495688861167
0.00131760893963171
0.00109209663746282
0.000859388875145816
0.000619497554133716
0.000365860278636875
0.00255309136480815
0.00241259949330176
0.00225184028347415
0.0020741645909948
0.00188266240811533
0.00167973711422628
0.00146738456141036
0.00124742091552919
0.00102154243997624
0.000791310146691326
0.00055770784834311
0.000316447105343861
0.00252048323277757
0.0023671104279788
0.00219593935436148
0.0020101425715534
0.00181224594843887
0.00160442577874855
0.00138879190297818
0.00116733138776042
0.000942306230123856
0.000715760303041783
0.000489702029991001
0.000262489153090155
0.00107767411731198
0.000854767638900021
0.000632967936665398
0.000415527703686645
0.00020406236381799
0.000979299588184883
0.000759360772282179
0.000543175064768784
0.00033561326388965
0.000176640198138105
0.000188378799699418
0.00019900699237698
1.17549834746339e-05
2.64986500008421e-05
0.000143085067668629
4.60985862054605e-05
6.73708036758362e-05
8.88364906315786e-05
0.000110137255048512
0.000130921888952393
0.000150747543789141
0.000169063901777705
0.000185273037022918
0.000198583992178058
0.000207473410836433
0.00021134891999666
0.000207370254992698
0.000200280924994775
0.0004803918580673
0.000747791952801626
0.000506243570815751
0.000985178131931908
0.000778330122450182
0.000527559997923793
0.00120707859409804
0.00102010881189563
0.000800521373758035
0.000541667743631934
0.00141466563932651
0.00124437177083479
0.00104637685342573
0.000814251677186252
0.000550118765858628
0.00160852474005502
0.00144970790974201
0.0012692936413117
0.00106058451923342
0.000821990094763589
0.00179071780512447
0.00164046297802724
0.00147015198447786
0.00127838979204834
0.00106083012881591
0.000820781495198711
0.00196238464980925
0.00181986097060476
0.00165727835413157
0.00147517743977968
0.00127298096687526
0.00105032754601868
0.000808088760489366
0.00212364712926951
0.0019886749966492
0.00183333754207667
0.0016586355020998
0.00146612829771942
0.00125647479174445
0.00103034978905078
0.000785652693611297
0.000507989931453019
0.00053080437120694
0.000546702927760433
0.000553567895203842
0.00227412163995422
0.00214674942219881
0.00199857471408156
0.00183061224356843
0.00164521857825215
0.00144453939954614
0.00122956592597147
0.00100038663329838
0.000754390396331495
0.000479248816626999
0.002413275079764
0.00229365022318268
0.00215271338596876
0.00199135584562022
0.00181213219554078
0.00161800474481638
0.00141094069849502
0.00119176820819202
0.000960445163696683
0.000715052361079597
0.000445214200873269
0.00254062420117418
0.00242889093011621
0.00229534722557885
0.00214069749391146
0.00196747075185083
0.00177895460179274
0.00157778730049665
0.0013655967405116
0.00114326653733355
0.000911169132710767
0.000668341702812299
0.000406286710263763
0.00265586605012094
0.00255206675883797
0.00242604208541482
0.00227829389099857
0.00211121526095395
0.00192816894232548
0.00173210817429594
0.00152517303321517
0.0013089526631289
0.00108466092649864
0.000853269196763266
0.000614800296449449
0.000362742790111312
0.00275859354429584
0.0026630243816514
0.00254440391410641
0.0024037122975564
0.00224305031154615
0.00206568654996979
0.00187466181388416
0.00167234927232609
0.00146072625959977
0.00124159759318716
0.00101659564485684
0.000787305043189571
0.000554763464967425
0.000314758030686068
0.00251616488310107
0.0023624187545679
0.00219115882502069
0.00200545889985797
0.00180778592912053
0.00160028243814942
0.00138504514520612
0.00116413302573116
0.000939616128524138
0.000713654492808954
0.000488381649836534
0.000262293085972038
0.00246854093117936
0.00230397778683827
0.00212408416801605
0.00193139041873235
0.00172811354755096
0.00151646485504085
0.001298717746168
0.00107707493536583
0.000854131621470408
0.000632544393950152
0.000415688597988455
0.000205331622580217
0.000980702247905452
0.000760411072787354
0.000544148456997982
0.000336946211153029
0.000145082586912071
0.000875691499750595
0.00065878363634291
0.000448949315052519
0.000253433844248896
0.000164023547571438
0.000178170712807584
0.000191372225856522
3.95330342838881e-06
1.21596195822127e-05
8.5930798369019e-05
2.72287658666879e-05
4.64372896313866e-05
6.69128082685374e-05
8.7596935343316e-05
0.000108147600406967
0.000128123494120418
0.000147026265839727
0.00016424820093818
0.000179276275651404
0.000191309474400414
0.000199115787080599
0.000201378623498675
0.00019808959420078
0.000191416673455634
0.000451746095630443
0.000712337322272332
0.000480410107461368
0.00094501314831327
0.000746530111179741
0.000504929967370072
0.00116375847430251
0.000982958839633718
0.000773127089405681
0.000522647269909859
0.00137119535460057
0.00120408341931092
0.00101135477200062
0.000790668063506537
0.000532709673374909
0.00156696119286458
0.00141087181241078
0.00123306308383457
0.00102907346898303
0.000799915762583182
0.000536367175238544
0.0017515977526875
0.00160398859834034
0.00143656881289782
0.00124786333090305
0.00103494606864377
0.000800799228524042
0.00192591425876927
0.00178565579506494
0.00162569996925894
0.00144651234659827
0.00124753796812009
0.0010287836928693
0.000790917730397358
0.00209012449830682
0.00195694358000334
0.00180370190326482
0.00163136814219625
0.00144143091855956
0.00123458120418805
0.00101172606413199
0.000770816758391495
0.00224390631920603
0.0021178811333534
0.00197130347127983
0.00180517160945799
0.00162179658209531
0.00142329795772212
0.0012107839582517
0.000984525526406938
0.000741873198700293
0.00047043772880519
0.000497354158381498
0.000518211815465159
0.000531767255981769
0.00238670822068097
0.00226805022463427
0.00212828726394314
0.00196831409376789
0.0017906667208692
0.00159828711927402
0.00139316037306053
0.00117620376189227
0.000947436339327817
0.000704877096455008
0.00043815065707824
0.0025179822422156
0.00240691545781509
0.0022741942818302
0.00212054692539401
0.00194850819119838
0.00176135605621361
0.00156172420610432
0.00135125367467089
0.00113085494413617
0.000900901026916854
0.000660390398265027
0.000400857302935913
0.00263730820791193
0.00253399704368309
0.00240853497023495
0.00226146148461936
0.00209521176723804
0.00191316024578401
0.0017182559628716
0.00151263307382276
0.00129787217357128
0.0010751786413454
0.000845512395524596
0.000608883085015676
0.000358816648302019
0.00274435662909074
0.00264898214858027
0.00253090105042647
0.00239061884317559