/*--------------------------------*- C++ -*----------------------------------*\
  =========                 |
  \\      /  F ield         | OpenFOAM: The Open Source CFD Toolbox
   \\    /   O peration     | Website:  https://openfoam.org
    \\  /    A nd           | Version:  12
     \\/     M anipulation  |
\*---------------------------------------------------------------------------*/
/*   Windows 32 and 64 bit porting by blueCAPE: http://www.bluecape.com.pt   *\
|  Based on Windows porting (2.0.x v4) by Symscape: http://www.symscape.com   |
\*---------------------------------------------------------------------------*/
FoamFile
{
    format      ascii;
    class       volScalarField;
    location    "200";
    object      nut;
}
// * * * * * * * * * * * * * * * * * * * * * * * * * * * * * * * * * * * * * //

dimensions      [0 2 -1 0 0 0 0];

internalField   nonuniform List<scalar> 
10107
(
3.49220523234114e-05
1.39928937070483e-05
0.000476954315843033
2.44027771139037e-05
1.07084899568689e-05
0.000206370087506803
6.97552980270347e-06
0.000711132458268444
0.000462450901739739
0.000204667233386484
3.60202437417262e-06
7.96837245543572e-05
7.74457044680203e-06
0.000490608461525227
0.000196759271918817
8.64015029871758e-06
7.85715441939597e-05
0.000998931112484333
0.00157345789679472
0.000690128769700308
0.000501739528121983
0.000672826933973657
0.000468661706097242
0.000369549964577733
0.000440250477300976
2.70332276836561e-06
8.13386248391951e-06
0.000183247566233254
6.98884927259065e-05
5.46788173157678e-06
0.000658025037993683
0.000471731346553387
0.000146278888443127
0.000256713108299718
0.000296411177633732
1.63093264586276e-05
0.000155111370307084
0.000167891891354009
0.000222764930269347
0.00119401209598253
0.00174781489915893
0.000956267739764063
0.00254638693424057
0.00160043096789164
0.000735318692090877
0.00045190852108787
0.000573890105314893
0.000836966008757699
0.000580083557805319
0.000425628449308104
0.000489136024023349
1.84922783318271e-06
6.51941452890383e-06
1.5488363220255e-05
0.000253557121622348
0.000172774113684362
5.59059589637334e-05
6.82311087866872e-06
0.000731727900638972
0.00058285993535468
0.000291694459560676
0.00035729645988648
3.96959824918447e-05
2.18504725649565e-05
0.000586448689944336
0.000302544068688335
0.000358804519961671
0.00128079998094589
0.00189824987827409
0.00110299621871652
0.00264630328945634
0.00171204607872256
0.00075254578104089
0.00346598294871259
0.00253858521908015
0.00147611360407542
0.000466895863963764
0.000640341833301728
0.000628186913088617
0.000540045528284153
1.71766916356812e-06
5.47660920630735e-06
1.26319689000217e-05
2.10285161872852e-05
0.000292336925765016
0.000229787059624333
0.000107128313525888
9.83337932328662e-06
0.000755419621092908
0.000632672213888994
0.000333695762916536
6.62027732436808e-05
3.82299008275297e-05
0.000468409779474848
2.60427399069147e-05
0.000419932045679526
0.0013098073008118
0.00197348936796271
0.00117109802491771
0.00272683444484283
0.00183222492593852
0.000848697564965971
0.00352969697868339
0.00261982046355791
0.00158390945798263
0.000479917980429304
0.00432141033218995
0.00345356131659427
0.00247791081482037
0.00138894525756786
1.65703450694286e-06
7.90425744434026e-06
1.73205682681008e-05
2.45140425282981e-05
0.00030543788541607
0.000257263546444949
0.00013556116661729
1.22129323179083e-05
0.000752903558654489
0.000650599399480534
0.000355991535098806
6.86877056145079e-05
7.88924310650452e-05
0.000542804639309065
3.89505389756517e-05
2.72875917320654e-05
0.00130649890074244
0.00199993430844013
0.00119369507289295
0.00277591592093126
0.00189578869893575
0.000894556235481889
0.00357873101519399
0.00268763372557424
0.00167999541827928
0.000520211000641153
0.00436313208902202
0.00351002429310194
0.00254214005712577
0.00142313633351279
0.000560585673704989
0.00430773419486025
0.00341105641200999
0.00239492088112077
0.00138700930555357
1.49449490127856e-06
9.33927769432979e-06
1.93544057194454e-05
2.49656080341011e-05
0.000303463293837969
0.000265044412105402
0.000148961911621628
1.35322755448219e-05
0.00073346606315276
0.00064841080287715
0.000369803703407849
6.82059922524212e-05
6.89759552243332e-05
0.000567588432440023
7.84604193355894e-05
3.90097960402964e-05
2.79192805787521e-05
0.00128070667866605
0.00199469452074446
0.00118904524344363
0.00279354432391248
0.00191763371574117
0.000907783838153374
0.00360804284651247
0.00273060614385402
0.00172767139616366
0.00055394990759748
0.00439416184500712
0.00355351345228681
0.00259565349385888
0.00147213604351987
0.00057753223905276
0.00434619553305641
0.00345647434796692
0.00243173756070894
0.00140371598610592
0.000569093993252022
0.00426918869004493
0.00334212858864426
0.00233956062156442
0.00137792488133049
1.61588866069512e-06
1.02584535379342e-05
1.99268863671592e-05
2.47744354680033e-05
0.000291866940751761
0.000263334815814908
0.000155390963214194
1.43504916608755e-05
0.000697933056907857
0.000630829377978834
0.000369813785837961
7.8023129410415e-05
8.27738578729857e-05
0.000564963110984386
6.8920693415394e-05
7.76580026495968e-05
3.88658332441347e-05
2.71834828286262e-05
0.00123186287850414
0.00196501128324043
0.00116448917849359
0.00278554346881853
0.00191114059987507
0.000901231348459696
0.00361656149989965
0.00274557445141546
0.00174169261692844
0.000559588021823915
0.0044106867299946
0.00357957659608389
0.00262884920705269
0.00150281407416517
0.000585467554527327
0.00514834630598504
0.00437461018001948
0.00349136116012972
0.00246615693541767
0.00142134769923566
0.000572276621127516
0.00430155268338135
0.00337291318171978
0.00235841912574789
0.00138293089925657
0.000582342332490918
0.00420394101398939
0.00326618108255385
0.00228763550869733
0.00135283095134889
1.61398572029185e-06
1.03388781734621e-05
1.94833656391598e-05
2.28531735927349e-05
0.000273296598192491
0.000253464424484448
0.000156748592707398
1.43671176315849e-05
0.000633784910147613
0.000599513444619867
0.000356720398029247
7.08510210333824e-05
7.78760347797769e-05
0.000563147258494608
8.24407907327104e-05
6.89519554239269e-05
7.64627614484836e-05
3.74275247655164e-05
2.60669565409271e-05
0.00114563419193574
0.00191023399640109
0.00111970061114638
0.00275571925400679
0.00188232187242076
0.000880221691463066
0.00360565922206661
0.00273688636681365
0.0017329954858779
0.000552868574117906
0.00441189956315344
0.00358657392154558
0.0026387026799204
0.00150893932234853
0.000585540497932824
0.00515628740637133
0.00438945987344646
0.0035116928962032
0.00248710261818049
0.00143075279469826
0.000574334183992592
0.00583312472375536
0.0051309955096032
0.00432509208976882
0.00339686461583185
0.00237441804843463
0.00138755531265865
0.000583283442526156
0.00422809022908418
0.00328452432216317
0.00229599309703689
0.00135929983580363
0.000564098080989974
0.00411883228894659
0.00318551106266482
0.00222938099340324
0.00131705507565594
1.54051110481249e-06
1.00423224002967e-05
1.82116054117179e-05
2.06417153059554e-05
0.000240670612787886
0.000236676270763768
0.000150204800316446
1.35295666254809e-05
0.000504041594172668
0.000547538953142857
0.000334151449587212
6.28871207331031e-05
7.05996597604882e-05
0.00053627215768953
7.75949642292427e-05
8.23502439664657e-05
8.21707066718943e-05
7.46379319027234e-05
3.58737072472236e-05
2.38702925216112e-05
0.000989438619827404
0.00182093983737132
0.00104420579635773
0.00270466167311639
0.00183070864046296
0.000844697095600329
0.00357712567916772
0.00270782149886644
0.00170651623342596
0.000540145183690648
0.00439808351047341
0.00357532456194853
0.00262860269841938
0.00149884173165576
0.000579257882178482
0.00515195247574564
0.00438982500182692
0.00351562808649864
0.00249073592290438
0.00143028569519531
0.000589510082128388
0.00583537097560667
0.00513810944431773
0.00433665579588059
0.00340976223002514
0.00238243173888471
0.00138921813329141
0.000581766238473445
0.00644778395867032
0.00581660703955324
0.00508607158041879
0.00424512358166325
0.00329781615903015
0.00230158750809455
0.00136015703342138
0.000563082644268834
0.00413502334448937
0.00319531829504424
0.00223349128842235
0.00131763215173531
0.000535576077273093
0.00401883296484988
0.00309658730589637
0.00215989538989252
0.00126417453887796
1.38444598223234e-06
9.36356222344865e-06
1.63345422698546e-05
1.68664716552253e-05
0.000183625129791746
0.000209757001464768
0.000137971076894056
1.20156909498316e-05
0.000261512498539495
0.00045218842554945
0.000303791901154585
5.46433635014274e-05
6.26138210257165e-05
0.00050348717001745
7.03657066655092e-05
7.71713089311072e-05
8.18555855733236e-05
8.13858969693581e-05
7.23655555971955e-05
3.27512615135333e-05
2.25228390579605e-05
0.000724752244776868
0.00168497939481793
0.000908080053676873
0.0026310594177482
0.00174827808951417
0.000792380780784373
0.00353222392303301
0.00265916186374034
0.00166229994916973
0.000519543759003252
0.00437004892773999
0.00354738688333845
0.00260125151976495
0.00147695771990859
0.000569565284758916
0.00513528584605147
0.00437582273680249
0.0035035905363035
0.00247930055730352
0.00142047233697214
0.000585758120095747
0.0058269422430861
0.00513333770775026
0.00433524498285139
0.00340965163587508
0.00238047927434227
0.00139061743390629
0.000580034031161771
0.0064463767727296
0.00581845905965557
0.00509139170754906
0.00425220190489891
0.00330313268691088
0.00230246028337665
0.00135799845782103
0.000560755750401541
0.00699495871563553
0.00643133669110642
0.00577270788107104
0.00501078727475629
0.004145442866898
0.00320102225758825
0.0022343820857393
0.0013160401901624
0.000534118683259441
0.00402888423738778
0.00310148952344508
0.00216077198280766
0.00126317252389577
0.000502513345942781
0.00390419213174757
0.00299497990861167
0.00207588806751293
0.0012011307486059
1.16830476702211e-06
8.3061123072229e-06
1.37726540041329e-05
1.24313536018254e-05
9.60306719897166e-05
0.000163526627279634
0.000117616128535539
1.04162837279339e-05
3.73792598332674e-05
0.000249542913164712
0.0002694490441613
4.63234099708531e-05
5.43562308874402e-05
0.000467219353390239
6.23541924056763e-05
6.98460469928529e-05
7.64183498269321e-05
8.10352723081206e-05
8.13792461242824e-05
6.88901149872488e-05
2.9840018247676e-05
2.67537612117085e-05
0.000466287308622616
0.00150533115196264
0.000709737322099162
0.00253706275257584
0.00162075987813856
0.000719563775677928
0.00347231003251233
0.00259089427116419
0.00159762584135059
0.000492592945357463
0.00432872690331838
0.00350410315007176
0.00255779886661402
0.00144286961378532
0.00055557527492372
0.00510653757228167
0.0043481528110718
0.00347684470844492
0.00245476524450022
0.00140354379980539
0.000580103391518198
0.00580765606591919
0.00511657645975894
0.00432080004560976
0.0033966787106307
0.00236863113854511
0.00138265233827925
0.000575379960493291
0.00643500875775837
0.00580982525778098
0.00508563787401003
0.0042483244897733
0.00329912850330665
0.0022981105412902
0.00135341728145863
0.000557395886558615
0.0069913308041976
0.00642975319702141
0.00577362158207247
0.00501349133460582
0.00414784244003619
0.00320095544078245
0.00223163212214709
0.00131227052693258
0.000531655693724783
0.00747899372084642
0.00697808402171501
0.00638667278897057
0.00569721206161422
0.0049088510599952
0.00403405032381169
0.00310278218409913
0.00215914195347103
0.00126067784695275
0.000501089656099669
0.00391019806714499
0.00299704460315284
0.00207533085348053
0.0011996716822864
0.0004663418341471
0.00377224561602904
0.00287703357665376
0.0019779349888188
0.00112956529155418
9.95632689456862e-07
6.92315546279825e-06
1.01370948838931e-05
6.01159965506489e-06
2.23726904022223e-05
8.54691273352521e-05
8.54926994803044e-05
9.91903338962997e-06
2.8531645252116e-05
3.62434504048256e-05
0.000222869792724526
0.000224860752650911
3.80728038407474e-05
4.60830811157033e-05
0.000427713740123503
5.41100445247697e-05
6.18518840780589e-05
6.9055084454525e-05
7.53647292187926e-05
7.97314763585488e-05
7.91535753665955e-05
6.52137549791157e-05
2.71810979740359e-05
2.76794084198032e-05
0.000460848669401736
0.00133409846132031
0.000416497707402509
0.00243087138136091
0.00149750142374066
0.000424227710099797
0.000652550099705292
0.00339963464114078
0.00250925797070579
0.00151390320494447
0.000647983373276353
0.00045588951344534
0.00427509325813975
0.00344742074653389
0.00250041072710567
0.00139609673738399
0.000539236823636803
0.00506610051968624
0.00430775483494012
0.00343680303688014
0.00241813637123123
0.00137912359170377
0.000570692811159089
0.00577743290709633
0.00508803047558367
0.00429386352609886
0.00337172117406037
0.00234778086042546
0.00137047755858388
0.000569405805354005
0.0064134594857032
0.00579050926010198
0.00506864301154465
0.00423330028465597
0.00328559018253526
0.00228687772743098
0.00134515879193696
0.000552748237121225
0.00697791939870867
0.00641830653522588
0.00576448422159577
0.00500630153345191
0.00414144796947804
0.00319437102786633
0.00222490051194395
0.00130633594403027
0.000528259913700271
0.00747412469984978
0.00697438953659517
0.00638462541198064
0.00569666388958956
0.00490869279831304
0.00403271250104579
0.00309953324370217
0.0021545926990126
0.0012564029510792
0.000498802887160132
0.00790497829038674
0.00746139353780096
0.00693168673851148
0.0063084427404055
0.00559042355968123
0.00478558091034309
0.00391187409678406
0.00299591242839287
0.00207259008885602
0.00119705180419607
0.000465171160875811
0.00377583039458069
0.00287768428115316
0.00197686940918382
0.00112829910151172
0.000427195611114496
0.00361948211916087
0.00274045873720023
0.00186551914958942
0.00104931821483729
1.04165005742641e-06
4.87864961516603e-06
5.33441021538898e-06
1.66225403986611e-06
1.93881747269622e-05
4.0304628754176e-05
7.17978591058678e-06
4.23667198016181e-05
1.89905647688559e-05
1.76116367081655e-05
0.000317676531408031
0.000147618012848467
0.000111115746255476
0.000325887478084295
0.000125692763701277
3.00290138100332e-05
3.79135686977595e-05
0.000384739141809325
4.59018855344032e-05
5.36719218340646e-05
6.11251757129082e-05
6.80193850921222e-05
7.39543364807538e-05
7.78173983419873e-05
7.63975020753862e-05
6.14449108008168e-05
3.17949260384063e-05
0.000476842647240657
0.00125723756011066
0.000440499685181533
0.00231788676097495
0.0013975768035866
0.000406820708231334
0.000149108390603126
0.000596396089804138
0.00331582964617197
0.00242518323785908
0.00146577518655591
0.000380220107716498
0.000412920073283444
0.000765011742833708
0.000519187225991344
0.00420995774865983
0.00338050962299543
0.00243949266681839
0.00133536912535278
0.000407235682521227
0.000552489035902195
0.000523840244823974
0.000452382710265636
0.00501433282839704
0.00425574839983319
0.00338608814178257
0.0023721700153534
0.00134891162717697
0.000560213787541487
0.00573627224587982
0.00504807797203933
0.00425534480664724
0.00333597701656806
0.00231848013057161
0.00135317081232334
0.000561655356093311
0.0063814664437873
0.00576041651381017
0.00504053891687112
0.00420748020614343
0.0032629180769963
0.0022696734254772
0.00133416235423727
0.000546946094517741
0.00695450343980867
0.00639677470511423
0.00574508340513567
0.0049890023668893
0.00412599250755549
0.00318083400304892
0.00221374749815538
0.00129814284550565
0.000523914671203031
0.00745935385540002
0.00696096879629781
0.00637295761119398
0.00568675475640715
0.00489996978303327
0.00402439523359977
0.00309131189632647
0.00214687472217444
0.00125039252409754
0.000495672626090841
0.00789956171772436
0.00745651539034108
0.00692778758593786
0.00630562212772899
0.00558819916801268
0.00478297630951496
0.00390806866740495
0.00299095944484085
0.00206733501382107
0.00119295337836019
0.000463229516677314
0.00827828839633011
0.00788651129943379
0.00741276957372694
0.00684944871003313
0.00619500056953417
0.00545533813079302
0.00464286362130313
0.00377545892746598
0.00287541074409065
0.00197384170676876
0.00112606919576735
0.000426438084011721
0.00362179838327251
0.00274057804408108
0.0018645742126411
0.00104871024052208
0.000384795521135179
0.00344240269173786
0.00258277054716815
0.00173704145208905
0.00095914329695808
9.61530642860975e-07
2.60012980425449e-06
1.63270741511862e-06
9.72758130539276e-06
5.97792761982702e-05
3.51903351207853e-05
3.82898532423961e-05
3.15616004462555e-05
0.000250197265605887
0.000263446193591544
2.23172549597767e-05
2.99700899989646e-05
0.00033779821434487
3.78217984598287e-05
4.5550865706859e-05
5.30409418961717e-05
6.01948283838674e-05
6.67394065067499e-05
7.22594477049178e-05
7.57002140306223e-05
7.39280723355863e-05
5.93665641416387e-05
6.73176755520633e-05
0.000495575617451427
0.00121880414731246
0.000475861079522353
0.0022190197560859
0.00131355408203245
0.000439760717045436
0.000211457515580646
0.000612355703347299
0.000415048371781729
0.00322129648245844
0.00233093698001588
0.00137730771941267
0.00047246822180045
0.000288031032909363
0.00413354166382873
0.00330460943351923
0.00238249411050169
0.00131345053819154
0.000387045065177843
0.000386974042718059
0.000362950038260239
0.00046953638298595
0.00495140006744933
0.00419309045580844
0.0033286150439588
0.00232607958418831
0.00131923887551903
0.000371898818680335
0.000551506633716049
0.000518056338104853
0.000481508883368481
0.00568413710974622
0.00499710332734684
0.00420650343084132
0.00329206960115
0.00228322192751446
0.00133330064206906
0.000553545839251655
0.00633878380340316
0.00571953673169938
0.00500166661057537
0.00417161543769554
0.00323185366588675
0.00224653993574384
0.00132014905109135
0.000540153435760446
0.00692072657579611
0.00636489402249404
0.0057152982315019
0.00496163444314779
0.00410161267143923
0.00316050071286845
0.00219836250799926
0.00128781183872385
0.000518652603784834
0.00743444110298829
0.00693760356863855
0.00635145021990623
0.00566726574238743
0.0048824598415521
0.00400883248329559
0.00307787414037793
0.00213585048839403
0.00124262650691937
0.000491732924366778
0.00788397753433807
0.00744177478353562
0.0069143108134055
0.00629360209092653
0.00557744876323713
0.00477301975715834
0.00389854672830989
0.00298194852515586
0.00205942211989402
0.00118734125418782
0.000460499682684109
0.0082728302728603
0.00788111526460259
0.0074078302193989
0.00684517776752966
0.0061912619487273
0.00545162279887246
0.00463854665820336
0.00377026786022514
0.00286975415586109
0.00196861223209009
0.00112251629585916
0.000424937870547756
0.00825893373109543
0.00783548132125315
0.00732596445854605
0.00672843548690345
0.00604777270107493
0.00529353265347437
0.00447892995579606
0.0036204264338871
0.00273799088790752
0.0018619170820467
0.00104720355632441
0.000384601646354706
0.00344423094517205
0.00258295770670162
0.00173680274696739
0.000959588745419133
0.000338626868131659
0.00323713964517696
0.00240060236440447
0.00158973006068908
0.000856911831962768
1.04861497495481e-06
6.02667054050592e-05
5.87569876913835e-05
5.04968556902739e-05
0.000172057929526275
0.00020982793535315
1.50634435363851e-05
2.23672969745421e-05
0.000285915390960684
2.99851512844605e-05
3.75727739551947e-05
4.5026458729138e-05
5.22422652135855e-05
5.9079760226781e-05
6.5259941449513e-05
7.0436239368452e-05
7.36274876443125e-05
7.29218224682716e-05
6.72437558567077e-05
5.25478711433067e-05
0.000496794665800472
0.00122181859731016
0.000498405254112882
0.00213603643446852
0.00123384056173956
0.000490629786167393
0.00312368603574488
0.00223129415227724
0.0012576882240989
0.000421977791038476
0.000306805076332834
0.000472027260227023
0.00404637558801058
0.00321679323134046
0.00230575284246056
0.00129166109586618
0.000617851053353736
0.00487729908285412
0.00411979704364596
0.00326451116319247
0.00228752853510049
0.00130292218596755
0.00039554836226779
0.000426927002822812
0.000447024576378852
0.00562088639960066
0.00493530495483977
0.00414843451984912
0.00324365208064452
0.00224775862705732
0.00131489746832636
0.000546298101971672
0.000546651425623707
0.000525025938655485
0.000474819295325259
0.00628512635868401
0.00566783962191226
0.00495243369780399
0.00412690184195487
0.0031943602280662
0.00221954820571026
0.00130472963830304
0.000533027123114692
0.00687619614457729
0.00632241693530114
0.00567510034533577
0.00492445680642528
0.00406878452995352
0.0031336609653399
0.0021788918068108
0.00127553073220758
0.000512638839050625
0.00739899949199301
0.00690394246989062
0.00631983690420164
0.00563804263712593
0.00485611052827656
0.00398600886350944
0.00305919504970038
0.00212159393095753
0.00123314020150133
0.000487040683912813
0.0078578674568218
0.00741693543424618
0.00689104757306842
0.00627217278103261
0.00555797297202568
0.0047555251983611
0.00388311358237629
0.00296873696824201
0.00204885301571713
0.00118022175973185
0.000457028124624923
0.00825682553214298
0.00786557953579201
0.00739313226841098
0.00683160883978155
0.00617887257288285
0.00544020924888179
0.0046278355684594
0.00376019247185695
0.00286059716004495
0.00196110018044817
0.00111756293358108
0.000422664814117205
0.0082534943228154
0.00783010557113444
0.00732088636120753
0.0067237173268702
0.00604321064893502
0.00528875712455643
0.0044736405223787
0.00361467831791413
0.00273232913825431
0.00185727351779576
0.00104442936896051
0.000383639583201188
0.0082055364368469
0.00774399418524895
0.00719710663141164
0.00656903705213354
0.00586778158909023
0.00510376358411102
0.00429012175493907
0.00344259195302798
0.00258065286374461
0.00173497293252481
0.000959087816984077
0.000339160732045847
0.00323902216262528
0.00240140289186784
0.00159063874700384
0.00085875695524885
0.000287704959077569
0.00299893988153252
0.00218950263812453
0.00141929944527106
0.000739294533437141
6.11263923512304e-05
6.06038031846124e-05
6.40771429533881e-05
0.000443141350032195
8.65347284235685e-06
1.52044641980413e-05
0.00022772813437992
2.24964651919972e-05
2.98529457495485e-05
3.71622687027028e-05
4.43536693597127e-05
5.12891515253697e-05
5.77940912970251e-05
6.36352745369624e-05
6.85693950855218e-05
7.17831071511029e-05
7.29452135480254e-05
7.03169285261043e-05
6.32735978298458e-05
0.000484590192909765
0.00120677111706627
0.000499027559228004
0.00208064494286858
0.00122693135423538
0.000508019128474815
0.00303035844103055
0.00214140669863336
0.0012286163662661
0.000508706406803617
0.00395204973933343
0.00312151254791287
0.00220940334772547
0.00124671449143246
0.00479245070637292
0.00403564040726152
0.00318719524347731
0.0022369721568879
0.00129057127487591
0.00554634572916239
0.0048626402244893
0.00408086753944737
0.00319092189608754
0.00221603431137157
0.00130051165982386
0.00622013651419474
0.00560519960963448
0.00489307440333782
0.00407439678648892
0.00315303829930782
0.00219178661941326
0.00128964707580073
0.000525939483003748
0.000539934319622247
0.000542438994478402
0.000526244764281198
0.00682045513248539
0.00626906157397944
0.00562446346659506
0.00487783688028751
0.00402839331140011
0.0031015676686943
0.00215654227108978
0.00126208754647791
0.000506122241838287
0.00735255053040048
0.00685959479592294
0.00627786633744384
0.00559902168605274
0.00482105154084521
0.00395612181530761
0.00303540719660452
0.00210428775483128
0.00122210124552991
0.000481650807740981
0.00782091764227908
0.00738161810958368
0.00685765432712596
0.00624106341711149
0.00552958689010233
0.00473037238823752
0.00386167320354806
0.00295126810930825
0.00203564279557992
0.00117162994769447
0.000452854093003216
0.00822974585711577
0.00783956025744754
0.00736844785231643
0.00680854565853937
0.00615764856060692
0.00542094120247292
0.00461060187895914
0.00374510477856573
0.00284786174650271
0.00195128325105608
0.00111122042890213
0.000419676401289931
0.00858278723746623
0.00823752907225504
0.00781466397430503
0.00730625812174419
0.00671009074059187
0.00603058753269804
0.00527700743572178
0.00446266842194685
0.0036045988650504
0.00272353822392751
0.00185053900536848
0.00104029197964166
0.000381879206072611
0.00820014195016771
0.00773861715906497
0.00719186830649854
0.00656393924358287
0.00586266117481709
0.00509842194088533
0.00428449141283314
0.00343690445493103
0.00257553820450023
0.00173126586525458
0.0009572926231841
0.000338859473699478
0.00810953546178073
0.00760745260325876
0.00702588603735953
0.00637178411323326
0.00565379630019174
0.00488272533963441
0.00407201903455271
0.00323764586885324
0.00239988821321036
0.0015899811524131
0.00085953177651661
0.000289140582915893
0.00300128693416941
0.00219130309105494
0.00142168243625339
0.000742819567148636
0.000230547767722754
0.00272190483350024
0.00194321963960472
0.00121966586491157
0.000601922846520637
5.81235569221045e-05
6.1022209735322e-05
6.37541323501646e-05
3.87661813491929e-06
8.83253546156157e-06
0.000163098540364829
1.54259181349616e-05
2.2490934332017e-05
2.95665717619162e-05
3.66168477060841e-05
4.3546355741089e-05
5.01891636708483e-05
5.63541186459589e-05
6.18800971828044e-05
6.65842688076154e-05
6.98757934174123e-05
7.1063159044163e-05
6.85747524156055e-05
6.59060497195757e-05
0.000466986507361621
0.00117844286618735
0.000486625468170297
0.00203241523189967
0.00121098269841721
0.000504900951613707
0.00294816374284999
0.00208349300889877
0.00123209102984295
0.000516755397916272
0.0038551410420128
0.00302862110657794
0.00213167614399651
0.00124546118040386
0.000526030842291719
0.00469847938951824
0.00394348033633684
0.00309868645668197
0.00216931046242102
0.00127043992552423
0.00546055533225349
0.00477935296520341
0.00400259057098141
0.0031275850734755
0.00218013657275012
0.00128571616464862
0.00614341517595789
0.00553143891459034
0.00482346909206726
0.0040138308909688
0.00310814515630271
0.00216429304210303
0.0012749978279886
0.00675295921146167
0.0062044770300685
0.0055632748070024
0.00482199868045816
0.00398124147580039
0.00306572928349241
0.00213266205906805
0.00124804932413082
0.000499169416443679
0.000518511495639598
0.000532370372834447
0.000535808638495979
0.00729450898006758
0.00680410597523586
0.00622525938630018
0.00555015732291171
0.00477752409653179
0.00391968540142935
0.00300719663443559
0.00208449875534511
0.00120982168063551
0.000475641224448816
0.00777260636304763
0.00733534765526483
0.00681374396008269
0.00620001240939058
0.00549217307025496
0.00469755528395087
0.00383425873256895
0.00292962116172372
0.00201989120293438
0.00116163122318338
0.000448005316674778
0.0081914462599567
0.00780274390146109
0.00733341148269229
0.00677565263526982
0.00612731781652662
0.00539361538747967
0.00458669262728016
0.0037248918814181
0.00283151205417275
0.00193915928341501
0.00110351410007192
0.000416017625148054
0.00855501791329917
0.00821056180904238
0.00778883687379995
0.00728185988057766
0.00668738289322382
0.00600975948030393
0.00525817933761415
0.00444594003678402
0.00359011191313817
0.00271160090899784
0.00184168814767157
0.00103481016028022
0.000379397743778962
0.00886680735598341
0.00856260102182565
0.0081842795181675
0.00772333795068862
0.00717738514488009
0.00655038333821705
0.00585004574994976
0.00508670631286786
0.00427370826707592
0.00342727796192775
0.00256756820501717
0.00172556295468153
0.000954106985827395
0.000337701710206112
0.00810420411740297
0.00760208951910454
0.00702055254674539
0.00636648508029298
0.00564844972912907
0.00487727850408175
0.00406655415022806
0.00323248839240164
0.00239573215955247
0.00158747870033233
0.000858923706164172
0.000289644094821636
0.00796574792973212
0.00742506155967369
0.00681246694375146
0.00613529077468908
0.00540258382093945
0.00462593269950103
0.00381959178126644
0.00300059733463029
0.00219091522955316
0.00142246659258374
0.000745113372374412
0.00023298331043093
0.00272503759619439
0.00194624612940234
0.00122368708190162
0.000607171895664322
0.000166672806373583
0.00239865189156759
0.00165375373949398
0.000983655111995703
0.000440643270153848
5.42469871553491e-05
5.82570712434124e-05
6.26928516954795e-05
1.29633335573525e-06
4.01007795616961e-06
9.49131247811392e-05
9.07584040503484e-06
1.55392829849163e-05
2.23380066804849e-05
2.91537358675695e-05
3.5953772888966e-05
4.26110127255153e-05
4.89444664910324e-05
5.4758959485676e-05
5.99366573095652e-05
6.42512985636795e-05
6.71336168452666e-05
6.7723446697824e-05
6.61960315951763e-05
6.37147063180548e-05
0.000445439612048974
0.00114178764030449
0.000468384239034421
0.00197915940026691
0.00118221911631682
0.000490774441730619
0.00287110412066453
0.00203514944938707
0.00121536428685989
0.000508171457105723
0.00375881080674188
0.00294682665179026
0.00208000389415753
0.00123702131664787
0.000518002779726388
0.00459741903802083
0.00384814587911293
0.00301214889862419
0.00211394059840502
0.00125386417636152
0.000523747635645433
0.00536395610845144
0.00468685505417365
0.00391548102599762
0.00305348631788846
0.0021356094820943
0.00126591492901596
0.00605459984550104
0.00544655098791878
0.00474356001298914
0.00394371803928373
0.00305615161020691
0.00213357694294388
0.00125827667890919
0.00667307790011996
0.00612826505497562
0.00549133123165134
0.0047567764957222
0.00392716762560781
0.00302622468687771
0.00210722569100132
0.00123301365099428
0.00722416693409598
0.00673693466005541
0.00616166993015976
0.00549132329307363
0.00472566415372283
0.0038771540258328
0.00297523666520407
0.0020626661422969
0.00119641379673025
0.000468990248142247
0.000491478395855792
0.000509625741757656
0.000521553768687507
0.00771224399952266
0.00727754104908151
0.00675886560922013
0.00614873265564003
0.00544563042258922
0.00465715212679628
0.00380108177694469
0.00290408762783053
0.00200179420770963
0.00115030974077134
0.000442495396435338
0.00814139198490238
0.00775461306787513
0.0072875549683005
0.00673254475664153
0.00608760138901636
0.00535805695127735
0.00455600566744228
0.00369950049382656
0.00281157150079751
0.00192474523550626
0.00109446063279043
0.000411706671377246
0.00851555784552968
0.00817240797250924
0.00775231735258262
0.00724734062365034
0.00665526899650055
0.00598046004863187
0.0052320667119162
0.00442329817496255
0.0035711132200718
0.00269646596478646
0.00183070942195769
0.00102801399501191
0.000376260141008611
0.00883848918109319
0.00853496091958312
0.00815753891189444
0.00769785718305061
0.00715345357021607
0.0065282293821066
0.00582983599113168
0.00506856057555612
0.00425774136349512
0.00341366753059717
0.00255671056635377
0.00171784069374723
0.000949569632547132