/*--------------------------------*- C++ -*----------------------------------*\
  =========                 |
  \\      /  F ield         | OpenFOAM: The Open Source CFD Toolbox
   \\    /   O peration     | Website:  https://openfoam.org
    \\  /    A nd           | Version:  12
     \\/     M anipulation  |
\*---------------------------------------------------------------------------*/
/*   Windows 32 and 64 bit porting by blueCAPE: http://www.bluecape.com.pt   *\
|  Based on Windows porting (2.0.x v4) by Symscape: http://www.symscape.com   |
\*---------------------------------------------------------------------------*/
FoamFile
{
    format      ascii;
    class       volScalarField;
    location    "200";
    object      omega;
}
// * * * * * * * * * * * * * * * * * * * * * * * * * * * * * * * * * * * * * //

dimensions      [0 0 -1 0 0 0 0];

internalField   nonuniform List<scalar> 
10107
(
5.27003482348185
7.27825328304519
1.36106826716768
5.96826009719384
4.14927083928547
1.67176995799305
9.14053124380136
0.972689028227206
1.41547597790307
2.45545240142336
4.06764258281354
1.66664164741889
4.66904877017909
0.950093683149204
1.83950042235405
9.18162026892896
3.37226815535003
0.728016093078356
0.630160695288503
1.01415391317375
1.3268233298486
1.13301483603201
1.39082692192728
1.63543340927163
1.44566707035232
4.094106352247
3.54014110772502
1.23995236274586
1.70527814297748
5.09571296103964
0.776695332889726
0.967616690697347
1.84501724934233
1.49265764505141
1.62441822696114
4.43089718798029
1.9557055725588
1.9714805455226
2.06252178790607
0.63044441880022
0.568098562334528
0.750574209544152
0.488744933978695
0.62467786984938
0.951490720335517
1.31873170033649
1.18604486576945
0.917707441686089
1.20357539366791
1.44721890741612
1.33517531846766
4.54723869844334
3.56082404316362
3.20924745751029
1.11066286241608
1.24716165620578
1.85086204246406
3.95312183062866
0.724465631452041
0.840447250785693
1.32136185959467
1.43644782846006
4.75759480946997
4.41110540376318
1.0947081987476
1.62653985022062
1.56861941470843
0.595281151769608
0.527384074029491
0.66905360493633
0.468888582609519
0.578045059844334
0.891133951936507
0.419804594251515
0.489519308918816
0.658522539297837
1.2667778442874
1.05980306315002
1.12573615459165
1.22964701748513
4.21125316065085
3.67095202867328
3.32486447822636
3.17186088385131
1.0512292395976
1.13320196290241
1.47642705039281
3.45560940552646
0.708209643665322
0.799054051984106
1.23385458331086
3.72845417268328
5.16228597672177
1.3401631417641
4.4438557929623
1.37534349530758
0.582273864158216
0.508066367885695
0.637965067813528
0.453727138906913
0.543158073353774
0.817561144020715
0.411547006402663
0.472617645183401
0.61464823524926
1.32195492199946
0.379862270840271
0.420351035608345
0.496303228414121
0.691976912020909
3.9972631466993
3.52242491168161
3.27383849417203
3.12219677449552
1.03257384626599
1.0908725104712
1.37423543692485
3.31782161675668
0.704731196997784
0.783494416686328
1.19499181630739
3.50834143172092
3.26468592581607
1.19627937202162
5.23596345843017
4.50823200270357
0.578451038057802
0.499387531141425
0.625989840425867
0.44419251862305
0.52577359522003
0.786709703336433
0.404715592767087
0.459265658035533
0.584580263583027
1.24702505131506
0.375971232394654
0.412922327259873
0.482690832071474
0.676261839226892
1.16125212050644
0.380071941919408
0.421884866551339
0.505093274220895
0.682714227697402
4.02502402442387
3.53970932205945
3.29197360510439
3.1508830226331
1.03153924868049
1.08210237549691
1.34089346401065
3.27878063814882
0.707605824737587
0.779326540984842
1.16393695107308
3.48653608021461
3.55443918048991
1.13268922985829
3.29539497570583
5.25714597072873
4.50893437524619
0.579854103736589
0.496243135259814
0.622568469472496
0.438945566070514
0.517808467979416
0.775243709719796
0.399770352972337
0.450573215121094
0.569584281235656
1.18737462058317
0.372520043250464
0.406693375826145
0.471771095018325
0.656356471407359
1.13485056485591
0.376470941922053
0.41583337491649
0.497149081382097
0.674625226713369
1.12908976200321
0.380161735933486
0.423797886835221
0.505746950163843
0.670166597731732
4.05164480188546
3.58187176909058
3.31347654572538
3.14867074790825
1.03930402214921
1.08067354215292
1.32080232750586
3.25698095035996
0.716943472933816
0.782688418485268
1.15378188024651
2.97852550755558
2.9707097236313
1.09882074203786
3.56048509471871
3.30684481874429
5.26186321824533
4.53678670404781
0.587168212652102
0.496805706386685
0.624445951798955
0.43656841797326
0.514967224021102
0.772952545174397
0.396562727262295
0.445699337450057
0.562849424613432
1.17360205166891
0.369703610245361
0.402100604960288
0.464488360751506
0.643303147547169
1.12076161636176
0.351164149165291
0.373244732986149
0.410647086079482
0.489605406541987
0.666403061398475
1.12248051156921
0.377126580307787
0.419664307131394
0.501543450269493
0.667324112999079
1.0670208226935
0.380031735104433
0.423746563829905
0.50212402710775
0.65742391959114
4.06901349337569
3.60414217353889
3.32899135058071
3.20606431223534
1.05150629059779
1.08630774621832
1.30501499220722
3.25879707512224
0.744921934313812
0.793239779249111
1.16404236213267
2.98931009642749
2.97739378968851
1.05003145177725
2.9733751092887
3.55187005121033
3.31550065235858
5.31432902124554
4.54468513030997
0.608014759359236
0.501532671935985
0.632436398188753
0.436382938957537
0.515682832101185
0.776638698112362
0.39474945918297
0.443465906764921
0.56065789792728
1.17443259033122
0.367612715289062
0.399070346685408
0.460337461634657
0.637885383398986
1.11456928637833
0.349380718083569
0.370577839779242
0.406717391085414
0.484136908382341
0.66069838633885
1.11518021983516
0.336776926717088
0.351391754140965
0.374349649478854
0.415872424249767
0.497456258572944
0.664154631297363
1.063069558002
0.377784635861946
0.42126276624386
0.500124279836301
0.654016505866933
1.04696101782135
0.379090028411625
0.421528690303817
0.496025047803478
0.643652145295615
4.07324184915891
3.61989243280007
3.36243502119815
3.25131513111342
1.08574070908198
1.09813940867485
1.30974825558652
3.27988146396991
0.843169511132583
0.821254133188259
1.19042898488445
2.9971858613557
2.98788943717078
1.03420520493291
2.97718044401914
2.97614017048956
3.03024726371563
3.33163896088872
5.35602151296243
4.61092380035489
0.666986337106645
0.513756215748133
0.653595797695083
0.438498727474527
0.520421726943102
0.787697651536846
0.394093407518422
0.44328205141916
0.561638830054318
1.17960894889359
0.366176807598228
0.397322714389848
0.458397498364172
0.636429578835061
1.11416188877624
0.347905953037985
0.368570171441031
0.404047450376497
0.480913993823839
0.657406139447892
1.08167691632165
0.335571144509076
0.349679631601347
0.371989656086823
0.412834286670569
0.494233839217972
0.661181005770299
1.06116128388048
0.327082077774887
0.336792989938293
0.351426553712511
0.375633882516264
0.418847892364624
0.498075034475148
0.652325539373849
1.04589350869906
0.377620753165298
0.42018666326457
0.494975904577671
0.642950606096308
1.03375909164183
0.377086893265333
0.417661659436642
0.488733815521667
0.632680573862833
4.08760426479464
3.64062805979951
3.40533452077345
3.40888787680393
1.18268706891573
1.12769889731222
1.32947526709824
3.33405604383619
1.26164594760259
0.909384119753541
1.23620308118197
3.00278185522813
2.99613123920442
1.01958032293864
2.98711966570684
2.97798796838942
2.98011658958233
3.03916579930953
3.34928365706884
5.50343821068362
4.57673898216596
0.842747195426077
0.540590419062176
0.712473854767037
0.443758599356511
0.532236482349187
0.811180449474492
0.39456175822627
0.445226356320511
0.56621766704572
1.19447099493955
0.365310172277718
0.396646344289587
0.458183607711753
0.637358087490629
1.11491398325757
0.346721621148796
0.36716616833625
0.402436151997503
0.479304043776013
0.656039884830945
1.07803438365173
0.334461500641673
0.348245590881026
0.370158613186722
0.410653286960358
0.491990490506215
0.656862962653674
1.05738764734451
0.326209364274772
0.335624271446745
0.349862607577949
0.373706810707299
0.416753093010782
0.49618885800579
0.65083091418188
1.04513833363794
0.320620354747433
0.327008167546116
0.336395466154274
0.351259032859923
0.376120031777675
0.418767522084107
0.493899477165414
0.642319248035141
1.03335427984187
0.37623091399306
0.417003878387616
0.488415084967888
0.632714919262531
1.01960303395673
0.374168288466458
0.412807072466313
0.481198489454528
0.621636205154621
4.09252256686571
3.66820644959643
3.49306732275086
3.64382144658235
1.49943595999821
1.21592957496667
1.38870083342219
3.41292537707422
3.07870875889917
1.29998588790723
1.29847370107563
3.00662897851038
3.00211845303373
1.00298778443539
2.99546430097443
2.98716598030766
2.98013082638813
2.98585620709538
3.05014928535692
3.38062081357103
5.69036198270097
3.87304908143969
1.26425683062313
0.591583617554922
0.865038843277681
0.4532292605112
0.558117613652614
0.861121958723365
0.396270130712072
0.449927732798407
0.576240327380158
1.21944594779259
0.364965614920279
0.396993621070253
0.459704616640554
0.641243430496042
1.11898000140516
0.34579164648996
0.366287882439111
0.401710408727021
0.478937340684879
0.655701271420162
1.07386834374549
0.333451101290641
0.347077833979902
0.368822675539624
0.409213320748017
0.49056780263965
0.654913175396253
1.05587950813201
0.325326225319501
0.334535696006332
0.3485176542297
0.372126995278142
0.415072711402296
0.494422534181205
0.649117553886923
1.04399731161574
0.319949493815909
0.326157162191905
0.335301980789381
0.349912154222329
0.37465715873377
0.417374278462063
0.492750627728823
0.641565195176878
1.03280642882924
0.316425059013452
0.320513147127358
0.326437759282243
0.335658266670511
0.350643801690831
0.375258649255489
0.416191432037992
0.487900538945663
0.632514882266223
1.01926617038367
0.373735241546102
0.412570347828705
0.481235112074622
0.621931253646451
1.00302364486856
0.370666757291111
0.407510023815827
0.473379670597344
0.609825358670445
4.10547671168613
3.70988258459
3.70412601432622
4.40687230616592
2.51310024892921
1.53312711170407
1.53145594938488
3.40587309548597
5.56935632745119
2.96800662017695
1.40920796779027
1.39770846695237
3.00810733057151
3.00625796220537
0.984052143134847
3.00167241210895
2.99530713291871
2.98821163596928
2.983660754701
2.99267318976685
3.06124431078117
3.41224625226103
5.97442220864581
3.31903464970527
1.26751466276732
0.660307488435215
1.40212580971784
0.466957861836459
0.59595905036012
1.35539815658449
0.936282229462534
0.399294166680042
0.457830620720428
0.594142808984496
0.941412916795424
1.26917605783409
0.365122818916533
0.398409486607321
0.463162349621036
0.648871701786658
1.12472655129983
0.345080693266513
0.365883933288646
0.401798716972348
0.479792277212403
0.656865263130662
1.07286583980383
0.332524386839051
0.346143147477918
0.367916643345035
0.408391134222051
0.489778168538979
0.652975473079497
1.05383414999587
0.324439606194687
0.333534179513749
0.347385825812894
0.370883903301531
0.413773209464877
0.492995296995905
0.64758081046552
1.04275753166336
0.319214192021152
0.325285703363898
0.334259991168372
0.34869904149484
0.37334604457813
0.416062153329147
0.491519810294632
0.640563274773171
1.03185295951722
0.315885730476777
0.319856688854107
0.325627518164009
0.334677715239254
0.349540679166059
0.374182877781089
0.415247355786929
0.487182654903291
0.632060096427254
1.0186534722338
0.313831271060639
0.31631145423454
0.319885247674707
0.325488717033891
0.33460106989882
0.349386453160763
0.373132354958085
0.412121594338905
0.481008344762828
0.621867153803671
1.00256092454448
0.370508798560863
0.40751367196455
0.473587947169258
0.610137211993878
0.983831458851151
0.366954675766619
0.402105643459107
0.4653801951671
0.597212637094097
4.12079691745599
3.82309748124472
4.20185004395085
6.2779386786611
2.59455446050988
1.90870390429951
3.79398833320395
4.20862058821044
7.04583862283236
4.42545133364611
1.29614308737742
1.57376259624003
2.19426380574639
1.2784442120085
1.95258448205964
3.00479489861237
3.00792242084241
0.962615061477354
3.00600077155068
3.00151221660038
2.9957712188442
2.99022837485353
2.98795959616821
2.9985502999755
3.06971332369608
3.45241325094409
5.3751916532156
1.16776123602512
0.684557375532338
1.32397251322644
0.482715087642364
0.638749262153796
1.43620767970417
2.86919324188303
1.13395001813382
0.403427914553948
0.468130094471067
0.610991388211937
1.48636229294329
1.17664702646629
0.884568020776476
1.12533553146778
0.365734276805601
0.400853800324176
0.468068500596098
0.661751370262573
1.17884625040446
1.07210013014491
1.12996519555432
1.26134858735676
0.344552551810925
0.365917657321461
0.402633204774812
0.481744592113967
0.659217594687637
1.0715369892479
0.331657841813224
0.345405567926421
0.367383534519832
0.408108476905712
0.489629761770702
0.651929715231961
1.05197463053142
0.323542241279267
0.332605494132569
0.346438264769233
0.369929314712673
0.412788974457717
0.491700460532248
0.645804713229947
1.04109986459709
0.318418646177137
0.324403884395172
0.333277814904897
0.347618609053534
0.372193507242201
0.414844243667432
0.490225485543242
0.639286716457809
1.030476617514
0.315254320291536
0.319128343218826
0.32478140878603
0.333706542853269
0.348475923387198
0.373097755855082
0.414206824655246
0.486254995311745
0.631250561373673
1.01761455392259
0.313389066521382
0.315782774323363
0.319252523819264
0.324739648750367
0.333753108464274
0.348503295889581
0.372334885028746
0.411458014751202
0.48051608374471
0.621464251664325
1.0017824967873
0.312359965489451
0.313723693737309
0.315679273444871
0.318881732739196
0.3242959088856
0.333233714735591
0.347526737069922
0.370146205516841
0.407271263387641
0.473492576023885
0.610029857056654
0.983130170366559
0.366966177625098
0.402238461246502
0.465639234390062
0.597361662190369
0.961898409379678
0.363410663180744
0.396957929656148
0.457522421491484
0.584132073003015
4.27944907072908
4.10275621453384
5.44637106668741
3.11198871262333
3.31322299288818
4.42817052605534
4.89885632165427
4.72110659296529
1.55447581200275
1.48007612308356
2.99553684740839
3.00471274591505
0.938612379384848
3.00779187168594
3.00589047425553
3.00169655307656
2.99682921125701
2.99279902052904
2.99153466492761
3.00051719804159
3.06794005574955
3.47183702090853
3.15914725847201
1.09835473201058
0.681456934440049
1.17071739743259
0.492469770923917
0.662865961724832
1.30066941308754
2.11469878208947
1.09530969381951
1.40538652323993
0.407931043195387
0.480051476266449
0.641873396258346
1.30773241937245
1.83152834914759
0.366652207411608
0.404091040716033
0.473500583801692
0.663792168587374
1.47927640581095
1.45897863727597
1.30587855090599
1.22640766399353
0.344152284810076
0.366323627662293
0.404021302581505
0.483919138377946
0.661150743006976
1.27418742637127
1.06717122104943
1.12398955286687
1.17106689699545
0.330820892784467
0.344825484970949
0.367161302677523
0.408216259259374
0.489856045897642
0.650873095257185
1.04882874923999
0.322618941164461
0.331726224424923
0.345638352044591
0.369206613520407
0.412063452517409
0.490640475836421
0.644044444198042
1.03885058236879
0.317558953185172
0.323505303579726
0.332342770485794
0.346647466788303
0.371169864278511
0.413684009226437
0.488818034986819
0.637672306324024
1.0285980728299
0.314528538411348
0.318335353650841
0.323909893821014
0.33275274164265
0.347450477966525
0.372016398572953
0.413073330674128
0.485102867999352
0.630049584350265
1.0160817138383
0.312841128523748
0.315155773678081
0.318538495809426
0.323932380160103
0.332864965454407
0.347573302260949
0.37142012025575
0.410600352028617
0.479745037946864
0.620670993884237
1.00058908522706
0.312011304011364
0.313290042310116
0.315165412972137
0.318283496909649
0.323620944033936
0.332512789638781
0.346815383446583
0.36953492463258
0.406770156841326
0.473090062631138
0.609557076128844
0.982149023111326
0.312264608498884
0.313111276559986
0.314692674830231
0.31769580762951
0.322978039586817
0.331639147421738
0.345288338071392
0.36675028802465
0.402101653826459
0.465555831877475
0.597098039345261
0.960831493946814
0.363518568149432
0.397142935697078
0.457715157359548
0.583943359126259
0.937116425149122
0.360503548268547
0.392617591007731
0.450458385240902
0.571381475108449
4.72437067178306
3.17793968532096
3.37837639929875
3.93442892991065
2.45078375300455
2.12723042507993
2.988404427218
2.99550403396536
0.912993565465759
3.00465407972314
3.00772716149031
3.00595457031049
3.00220125851827
2.99824734783479
2.99498859480117
2.99234658532949
2.99605448464726
3.0373867508719
3.22309604519668
3.70123266792263
1.06278890909757
0.660864890000182
1.09336072168904
0.495521319967105
0.674035510483596
1.13502358763029
0.410993742546236
0.489310125786879
0.676688822231433
1.34929592456281
1.71789806020106
1.30062435632978
0.367540431555131
0.407699056701479
0.481194348350353
0.663001038673263
1.08205150976271
0.343779461442779
0.366963292089542
0.405771638431186
0.484916642275239
0.658453460535335
1.445609795301
1.34062995432933
1.27285292491831
0.329970008390077
0.344345276698976
0.36715891858085
0.408438491602104
0.489724765651758
0.648568257237675
1.0432979428623
1.05763897117138
1.09439419063408
1.17553400427794
0.321647612443953
0.330865179781756
0.344941255412229
0.368635712230335
0.411439626130583
0.489508379646222
0.64175985020674
1.03533585444602
0.316625823151736
0.322574966269795
0.331431715823683
0.345750244165534
0.370228773418079
0.412559515525016
0.487309014709858
0.635679410766274
1.02601261779019
0.313707269064851
0.317474553425783
0.323007236018602
0.33180514661714
0.346446634417806
0.370921881633417
0.411833220540686
0.483699360784492
0.628425277590021
1.01396889312543
0.312169798157758
0.314431266096013
0.317750717962117
0.323076041834293
0.331943003272317
0.346596202742341
0.370398978067691
0.409548182418375
0.478668082780664
0.619448985336722
0.998898165310199
0.311550578487603
0.312745039026058
0.314546679626425
0.317591042836767
0.322860380334911
0.331704098836657
0.345992651620937
0.368740015398033
0.40602294847197
0.47236649529279
0.608693589564601
0.980797432499889
0.311922633253977
0.312687460038714
0.31419892632106
0.317139930322537
0.322377298161439
0.331023699307994
0.344699624542178
0.366254252607385
0.401680315961625
0.465143420610022
0.596483430444127
0.959585499111133
0.31168264392995
0.312172898383351
0.313578414854554
0.316506050503506
0.32166390812611
0.329998446127976
0.342995897826885
0.363383146206196
0.397038711009395
0.457556845426003
0.583415131985755
0.935495289930591
0.360654174960993
0.392781931683305
0.450478857088557
0.570656997987253
0.910303589153593
0.358922876402875
0.389993863546765
0.445486056576095
0.560908896489313
3.06240844532914
3.19263853277925
3.23591728226173
1.27482743319501
3.00012317284131
2.98838951838587
0.889557254015906
2.99548065381921
3.00461954795575
3.00774703696448
3.00617033780488
3.00291439194283
2.99951570782702
2.99563074578356
2.98890831186384
2.98298480138562
2.99445812932044
3.06772242194462
3.19237385003994
1.04423267707672
0.646052946191388
1.05867327749651
0.491434123628163
0.657043585366579
1.07299503342745
0.411638106162687
0.493291934391162
0.669633251733071
1.08928250902628
0.36780091506384
0.410358354773529
0.489212888936355
0.669255362919556
0.343260715323189
0.367567160268915
0.407912712585226
0.486494108010291
0.652279376591206
0.329039757755407
0.343868924671397
0.367259474550132
0.408558394770279
0.488438133843779
0.644125196281384
0.320597818321361
0.329978644455955
0.344285919057931
0.368109533341789
0.410664809825934
0.487823719866679
0.638379981746162
1.03018312954251
1.03536720668713
1.04575001128689
1.07107182852988
0.315604812227278
0.321590785196516
0.330512807219232
0.344879157971903
0.369292140709666
0.411340973874538
0.485495304776426
0.633030298953938
1.0224178131764
0.312786440438387
0.316536852909374
0.322058801157294
0.330841583441593
0.345433528510637
0.369782387966733
0.410463998974875
0.482009600353082
0.626306010098552
1.01118558651277
0.311383611216756
0.313608837071018
0.316886457026178
0.32216517895101
0.330977418728481
0.345558499180564
0.369261237870102
0.408290281104468
0.477263338068349
0.617761100232053
0.996647575054116
0.310914526119236
0.312074193356404
0.313824411052412
0.316810691270447
0.322021280055161
0.330811459829141
0.345055416550425
0.367769318935447
0.405026144208873
0.471303261296197
0.607402563113002
0.978974598873325
0.311087985349554
0.311462889784084
0.312147282396297
0.313592057018716
0.316473547769468
0.321662903323482
0.330281006462711
0.343954948806626
0.365535525299926
0.400984508999457
0.464399222417197
0.595503537715544
0.958052370537582
0.311347215733982
0.311761060627693
0.313109221068384
0.31599387410884
0.321127616278126
0.329462161763449
0.342487455340713
0.36294896523512
0.39663260991093
0.457070264349586
0.582588682745814
0.933859401624718
0.310804884528381
0.311156776312326
0.312549811181788
0.3154756243826
0.320536123379155
0.328592265005157
0.341057320998189
0.360549434695858
0.392645884477812
0.450169048831479
0.569731152902336
0.907825357627191
0.359070672331507
0.390072757342078
0.445224559665716
0.559392512076219
0.885119668837507
0.359784653795389
0.390774545916304
0.445347435224125
0.557568575158151
3.03904660161857
3.08705306668659
3.12147597404275
3.03227789416475
3.00011815589781
0.877292140987695
2.98838524891312
2.99546486959106
3.00462601301671
3.00783005496708
3.00649472784376
3.00358748310247
3.00002743082254
2.99406506223786
2.98244609025947
2.96917431186883
2.97409970003325
3.02400297030466
3.03888528969574
1.02870607714432
0.634559361559018
1.04031458262803
0.484732704453841
0.642726046761431
1.04487820083853
0.409434040773853
0.489614703547679
0.649725835484799
1.04820916397994
0.366955611716842
0.410870731942039
0.490870461900445
0.653775236031216
1.04579184646658
0.342350068331352
0.367621437435307
0.409623128721079
0.488903980138359
0.64701217133459
0.327936939773755
0.343239553548526
0.367300116863411
0.408746608650277
0.486588841302606
0.638384674445645
0.319428948492525
0.329003175973704
0.343586394459778
0.367523565354698
0.40956290741245
0.485298213128333
0.633796185962278
0.314476522479965
0.320522581840753
0.329542869205217
0.343972616338876
0.368259073615893
0.409845317559513
0.483128484735659
0.629504522314012
1.01767038347858
1.02370800969837
1.02692214979898
1.03314477489149
0.311758014990222
0.315507934475462
0.321042801602739
0.329830694350131
0.344366359019829
0.368534525505384
0.40887446863023
0.479917117116606
0.623555031626826
1.00758469197527
0.310484664608405
0.31268459669208
0.315936935490988
0.321185783854899
0.329948122967046
0.344435487612944
0.367982652425151
0.406799426411437
0.475493512869111
0.615558833826834
0.993769904736341
0.310155755228944
0.311286767935751
0.312998558855744
0.315939675355895
0.321098204918335
0.329826002410604
0.343992377233321
0.366613792825499
0.403765378871947
0.469878436755399
0.605648539306149
0.976609368699636
0.310445410756215
0.310827300030474
0.311476812869907
0.312872525475982
0.31570126829334
0.320839619063751
0.329412152587755
0.343048493816037
0.36459940380653
0.400007583306022
0.463308187025066
0.594118921564286
0.95610160065329
0.311114636141758
0.311006477455096
0.310889175822787
0.311227129112236
0.312516364423638
0.315353536321746
0.320452504820199
0.328768591985652
0.34179362939979
0.362269301463016
0.395937152855511
0.456259820050945
0.581447859839678
0.932059332758366
0.310476494255352
0.310759133871153
0.312106320753411
0.315002528799719
0.320049928000203
0.328109710530197
0.340594295327027
0.360135253220893
0.392204163882685
0.449552168894963
0.568597241328424
0.905570286642849
0.30989443213054
0.310297465996972
0.311793684366322
0.314800143898678
0.319867975181265
0.327818183607475
0.34001480276968
0.358953506668544
0.389851514996593
0.444681370548892
0.557886374611427
0.881314726794945
0.359885767915656
0.390706530535715
0.444679416041862
0.554943688202774
0.870463455129449
0.365076526039093
0.398356551287065
0.456409273512199
0.575145160302599
3.02364345326162
3.05835341538442
3.05253662388946
3.04960403194021
3.03226513676743
0.905362652079651
3.00013713898965
2.98838045979743
2.99546907768607
3.00465558655069
3.00796249508925
3.00681645249182
3.00394051422881
2.9994762954023
2.99109566163266
2.97751918913836
2.96596245573261
2.97354362953806
2.99246932825524
3.00427773299478
1.01415788675026
0.623878992141103
1.02567522009651
0.477482080617572
0.631465098877392
1.02884324128521
0.405334820819091
0.482990986204849
0.636127865335908
1.02848608004586
0.364794991049074
0.40860341024112
0.486227345459013
0.639170928476089
1.0283915342236
0.340834972819695
0.366636779564088
0.409363257041435
0.486803399187031
0.637960456693474
1.02409469510552
0.326549605789593
0.342231321387246
0.366894591841828
0.408668387866225
0.484613913414937
0.632585342165551
0.318091089075086
0.327850744264723
0.342717276646093
0.366788987495918
0.408205523558965
0.482187294098614
0.628572192153327
0.313217458209089
0.319330766937777
0.328463504963698
0.342956652191531
0.367040843675847
0.407960852854527
0.480122308897646
0.625148600560848
0.31061108355836
0.314368661746227
0.319930066625415
0.328731621344331
0.343189132646608
0.367098636845205
0.406953830736237
0.477307260839901
0.620080778680252
1.00308637688881
1.0119552814025
1.01684780222814
1.01958280796238
0.309470009095756
0.31165062613017
0.314888235244658
0.320117039397122
0.328826340003036
0.34318980264308
0.366516811480008
0.405016622301768
0.473293576172266
0.612771561842425
0.99018127783453
0.309281538941377
0.310384984621112
0.312065472126456
0.314969599467145
0.320078150109172
0.328730372265586
0.342783639902948
0.365253005622181
0.402214542228571
0.468062479281781
0.60339346933046
0.973647819684245
0.309704690608896
0.310067369642714
0.310685806668191
0.312040181641181
0.314819997259275
0.319901852069337
0.328408649484193
0.341969501939706
0.363436299436394
0.398736218215367
0.461849589772928
0.592290657491116
0.95363980712963
0.310500649246855
0.310368398114429
0.310253015984537
0.310556403727434
0.311799064967317
0.314587908651312
0.319641164927374
0.327916495643491
0.340906637329425
0.361348234628578
0.39494895523937
0.455111696764034
0.579943492244537
0.929924339491777
0.311485885542358
0.311044187702089
0.31045860117093
0.310020478485286
0.310231971072015
0.311527148264944
0.314384266185618
0.31940403183018
0.327447977723307
0.339926807345804
0.359462342928415
0.391471935738047
0.448635395657376
0.567225656651626
0.903333397005529
0.309573917762234
0.309914633558675
0.311373471237333
0.314357955551558
0.319416315111124
0.327366413187115
0.339567858114537
0.358521010369451
0.38933112493234
0.443871726923202
0.556304807094456
0.878067185147069
0.309199503231347
0.309797638871965
0.311519417971418
0.314759375982619
0.320061084946878
0.328244708496328
0.340661853975325
0.359716908757278
0.39034722599911
0.443803406916134
0.55260111610953
0.86455626814714
0.36509196355514
0.398079717017759
0.455199105616151
0.571105033948615
0.894905371286982
0.37868377642617
0.420297939077525
0.496317608502219
0.667780903380338
3.02471770644669
3.05020418506065
3.03429078017122
3.73006693002183
3.04959415554777
1.17266728105837
3.03228292887633
3.00012142561296
2.98838437108533
2.99547885057045
3.00470379617671
3.00809964913782
3.00701746144821
3.00383444881016
2.9982515987981
2.98890124898374
2.97806516607392
2.97319974693783
2.97806331878807
2.9822999625052
2.99773181936069
0.99806877205903
0.613000861291189
1.01125452171986
0.469896100711372
0.620988568872584
1.01532698516134
0.400236409414568
0.475789327929131
0.625448721423131
1.0152729790396
0.361549884546092
0.40446503353923
0.479509320291584
0.627848963561189
1.01602111812506
0.338622833984375
0.364388062135297
0.406679824325139
0.48134685650519
0.62854406038439
1.0159482500031
0.324785764426918
0.34063809725319
0.365555271077166
0.407085603067681
0.480829098799767
0.626404402666018
1.0133632227977
0.316532986377659
0.326415907309315
0.341492088511023
0.365666060434806
0.406480348992227
0.478734446492866
0.623278026398235
0.311802793325338
0.317967458223169
0.327198065117351
0.341739421978351
0.36557574722067
0.405705596236838
0.476621126192456
0.620266203770774
0.309333888615666
0.313096103334267
0.318683706379627
0.327493621802129
0.341841101116775
0.365407297980656
0.404641893510392
0.47415848946042
0.615919891991198
0.308334828489567
0.310496200313868
0.313722012132936
0.318931912001055
0.327575922521961
0.341775713419105
0.364808163087494
0.402881053222015
0.470608377390409
0.609352650383633
0.985827643841103
0.997759721665886
1.00569518688136
1.01028496373507
0.308291106141366
0.309365973571741
0.311017540293796
0.313887324545637
0.318942140479954
0.327499956382331
0.34139995173068
0.36365417147854
0.400337595203445
0.465816534553493
0.600593090327164
0.970038133932941
0.308856079167076
0.309190634363056
0.309776608255316
0.311091578374356
0.31382180284443
0.318837825136593
0.327255592805827
0.340701237649416
0.362028726977271
0.397149857187382
0.459998582746108
0.589983165666949
0.95060917123944
0.30978763026287
0.309627258968725
0.309489446736664
0.309758684364722
0.310956786236921
0.31369345015806
0.318687711648255
0.326897331206158
0.339815685428053
0.360175409167702
0.393655536316943
0.4536046242524
0.578026400334477
0.927332140343045
0.310906826210376
0.310435075781469
0.309821492046919
0.309382180375555
0.309559630356564
0.31081030711527
0.313622127167541
0.318599201092791
0.326604115754112
0.339046004303869
0.358534036320561
0.390447215785281
0.447402671113002
0.565550901413239
0.900889551230358
0.312069107910379
0.311426751932957
0.310525103439804
0.309645152618103
0.30911965455909
0.309393376113375
0.310805218043953
0.313755302870389
0.318788242526882
0.326719707453494
0.338904368551339
0.357824827980606
0.388529373712455
0.442801575382565
0.554594712839167
0.875096405203969
0.308886930405945
0.309428075964217
0.311117480596592
0.314338202957043
0.319628528181251
0.327802895420888
0.340204036786907
0.359232780580248
0.389704465769367
0.442722873077567
0.550377930181359
0.859748607536894
0.308933379148275