/*--------------------------------*- C++ -*----------------------------------*\
  =========                 |
  \\      /  F ield         | OpenFOAM: The Open Source CFD Toolbox
   \\    /   O peration     | Website:  https://openfoam.org
    \\  /    A nd           | Version:  12
     \\/     M anipulation  |
\*---------------------------------------------------------------------------*/
/*   Windows 32 and 64 bit porting by blueCAPE: http://www.bluecape.com.pt   *\
|  Based on Windows porting (2.0.x v4) by Symscape: http://www.symscape.com   |
\*---------------------------------------------------------------------------*/
FoamFile
{
    format      ascii;
    class       volScalarField;
    location    "200";
    object      p;
}
// * * * * * * * * * * * * * * * * * * * * * * * * * * * * * * * * * * * * * //

dimensions      [0 2 -2 0 0 0 0];

internalField   nonuniform List<scalar> 
10107
(
83333.3245035542
83333.3248349304
83333.324528695
83333.3245098872
83333.3249707445
83333.3249548432
83333.3248403798
83333.3248186296
83333.3245153768
83333.3245216692
83333.3250289167
83333.3250336494
83333.3249840463
83333.3250537416
83333.3249569268
83333.3248762458
83333.3249107866
83333.3250058573
83333.32475443
83333.3248279954
83333.3246383635
83333.3245067212
83333.3243890828
83333.3246580864
83333.3245346619
83333.3250394352
83333.3250691177
83333.3250980809
83333.325043253
83333.3250048855
83333.3251756227
83333.3250708371
83333.3249888981
83333.3249970208
83333.3249281647
83333.324956993
83333.3249697067
83333.324957192
83333.3249066564
83333.3251561252
83333.3249631152
83333.3250259842
83333.3247393388
83333.3247594951
83333.3249172053
83333.3248850849
83333.3247243498
83333.3248176775
83333.3246458068
83333.3247520615
83333.3246594777
83333.32505631
83333.325074535
83333.3251287937
83333.3251940636
83333.3251053219
83333.3250501564
83333.3250431662
83333.3252978961
83333.3251821508
83333.3250648446
83333.3249475334
83333.3248448097
83333.32507453
83333.3248410677
83333.3249209368
83333.3248371882
83333.3252896766
83333.3251348227
83333.3251622057
83333.3249469017
83333.3249709487
83333.3250150374
83333.3247499504
83333.3247464819
83333.3247785812
83333.3249225643
83333.3248413948
83333.3247176713
83333.3247294841
83333.3250811716
83333.3250823877
83333.3251304801
83333.3252126366
83333.3253047958
83333.3251976587
83333.3251084305
83333.3251145241
83333.3254164655
83333.3253008399
83333.3251840445
83333.32483412
83333.3250374921
83333.3248261923
83333.3251924774
83333.3248874478
83333.3254155717
83333.3252820238
83333.3252927759
83333.3251257589
83333.3251390691
83333.3251633894
83333.3249548993
83333.3249516376
83333.3249759133
83333.3250123529
83333.3247888642
83333.3247574835
83333.3247602357
83333.3247938485
83333.3251387342
83333.3251329631
83333.3252125648
83333.3253130622
83333.3254177844
83333.3253066764
83333.3252008816
83333.3252088966
83333.3255314527
83333.3254184044
83333.325304337
83333.3248547163
83333.3250265889
83333.3248237292
83333.3251846751
83333.3253100743
83333.3255342829
83333.3254159255
83333.3254179229
83333.3252823481
83333.3252851992
83333.3252970573
83333.3251358839
83333.3251294502
83333.3251442378
83333.3251678057
83333.3249884942
83333.3249603304
83333.3249605535
83333.3249870536
83333.3250136787
83333.3247964229
83333.3247712762
83333.3247794238
83333.3248100899
83333.3252197353
83333.3252134791
83333.3253130735
83333.3254212958
83333.3255300914
83333.325418937
83333.3253093687
83333.325315994
83333.3256410821
83333.3255328698
83333.3254211481
83333.324896762
83333.3250365879
83333.3248464083
83333.3251841824
83333.325314154
83333.3254248642
83333.3256465224
83333.3255400246
83333.3255363296
83333.3254233615
83333.325418494
83333.3254224933
83333.3252969878
83333.3252856052
83333.3252906522
83333.3253054947
83333.3251672952
83333.325140134
83333.3251363824
83333.3251535931
83333.325174688
83333.3249941975
83333.324970709
83333.3249760214
83333.3250005466
83333.3250289444
83333.3248106237
83333.3247932773
83333.3248064083
83333.3248395944
83333.3253178046
83333.3253131495
83333.3254213799
83333.3255308695
83333.3256381397
83333.3255311474
83333.3254205868
83333.325424308
83333.3257440475
83333.3256424082
83333.325535548
83333.3249464774
83333.3250672638
83333.3248879195
83333.3251998149
83333.3253249195
83333.3254360149
83333.3255392487
83333.3257516306
83333.3256557013
83333.3256484615
83333.325552496
83333.325542139
83333.3255412296
83333.3254423576
83333.3254261143
83333.325423739
83333.3254331356
83333.3253285997
83333.3253005923
83333.3252918778
83333.3253000393
83333.3253179595
83333.3252183382
83333.3251717482
83333.3251484081
83333.3251480102
83333.3251666387
83333.3251920083
83333.3250052389
83333.3249881125
83333.3249972281
83333.3250234256
83333.3250609072
83333.3248337345
83333.3248248667
83333.3248434943
83333.3248840342
83333.3254235612
83333.3254211188
83333.325531485
83333.3256375425
83333.325739989
83333.3256391912
83333.3255324094
83333.3255346971
83333.325839078
83333.3257452404
83333.3256458735
83333.3250022963
83333.3251082923
83333.3249400244
83333.3252249757
83333.3253443267
83333.3254512607
83333.325553345
83333.3256496628
83333.3258487391
83333.3257637584
83333.325753474
83333.3256720198
83333.325657709
83333.3256539851
83333.3255751245
83333.3255547626
83333.3255473014
83333.3255535083
83333.3254752728
83333.3254453918
83333.325431773
83333.3254336354
83333.3254493879
83333.325376764
83333.3253322953
83333.3253076291
83333.3253025681
83333.3253150964
83333.3253394326
83333.3252866494
83333.32522267
83333.325180599
83333.3251624352
83333.3251668481
83333.325188633
83333.3252205736
83333.3250236871
83333.3250134201
83333.3250268951
83333.325058794
83333.3251041077
83333.3248669739
83333.3248663506
83333.3248916556
83333.3249382263
83333.325533213
83333.3255319304
83333.3256381597
83333.3257378452
83333.3258329107
83333.3257409768
83333.325641071
83333.3256427915
83333.3259229023
83333.3258388418
83333.3257489077
83333.3250624735
83333.3251546953
83333.3249985884
83333.3252577124
83333.3253674917
83333.3254714078
83333.3255693578
83333.3256648862
83333.3257533432
83333.3259375031
83333.3258644672
83333.3258498444
83333.325783404
83333.3257657743
83333.3257595358
83333.3256976957
83333.3256739604
83333.3256631831
83333.3256673126
83333.3256096744
83333.3255776554
83333.3255600084
83333.3255578243
83333.3255704036
83333.3255222273
83333.3254784051
83333.3254515257
83333.3254418043
83333.32544965
83333.3254700337
83333.3254401354
83333.3253803221
83333.3253397274
83333.3253196182
83333.3253193373
83333.3253369475
83333.3253646847
83333.3253692334
83333.3252907971
83333.3252316651
83333.3251956467
83333.3251835242
83333.3251925732
83333.3252184998
83333.3252555538
83333.3250506675
83333.3250471165
83333.3250658872
83333.3251029305
83333.3251523
83333.3249101976
83333.3249172696
83333.324948306
83333.3249986295
83333.3256414234
83333.3256397217
83333.325738918
83333.3258285931
83333.3259109374
83333.3258331983
83333.3257428325
83333.3257447905
83333.325993028
83333.325922709
83333.3258419552
83333.3251239069
83333.3252055109
83333.3250602368
83333.325296692
83333.3253956567
83333.3254945215
83333.3255888495
83333.3256817555
83333.3257701963
83333.3258483162
83333.3260185087
83333.3259586305
83333.3259372069
83333.3258879531
83333.3258669532
83333.3258560419
83333.3258119419
83333.3257853269
83333.3257720237
83333.3257751052
83333.3257339295
83333.3256998599
83333.3256790815
83333.3256742695
83333.3256850036
83333.3256563243
83333.3256123453
83333.3255831587
83333.3255697447
83333.3255738848
83333.3255902339
83333.3255823631
83333.3255252825
83333.3254848436
83333.3254621714
83333.3254576493
83333.325470587
83333.3254939102
83333.3255165382
83333.3254435322
83333.3253878421
83333.3253524403
83333.3253378178
83333.3253425299
83333.3253633886
83333.3253945043
83333.3254633808
83333.325373216
83333.3252997237
83333.3252471003
83333.3252180321
83333.3252118846
83333.3252254662
83333.3252550801
83333.325295659
83333.3250862285
83333.3250889431
83333.3251124691
83333.3251528756
83333.3252040008
83333.3249623216
83333.3249757647
83333.3250106673
83333.3250623123
83333.3257438763
83333.3257407942
83333.3258296311
83333.3259027151
83333.3259675366
83333.3259104223
83333.325834519
83333.3258374195
83333.3260266376
83333.3259899634
83333.325919993
83333.3251843028
83333.3252580826
83333.3251229627
83333.3253403665
83333.3254301615
83333.3255226029
83333.3256133752
83333.3257022645
83333.3257885768
83333.3258680028
83333.3259373076
83333.3261162395
83333.3260495915
83333.3260105223
83333.325987477
83333.3259638888
83333.325941527
83333.3259195406
83333.3258903283
83333.3258742716
83333.3258769253
83333.3258499035
83333.3258139605
83333.32579068
83333.3257843726
83333.3257942766
83333.3257807346
83333.3257362523
83333.3257049986
83333.3256888436
83333.325690774
83333.3257053067
83333.3257144177
83333.3256589958
83333.3256180637
83333.3255929779
83333.3255850824
83333.3255940946
83333.3256145888
83333.3256541544
83333.3255853159
83333.3255318041
83333.3254959506
83333.3254785259
83333.3254791311
83333.3254953872
83333.3255226079
83333.3256037823
83333.3255198112
83333.3254509901
83333.325400876
83333.3253715468
83333.3253624979
83333.3253714108
83333.3253952117
83333.325429904
83333.3255667208
83333.3254671956
83333.3253819361
83333.3253151463
83333.3252700244
83333.325247903
83333.3252471548
83333.325264703
83333.3252972886
83333.3253400045
83333.3251295878
83333.3251376116
83333.3251645109
83333.3252065627
83333.3252576694
83333.3250215485
83333.3250395474
83333.3250761697
83333.3251268149
83333.3258356526
83333.3258316161
83333.3259017965
83333.3259588557
83333.3260016642
83333.3259653224
83333.325909727
83333.3259178914
83333.3260836745
83333.3260258426
83333.3259889916
83333.3259657033
83333.3252417232
83333.3253102698
83333.3251846538
83333.3253859358
83333.3254687678
83333.3255551324
83333.3256418131
83333.3257271797
83333.3258107631
83333.3258910768
83333.3259609018
83333.3260086461
83333.3262495227
83333.3261505543
83333.3261135719
83333.3260849466
83333.326056843
83333.326070524
83333.3260268676
83333.3260224444
83333.3259910778
83333.3259733066
83333.3260022404
83333.325975968
83333.3259592837
83333.3259217207
83333.3258964406
83333.3258892082
83333.3258995811
83333.3258970914
83333.3258520194
83333.325819024
83333.3258009168
83333.3258019596
83333.3258155499
83333.3258375264
83333.3257830983
83333.3257414786
83333.3257143881
83333.325704132
83333.3257110168
83333.3257296104
83333.3257828295
83333.3257170393
83333.3256647903
83333.325628072
83333.3256081778
83333.325605501
83333.3256183647
83333.3256428718
83333.3257358922
83333.3256570177
83333.3255917997
83333.325543132
83333.3255127585
83333.325500684
83333.325505508
83333.3255248263
83333.32555548
83333.3256998463
83333.3256069452
83333.325527124
83333.3254640476
83333.3254204154
83333.3253972386
83333.3253931079
83333.3254056363
83333.3254323563
83333.3254690134
83333.3256771024
83333.3255703814
83333.3254755984
83333.3253970567
83333.3253380166
83333.325300472
83333.3252846001
83333.3252884063
83333.3253089854
83333.3253433553
83333.3253865344
83333.3251793938
83333.3251913324
83333.3252200136
83333.3252617797
83333.3253109786
83333.3250857985
83333.3251063054
83333.3251423982
83333.3251900166
83333.325911594
83333.3259033064
83333.3259567786
83333.3259938099
83333.3260016371
83333.3259603554
83333.3259781803
83333.3262425433
83333.3260913084
83333.3260280974
83333.3260087855
83333.3259723978
83333.3260121067
83333.3259918923
83333.3259968353
83333.32529455
83333.3253603355
83333.3252432775
83333.3254314853
83333.3255089535
83333.3255902633
83333.3256728618
83333.3257551191
83333.3258361728
83333.3259156463
83333.3259905022
83333.3260549132
83333.3263689671
83333.3262560656
83333.3262574705
83333.3261863245
83333.3261615012
83333.3261626438
83333.3261094842
83333.3261284333
83333.3261227523
83333.3260902998
83333.3260772574
83333.3261233216
83333.3260214521
83333.3260557679
83333.3260788839
83333.3260636996
83333.3260251082
83333.3259988366
83333.3259911268
83333.3260069921
83333.3260551534
83333.3260028101
83333.3260847117
83333.3260068747
83333.3259613577
83333.3259270327
83333.3259076705
83333.3259088139
83333.3259221749
83333.3259529888
83333.3258992352
83333.3258569689
83333.3258283404
83333.3258166562
83333.3258226528
83333.3258397952
83333.3259034257
83333.3258398704
83333.3257883467
83333.3257507631
83333.3257289494
83333.3257240621
83333.3257347288
83333.3257570226
83333.3258602305
83333.3257853897
83333.3257228034
83333.3256748923
83333.3256432885
83333.3256286583
83333.3256303196
83333.3256463156
83333.3256738073
83333.3258258793
83333.3257386709
83333.3256633881
83333.3256031421
83333.325560174
83333.3255354162
83333.3255280508
83333.325536439
83333.3255586636
83333.3255908797
83333.3258028416
83333.3257029126
83333.3256140406
83333.3255399882
83333.3254835993
83333.3254465615
83333.3254289196
83333.3254289145
83333.3254443544
83333.3254728198
83333.3255099815
83333.3257924405
83333.3256806061
83333.3255784059
83333.3254901882
83333.3254194424
83333.3253682991
83333.3253376625
83333.3253270561
83333.3253343127
83333.3253566736
83333.3253911664
83333.3254330444
83333.325233984
83333.3252482427
83333.3252768418
83333.3253164377
83333.3253621003
83333.3251529303
83333.3251738012
83333.3252072947
83333.3252500741
83333.3259680599
83333.3259545874
83333.3259938825
83333.3259995351
83333.326362544
83333.3262506268
83333.3261455608
83333.3260918714
83333.3260273074
83333.326016725
83333.3253414277
83333.3254067875
83333.3252972673
83333.3254754761
83333.3255492168
83333.3256264213
83333.3257053993
83333.3257847094
83333.3258634882
83333.3259415149
83333.3260188129
83333.326092389
83333.32616201
83333.3264696271
83333.3263696162
83333.3263813674
83333.3262875049
83333.3262647148
83333.3263173944
83333.3262576123
83333.3262698202
83333.3261960257
83333.3262225853
83333.3261923693
83333.3261784681
83333.3261684214
83333.3261644471
83333.3261644712
83333.3261260476
83333.3261005296
83333.326092579
83333.3261710437
83333.3261414074
83333.326042803
83333.3261109714
83333.3261113769
83333.3260658723
83333.3260309726
83333.3260111888
83333.3260123862
83333.3260301208
83333.3260266568
83333.3261083571
83333.3261853999
83333.3260620109
83333.3260088917
83333.3259662244
83333.3259365738
83333.3259242139
83333.3259302132
83333.3259461968
83333.3260169214
83333.325955112
83333.3259040942
83333.3258658214
83333.3258426745
83333.3258364939
83333.3258458348
83333.3258660842
83333.3259773945
83333.3259057237
83333.3258450633
83333.3257975518
83333.3257649033
83333.3257483561
83333.3257477583
83333.3257613367
83333.3257861681
83333.3259452376
83333.3258627213
83333.3257910525
83333.3257328657
83333.3256901024
83333.3256637752
83333.3256537528
83333.3256589108
83333.3256776062
83333.325706398
83333.3259224908
83333.3258285699
83333.3257448678
83333.3256745763
83333.3256201617
83333.3255830499
83333.3255633737
83333.3255599264
83333.3255711569
83333.3255950163
83333.3256276284
83333.325910917
83333.3258058018
83333.3257097437
83333.3256265322
83333.3255592205
83333.325509679
83333.3254786768
83333.3254657053
83333.3254688892
83333.3254860858
83333.3255148497
83333.3255510672
83333.3257957168
83333.3256882032
83333.3255923045
83333.325511756
83333.3254490137
83333.3254051783
83333.325380461
83333.3253739495
83333.3253833579
83333.3254059218
83333.325438856
83333.3254779619
83333.3252916036
83333.325306411
83333.3253331145
83333.3253688644
83333.3254096028
83333.3252208434
83333.3252400377
83333.3252691187
83333.3253054947
83333.325990996
83333.3264678401
83333.3263718215
83333.326269395
83333.3261679227
83333.3261374766
83333.3253811439
83333.3254483239
83333.3253452647
83333.3255165569
83333.3255882671
83333.3256625548
83333.3257384909
83333.3258151281
83333.3258917053
83333.3259680852
83333.326044959
83333.3261222566
83333.326196713
83333.3262695271
83333.326557165
83333.3264719252
83333.3264732749
83333.3263894488
83333.3263751123
83333.3263815474
83333.3263196187
83333.3262920855
83333.3262764956
83333.3262740581
83333.3261893534
83333.3262044994
83333.3262625601
83333.3262259297
83333.3262017758
83333.3261917143
83333.3261708229
83333.3262115379
83333.3261668147
83333.3261325156
83333.3261126572
83333.3261150301
83333.3262041853
83333.3262103495
83333.3261658424
83333.326165616
83333.3261133407
83333.3260707764
83333.3260407826
83333.3260281452
83333.3260347217
83333.3260500675
83333.3261305729
83333.3262106589
83333.3262860492
83333.3261242541
83333.3260639694
83333.3260134876
83333.3259748478
83333.3259509352
83333.3259441897
83333.3259527895
83333.325971246
83333.3260880903
83333.3260189974
83333.3259598533
83333.3259126425
83333.3258792521
83333.3258614118
83333.3258593143
83333.3258711132
83333.3258935873
83333.3260583276
83333.3259796308
83333.3259108058
83333.3258541328
83333.3258114069
83333.3257838386
83333.3257717932
83333.3257745085
83333.3257904132
83333.325816418
83333.3260365029
83333.3259476466
83333.3258682293
83333.3258009536
83333.3257479484
83333.3257105128
83333.325688969
83333.3256827113
83333.3256905736
83333.3257107827
83333.3257398682
83333.3260242071
83333.3259250793
83333.325834545
83333.3257557596
83333.3256913347
83333.3256429351
83333.3256112212
83333.3255958385
83333.3255954255
83333.3256083791
83333.3256326154
83333.3256644637
83333.3259137105
83333.32581232
83333.3257217269
83333.3256451714
83333.3255848072
83333.3255416292
83333.3255158203
83333.3255065238
83333.3255117482
83333.3255293331
83333.3255569514
83333.3255909448
83333.3258027957
83333.3257012885
83333.3256128069
83333.3255401963
83333.3254849591
83333.3254475119
83333.3254275562
83333.3254238359
83333.3254339014
83333.3254550868
83333.3254849471
83333.3255199977
83333.3253504592
83333.3253640723
83333.3253872268
83333.3254176819
83333.3254521645
83333.3252875834
83333.3253032916
83333.3253263546
83333.3253549493
83333.3265567003
83333.3264716474
83333.3263767144
83333.3262877983
83333.3254127253
83333.3254837679
83333.3253859027
83333.3255535213
83333.3256249157
83333.3256976399
83333.3257713669
83333.3258457247
83333.3259202664
83333.3259948445
83333.32606997
83333.3261472348
83333.3262242328
83333.3262988928
83333.3263820597
83333.3266375672
83333.326559992
83333.3265591573
83333.3264838878
83333.3264744284
83333.3264760778
83333.3264150802
83333.3263920512
83333.3263800105
83333.3263878482
83333.3263570544
83333.3263225931
83333.3262991868
83333.3262897469
83333.3263079854
83333.3262648928
83333.3262320744
83333.3262129224
83333.3262151577
83333.3262645476
83333.3262134958
83333.3261717512
83333.3261422487
83333.3261297596
83333.3261371647
83333.3262262287
83333.3261674533
83333.3261177453
83333.3260792194
83333.3260550577
83333.3260482145
83333.3260565912
83333.326073406
83333.3261519758
83333.3262313442
83333.3263072777
83333.3261930188
83333.3261261465
83333.3260683529
83333.3260215393
83333.3259877822
83333.3259692247
83333.3259662229
83333.3259766042
83333.325997047
83333.326165625
83333.326090104
83333.326023596
83333.3259681359
83333.3259254746
83333.3258970522
83333.3258835817
83333.3258844784
83333.325898144
83333.325921801
83333.3261451291
83333.3260604877
83333.3259845605
83333.3259196723
83333.3258677071
83333.3258299436
83333.3258069431
83333.3257984985
83333.325803706
83333.3258210221
83333.3258472623
83333.326132773
83333.3260388071
83333.3259529543
83333.3258778618
83333.3258157604
83333.3257681313
83333.3257356296
83333.3257181188
83333.3257147528
83333.3257242863
83333.325744935
83333.3257733288
83333.3261298859
83333.3260266389
83333.3259307854
83333.3258450249
83333.3257720436
83333.3257137009
83333.3256709261
83333.3256438794
83333.3256319
83333.3256334633
83333.3256469352
83333.3256703069
83333.3257002786
83333.3259198335
83333.3258236809
83333.3257395571
83333.3256699131
83333.3256160884
83333.3255785018
83333.3255569074
83333.3255501623
83333.3255561379
83333.3255727312
83333.3255978682
83333.325628464
83333.3258149684
83333.325720546
83333.3256398003
83333.3255747219
83333.3255261638
83333.3254940172
83333.325477546
83333.3254751902
83333.3254844183
83333.3255027386
83333.3255281891
83333.3255579203
83333.3254088369
83333.3254196522
83333.3254377776
83333.325461588
83333.3254884378
83333.3253513763
83333.3253619751
83333.3253776045
83333.3253970034
83333.3266371831
83333.3265587487
83333.3264749817
83333.3254354652
83333.3255121665
83333.3254177996
83333.3255852801
83333.3256580518
83333.3257306581
83333.3258032363
83333.3258759143
83333.325948686
83333.3260215279
83333.3260947981
83333.3261694631
83333.3262463499
83333.3263211742
83333.3263964786
83333.3264795543
83333.3267114571
83333.3266405648
83333.3266390326
83333.3265704294
83333.3265616121
83333.3265621998
83333.3265052733
83333.326485615
83333.3264779225
83333.3264816705
83333.3264486667
83333.3264172929
83333.3263968868
83333.326391596
83333.3264014432
83333.3264005046
83333.3263593199
83333.3263279318
83333.3263095937
83333.3263108881
83333.3263593121
83333.3263098922
83333.3262695887
83333.3262411994
83333.3262289961
83333.3262362562
83333.326323453
83333.3262662955
83333.3262177236
83333.3261799134
83333.3261560425
83333.3261493773
83333.3261576432
83333.3262927988
83333.3262279673
83333.3261715377
83333.3261253657
83333.3260916598
83333.3260728498
83333.3260694128
83333.3260787343
83333.3260971863
83333.3261727946
83333.3262502865
83333.3263263239
83333.3262676235
83333.3261948398
83333.3261303388
83333.3260759898
83333.3260335507
83333.3260046762
83333.3259903114
83333.325989891
83333.3260017328
83333.3260232507
83333.3262486401
83333.3261675651
83333.3260945392
83333.3260316089
83333.3259805043
83333.3259425466
83333.3259185171
83333.3259084432
83333.3259115722
83333.3259265581
83333.32595035
83333.3262367708
83333.326147196
83333.3260652302
83333.3259931556
83333.3259329071
83333.3258858399
83333.3258526703
83333.3258334936
83333.3258277912
83333.3258346003
83333.325852389
83333.3258779364
83333.3262330209
83333.3261349346
83333.3260438686
83333.3259622256
83333.3258922416
83333.3258355289
83333.3257929547
83333.3257647352
83333.3257504267
83333.3257489862
83333.3257591312
83333.325779107
83333.325805828
83333.3262387464
83333.3261321332
83333.3260320038
83333.3259407581
83333.3258606566
83333.3257937281
83333.3257411401
83333.3257033366
83333.3256801096
83333.3256705279
83333.3256729374
83333.3256857055
83333.3257070376
83333.325734079
83333.3259304814
83333.3258405346
83333.3257631749
83333.3257001095
83333.3256521328
83333.3256192232
83333.3256007577
83333.3255953342
83333.325600767
83333.3256150442
83333.3256364831
83333.3256625086
83333.3258328678
83333.325745869
83333.3256725366
83333.3256142639
83333.3255713841
83333.3255433221
83333.3255289649
83333.32552653
83333.3255335006
83333.325547605
83333.3255673463
83333.3255904403
83333.3254651394
83333.3254716778
83333.325483417
83333.3254991657
83333.3255170192
83333.3254105208
83333.3254145011
83333.3254212762
83333.3254300793
83333.326711054
83333.3266386917
83333.3265617028
83333.3254478457
83333.3255329208
83333.3254403133
83333.3256109166
83333.3256866553
83333.3257606075
83333.3258332525
83333.3259050848
83333.325976515
83333.3260478285
83333.3261193387
83333.3261917015
83333.3262656621
83333.3263401868
83333.3264134538
83333.3264885302
83333.3265661554
83333.3267792653
83333.3267145429
83333.3267126381
83333.3266503328
83333.326641875
83333.3266416744
83333.3265897543
83333.3265719324
83333.326564648
83333.3265671725
83333.3265358192
83333.3265071201
83333.3264893089
83333.326484547
83333.3264911109
83333.3264894878
83333.3264506562
83333.3264216036
83333.3264053567
83333.3264049822
83333.326416876
83333.3264499893
83333.3264023666
83333.3263636357
83333.3263363721
83333.3263243705
83333.3263302042
83333.3264163605
83333.3263609652
83333.3263138663
83333.3262772207
83333.3262539826
83333.3262472905
83333.3262548691
83333.3263879211
83333.3263250603
83333.3262701085
83333.3262249011
83333.3261916852
83333.3261729767
83333.3261693273
83333.3261776976
83333.3263647815
83333.3262944509
83333.3262318064
83333.3261786071
83333.3261366253
83333.3261076688
83333.326092844
83333.3260915213
83333.3261017953
83333.3261211624
83333.32619407
83333.3262685243
83333.3263433406
83333.3263473492
83333.3262693696
83333.3261988475
83333.3261376276
83333.3260873507
83333.3260494044
83333.3260247448
83333.3260135304
83333.3260150474
83333.3260280453
83333.3260495748
83333.3263362845
83333.3262504969
83333.3261718176
83333.3261022581
83333.3260435459
83333.3259969738
83333.3259633463
83333.325942942
83333.3259354409
83333.3259400837
83333.3259555063
83333.3259785821
83333.3263323478
83333.3262387259
83333.3261517178
83333.3260734896
83333.3260059641
83333.3259505593
83333.3259081101
83333.3258789278
83333.3258627794
83333.3258589496
83333.325866427
83333.3258836523
83333.3259076458
83333.3263364955
83333.3262350252
83333.3261396964
83333.326052698
83333.325976042
83333.3259114027
83333.325859814
83333.3258217313
83333.3257970368
83333.3257850192
83333.3257845034
83333.3257941567
83333.3258124069
83333.3258365317
83333.3263497934
83333.3262408823
83333.326137121
83333.3260413828
83333.3259555962
83333.3258814292
83333.3258202851
83333.325772871
83333.3257392577
83333.3257189028
83333.3257106436
83333.3257127561
83333.3257236432
83333.3257418216
83333.3257648796
83333.3259462472
83333.3258628191
83333.3257919563
83333.3257348598
83333.3256918891
83333.3256626253
83333.325646114
83333.3256407707
83333.3256443989
83333.3256551406
83333.3256716584
83333.3256918885
83333.3258563884
83333.3257765561
83333.3257100038
83333.3256576281
83333.3256192797
83333.3255939823
83333.3255803299
83333.3255764297
83333.3255798095
83333.3255884163
83333.3256010833
83333.3256161747
83333.325517788
83333.3255186404
83333.325522571
83333.3255288354
83333.3255371223
83333.3254632053
83333.3254589686
83333.3254554206
83333.3254533208
83333.3267787294
83333.3267122064
83333.3266412396
83333.3254542666
83333.3255444163
83333.3254540903
83333.3256299095
83333.3257098756
83333.3257865292
83333.3258605377
83333.3259325511
83333.3260033082
83333.3260734296
83333.3261434129
83333.3262137683
83333.3262850924
83333.3263573232
83333.3264292041
83333.326500677
83333.3265730068
83333.3266451202
83333.3268413093
83333.326782495
83333.3267802119
83333.3267240215
83333.3267156587
83333.3267147653
83333.3266685242
83333.3266516714
83333.3266444408
83333.3266457871
83333.3266181768
83333.3265914015
83333.3265749606
83333.3265699336
83333.3265743917
83333.3265742909
83333.3265376239
83333.3265106691
83333.3264958517
83333.326494217
83333.3265028668
83333.3265368359
83333.3264912078
83333.3264544228
83333.3264287572
83333.3264170547
83333.3264202916
83333.3264315734
83333.3265051429
83333.3264515606
83333.326406049
83333.3263706642
83333.3263480754
83333.3263409145
83333.3263471318
83333.3264787536
83333.3264178423
83333.3263644935
83333.3263205128
83333.3262880851
83333.3262695841
83333.3262655226
83333.326272774
83333.3264574823
83333.3263894228
83333.3263285796
83333.3262766401
83333.3262353767
83333.326206651
83333.32619164
83333.3261896141
83333.3261984182
83333.3264415763
83333.3263663541
83333.3262980811
83333.3262384559
83333.3261890661
83333.3261513554
83333.3261264048
83333.3261144417
83333.3261146861
83333.3261258667
83333.32614519
83333.3262155784
83333.3262872232
83333.3263596127
83333.3264314795
83333.3263490171
83333.3262731922
83333.32620581
83333.3261484588
83333.326102411
83333.3260685594
83333.3260473154
83333.3260384656
83333.3260413457
83333.3260546881
83333.3260755096
83333.3264277627
83333.3263380506
83333.3262545485
83333.3261792096
83333.3261137423
83333.3260594387
83333.3260171373
83333.325987249
83333.3259697039
83333.325963999
83333.3259693111
83333.3259842282
83333.3260058415
83333.326431078
83333.3263341824
83333.3262429963
83333.3261595832
83333.3260857804
83333.3260230239
83333.3259722409
83333.3259339066
83333.3259080129
83333.3258940653
83333.3258912086
83333.3258983478
83333.3259140542
83333.3259357124
83333.3264421796
83333.3263383959
83333.326239462
83333.3261480138
83333.3260658359
83333.3259944198
83333.3259349094
83333.3258879526
83333.3258536798
83333.3258316678
83333.3258209904
83333.3258203695
83333.3258284764
83333.325843985
83333.325864591
83333.3264616371
83333.3263518775
83333.3262455588
83333.3261458613
83333.3260553209
83333.3259752765
83333.3259068281
83333.3258509561
83333.3258080019
83333.3257776897
83333.3257591859
83333.325751164
83333.3257518511
83333.3257597536
83333.3257736499
83333.325791594
83333.3259670623
83333.3258899411
83333.3258250404
83333.3257731461
83333.32573421
83333.3257074616
83333.3256916932
83333.3256852126
83333.3256858378
83333.3256918527
83333.3257021708
83333.32571533
83333.3258848756
83333.3258116584
83333.3257510665
83333.3257035167
83333.3256684304
83333.3256445064
83333.3256301655
83333.3256234505
83333.3256219402
83333.3256236751
83333.325627858
83333.3256342092
83333.32556508
83333.3255586945
83333.3255532998
83333.3255496706
83333.3255492406
83333.3255072673
83333.3254930437
83333.3254786825
83333.3254677669
83333.3268406154
83333.3267796348
83333.3267143332
83333.3255497942
83333.3254620159
83333.3256410488
83333.3257271416
83333.3258076117
83333.3258841975
83333.3259575611
83333.3260285251
83333.3260980233
83333.3261668054
83333.3262354867
83333.3263045722
83333.3263742911
83333.3264441347
83333.3265133547
83333.3265821484
83333.3266506279
83333.3267175524
83333.3268978862
83333.326844744
83333.3268420567
83333.3267919283
83333.3267834194
83333.3267819256
83333.3267416188
83333.3267252103
83333.3267177795
83333.3267181197
83333.326695517
83333.326670005
83333.3266542106
83333.326648692
83333.3266515122
83333.3266547154
83333.3266198135
83333.3265943858
83333.3265801644
83333.3265773954
83333.3265835257
83333.326619624
83333.3265758816
83333.3265408889
83333.3265166029
83333.3265049978
83333.326505902
83333.3265150784
83333.3265900041
83333.3265382866