/*--------------------------------*- C++ -*----------------------------------*\
  =========                 |
  \\      /  F ield         | OpenFOAM: The Open Source CFD Toolbox
   \\    /   O peration     | Website:  https://openfoam.org
    \\  /    A nd           | Version:  12
     \\/     M anipulation  |
\*---------------------------------------------------------------------------*/
/*   Windows 32 and 64 bit porting by blueCAPE: http://www.bluecape.com.pt   *\
|  Based on Windows porting (2.0.x v4) by Symscape: http://www.symscape.com   |
\*---------------------------------------------------------------------------*/
FoamFile
{
    format      ascii;
    class       surfaceScalarField;
    location    "200";
    object      phi;
}
// * * * * * * * * * * * * * * * * * * * * * * * * * * * * * * * * * * * * * //

dimensions      [0 3 -1 0 0 0 0];

internalField   nonuniform List<scalar> 
28758
(
-2.716348315485e-05
-1.33142652250265e-06
-9.24302662061177e-07
-1.87681380602067e-05
-1.00967870326476e-05
1.70143636753283e-06
-1.32419346885779e-05
6.94986504585012e-07
-2.19216860777093e-05
-3.04582768522031e-07
-1.0831661610233e-05
-7.1329690288004e-06
-8.03510967857401e-07
6.95649930842285e-06
-8.11363272499143e-06
-8.91504709745386e-06
-2.46109191177513e-08
-1.92644172947315e-05
1.9356863979023e-06
-2.89152038921515e-06
-6.63925039479977e-06
4.80749985845269e-07
-1.26937319612918e-07
1.15617683330269e-07
-1.94905311163094e-07
-3.4338230469124e-08
8.08611922401842e-07
4.48672992355677e-07
-3.26439171602626e-07
-3.11199981212205e-07
-2.38664121136736e-06
-8.4450196476603e-06
-3.68195566353055e-06
-9.17078232000039e-06
-2.39386679837719e-06
-1.11115108800508e-05
-8.56854480432363e-06
-3.87876496522006e-07
1.3105532544762e-06
-2.34678862053859e-06
-5.06439817714336e-06
-2.81441553818597e-06
3.94286573082556e-07
-1.58391974901466e-07
-3.0557644376886e-07
4.50699011106475e-08
-1.45872317302627e-05
-2.85050396827945e-06
-6.93017970497542e-06
-1.48206304082118e-06
-1.10897828895677e-06
9.38061193070185e-08
-3.73173093484623e-06
3.45790444205471e-07
-1.94275792375753e-06
-4.7011472131393e-06
-9.90183542353863e-07
-3.56094847124587e-07
-3.16355313654238e-07
1.89789416844055e-08
1.76095225021752e-07
-5.6564623397962e-09
1.60519321325844e-08
-1.70500395167368e-07
-4.04568943777926e-08
1.24772896805841e-06
3.63661484686458e-08
-1.9403327804141e-07
-1.11461697014889e-06
-2.6891344971059e-07
-4.14737473220666e-08
-3.42334219072232e-07
-4.1036858112743e-06
-9.39446211383649e-06
-1.42292677141217e-06
-1.07040486035225e-05
-2.02915112229564e-06
-8.16126292887114e-06
-1.32715787831094e-06
2.23755649891448e-06
-2.99027490972729e-06
-9.41371018739945e-06
-7.95982770609559e-07
-9.25268878402314e-06
-3.39798633632746e-06
-2.32442998262216e-06
1.46089185123174e-07
-5.99208077558195e-07
-3.98537179700174e-06
-6.25909362489278e-07
9.62680351240327e-07
1.83253538469965e-06
-1.31993342427099e-06
-5.68013428589042e-06
1.39043518955863e-06
-1.06163811757815e-07
7.03264338765362e-07
5.09661680182312e-07
4.12778144127862e-08
2.98819740552948e-08
1.49363445803618e-08
2.5154390280123e-10
-8.89561009480392e-07
-1.18013747320981e-05
1.8173551362996e-05
-8.33312222842823e-06
-1.19370792012383e-07
-7.53971849666718e-06
-1.37886412243548e-05
1.3627993442787e-05
-1.54227280310049e-08
1.63251642788986e-08
1.07362903793274e-07
-3.04709090641263e-06
-1.79886381357885e-07
-3.58664764520189e-07
-3.20723230266538e-06
-6.82898500774117e-07
-4.6522549283464e-07
1.55238319361223e-06
-4.58357639469285e-06
1.53424479592992e-06
1.38672523391488e-06
-3.34775885977211e-06
-1.44526405616299e-06
-1.55533927782409e-07
-2.77502221297506e-07
-6.02290565558002e-06
-9.77076820271356e-07
-3.19130385321601e-07
7.29654864226273e-07
7.14245157328783e-08
4.34948897756818e-07
6.07687394624895e-08
-2.68534990085393e-08
2.41416749309061e-08
-1.85468303699729e-08
7.25379729169763e-08
3.7395886260355e-07
6.20397936308853e-08
-2.96529927115362e-07
-2.29617644391383e-07
-1.51540085167699e-08
-3.21768021353775e-07
-8.18109464384962e-06
-5.17528035840672e-06
-1.87343944145755e-06
-1.19342216570562e-05
-2.98242910974722e-07
-1.24349645799141e-05
-1.17310329843461e-06
-7.14723856994339e-06
-4.40130376942674e-07
-1.42983120053333e-06
-9.78021942168834e-06
-8.50752434790499e-07
9.87648588250489e-07
-2.93592591149546e-06
-9.78541189911781e-06
-5.56255238717238e-06
-7.57559724078911e-06
-1.23947106903411e-07
-6.52649822908913e-08
-3.59962601893815e-06
-1.9653227452131e-07
4.70543307657981e-07
-5.32548055919715e-07
-5.95184462880663e-06
-2.92192493848223e-07
-1.77782858921009e-06
5.6913991415601e-06
-3.93468398454389e-06
-1.23770879458314e-05
2.87898011346054e-08
1.27395553650168e-08
5.49582982154295e-06
-1.43182040305387e-05
4.52401723681056e-06
-5.11932540033255e-06
6.58007760850766e-06
-1.15716941942554e-05
-1.5091036797309e-05
2.25541542882804e-06
-2.54965980450318e-07
2.08414495472187e-06
2.96923076900343e-08
-6.14858320108196e-08
-2.73621933339515e-06
-3.32688953781534e-07
-1.02129670697913e-07
-2.63617774199824e-06
-6.24020983171379e-07
-1.26918880648339e-07
-4.62296767471183e-06
6.89454733265574e-08
8.23285826818289e-08
-2.7789878335881e-06
-1.16543617852621e-06
-8.62327963293074e-08
-4.40872874869452e-06
-5.79685411925562e-07
3.45297160727442e-08
-9.70656684253384e-06
1.58875057377648e-06
1.04914816295874e-07
-2.92460792209355e-06
-1.78583701648262e-06
-1.09236660306142e-07
-4.55151936264075e-06
-1.65540491488896e-06
-2.95702498161936e-07
-8.38111025036498e-06
-9.84404429654745e-07
-2.40794910670466e-07
5.73106427424748e-08
2.7803960781892e-07
-2.55172858735457e-08
5.88822662631009e-08
-1.35926762432618e-06
-1.23843779297781e-05
-1.13439115591787e-05
-2.75625370515976e-07
-1.33866745133149e-05
2.67790270758561e-07
-1.38758631061304e-05
-3.98492603704708e-07
-6.66062151097448e-06
-1.53392422054829e-07
-6.43009166717369e-07
-9.48342083248536e-06
-6.26471891409313e-07
-7.25634384027996e-07
-1.73815303791774e-06
-1.21070555133107e-05
-2.23596865287873e-06
-1.11845771273302e-05
-2.33437575001516e-07
1.40826113984325e-07
-3.4211679979333e-06
-8.58473428853274e-08
-7.54346806196286e-08
2.3195703872717e-08
-5.6746162059196e-06
-4.21520861222461e-07
-1.5283878975051e-06
1.29685773756683e-06
-8.62021883642432e-07
-1.15757257133454e-05
-3.00144571623752e-07
-2.00925804406284e-05
1.19262944111867e-06
4.02279045721413e-06
2.88417039708563e-06
-1.46450720423695e-05
-1.68851293793446e-05
5.39618825881363e-07
8.76448909262474e-07
-7.70513742072336e-07
1.2425456672168e-06
-1.35721019810866e-05
-2.53544376152667e-06
-4.00325074109421e-07
-3.38877549937302e-08
-2.31437853720645e-06
-6.15529202839125e-07
-3.89578121578983e-08
-4.30910129257124e-06
-3.34692557359081e-07
-1.56734108805994e-07
-2.3675532540083e-06
-9.96836044798681e-07
-3.86190452035221e-08
-3.79081931771884e-06
-6.47917673595297e-07
-2.7962537986829e-08
-8.31082875335034e-06
1.17122662210008e-07
-1.3366382479177e-07
-2.53000316675842e-06
-1.50075862981402e-06
-5.9281581000242e-08
-3.76657915732192e-06
-1.34054822185045e-06
-1.10307901699279e-07
-5.8273230230128e-06
-7.92237741680956e-07
-1.38261534159643e-07
-1.3639514930918e-05
6.42837859547153e-07
2.39278484246527e-07
-2.70949832602246e-06
-9.28093280345582e-08
-3.82381061262503e-06
-2.10782241638253e-06
-2.43376694646345e-07
-5.4325480161054e-06
-1.90511387211186e-06
-3.89041982967522e-07
-8.39614124811053e-06
-1.24578916401125e-06
-2.75227584636367e-07
-7.85519162538547e-07
-1.3834826468023e-05
-1.41432197208994e-05
1.49278856258331e-07
-1.39111821064435e-05
3.25807057343504e-07
-1.46001703337706e-05
4.2026489946071e-08
-6.46665023479642e-06
-9.51772371176344e-08
-3.59722176821365e-08
-9.14366324272038e-06
-4.339898837018e-07
-1.01289695041049e-06
-2.15916221440755e-07
-1.23667324791461e-05
2.82305482079727e-07
-1.32502840539933e-05
-3.40245224053934e-07
2.97161969700682e-07
-3.35371571451483e-06
-2.436845732581e-08
-2.8938999054223e-07
1.80815794389022e-07
-5.44098578873756e-06
-2.10905176930506e-07
-1.061028311976e-06
-1.06302064219516e-07
2.77194889313036e-07
-1.11071049254291e-05
-2.99877611909356e-06
-2.05489657523654e-05
1.27426325421185e-07
1.35048596566091e-06
-3.62950896433963e-07
-1.81959250693288e-05
-1.19933344931291e-05
-4.39974664655076e-07
-4.47287680884564e-07
1.9567133349083e-06
-4.3445165176838e-07
-1.49247750192314e-05
1.14793690853344e-06
-1.56711461488066e-06
-1.4213944364745e-05
-2.43163457706972e-06
-4.34426018874485e-07
-9.6288593785467e-09
-2.10015122419123e-06
-6.05264948054689e-07
-9.28645646468101e-09
-4.02637299924515e-06
-4.849133550488e-07
-1.21088373733594e-07
-2.07359604930335e-06
-8.93461995493953e-07
-1.60238918648363e-08
-3.38235238549703e-06
-7.09097753407631e-07
-7.30160143450783e-08
-7.64163524147753e-06
-3.89844816398015e-07
-5.42376218375232e-07
-2.20681408416425e-06
-1.29207243345126e-06
-2.79523153712622e-08
-3.22291765569241e-06
-1.16648319930923e-06
-6.37135716696004e-08
-4.83566118142919e-06
-7.93356792967068e-07
-1.09139067725365e-07
-1.17982176876518e-05
3.78859361692466e-08
-5.61109733099626e-08
-2.39273527042441e-06
-5.36140948590818e-08
-3.30702428536001e-06
-1.77739825197311e-06
-1.39215913987367e-07
-4.52725014491174e-06
-1.57193573518308e-06
-2.35903760948059e-07
-6.80702959761893e-06
-9.34792515687598e-07
-1.49734066814145e-07
-9.93610728636564e-06
-2.20002565390828e-07
-2.47445598263792e-07
-3.45271700964121e-06
-2.18288721762108e-07
-4.49200528347837e-06
-2.4433340623409e-06
-3.86726658482931e-07
-6.05741871307237e-06
-2.14252308166327e-06
-5.38992670556235e-07
-7.79383668492863e-06
-1.50624651547519e-06
-6.61815737423443e-07
1.03224528609708e-07
-1.36557538296345e-05
-1.41066397502666e-05
3.69851296458035e-07
-1.39912239890692e-05
3.16048729624402e-07
-1.48742143014355e-05
2.42742336753129e-07
-6.40458246607571e-06
-7.65550753757868e-09
1.99467584012657e-07
-8.95542271969169e-06
-3.02081573319271e-07
-8.39849278126092e-07
5.94018745290874e-07
-1.22777010908164e-05
1.58625886712589e-06
-1.45284761938556e-05
-3.72630198605986e-07
3.58131740748574e-07
-3.33863207427278e-06
-5.87359083997328e-10
-4.98389321970633e-07
4.29992758354741e-07
-5.30288886115148e-06
-9.40721400760272e-08
-4.13914621559043e-07
-8.24619296043227e-07
6.75510059999455e-07
-1.07549853953099e-05
-4.43895140938156e-06
-1.97634264527909e-05
-1.5785657537517e-08
1.25135064180893e-07
-2.7505654780909e-06
-1.82864762344484e-05
-1.1180548139765e-05
-8.377592881127e-07
-1.67748482872761e-06
3.01175492137987e-07
-1.73453073569969e-06
-1.71970016271638e-05
1.91396266954652e-07
-2.17123827418131e-06
-1.45120449731995e-05
2.17088440529495e-06
-3.15749771057084e-06
-1.36412487602514e-05
-2.37034066244902e-06
-4.3441384337206e-07
4.88432720547638e-10
-1.95450544019776e-06
-5.86084978998634e-07
6.01447894970968e-09
-3.85842056114242e-06
-5.69319395063822e-07
-1.06649212360218e-07
-1.85916748368791e-06
-8.20113776444738e-07
4.20384664676484e-10
-3.09343639331502e-06
-7.34502281612437e-07
-4.86103299748023e-08
-7.19703977788611e-06
-6.32650076293708e-07
-7.57647241218746e-07
-1.9495260549668e-06
-1.14167156700301e-06
-9.07839897653119e-09
-2.83842889280485e-06
-1.06454077564875e-06
-4.50680837426819e-08
-4.30477860077169e-06
-8.37323959832013e-07
-1.56413645811416e-07
-1.0992179191884e-05
-4.90087134983435e-07
-6.66912163080143e-07
-2.1221888672738e-06
-1.53650235466374e-06
-2.61163271670698e-08
-2.89058271409216e-06
-1.53603918257878e-06
-7.48371012694157e-08
-3.87414870636973e-06
-1.37097460340229e-06
-1.39193818236113e-07
-5.74085403806758e-06
-9.6576916709923e-07
-1.71652601822271e-07
-8.72828198999988e-06
-4.13924113362332e-07
-5.48828708564118e-07
-3.05112764577676e-06
-1.36019062486721e-07
-3.89421684561789e-06
-2.067814642469e-06
-2.41122586022384e-07
-5.11684171853091e-06
-1.77442159666086e-06
-3.36845779912477e-07
-6.57419334801341e-06
-1.19534798786417e-06
-3.9402447971481e-07
-9.44992851150386e-06
-6.5030349189565e-07
-1.20262115193313e-06
-4.03456026456511e-06
-3.60967405405208e-07
-5.03870938295315e-06
-2.71654367777116e-06
-5.45526031692145e-07
-6.09679564180765e-06
-2.27701779344838e-06
-7.29844659991885e-07
-7.27633024181215e-06
-1.64638782785132e-06
-1.06453393698103e-06
1.07816964527961e-08
-1.20802876207162e-05
-1.31320353429717e-05
3.84932328624218e-07
-1.38606787925658e-05
2.6052063026143e-07
-1.48920208647647e-05
3.50822456913637e-07
-6.44933312186257e-06
5.20471843305796e-08
2.96417390361374e-07
-8.81932856686431e-06
-1.0196444902673e-08
-5.07052501273006e-07
6.57701455077001e-07
-1.20549363568186e-05
1.82053676594773e-06
-1.46852084892398e-05
-3.75715733046633e-07
3.84841994493472e-07
-3.40933808624654e-06
6.15760799607495e-08
-5.93072598050903e-07
5.49435207593645e-07
-5.16713116942191e-06
-9.27162800252842e-08
-1.63798646916487e-07
-1.32342505181215e-06
1.08248470809091e-06
-1.04443230851067e-05
-5.31908438035281e-06
-1.97407970495904e-05
-1.27106022641288e-07
-6.4056904338827e-08
-4.11109570066041e-06
-1.83388374842295e-05
-1.0884628461049e-05
-9.21277896934295e-07
-2.38442062582934e-06
-8.82071877406999e-08
-2.96382935247167e-06
-1.69689627130837e-05
-1.70464561495052e-07
-3.10509949574199e-06
-1.60926637918964e-05
-4.34884148420563e-07
-3.60465258574146e-06
-1.36300020022335e-05
2.90772598578418e-06
-4.16366449444853e-06
-1.25491211203764e-05
-2.35494321894135e-06
-4.20675320497844e-07
2.95592569340953e-08
-1.85299926656467e-06
-5.57133743732734e-07
2.12146826390511e-08
-3.71819361193506e-06
-6.13955703409823e-07
-1.1885451298588e-07
-1.69878259327816e-06
-7.58650394610351e-07
1.21804278256937e-08
-2.89230486043243e-06
-7.36929613076016e-07
-2.75040874743337e-08
-6.90115688945055e-06
-7.75668006319377e-07
-9.50287235776627e-07
-1.74682099752885e-06
-1.02754501160498e-06
4.72599992392321e-09
-2.55986601782807e-06
-9.94421448626264e-07
-1.82228232085138e-08
-3.95154663125297e-06
-8.78053716717656e-07
-1.56433669449143e-07
-1.04266138267204e-05
-7.58868839297977e-07
-9.99209790135691e-07
-1.8962874233335e-06
-1.35901187974884e-06
-8.5610411725723e-09
-2.5634473753183e-06
-1.36528617488416e-06
-3.54677232369248e-08
-3.41409967858346e-06
-1.25049286873088e-06
-9.19452529417814e-08
-5.14437227502433e-06
-9.85008614350784e-07
-2.57967183594719e-07
-8.0534684612903e-06
-5.88462493843263e-07
-9.23722272670534e-07
-2.07976203374501e-06
-1.73806751919843e-06
-3.00268247065827e-08
-2.70856790762439e-06
-1.82844499376738e-06
-7.62692888638206e-08
-3.41091591424985e-06
-1.78949202873675e-06
-1.39618147642217e-07
-4.43274890132063e-06
-1.55942438623939e-06
-2.29626572957878e-07
-5.71698502667613e-06
-1.09931151056545e-06
-3.43466600639907e-07
-8.40665943035083e-06
-5.88708365680698e-07
-1.09159472228348e-06
-3.57074986573602e-06
-2.36243552150035e-07
-4.39310253294817e-06
-2.30883547237067e-06
-3.52311248259444e-07
-5.26258720489815e-06
-1.90274428840174e-06
-4.63651858039655e-07
-6.27116849357825e-06
-1.35107951757405e-06
-6.98405040614971e-07
-9.57014747114599e-06
-7.45872244339521e-07
-1.83528485241172e-06
-4.51921572112227e-06
-5.16955984525559e-07
-5.21231525354586e-06
-2.82855258318917e-06
-7.05009632077699e-07
-5.90316867074236e-06
-2.30190749098016e-06
-9.23780774582257e-07
-6.98831963680265e-06
-1.65616321691198e-06
-1.33734935065992e-06
-1.48107629673479e-07
-1.01116789795545e-05
-1.22375603055418e-05
3.20528702261693e-07
-1.36243297505728e-05
1.99512087773828e-07
-1.47407539939791e-05
5.23414151841292e-07
-6.60732368622285e-06
1.93999693838295e-08
4.60906721963342e-07
-8.70694057785773e-06
2.81515698920823e-08
2.31873008504402e-08
7.68241573525141e-07
-1.17741117194413e-05
1.78437818613709e-06
-1.35387444564865e-05
-4.07333014018493e-07
6.59437090274037e-07
-3.72263410179953e-06
6.1188862557176e-08
-6.74228482387673e-07
6.52108249130868e-07
-4.97632703958653e-06
-1.07118802142871e-07
-4.04308704181716e-07
-1.60035867674653e-06
1.42121904188162e-06
-9.95360120811661e-06
-5.7929621697103e-06
-1.93405334190713e-05
-2.16088162358525e-07
-1.06924204365932e-07
-4.97885165150076e-06
-1.87661131623845e-05
-1.09025433454765e-05
-9.44588209421265e-07
-2.8735913865641e-06
-8.16922336677502e-08
-3.91560450640365e-06
-1.73053695805078e-05
-6.86243908488419e-08
-3.47481952288618e-06
-1.65306142110405e-05
-2.72742019590567e-07
-4.12303655887618e-06
-1.53015266111772e-05
-6.13470827570682e-07
-4.38520978091756e-06
-1.2794992852201e-05
3.35843973669556e-06
-5.05918379053379e-06
-1.12527108793341e-05
-2.48388229397445e-06
-4.29874170089953e-07
1.51477017184621e-07
-1.78199203821565e-06
-5.21942132947498e-07
3.02601588747407e-08
-3.56837736251594e-06
-6.64039693776943e-07
-1.30445888408559e-07
-1.57420648284005e-06
-7.01722249272104e-07
2.00116598621546e-08
-2.73599947628178e-06
-7.266779901002e-07
-2.23658405884049e-08
-6.61233594207511e-06
-8.53256390673072e-07
-1.15477919023386e-06
-1.58533699536045e-06
-9.34873418229431e-07
1.47383415460844e-08
-2.35121375703838e-06
-9.36402471441685e-07
3.00030467970405e-09
-3.70422838051079e-06
-8.88631181699915e-07
-1.61854671596808e-07
-9.98136202785002e-06
-8.8159398071096e-07
-1.12740001229027e-06
-1.70857391943884e-06
-1.21866419132402e-06
3.40536222006049e-09
-2.30707474044675e-06
-1.23934122027729e-06
-6.72746488986149e-09
-3.08589381254808e-06
-1.17007563156675e-06
-5.44047873686602e-08
-4.74260330455648e-06
-1.02655394994582e-06
-2.90510592598783e-07
-7.52121418237954e-06
-7.1784066492313e-07
-1.08636500067356e-06
-1.87905351987978e-06
-1.54619365311108e-06
-1.35265345080889e-08
-2.42528435230811e-06
-1.6206736238771e-06
-3.64570425587877e-08
-3.03103087443008e-06
-1.59133543018439e-06
-7.45090506044316e-08
-3.92801376962823e-06
-1.42380635364978e-06
-1.57878765148306e-07
-5.13136896987474e-06
-1.08599155937287e-06
-3.46048296083846e-07
-7.71906262580729e-06
-6.15886258559447e-07
-1.06405988386078e-06
-2.0564276404887e-06
-1.90231981263676e-06
-3.55062022752682e-08
-2.60621183540094e-06
-2.06314839728766e-06
-8.44697837605004e-08
-3.17334649218361e-06
-2.12092407310392e-06
-1.42239513654633e-07
-3.86879949592268e-06
-2.00469191555877e-06
-2.18649928109738e-07
-4.61357692225451e-06
-1.66618653166959e-06
-3.11755085956554e-07
-5.51232273220288e-06
-1.19237812940937e-06
-4.98638077208108e-07
-8.57333962846564e-06
-6.90139647706566e-07
-1.47995414461167e-06
-4.01472764557044e-06
-3.49420967483564e-07
-4.58430076890241e-06
-2.41738204561615e-06
-4.6568236305726e-07
-5.16950815140231e-06
-1.94356923262099e-06
-6.04815606048647e-07
-6.12939224780368e-06
-1.38846700971967e-06
-9.14733016545002e-07
-9.78137516251082e-06
-8.05752238776553e-07
-2.25762194011945e-06
-4.70059659592209e-06
-6.68636762036205e-07
-5.124830961007e-06
-2.80536106495856e-06
-8.49599092796899e-07
-5.66808889015249e-06
-2.24701084031712e-06
-1.07323426858517e-06
-6.79996784887496e-06
-1.61916165615215e-06
-1.52177355063222e-06
-3.21930834293334e-07
-8.00540709250044e-06
-1.14708219543749e-05
3.34589493173873e-07
-1.32985845509442e-05
2.80893987373128e-08
-1.42454824438003e-05
1.13952755037496e-06
-7.00159571781148e-06
-8.58393996022333e-08
6.11700041804427e-07
-8.48701602705224e-06
-1.60162247373596e-07
6.97525802515204e-08
9.25715463093681e-07
-1.13202643689346e-05
1.51639229683831e-06
-1.16270200637463e-05
-6.34849375358381e-07
1.60944943047696e-06
-4.63526565634303e-06
-6.19741901674634e-08
-8.9076504902584e-07
1.02636937232359e-06
-4.84717452915816e-06
-2.03582384704067e-07
-8.40082745397589e-07
-1.99096450578949e-06
1.87380396628337e-06
-9.10349163929162e-06
-5.86948477167799e-06
-1.87903257645161e-05
-3.25312788751199e-07
-2.10613525202825e-07
-5.39065610068521e-06
-1.87181113722668e-05
-1.09612993218074e-05
-9.56230137996663e-07
-3.22947424598658e-06
-2.10685762929401e-07
-4.61738644824366e-06
-1.7853644073853e-05
-1.72664505332513e-07
-3.98468007794805e-06
-1.66228508364748e-05
-2.87410636383457e-07
-4.2017358634124e-06
-1.61645125841881e-05
-5.01024707242778e-07
-4.66617266305536e-06
-1.45195343180347e-05
-7.74759771200402e-07
-5.25152933919457e-06
-1.18279001466611e-05
4.0167311965947e-06
-6.58457408505186e-06
-9.52498145377374e-06
-2.81143287225189e-06
-5.15067106417936e-07
2.07764319449871e-07
-1.76678899648852e-06
-4.97754301665613e-07
5.2678545510518e-08
-3.41445105619976e-06
-8.25249300182341e-07
-6.79625685520404e-08
-1.47514210547502e-06
-6.48188744966547e-07
2.71818641942542e-08
-2.61207977099613e-06
-7.22448231326314e-07
-3.52476731577103e-08
-6.20457882430678e-06
-9.48468843300101e-07
-1.58070289614278e-06
-1.45345075633135e-06
-8.55285943592936e-07
2.16763663487522e-08
-2.18810439559152e-06
-8.85033084559538e-07
1.5256246173268e-08
-3.50755134047208e-06
-8.84247812956224e-07
-1.88045485055618e-07
-9.6663831601637e-06
-9.45784919077271e-07
-1.29871872122938e-06
-1.55195855407382e-06
-1.10360877517586e-06
1.21194466215078e-08
-2.1033820706548e-06
-1.13923316805095e-06
1.38746045224211e-08
-2.83916691532036e-06
-1.10404897998426e-06
-2.83070664929334e-08
-4.45483191516825e-06
-1.03610531594437e-06
-2.95108343628905e-07
-7.16959287351119e-06
-8.18686825274127e-07
-1.16136271657377e-06
-1.70587422960316e-06
-1.38923497342746e-06
-2.60868022534615e-09
-2.1917498947211e-06
-1.46026841148636e-06
-9.20304302249749e-09
-2.73273700303967e-06
-1.44600804595115e-06
-2.90883061595804e-08
-3.56255970483846e-06
-1.33416065731758e-06
-1.12248383395359e-07
-4.71610436789697e-06
-1.08765098432223e-06
-3.35961100652006e-07
-7.24034516688914e-06
-7.09316691065887e-07
-1.14318375336288e-06
-1.87792967168628e-06
-1.70436232953627e-06
-2.03290464196996e-08
-2.35646105504118e-06
-1.83709002958539e-06
-4.68604878146514e-08
-2.84488758945443e-06
-1.87931963649712e-06
-7.6931056687299e-08
-3.45180949483974e-06
-1.78641116602597e-06
-1.2889117515758e-07
-4.12038557649414e-06
-1.51717213840452e-06
-2.19883850654793e-07
-4.95792586454708e-06
-1.11956659346775e-06
-3.9676175600244e-07
-7.81517781507476e-06
-6.9906819271478e-07
-1.29581975622099e-06
-2.04532354789259e-06
-2.03712749366602e-06
-4.04175412161614e-08
-2.53630795633495e-06
-2.24984174865486e-06
-9.36076590229833e-08
-3.04346573358856e-06
-2.38643269320231e-06
-1.54416951158847e-07
-3.57946515371343e-06
-2.36026845515413e-06
-2.21923236603228e-07
-4.06538380818281e-06
-2.10478994562289e-06
-2.9895833473811e-07
-4.57698057541826e-06
-1.69711314221172e-06
-3.99541661626522e-07
-5.45043912262896e-06
-1.22649386434958e-06
-6.41233378623649e-07
-8.89025619372068e-06
-7.67829392026203e-07
-1.81392917321626e-06
-4.19774409013013e-06
-4.62863250672126e-07
-4.5481323051676e-06
-2.41261784446739e-06
-5.73327031511585e-07
-5.02268944808766e-06
-1.91725785878595e-06
-7.21418952275271e-07
-6.05807720458498e-06
-1.38337671948527e-06
-1.07899451577611e-06
-1.00054331113114e-05
-8.39643883326138e-07
-2.5844544845846e-06
-4.64596212597738e-06
-8.02798201063693e-07
-4.93770341380326e-06
-2.70731591670804e-06
-9.65614218713346e-07
-5.45032608492689e-06
-2.15660428145984e-06
-1.17786684579534e-06
-6.65391166356233e-06
-1.56616416075207e-06
-1.64691997840325e-06
-5.47001323346383e-07
-5.94207117453449e-06
-1.07576315013333e-05
3.15948426336967e-08
-1.2690495106838e-05
-1.69997461116005e-07
-1.29360287818602e-05
2.43395850618107e-06
-7.51826158567659e-06
-3.07873382915942e-07
1.14077696303091e-06
-8.25509682158825e-06
-4.32223475302496e-07
-1.39521162690501e-07
1.10055509470471e-06
-1.05677246985822e-05
1.36839629116213e-06
-9.11831515274708e-06
-2.44886623964045e-06
5.16357554775808e-06
-7.72107996612527e-06
3.71098687859081e-07
-1.39989289005227e-06
1.78015658696604e-06
-5.59314143320242e-06
3.0371516422855e-07
-1.77176169340509e-06
-2.86559845737878e-06
2.35720727657199e-06
-7.02694041866893e-06
-5.63611768779829e-06
-1.81637536562477e-05
-4.01939044672406e-07
-3.28259662987034e-07
-5.4482300923819e-06
-1.84044923598152e-05
-1.1048089173754e-05
-9.6551834841764e-07
-3.50108554844381e-06
-3.4447916287107e-07
-4.93544840242322e-06
-1.80555690216723e-05
-3.32424378673823e-07
-4.4069316720965e-06
-1.70989738466202e-05
-3.86538887492769e-07
-4.34402099495563e-06
-1.60940405326703e-05
-5.51657625451147e-07
-4.90171215211365e-06
-1.537732329118e-05
-6.46007794662325e-07
-5.29981740777268e-06
-1.38252311004178e-05
-8.60107460157386e-07
-6.6212520323066e-06
-1.09311328122313e-05
4.90919429451698e-06
-8.45641580413842e-06
-7.74956209335669e-06
-5.21771160546718e-06
-1.18140959759781e-06
1.1388135150117e-06
-1.82676391269603e-06
-4.99893187677531e-07
4.4804347314373e-08
-3.5294537744874e-06
-1.40961083640464e-06
3.32486828974357e-07
-1.40077381598277e-06
-6.00910113669378e-07
2.87872239321394e-08
-2.57621872465292e-06
-7.50064979750473e-07
-5.83623623730376e-08
-5.2248533834574e-06
-1.29124101288435e-06
-2.6220459702175e-06
-1.34264182980311e-06
-7.84962750454612e-07
2.59639011463541e-08
-2.06005040736601e-06
-8.41721394698286e-07
1.83991104663036e-08
-3.33450672142063e-06
-8.91721847581142e-07
-2.65033977218393e-07
-9.44327789248294e-06
-1.02052003971671e-06
-1.6433745963154e-06
-1.41934370940258e-06
-1.00622767937648e-06
1.8325958719025e-08
-1.93836287564775e-06
-1.05565756762689e-06
2.72789657284093e-08
-2.64477922647242e-06
-1.04695055926952e-06
-1.64277877765963e-08
-4.24014794059578e-06
-1.03140663978378e-06
-3.17102646577411e-07
-6.96037423603426e-06
-8.72985765594651e-07
-1.28096466557065e-06
-1.55617690041293e-06
-1.25854398885495e-06
5.23746134046698e-09
-1.99777487109287e-06
-1.33122159758001e-06
1.01314378504612e-08
-2.49449247237182e-06
-1.33072211001641e-06
2.30343252853593e-09
-3.28512053149927e-06
-1.26165643681773e-06
-8.01915388768012e-08
-4.4268700514591e-06
-1.08496033055592e-06
-3.18064937733427e-07
-6.84696399266785e-06
-8.31226386645298e-07
-1.27518714734491e-06
-1.71866683116993e-06
-1.53829242709826e-06
-1.02053126531897e-08
-2.14287699488492e-06
-1.6553151818262e-06
-2.11460632135847e-08
-2.57381875099609e-06
-1.69422766994345e-06
-3.20523641514989e-08
-3.12088667278029e-06
-1.62685004880284e-06
-6.73192584143821e-08
-3.74703728192701e-06
-1.41587358326161e-06
-1.57368963393815e-07
-4.55451817547622e-06
-1.09680346348541e-06
-3.51881027146433e-07
-7.29229387959207e-06
-7.65433822794334e-07
-1.28718016472259e-06
-1.88499318889436e-06
-1.8381706300088e-06
-2.65215788063162e-08
-2.31751033487854e-06
-2.01692058481072e-06
-5.9295480225289e-08
-2.75279156452254e-06
-2.12382656365505e-06
-9.30269811819862e-08
-3.21739945150843e-06
-2.0941505269799e-06
-1.31255711063764e-07
-3.64606319152143e-06
-1.87859644642714e-06
-1.86782898785511e-07
-4.11009082897533e-06
-1.53548180080252e-06
-2.70853414445529e-07
-4.92399911771286e-06
-1.13899663787341e-06
-4.83271906319089e-07
-8.19560171705248e-06
-7.66073001764103e-07
-1.55682908029175e-06
-2.04031083067002e-06
-2.1484599074168e-06
-4.39272551231081e-08
-2.48907019211626e-06
-2.40094781185056e-06
-1.01043752505918e-07
-2.95251688867029e-06
-2.59642016430087e-06
-1.66082172852008e-07
-3.41742683513618e-06
-2.64587724971898e-06
-2.36888920057196e-07
-3.75919032645718e-06
-2.46022333199645e-06
-3.05041405319562e-07
-4.0626359282815e-06
-2.10602902553927e-06
-3.75533931564483e-07
-4.48901254728548e-06
-1.67914745948019e-06
-4.80560119306167e-07
-5.45852739071637e-06
-1.23502315452743e-06
-7.7358611653591e-07
-9.24661275640753e-06
-8.06458204124875e-07
-2.11076766558917e-06
-4.17361496992437e-06
-5.66945553139811e-07
-4.41928608810957e-06
-2.34392551220653e-06
-6.65072163155369e-07
-4.88453380903246e-06
-1.85838454026738e-06
-8.12198194440744e-07
-6.01419853404638e-06
-1.35834002695903e-06
-1.20000704785562e-06
-1.02421529125148e-05
-8.59161201143681e-07
-2.8594874154735e-06
-4.48642201207144e-06
-9.12268958171734e-07
-4.73203745975972e-06
-2.57780654160878e-06
-1.05121922500049e-06
-5.25356101678075e-06
-2.05148387528112e-06
-1.24737870702504e-06
-6.54328237303116e-06
-1.50609665016389e-06
-1.73297809951847e-06
-3.11912562984881e-07
-4.26182577912935e-06
-9.93755336704086e-06
-4.67291447431905e-07
-1.12525538100063e-05
-7.21497979345215e-08
-1.04300100715905e-05
3.98885058062281e-06
-6.48023299839653e-06
1.36642261694959e-07
2.07954996327053e-06
-8.22256175837392e-06
-6.39873184667281e-07
-8.18712182262307e-07
1.43286727757352e-06
-9.25698295410372e-06
1.54470276998089e-06
-6.57263965714322e-06
1.1911632324142e-05
-1.87133650989829e-05
-9.19369202597177e-07
-1.80083535507965e-06
4.76431433846635e-06
-8.13363622070624e-06
-5.19105238469003e-08
-3.72469351151232e-06
-3.88832927451309e-06
1.95649440493731e-06
-1.06671442587116e-06
-5.16546570579471e-06
-1.75156767900034e-05
-4.56861701021717e-07
-3.79565868676292e-07
-5.26729607752753e-06
-1.79651165237687e-05
-1.11828732641487e-05
-9.63885497592414e-07
-3.6904739978449e-06
-4.20983555246156e-07
-4.95631882360098e-06
-1.79626368990801e-05
-4.04502401956579e-07
-4.60028226244921e-06
-1.74577197738315e-05
-4.40006587869054e-07
-4.44506634620324e-06
-1.65579329471565e-05
-5.56974521946247e-07
-4.78195901926297e-06
-1.56568384994844e-05
-6.68588996652051e-07
-5.37804665112685e-06
-1.46305215033125e-05
-7.51296065955086e-07
-6.37312335897082e-06
-1.33220590423701e-05
-1.19614100987293e-06
-8.03922837864067e-06
-1.0152190276524e-05
7.46772041926445e-06
-1.27733057256502e-05
-6.1687020457612e-06
7.63370066756513e-07
-4.92895548012472e-06
-1.48358278651255e-06
4.31461333791694e-07
-2.31446212389466e-06
-5.50901777170893e-07
-1.42805467776702e-07
-2.53479339574662e-06
-1.56263080769162e-06
-9.40524189595498e-08
-1.34661201182894e-06
-5.6353081490444e-07
9.47637031416663e-09
-2.95085993650419e-06
-8.0623799988336e-07
-1.83917428846849e-07
-2.20709957292437e-06
-9.46593542743973e-07
-5.62700079501808e-06
-1.24693219724991e-06
-7.23002927830573e-07
2.63821540263076e-08
-1.98169742350206e-06
-8.07619524903881e-07
7.98786412725774e-09
-3.26678130123329e-06
-9.54073305115709e-07
-4.63246387124479e-07
-9.63587678064369e-06
-1.24050346679737e-06
-2.38505426538276e-06
-1.30459443591179e-06
-9.22085229383232e-07
2.23721290680618e-08
-1.80389276110471e-06
-9.84412435742856e-07
3.41823359311633e-08
-2.49314599485918e-06
-1.00181903627108e-06
-2.31355090308259e-08
-4.09553637406506e-06
-1.03772578624977e-06
-3.92431885110769e-07
-6.9267260377078e-06