/*--------------------------------*- C++ -*----------------------------------*\
  =========                 |
  \\      /  F ield         | OpenFOAM: The Open Source CFD Toolbox
   \\    /   O peration     | Website:  https://openfoam.org
    \\  /    A nd           | Version:  12
     \\/     M anipulation  |
\*---------------------------------------------------------------------------*/
/*   Windows 32 and 64 bit porting by blueCAPE: http://www.bluecape.com.pt   *\
|  Based on Windows porting (2.0.x v4) by Symscape: http://www.symscape.com   |
\*---------------------------------------------------------------------------*/
FoamFile
{
    format      ascii;
    class       volVectorField;
    location    "200";
    object      U;
}
// * * * * * * * * * * * * * * * * * * * * * * * * * * * * * * * * * * * * * //

dimensions      [0 1 -1 0 0 0 0];

internalField   nonuniform List<vector> 
10107
(
(-0.000274581696184723 0.000363871890423754 -0.00314523491012877)
(-0.00050812701621104 0.00117181793504521 -0.00462139779179414)
(0.000132388233575121 0.000898760092720456 0.000388086892059523)
(0.000373239991501264 0.000451009141077068 -0.00446488648346001)
(-0.000482441904903192 0.00127234483414453 -0.00483450682823833)
(-0.000124188088651857 0.00070505938578838 -0.000821457248123115)
(8.65868868749059e-06 0.000760414800449086 -0.00446655454933086)
(-1.96273889967748e-05 0.000230774333365677 0.000291275967466179)
(0.000121951296437457 0.000663987139215514 -0.000674325465275459)
(0.0002767054842686 0.00099524275062764 -0.00184267087107421)
(-0.000265258990067431 0.00177798547662273 -0.00286438132023934)
(-8.82959594503895e-05 0.0017713352792298 -0.00211416676872739)
(-0.000340699446033546 0.000906671983843062 -0.00473011195483671)
(-3.76538133135e-05 0.000389502699679731 -0.000727411908851081)
(0.000302500400958439 0.000889185166868982 -0.00148911298731767)
(0.000531357158834231 0.000858914414366777 -0.00574344512115483)
(0.000211598907430514 0.00171254217669548 -0.00163838874240449)
(-3.18210070454724e-05 0.000312867391291193 4.07264373047532e-06)
(2.25135791381426e-05 0.000524482473870783 0.000556823763923191)
(0.000109090409557317 0.000455134552304679 -0.000297098041868312)
(1.85754032171264e-05 0.00048322754487341 3.35854923837281e-05)
(0.000175520657255859 0.000624875212799854 -0.000241257490541304)
(0.000278467796131024 0.000688374855735706 -9.23706376523817e-05)
(0.000138857079852446 0.000599661337539323 -0.000186792464768451)
(0.000176066613234649 0.000706857583361633 -0.00102602636934817)
(-0.000475811273180076 0.00153220412073664 -0.00291110030864419)
(0.000109942018311083 0.00220303623878965 -0.00232199829179647)
(6.93926712678645e-05 0.000773835918327175 -0.00163277440388904)
(-9.59426186581544e-05 0.00175568311613501 -0.00242388548233105)
(0.00016505630082114 0.000402797173127362 -0.00494400034511107)
(2.81120077613428e-05 0.000207575922519533 -0.000442363507435689)
(8.91606324795364e-05 0.000454869569368718 -0.00125643488228434)
(0.000197961236724418 0.000417444766202374 -0.00163993418539138)
(0.000185005256403706 0.000672075366658006 -0.00100213514170157)
(0.000232043125360255 0.000427921870243013 -0.000466700643478763)
(0.000634355177250643 0.000563556470815344 -0.004912639987468)
(0.000479651816158487 0.000446306327983935 -0.00216060851504912)
(9.6917414268656e-05 0.000890815128141785 -0.00167662621251895)
(0.000120715833424683 0.000390909882990708 -0.00077319918467065)
(2.2871778860147e-05 0.000230006150450089 4.028080062761e-05)
(6.79121042041003e-06 0.000426127960013474 0.000420200959679739)
(7.0803391323257e-05 0.0003297604816879 -0.000487480038947644)
(6.19160442433732e-06 0.000712234535108388 0.000809922508810509)
(4.57540742167557e-05 0.000515599252888463 0.000279458078724331)
(8.15867005337433e-05 0.000351649910437918 -2.97300740999642e-05)
(9.54869379185334e-05 0.000292524005591164 -8.73316908438617e-05)
(0.000151581609910356 0.000416772327566738 0.000187833144812497)
(0.000102703647714737 0.000430096083915049 1.38874560394575e-05)
(0.000100101753069862 0.000402350838212045 0.000314685363956387)
(9.17611657590127e-05 0.000280481913619584 0.000127841192878785)
(0.000271508148455591 0.000429002775063711 5.98687983007895e-05)
(-0.000228521264052569 0.00118841477424068 -0.00261385818868689)
(1.50237809834571e-05 0.00197485372862782 -0.00220897299457895)
(0.000324098426871092 0.00144369038171172 -0.00286669770936988)
(7.29557872366513e-05 0.000283811103104426 -0.00115518119368782)
(0.000113703653218708 0.00098054642548876 -0.00224818595441531)
(0.000352359571024679 0.00158408432016089 -0.00300378320039863)
(0.000140509292116592 0.00156906325051075 -0.0039326961615932)
(3.11293000600632e-05 0.000131056466422306 -0.000332096172417391)
(9.32586414630559e-05 0.000284490374050595 -0.00107722312893994)
(0.000177697785550589 0.000603128816458119 -0.00170971538556607)
(0.000161000253268707 0.000267696531321217 -0.000337481550075617)
(0.00114920717271362 -0.00030235938955256 -0.00448892362581138)
(3.41784460851561e-05 0.00130161594519479 -0.003301683353217)
(0.000311403922009037 9.66205160526268e-05 -0.000679692268874405)
(9.16383355632035e-05 0.000337904081221315 -0.000430660433995472)
(9.52610706780011e-05 0.000197614172621751 2.79018259769918e-05)
(2.48575366678525e-05 0.000170510436980987 4.63544490292864e-05)
(1.64744471365543e-05 0.000331145523982079 0.000362345389676312)
(8.26403716379339e-05 0.0002683307245313 -0.000401065735086439)
(8.95533391789865e-06 0.000571740298319706 0.00066793530657729)
(5.24683968671341e-05 0.000428111298572763 0.000132516290167962)
(0.000207746278396063 0.00038439908895383 -0.000818177203469947)
(1.9183752882216e-06 0.000863048474764086 0.000935930397939068)
(2.71597132661895e-05 0.000709537101680195 0.000574031773237564)
(7.76888276755869e-05 0.000543445862613871 -3.58768504010403e-05)
(0.000122138374966237 0.000305183797587595 -0.000164474674815386)
(0.000126255878865963 0.000488021793776238 -0.000529943866902164)
(0.000101381510476646 0.000489349829392532 0.000284123903656024)
(7.84256722887944e-05 0.000392152236499316 0.000110394253889023)
(3.57872533663018e-05 0.00158722718055115 -0.00177415977920173)
(0.000170122309578812 0.00182847197218671 -0.00221860177437559)
(0.000436894177667763 0.00138071631767617 -0.0027441543128844)
(0.000333333689809697 0.000741636874376335 -0.00285107086497785)
(6.47294473418546e-05 0.000136185029264621 -0.000929321355016552)
(0.000163885790746748 0.000440579642168251 -0.0019141125831936)
(-2.71501718157953e-05 0.00119359579031827 -0.00251980730063501)
(0.000208944185658213 0.00191086683740257 -0.00291795507368763)
(3.39290486365756e-05 8.92266058661244e-05 -0.000272833477037549)
(0.000103558233675631 0.000163818888210364 -0.000939318467136458)
(4.66004672139999e-05 0.000416009136905369 -0.0014727212908305)
(0.00114917926091532 0.000169076878179508 -0.00362549794847938)
(0.000263167032026574 0.000474362904022829 -0.00264386662121838)
(0.000347855595376503 0.00048104588784444 -0.00115274505763815)
(-6.96437065631737e-05 0.00114785604960125 -0.00251489705857825)
(0.000125123917440954 0.000298532471184011 -0.000160702563200993)
(2.6789569583039e-05 0.000129095729042632 4.86496833178367e-05)
(1.91291682511478e-05 0.000264089402444159 0.000304708225848127)
(8.96044523497515e-05 0.000177926182395913 -0.000347111099611862)
(1.20212666685922e-05 0.000462870828419156 0.000563149698669594)
(6.2504492446922e-05 0.000345581033828889 8.4118692043588e-05)
(0.000119828859952498 0.000296816023122465 -0.00073110872640015)
(5.56396576775239e-06 0.000712144905592393 0.000802361184855818)
(3.67533880195903e-05 0.000568365938705407 0.000456551325953713)
(9.50246096575109e-05 0.000461660643155691 -0.000101299088008476)
(0.000158697896099697 0.000370505721372975 -0.000999227779220524)
(-1.01092261705029e-06 0.000992941326562122 0.00100761777610935)
(1.23827319521029e-05 0.000840683563217972 0.000763520223014631)
(5.60976875857712e-05 0.00069563227665728 0.000423585934864663)
(0.000168943976536795 0.000551125704651116 -0.000191178504938436)
(0.000429304535169369 0.00164665234724687 -0.00152213810858987)
(-9.45464721772163e-05 0.00154213147246052 -0.00229267013770828)
(0.000588963393809352 0.000827952971130172 -0.00310280642100758)
(0.000286874753391026 0.000394001016721306 -0.00284408178253615)
(6.5573676657047e-05 7.47681651348846e-05 -0.000815867786665569)
(0.000178310061876591 0.000223808953972974 -0.00174396716849369)
(1.5364093981403e-05 0.000772207995277619 -0.00235097294940818)
(0.000261765902046645 0.00170829021866777 -0.00314642116541273)
(3.7001458571087e-05 3.66654913529924e-05 -0.000205411907488635)
(0.000119192805124148 8.39409442255689e-05 -0.000862514855249991)
(0.000101975619615182 0.00023541669782153 -0.00134735259982334)
(0.00136616580928767 0.000169059980301803 -0.00351249694002331)
(0.000625133560014107 0.000262104157027755 -0.00288953334352589)
(0.000464814010246835 0.000370214895345568 -0.00125465553336877)
(1.87803179003429e-05 0.000534299100139858 -0.00192140732913584)
(-1.49923447073049e-05 0.000749559429508921 -0.00217685905160129)
(2.92358957344266e-05 7.90273281020691e-05 6.20491524316323e-05)
(2.09556721213094e-05 0.000211286889957797 0.000262833135087322)
(9.87332204655477e-05 0.000111632872955735 -0.00031864538549109)
(1.46282808511581e-05 0.00038211041876886 0.000478280270348244)
(6.92317850807802e-05 0.000261093904330453 5.98031493435037e-05)
(0.000144437315767895 0.000185931318339635 -0.000652329385107281)
(8.60596688067305e-06 0.000594349168660968 0.000691545467501264)
(4.60030670528093e-05 0.000455488919891944 0.000376144961579591)
(0.000107109843879425 0.000352490784249131 -0.000105743747966301)
(0.000147935172869241 0.000260973053573806 -0.000866962884917086)
(2.54061157587216e-06 0.00083948686277685 0.000887639364468666)
(2.30685759336683e-05 0.000692296930486606 0.000648007868967725)
(6.79658342298591e-05 0.000561760257748645 0.000323303820723307)
(0.000155612139456752 0.000445286993244658 -0.000230674605538932)
(0.000365575082165888 0.000298686226161191 -0.00120078361444506)
(2.06535446910026e-06 0.00095899492195924 0.000877378596665204)
(2.76760846409517e-05 0.000818270371003138 0.000661922253911742)
(9.35114989538996e-05 0.000665207338776812 0.000338708930560516)
(0.000249064990073207 0.000489714261459728 -0.000241690465199129)
(0.000692150069999322 0.00146984274451121 -0.00234951683615029)
(0.000196476366832607 0.00111792601882453 -0.00288791556356647)
(0.0006158336242649 0.000483180413987507 -0.00332786718827131)
(0.000221929812801691 0.00020922393371567 -0.00269222054045549)
(6.53953762616405e-05 2.12186033693187e-05 -0.000702287364102332)
(0.000198044097923385 0.000110827475163299 -0.00165285696277795)
(9.37195437452931e-05 0.000470907108419036 -0.00226449644175591)
(0.000211476546852694 0.00134356934617269 -0.00323725397190342)
(3.76928703972853e-05 -3.49902556624811e-05 -0.000135329955943999)
(0.000132894010477732 9.09243435759751e-07 -0.000778923383906903)
(0.000164959389333929 0.000111887969635597 -0.00128540722949676)
(0.00167488713715948 8.02812908595301e-05 -0.00339259949143398)
(0.00102251296138969 0.000150598008712747 -0.00314535061454096)
(0.00062076680960605 0.000295313337806696 -0.00119931716221599)
(0.000369941015957831 0.000249279625431548 -0.00241814543687822)
(2.41836876428296e-05 0.000377450070286471 -0.00176523231625218)
(0.000114209301715068 0.000450306491038682 -0.00221974603340669)
(3.08227403686966e-05 1.37050530771345e-05 8.0543790381946e-05)
(2.26322627364487e-05 0.000158072985680159 0.000234631790187696)
(0.000108971239276546 4.3104107370696e-05 -0.000287997568046882)
(1.63635705818201e-05 0.000316840928470293 0.000412816246813544)
(7.54932354182694e-05 0.000193801960150643 3.97421824264664e-05)
(0.000169588536109688 0.000106162644238015 -0.000614693664211139)
(1.07634776902007e-05 0.000502557173768831 0.000599303361151894)
(5.19811726942446e-05 0.000367943772101176 0.000313715749087283)
(0.000123319629532395 0.000258986700277559 -0.000108270192007526)
(0.000183610019432013 0.000162344933428425 -0.000812192949540558)
(5.41251957439487e-06 0.000715257298595126 0.000780084191006318)
(3.18844819510661e-05 0.000573099145330465 0.000553007875296088)
(8.50480536048206e-05 0.000448149495880593 0.000260054253062759)
(0.000167990511841662 0.000337764697460137 -0.000221492521992177)
(0.000334162171910704 0.000215323526881994 -0.00110613351632989)
(1.22349496695e-05 0.000808830977231798 0.000771203714938148)
(4.47728190557113e-05 0.00067378433828721 0.000555628694317623)
(0.000111439251054868 0.000539121401616995 0.00024595430012538)
(0.000244447360908202 0.00039340292615947 -0.000293813896042107)
(0.000558022004020551 0.000231900230777849 -0.00122618106911072)
(7.58317665806717e-06 0.000929957776772178 0.000800530779994017)
(4.70382546566262e-05 0.000788427930682069 0.000601191216701899)
(0.000140344390880353 0.000618160604673149 0.000283073684929039)
(0.000351527038534925 0.000426880430587793 -0.000256869379482953)
(0.000685202458535867 0.00124416262197842 -0.00332737032839548)
(0.000417035416032325 0.000782319786461513 -0.00350106054459583)
(0.000577961235958377 0.000298673358819012 -0.00346039020533527)
(0.000162093911156336 0.000129694072620141 -0.002570672245478)
(6.17320852647022e-05 -4.86321565684516e-05 -0.000573641568488526)
(0.000215404139603316 1.24103885275928e-05 -0.00153689040235783)
(0.000202949559675264 0.000264087271448229 -0.00226093898327323)
(0.000256380851403285 0.00094231692773402 -0.00341875280780077)
(3.55022242523779e-05 -0.000134540810181955 -6.67406401472513e-05)
(0.00013647577833592 -9.60592968300612e-05 -0.000689459007885892)
(0.000201955140213406 -5.96430795443516e-06 -0.00120531135262869)
(0.00202172274958118 5.56304214293609e-05 -0.00318138976343513)
(0.00130329455512174 6.14152020592271e-05 -0.00309727518247134)
(0.000809419713840202 0.000202803852674812 -0.00118873731876211)
(0.00077182699139146 8.03308638023748e-05 -0.00279663540495946)
(0.000277106394607266 0.000143040750430821 -0.00221909500398183)
(0.000141081439172667 0.00023631228893381 -0.00181513688459505)
(0.000231496167719666 0.000219383197986693 -0.00223331880925029)
(3.19064076051887e-05 -7.30961965524064e-05 9.44676349457706e-05)
(2.41318060799427e-05 9.76392268237151e-05 0.000212551888913784)
(0.000118422118881679 -3.89282842712736e-05 -0.000255363535887859)
(1.77092681778954e-05 0.00025739422865536 0.000360448697197338)
(8.24884338400188e-05 0.000130070102359124 2.58238161590392e-05)
(0.000194315697613544 2.64446795704565e-05 -0.00057757723737569)
(1.2319348271056e-05 0.000427117646825225 0.00052321362052992)
(5.71061368455269e-05 0.000295914582297077 0.000264392408188394)
(0.000136595516842313 0.000184091343327256 -0.000117560431037538)
(0.000230507689816693 8.17153664600585e-05 -0.000779373381149182)
(7.40727119357348e-06 0.000615160634548831 0.000688051003497304)
(3.79204252887496e-05 0.000478915735744563 0.000476063035893378)
(9.47201680273497e-05 0.000358598598920532 0.000211625145149528)
(0.000181489099097317 0.00025001555992132 -0.000222025333007886)
(0.000328951836447616 0.000126619420784458 -0.00103976007623634)
(2.61203431067276e-06 0.000821222648395864 0.000847876641891185)
(2.06899277772809e-05 0.000684768740329264 0.00067221568738576)
(5.92540951220327e-05 0.000556738212180969 0.000469080210263187)
(0.000128156302804036 0.000434121204881836 0.000188827873027209)
(0.000247515906284315 0.000306380911914669 -0.000298237412095223)
(0.000504027320363765 0.000147747038677114 -0.00114932958799308)
(2.4302362681566e-05 0.00078389625388274 0.000701811750545312)
(7.09159860311314e-05 0.000650277795971592 0.000499902859074497)
(0.000162453782758603 0.000502579240488425 0.000191934444393172)
(0.000346961326064943 0.000342956411370477 -0.000323293060958916)
(0.000723388011492242 0.000159184438511137 -0.00121301239511472)
(1.55511421914585e-05 0.000897025829491868 0.000751608550757052)
(7.34865304838686e-05 0.000743291544215661 0.00054783587847539)
(0.000199504314649052 0.00056232739998482 0.000237802065439888)
(0.000460559633801549 0.000360806686615721 -0.000281009931300485)
(0.000653278605006023 0.000981395218354373 -0.00424789037611234)
(0.000544928328997129 0.000526608074395148 -0.00400290758379544)
(0.000508159104351065 0.000185369188730621 -0.00344910484464368)
(0.000140087065155694 4.7196931842161e-05 -0.00229468932555271)
(5.13060700777469e-05 -0.000140428619927448 -0.000438305888730075)
(0.0002124048750955 -8.97578677269758e-05 -0.00139970791027529)
(0.000293454389894853 8.65590417535305e-05 -0.00219145540344529)
(0.000357443931795485 0.000568278160362902 -0.00357458617654539)
(3.23227126109936e-05 -0.000270597725505511 -1.74676326154253e-05)
(0.000130118551657929 -0.000223891330655494 -0.000602579322824143)
(0.000221219948553081 -0.000128306041004763 -0.00110345707663059)
(0.00229007334294642 6.40104893164407e-05 -0.00304955158394685)
(0.00160260756648192 3.39063693039568e-05 -0.00291978479357651)
(0.000991122578665172 0.000152691465960393 -0.00114217346663673)
(0.00114921406572025 2.93299642650518e-05 -0.00284707183573411)
(0.000661170401898378 2.27193682099829e-05 -0.0025421940431415)
(0.000343565502206011 6.67250796669757e-05 -0.00207709570111976)
(0.000271779131487955 0.000101336410627505 -0.00176160482008847)
(0.00031542335532666 1.24090773367929e-05 -0.00218835829123962)
(3.59108463131619e-05 -0.00018593226889427 9.14470057399572e-05)
(2.62399858455163e-05 2.71432287489406e-05 0.000187748269800569)
(0.000126982092987329 -0.000144595244716008 -0.000230735156087389)
(1.89959245634831e-05 0.000199084175326193 0.000315051410123356)
(8.99889326805889e-05 6.06459941549849e-05 1.31811688596309e-05)
(0.000216307111307523 -6.60398620041706e-05 -0.000536123531384511)
(1.34967458276289e-05 0.000361541010257756 0.000458844630217341)
(6.20047370268511e-05 0.000230975720381527 0.000223156956779324)
(0.000150607084564959 0.000114770317669333 -0.000125688025698375)
(0.000283362918817736 -2.91669231093903e-06 -0.000738816881032935)
(8.85977474755098e-06 0.000532116886577881 0.000609135435824792)
(4.25616011369373e-05 0.000400892688500273 0.000411923715003169)
(0.000103212589684465 0.000284282015001257 0.000170602714352783)
(0.000199971516857781 0.000175506019100584 -0.000230714090296635)
(0.000370875477263713 5.98533069358632e-05 -0.00101032194436045)
(4.55657176954471e-06 0.000716080881808455 0.000758430706585459)
(2.66294013812282e-05 0.000584078759820561 0.000588574067347707)
(6.89759267897969e-05 0.000462924299736187 0.000401131134272578)
(0.000140459001995672 0.000348246288383399 0.000147350067222492)
(0.000256127430232604 0.000227517100255033 -0.000302658944683844)
(0.0004896509248936 7.71694517524139e-05 -0.00111432838801852)
(4.45509767147339e-07 0.000912527642705852 0.000900096000231908)
(1.1522302200227e-05 0.000784653590603022 0.000760287661318839)
(3.83252295219946e-05 0.000661833766520248 0.000607067735741325)
(8.95762576727909e-05 0.000539293994290228 0.000417611683790882)
(0.000176715670801072 0.000408305923407838 0.000135245229917976)
(0.000342485068927288 0.000263166603042554 -0.000339438559793804)
(0.000687514600519955 0.000101274597727725 -0.00117234471800813)
(3.86930863517324e-05 0.000757127327780582 0.000657717062098056)
(0.000101756008027426 0.000615450472895813 0.000451197052298488)
(0.000220646961591056 0.000457394581353226 0.000148045236793888)
(0.000450461100568622 0.000287573083619225 -0.000354195423892827)
(0.000893700157650856 0.000113296502968803 -0.00119131294077957)
(2.79630492958323e-05 0.000851453242112718 0.000703955962389532)
(0.000107127756839767 0.000687262218922186 0.000497415147953039)
(0.000263761333237559 0.000499378180567788 0.000193619017206606)
(0.000568934649168781 0.0003029076403145 -0.000303359760609682)
(0.00062840913817434 0.000724464988791184 -0.00490540327438284)
(0.000576231086715911 0.000341086636482283 -0.00420830759562187)
(0.000455573451066519 7.90389337604396e-05 -0.00331424215081254)
(0.000112617960780719 -4.04022550433931e-05 -0.00206838643843858)
(3.25844024364127e-05 -0.000259064465825421 -0.000340581320066213)
(0.00018592683407535 -0.000216766455217169 -0.00124858564270889)
(0.000336038038065865 -6.172748310936e-05 -0.00206673663695735)
(0.000436593768811235 0.000264814471215056 -0.0036618188975174)
(1.33748294488389e-05 -0.000428777205153155 2.13678056755554e-05)
(0.000102583584082589 -0.000396483370719847 -0.000538835449695593)
(0.000221980409339054 -0.000280138592787832 -0.00100091177075327)
(0.00249097896284454 5.06089003590654e-05 -0.0029704761709188)
(0.00190618615798954 4.34358236326276e-05 -0.00285840964903019)
(0.00114161115682772 0.000123059201017757 -0.00110623058122844)
(0.00145328558640022 3.31743615584725e-05 -0.00277509799020929)
(0.00107614756094337 -3.51086365081397e-06 -0.0026080431823237)
(0.000631061885523712 -8.19330243169736e-06 -0.0022945810512697)
(0.000470247037737655 -3.3596562690578e-05 -0.00194604567129817)
(0.000362698337208022 -3.34129160902644e-05 -0.00171262147101891)
(0.000352198092519675 -0.000242161193738186 -0.00214235494778634)
(3.94538061802678e-05 -0.000315685652011723 6.26040110376967e-05)
(2.99753705584666e-05 -5.25457003856144e-05 0.000148097151632842)
(0.000136300126928157 -0.000282019626865886 -0.000232463640987491)
(2.04521381654983e-05 0.000140370962094728 0.000270127212212529)
(9.87080640778703e-05 -1.94248112511294e-05 -6.23719954644022e-06)
(0.000234330487059974 -0.000177259827338957 -0.000501454726958828)
(1.44893575187798e-05 0.000302196290745262 0.000401779810786953)
(6.71609041142908e-05 0.000167965660195882 0.000185233787076447)
(0.000166483906947561 4.14199212502655e-05 -0.000134329415074104)
(0.000335971766577767 -9.15549760619495e-05 -0.000690464518298929)
(9.94311559143933e-06 0.000461136607274177 0.000540110395022666)
(4.64382224585442e-05 0.000332873213337323 0.000356374899411623)
(0.000111689733703275 0.000217745315771868 0.000134595886440387)
(0.000222414402943641 0.000107259020062612 -0.000239834493767899)
(0.00042928755850907 -4.53872017082748e-06 -0.000976303300222814)
(5.95905305845525e-06 0.000627978514307839 0.000680091094009532)
(3.09461547051304e-05 0.000500629814614103 0.000518316831311888)
(7.65612901330558e-05 0.000384835482630592 0.000343737916324242)
(0.000152241887810542 0.000276114166610754 0.000108524398170589)
(0.000277475358259818 0.000160887817582309 -0.000317660532128454)
(0.000513418538183971 3.61601920014442e-05 -0.0010868611008244)
(2.24347834435898e-06 0.000805316384613172 0.000816287266916763)
(1.73400049550203e-05 0.000679808538269056 0.000675103516350192)
(4.83095452527213e-05 0.000562231363931531 0.00052802186384843)
(0.000102467216333131 0.000448436802334181 0.00035460463580929)
(0.000189993216509219 0.000328190425633287 9.3756774336007e-05)
(0.000348366997831996 0.000190895206297299 -0.000357721845763945)
(0.000686658363291224 5.35183569953217e-05 -0.0011624490871885)
(-1.28561241737583e-06 0.000991444493159953 0.000943333813394836)
(4.55137397213652e-06 0.0008713115289566 0.00082382923507871)
(2.1561955054658e-05 0.000757305059254841 0.000707238351129842)
(5.78932586486087e-05 0.000639513610207352 0.000566169587236367)
(0.000122631327706586 0.000511512583490225 0.000372270878596935)
(0.000234184086206654 0.000370174745112727 9.04123072922731e-05)
(0.000448611889251312 0.000217494010944511 -0.000382823722831686)
(0.000863591731656631 8.15018030294216e-05 -0.00119612879073994)
(5.60277290975688e-05 0.000720323166612628 0.000614877834243593)
(0.000137117427280926 0.000570004920676961 0.000405045235406087)
(0.000283169532457858 0.000404970847796326 0.000104811382813789)
(0.00055476704455379 0.000235497573130841 -0.000385577397435817)
(0.00105466148608502 8.86980635709291e-05 -0.00118410000539288)
(4.5231907491296e-05 0.000794407200189466 0.000655184323690015)
(0.000145132239778755 0.000622657499574647 0.000447414485763011)
(0.000328632243138197 0.000434989766183603 0.000150317802216826)
(0.000662671565534801 0.000249479572266034 -0.000326400886767642)
(0.00060705344649055 0.000477254100456858 -0.00531563111253478)
(0.000582138626653353 0.000179648644222218 -0.00421296382374031)
(0.000386626304777406 -4.78332396715033e-05 -0.00311657953136419)
(6.63542258026481e-05 -9.06770130316921e-05 -0.00185467693805461)
(3.53306885598254e-07 -0.000366606064201373 -0.000287267389211404)
(0.000108120832430017 -0.000387882932855303 -0.00114389851237543)
(0.000326932334469983 -0.000219476513348648 -0.00192195102060845)
(0.000423706255466273 -3.1335397713553e-05 -0.00371187662430953)
(-2.69892228696684e-05 -0.000675587444422227 -3.94462016131218e-05)
(9.55909668758948e-05 -0.000604331731867892 -0.000477818561276493)
(0.000176886402739619 -0.000485131212296975 -0.000930406079712956)
(0.00265249531121827 2.78629163624974e-05 -0.00292213023640201)
(0.00213258513372112 2.84860060074212e-05 -0.00283804218318287)
(0.0012508772486177 8.6783188055139e-05 -0.00108009506741877)
(0.00171371754901769 3.45575056112287e-05 -0.00276895452450572)
(0.00137434035495449 1.1196021013333e-05 -0.00262578156013336)
(0.000983355635380574 -2.0900429164021e-05 -0.00243477634559799)
(0.000669343432059193 -4.28456117142659e-05 -0.00210385969087095)
(0.000552228016582628 -0.000142463719386346 -0.0018107443748254)
(0.000434060155043451 -0.000207576787220748 -0.00169576889108212)
(0.000272035193294676 -0.000606455271787806 -0.00216366081965175)
(8.04036656191193e-05 -0.000409176399524945 4.17057441030529e-05)
(3.33672792324616e-05 -0.000131366617899637 7.97112396961528e-05)
(0.000167456476446969 -0.000438252141289793 -0.000266519046479125)
(2.23460460500204e-05 8.36009410764472e-05 0.000218634758483879)
(0.000110295819135459 -0.00011213144303962 -4.64134820439968e-05)
(0.000256895464317631 -0.000314165632375119 -0.00049116053155774)
(1.53896054119329e-05 0.000247955800055316 0.000347742729810067)
(7.27506357008562e-05 0.00010472017536172 0.000144717513068014)
(0.000184531300041855 -4.10618449175824e-05 -0.000151016238984696)
(0.000393315074721882 -0.000192929580726275 -0.000645341215575162)
(1.07734534036587e-05 0.000399204806389713 0.000478043761905246)
(4.9951545381407e-05 0.000271364353515237 0.000305613587081704)
(0.000120867381595205 0.000154019435118096 9.99739683406349e-05)
(0.000247419519252502 3.86175268552094e-05 -0.000249179432503353)
(0.000482533672458928 -7.18629363671503e-05 -0.000927888531427444)
(6.99192054188574e-06 0.000552798540630159 0.000610127046720598)
(3.42779612446237e-05 0.00042905463431983 0.000456302536458388)
(8.30110376609571e-05 0.000316787309353762 0.000293012827654201)
(0.000164451825674166 0.000212173613833915 7.35623918068321e-05)
(0.000303580796173636 0.000104132102772299 -0.000328249495500334)
(0.000543678799312189 6.28768842243661e-06 -0.0010435844629982)
(3.57570213749716e-06 0.000714247018473452 0.000740644415045795)
(2.14907328170756e-05 0.000592242906525103 0.000602219256165723)
(5.55192439283317e-05 0.000479827765243253 0.000462814794737943)
(0.000112769927637095 0.000372713617100582 0.000300421534713787)
(0.000203829143092065 0.000261939383527444 5.54087210942386e-05)
(0.000363210258471622 0.000141724813140872 -0.000376500562998986)
(0.00067307710553291 3.38096896562275e-05 -0.00115442554288299)
(3.73667560833272e-07 0.00088398624161097 0.000865142978722146)
(9.88270199064646e-06 0.000765108089497685 0.000743073197799751)
(3.14801130912216e-05 0.000653758432817864 0.000624088281536638)
(7.17488642323393e-05 0.000542771702326966 0.000489766134749977)
(0.000137554178124326 0.000426573002999775 0.000312114517001439)
(0.000245904221017953 0.000297909358638871 4.66033575702353e-05)
(0.000451556033052842 0.000161622593197083 -0.000406647286486367)
(0.000844651062776424 5.06194303286943e-05 -0.00119235035300878)
(-2.65117543894e-06 0.00105960200503891 0.000979076433798474)
(-1.07673096717041e-06 0.000947106855527801 0.000875174203215279)
(8.98278656336032e-06 0.000840485130263874 0.000776938256677373)
(3.27527627287547e-05 0.000731265637711742 0.000672223565864877)
(7.9215059256387e-05 0.000609066849286314 0.000526834174409381)
(0.000159198722573337 0.000473792617096467 0.00032878308539074)
(0.000296217401963803 0.000327622395598531 4.58310903773425e-05)
(0.000548799899441283 0.000181614474916362 -0.000426140641997655)
(0.00100403900400227 6.58846843375897e-05 -0.00121135682482097)
(7.6374917204263e-05 0.000673119447744913 0.000570728094973068)
(0.000175559480874333 0.000516206091832533 0.000358835780584809)
(0.000345988614779592 0.000350338599069627 6.19138633957447e-05)
(0.000647370225267272 0.000191273225039583 -0.000416384732883808)
(0.00116618339184733 5.62215905073309e-05 -0.00117510388750001)
(6.63042219541352e-05 0.000727908971768086 0.000605051431382621)
(0.000184710243618879 0.000552557461777844 0.0003976095012325)
(0.000387313151445341 0.000368952352800017 0.000108203126023565)
(0.000735691382725271 0.000193931868141842 -0.000349603819288072)
(0.000559079014938312 0.000228665078619071 -0.00553855435969738)
(0.000504052288427733 1.34350118899015e-05 -0.00407431770495528)
(0.000232945594261632 -0.000152592421350142 -0.00292648133520799)
(3.02766068582991e-05 -0.000123145031088793 -0.0017337215417804)
(-8.33305191095775e-05 -0.000474794596447254 -0.00044219709262998)
(-1.34140348751655e-05 -0.00051336599286823 -0.0010499951857826)
(0.000202010267263654 -0.000419051702687064 -0.00182783737068583)
(0.00017496035863676 -0.000364977096926487 -0.00391451938213693)
(-0.000410626172634222 -0.00138203011663373 -0.000122552255030016)
(-3.37077353884439e-05 -0.000852017465629657 -0.000412003222052782)
(6.10660828361542e-05 -0.000722261949774396 -0.000826560563487729)
(0.00276844269858806 6.85873292281941e-07 -0.00289831900176595)
(0.00229721314477694 7.66068918692607e-06 -0.00282667364077682)
(0.00132135526658649 4.14531488955414e-05 -0.00106121011958385)
(0.00191894755787102 2.04469077747255e-05 -0.00278980282285147)
(0.00158097500697271 1.29292323159062e-05 -0.0026526415426209)
(0.00124843437095975 -1.07136207366685e-05 -0.00249010554808041)