/*--------------------------------*- C++ -*----------------------------------*\
  =========                 |
  \\      /  F ield         | OpenFOAM: The Open Source CFD Toolbox
   \\    /   O peration     | Website:  https://openfoam.org
    \\  /    A nd           | Version:  12
     \\/     M anipulation  |
\*---------------------------------------------------------------------------*/
/*   Windows 32 and 64 bit porting by blueCAPE: http://www.bluecape.com.pt   *\
|  Based on Windows porting (2.0.x v4) by Symscape: http://www.symscape.com   |
\*---------------------------------------------------------------------------*/
FoamFile
{
    format      ascii;
    class       volScalarField;
    location    "300";
    object      k;
}
// * * * * * * * * * * * * * * * * * * * * * * * * * * * * * * * * * * * * * //

dimensions      [0 2 -2 0 0 0 0];

internalField   nonuniform List<scalar> 
10116
(
9.22773918002186e-05
9.67034508740954e-05
0.000305068168296319
9.44255364159771e-05
0.000100774014437443
0.000314455214639646
9.89368014299824e-05
0.000459716840376494
0.000305624346125128
9.71560603661494e-05
0.000104514247250974
0.000322977831109529
0.000103084558538078
0.000472523954430268
0.000315025039535037
0.000101769702332578
0.000583269376374145
0.000459420619902085
0.000305698984929565
9.78428760024765e-05
0.000107936937396683
0.000330715453203664
0.000106894496702731
0.000484147452477156
0.000323559411395567
0.000106011102372878
0.000598845878595994
0.000472223797417808
0.000315093361639746
0.000102477306011347
0.000689956561345205
0.000582538171476144
0.000457154663277094
0.000303259408459218
9.53190403115472e-05
0.000111054349207718
0.00033772138031486
0.000110380056614591
0.000494685521459907
0.000331306901680683
0.00010990587467954
0.000612995006603926
0.000483840750558465
0.000323624134586443
0.000106738481782225
0.0007079100934876
0.000598104468661309
0.000469901818593605
0.000312577531240537
9.98449400829498e-05
0.000785671623587207
0.00068872760065657
0.000578746391110019
0.000451785499761082
0.000297030819108046
9.0351043060968e-05
0.000113879247556779
0.000344042664967736
0.000113554099449992
0.000504210999705103
0.000338321364319103
0.000113468861311421
0.000625823918694781
0.000494371842541997
0.000331368902556548
0.000110652286449189
0.000724234100071602
0.000612238984892015
0.000481469611870012
0.000321042793143286
0.000104009219716258
0.000805724949549995
0.000706662888137777
0.000594228024117662
0.000464395038402793
0.000306169790307309
9.46646834184809e-05
0.000873320273223119
0.00078384731121933
0.000683639943635479
0.000571067839214418
0.000442491476117339
0.000287309034138315
8.42017323287234e-05
0.000116425768127588
0.000349723485299806
0.000116429849908249
0.000512790043356542
0.000344650102877106
0.000116713017539613
0.000637416661423512
0.000503890774837148
0.000338381706706569
0.000114233211849523
0.000739042283646642
0.000625053057828539
0.000491956850687482
0.000328730115740973
0.000107835837131607
0.000823974331474538
0.000722962983539373
0.000608286033383481
0.000475842183219909
0.000314476572160813
9.86363483642595e-05
0.000895259475172788
0.000803872217110012
0.000701466794765031
0.000586366423170254
0.000454861255700575
0.000296170868217962
8.82460267841142e-05
0.000954608556419277
0.000870979730458657
0.000777511022151859
0.000673963729950075
0.000559073359616232
0.000429403746889783
0.000275062078391737
7.75111104656983e-05
0.00011870817556347
0.000354806231273745
0.000119021273088495
0.000520485709387066
0.000350337498963761
0.000119652181964272
0.000647852153279377
0.000512463897070727
0.000344709628251431
0.000117494114407136
0.00075242612923825
0.000636632039523746
0.000501437115624095
0.000335692557605876
0.00011133847003737
0.00084053917084552
0.000737747320035409
0.000621031071152466
0.00048622241672632
0.000322022680919869
0.000102288649298624
0.000915241118876415
0.000822086849602109
0.000717667539188056
0.000600262269134246
0.00046609530239619
0.000304229647450483
9.19724330289986e-05
0.00097826059970611
0.000892882315637676
0.000797404895692844
0.000691569380905542
0.000574079259803947
0.00044143353774673
0.000283571661247199
8.12560758201259e-05
0.00103067647629779
0.000951915254255944
0.000863564144473815
0.000766032128035442
0.000659532144959205
0.00054299166526584
0.000413134620207474
0.000260956238006589
7.03770975810633e-05
0.000120741422379523
0.000359332075273484
0.000121345201626635
0.000527358672864696
0.000355426308155919
0.00012230049690506
0.000657206907112066
0.00052015430825006
0.000350397011508073
0.000120448958375837
0.000764473680367857
0.000647055123926818
0.000509976477305636
0.000341976517015141
0.000114529518520789
0.000855516484951658
0.000751109084302194
0.000632548670697203
0.000495608014775101
0.000328859515807867
0.000105633610678763
0.000933389621678406
0.000838617480772988
0.000732361612594308
0.00061286265245128
0.000476285516348003
0.000311553590426093
9.54019637450195e-05
0.000999818095820558
0.000912820497473538
0.00081549869978561
0.000707572920220791
0.000587713991284781
0.000452362921374293
0.00029131370899622
8.47092435379809e-05
0.0010558980267885
0.000975526351424433
0.000885317368954231
0.000785671602406911
0.000676798631721904
0.000557599991680522
0.000424738148407233
0.000269055748198694
7.37983964535176e-05
0.00110228071053326
0.00102775957560398
0.000943667172417325
0.000850546206610735
0.000749420165456926
0.000640720433492371
0.000523312138857068
0.000394161890592202
0.000245210007100628
6.27911179346558e-05
0.000122540817126027
0.000363340596212136
0.000123414487775194
0.000533467271270192
0.000359957856193765
0.000124675485526114
0.000665555159364446
0.000527022698069653
0.000355486545951017
0.000123112580714787
0.000775271631101409
0.000656398824567723
0.000517637657741107
0.000347625788995917
0.000117422245666266
0.000869001242259005
0.000763136677188632
0.000642917722796681
0.000504064045385287
0.000335032214084858
0.000108683034865128
0.000949806325314856
0.000853563144750549
0.000745642690287246
0.000624251746993935
0.000485502035798703
0.000318191668932082
9.85450721939376e-05
0.00101940965307936
0.000930926423690107
0.000831919084086666
0.000722090323341226
0.000600080971940017
0.000462280154348518
0.000298352917267896
8.78897535229442e-05
0.00107890137276045
0.000997035275447407
0.000905117333654399
0.000803537709182464
0.000692498700984462
0.000570877668413734
0.00043528387872497
0.00027642804739251
7.69557007520659e-05
0.00112894956747111
0.00105293872057122
0.000967116530694844
0.00087201855540814
0.000768680697154848
0.000657537976049426
0.000537429110626241
0.000405264284798338
0.000252848128740634
6.58646221692781e-05
0.00116987559333903
0.00109920845054389
0.00101888103922605
0.000929397786991573
0.000832048432894342
0.000728158953932106
0.000618001346998396
0.000500393839243365
0.000372711609763936
0.000227853030440752
5.48208675319854e-05
0.000124120638538221
0.000366869199233038
0.000125246324534312
0.00053886715901934
0.000363971461886929
0.000126790168779179
0.000672968485419627
0.000533127356502287
0.000360019434879226
0.000125500456336168
0.00078490488212425
0.000664737307217053
0.000524480947563737
0.000352682545650339
0.000120030788926672
0.000881088151441682
0.000773916779096673
0.000652214214543176
0.000511652275624895
0.000340583343959955
0.000111449027131776
0.000964591690459694
0.000867019234957873
0.000757598908131983
0.000634507275433355
0.000493808204615893
0.000324187355554315
0.000101412688380158
0.00103714003489996
0.00094730372344655
0.000846765805378614
0.000735213932259435
0.000611262015220855
0.000471252722273003
0.000304735616115812
9.0807522383114e-05
0.00109981863997693
0.00101657919949206
0.000923096777445058
0.000819753448043967
0.000706744191368436
0.000582924257420609
0.000444856226250724
0.00028313411910067
7.98662729762227e-05
0.00115328722884674
0.00107589102878213
0.000988475305210514
0.00089156647127604
0.000786206979546557
0.000672834061502362
0.00055026373706576
0.000415357870099814
0.000259803917206315
6.87038182392412e-05
0.00119788343029517
0.00112583481938931
0.00104389076705064
0.000952546919038457
0.000853109726008324
0.000746926495725826
0.000634270728442756
0.000513933902965785
0.000383243729972754
0.000234980264391671
5.75258311338873e-05
0.00123369366483745
0.00116667544541016
0.00108982234335408
0.00100358670794035
0.000909296097836259
0.000808626071721087
0.000702731225691877
0.00059168067968995
0.00047443244316543
0.000348880425656458
0.000208905582497618
4.66032686835675e-05
0.000125494241183244
0.000369952381292606
0.000126853147336054
0.000543610784597418
0.000367504615542269
0.00012866217985546
0.000679515229964458
0.000538523850291434
0.000364034788328781
0.000127627451471366
0.000793455744013547
0.000672142050140779
0.000530564209129296
0.000357187369179424
0.000122370539193641
0.000891870737105255
0.000783534173485551
0.000660511714369289
0.000518432069984248
0.000345553988282146
0.00011394472738651
0.000977846930403119
0.000879080436292984
0.000768316336592887
0.000643704030226337
0.000501264207615732
0.000329581502250167
0.000104015341472949
0.0010531141618412
0.000962053342276735
0.000860134029585085
0.000747030629557438
0.000621332861278264
0.000479341712243618
0.000310503204581396
9.34713796506748e-05
0.00111875730953848
0.00103426544381524
0.000939360245948378
0.000834417253724859
0.000719624935473015
0.000593818688243533
0.000453519687740432
0.000289217649869402
8.25391501006582e-05
0.00117542901297325
0.00109675802588894
0.00100788148351814
0.000909318826859145
0.000802117584929295
0.000686716444372513
0.000561911550927225
0.000424522880470927
0.000266134191589627
7.13237924195371e-05
0.00122345611590926
0.00115012036501037
0.00106668525644184
0.000973635738761243
0.000872288359713191
0.000764008391609879
0.000649071685944238
0.000526247124594124
0.000392822057451122
0.000241474449047078
6.00269501226611e-05
0.00126294073271512
0.001194641223185
0.0011162743581076
0.00102828234463873
0.000932009275881245
0.000829157988921834
0.000720902241936276
0.000607309379029499
0.000487314562960219
0.000358775942090172
0.000215474028267031
4.89249556353605e-05
0.0012938257903743
0.00123037474712718
0.00115684656016377
0.00107365191561275
0.000982102689275442
0.000883972869189465
0.000780786244109075
0.000673422733152886
0.000561929807086785
0.000445547323367679
0.000322727958765304
0.0001884217332311
3.83228061022925e-05
0.000126674347188362
0.000372621385396365
0.00012825082493521
0.000547746848555309
0.000370591772623313
0.000130304333184029
0.000685259872760163
0.000543264577769718
0.000367569946662702
0.000129510079646174
0.000801003067294888
0.00067868130011621
0.000535942578695567
0.000361178956939564
0.000124455883475782
0.000901440294236574
0.000792071028118505
0.000667881094247099
0.000524460402742428
0.00034998379136598
0.000116184625786022
0.00098967285534846
0.000889840141315482
0.000777879036509963
0.00065191439090276
0.000507927938229534
0.000334413623971807
0.000106365545272936
0.0010674387958616
0.000975276480496666
0.000872117777303483
0.000757625144592497
0.000630366450985564
0.000486605219835084
0.000315694519783293
9.58906629423252e-05
0.00113582611974882
0.00105019949740493
0.000954008500162296
0.000847623000112044
0.000731225673477747
0.000603634153846485
0.00046133271614876
0.000294717455598046
8.49810722277302e-05
0.00119548481612505
0.00111565006888012
0.00102544351601595
0.000925378875833201
0.000816508334519105
0.000699271903540913
0.000572448266778893
0.000432820546179047
0.000271879685460864
7.37321028663508e-05
0.00124673183957282
0.00117221052552598
0.00108740711635253
0.00099279821278373
0.000889708523070864
0.000779518920478005
0.00066250777614085
0.000537424645477813
0.00040152217865651
0.000247387731305324
6.23376325813025e-05
0.00128965647457685
0.00122016119330369
0.00114039693348999
0.00105079391116559
0.00095270584244808
0.000847858685033981
0.000737444449195262
0.000621530330221253
0.00049903228341355
0.00036777851665052
0.000221462666353351
5.10742162164511e-05
0.00132421728893438
0.00125958026718286
0.00118463443122667
0.00109977949386103
0.00100634307574523
0.00090612719470563
0.000800681199672662
0.000690899620633883
0.000576828877230794
0.00045769331220889
0.000331922597919066
0.000194386215645514
4.02553878423339e-05
0.00135028468299063
0.00129039189412313
0.00122013781262615
0.001139892577961
0.0010509437779798
0.000955089901627194
0.000853973067258478
0.000748817467699404
0.000640392008539756
0.000528871508835389
0.000413828672274495
0.000294306939742227
0.000166476710018955
3.01903124548025e-05
0.000127671357004421
0.000374906315978893
0.000129451487614682
0.000551320045220929
0.000373264759036044
0.000131733069635287
0.000690262383322808
0.000547398132622971
0.000370659316989119
0.000131163810098506
0.000807621447165565
0.000684419439745277
0.000540668025288583
0.000364694111739502
0.000126302463962434
0.000909884481686886
0.000799606053632732
0.000674390008311249
0.000529791544946053
0.000353910474903108
0.000118182774824125
0.00100016805215886
0.000899389386795037
0.000786368429697094
0.000659208065371801
0.000513854968790388
0.000338721923491698
0.000108476250083423
0.00108022056310625
0.000987073695645419
0.000882809627278038
0.000767080162137888
0.000638433386344673
0.000493099163246652
0.000320347148159701
9.80769940262488e-05
0.00115113636241921
0.00106448801899517
0.000967142044184968
0.00085946327238531
0.00074162909047508
0.000612441209087436
0.000468350922683811
0.000299670138232618
8.72005429537429e-05
0.00121356648124794
0.0011326764710081
0.00104126676499092
0.000939846078996632
0.000829470862569042
0.000710582445363877
0.000581944133565014
0.000440306331920744
0.000277076383390781
7.59344509961015e-05
0.00126782261607141
0.00119221829513999
0.00110616808422372
0.00101014156724562
0.000905470799825533
0.000793550737186161
0.00067466240837174
0.000547538652410229
0.000409401720479994
0.000252757523016215
6.4463557769766e-05
0.00131398181567147
0.00124338439166614
0.00116233687271338
0.00107125991429053
0.000971514892365145
0.000864847895169302
0.00075246779860183
0.000634442553007649
0.000509671896993779
0.00037595858646717
0.000226918821669822
5.30624535816193e-05
0.00135198830382578
0.00128624282739123
0.00120998754685938
0.00112360936977062
0.00102844444339872
0.000926318466360776
0.000818804719610438
0.000706812427043093
0.000590388371693707
0.000468744126369358
0.000340290812397815
0.000199828324374802
4.20476015757552e-05
0.00138172854322228
0.00132074231422206
0.00124916253059654
0.00116734779248494
0.00107660074819823
0.00097874753692727
0.000875456875768553
0.000767973559600223
0.000657080097146826
0.000542954500263297
0.000425162636987879
0.000302738593129533
0.00017179634968397
3.17372887959637e-05
0.00140304639856379
0.00134673954228695
0.00127977033704496
0.0012024611407704
0.00111607259093972
0.00102240481460138
0.000923137510225577
0.000819604088787141
0.000712876578299765
0.000603761239269279
0.000492611617262649
0.000379348611616501
0.00026365915724495
0.000143129542160697
2.23927377765535e-05
0.000128494444772121
0.00037682991173472
0.000130465845171525
0.000554368993459914
0.000375552187678281
0.000132960209020152
0.000694577633399276
0.00055096893149941
0.000373334634604361
0.000132602114212264
0.000813380430429819
0.000689416347775339
0.000544788771092445
0.000367766949703508
0.000127925132136978
0.000917286617277992
0.000806213709339354
0.000680102273122965
0.000534476622993239
0.000357369797168627
0.000119953245358842
0.00100942794872109
0.000907815717078854
0.000793862512115677
0.000665651585014714
0.000519098215075041
0.00034254274563686
0.00011036051865652
0.0010915647884357
0.000997543474834226
0.000892299760004365
0.000775475737091764
0.000645601664584681
0.000498877242673834
0.000324497403841797
0.000100042211243485
0.00116480009342863
0.00107723758874401
0.000978860552898354
0.000870029139999785
0.000750915874770608
0.000620308170732575
0.000474627846736301
0.000304111145692332
8.92078570244604e-05
0.00122978936570022
0.00114794852328667
0.00105545717012334
0.00095281944936122
0.000841095585009188
0.000720728159740346
0.000590466900733085
0.000447033047350913
0.000281758492867997
7.79376924931796e-05
0.00128684311316072
0.00121025624356246
0.00112307741417288
0.00102576989069006
0.000919672367410116
0.000806192632494578
0.00068561445830177
0.000556656107123358
0.000416512859625773
0.000257616943006317
6.64100617732199e-05
0.00133603075195791
0.00126442617474285
0.00118220876243143
0.00108979097402933
0.000988540974575468
0.000880222983245651
0.000766061494796388
0.000646125786999803
0.000519301707804966
0.000383369808118743
0.000231876209419169
5.48935301366508e-05
0.00137728244490942
0.00131051488385738
0.00123305659987885
0.00114528418921151
0.00104854032057613
0.000944671220680302
0.000835272137122038
0.00072126648551308
0.000602702320361926
0.000478780695143868
0.000347897362447743
0.000204789464729107
4.37068768395798e-05
0.00141046932747831
0.00134845970906259
0.0012756549889582
0.00119240035820885
0.00110000605648724
0.00100032124783123
0.000895039633198572
0.00078542604120498
0.000672276668947575
0.000555773487878616
0.000435477286401506
0.000310415855380484
0.000176655029368174
3.31749764566382e-05
0.00143545198087189
0.00137814274331287
0.00130993743116104
0.00123114628954444
0.00114304455014741
0.00104745939111858
0.000946096723391231
0.000840311500935414
0.000731194458217369
0.000619567927636769
0.000505794254428031
0.000389796671338211
0.000271267994250574
0.0001477684264969
2.3565931465102e-05
0.00145207418917039
0.00139939498737978
0.0013357545490215
0.00126141751126448
0.00117761343222909
0.00108613423771477
0.00098866772570991
0.000886578587049865
0.000781029541945796
0.000673086420328986
0.000563643188484362
0.00045323830223079
0.000342154383387384
0.000230793453114221
0.00011836972638556
1.5085294889429e-05
0.000129151471480205
0.000378413530034603
0.000131303164905669
0.000556929773064621
0.000377478331637951
0.000133996931251955
0.000698254900307152
0.000554016471198127
0.00037562408351129
0.000133837591510422
0.00081834380470731
0.000693726802100613
0.000548348854488791
0.000370428553106303
0.000129337062275912
0.000923724577363855
0.000811963413037012
0.000685077237952973
0.000538563085589735
0.000360394954477108
0.000121509546958321
0.00101754344967941
0.000915202245235963
0.000800435056729775
0.000671307696358075
0.000523707490651109
0.000345910340901573
0.000112031318867598
0.00110157354262894
0.00100678100639771
0.000900674912547393
0.000782888549594812
0.000651936170630751
0.000503990567120264
0.000328179899208143
0.000101797780075867
0.00117692822960313
0.00108855322511374
0.000989261631404863
0.000879409272021021
0.00075916414097376
0.000627300849368525
0.000480214920779269
0.000308074681144172
9.10139436846039e-05
0.00124427023476558
0.00116157811752227
0.00106812044768279
0.000964397074183213
0.000851471426088228
0.000729787224335754
0.000598082193643072
0.000453051544762591
0.000285959144929644
7.97511872166837e-05
0.00130391228836073
0.00122643973362464
0.00113824571149475
0.00103978760659391
0.000932410003350343
0.00081753229455853
0.000695440996510372
0.000564841603473882
0.000422905316381522
0.000261997568676609
6.81825383281116e-05
0.00135592054753859
0.00128340203207012
0.00120012523703279
0.00110649512931303
0.00100388588851343
0.00089407823688491
0.000778311100873953
0.000656655438840164
0.000527985065486838
0.000390060789440719
0.000236365011809243
5.65719537237129e-05
0.00140021563108734
0.00133251400176699
0.00125395876415695
0.0011649175419943
0.00106673867720823
0.000961286786117748
0.000850177351166858
0.000734347282984477
0.000613846449843576
0.000487867074096224
0.000354791585651888
0.000209299588195806
4.52368517544802e-05
0.00143665332046977
0.00137369985651108
0.00129976957791637
0.00121519678612471
0.00112129725332677
0.00101993997226058
0.000912841451635095
0.000801285614500758
0.000686082013590932
0.000567417001944373
0.000444847653682524
0.000317397176083411
0.000181086508130479
3.45073724268599e-05
0.00146507820690167
0.00140682949161191
0.00133748186639066
0.0012573315616484
0.00116766063789577
0.00107031853675244
0.0009670356598269
0.000859187995755124
0.000747884601572726
0.00063396348381916
0.000517795761501253
0.000399307788567357
0.000278199785204208
0.000152011166811138
2.46595979232746e-05
0.00148535145046294
0.00143176028648311
0.00136697218395545
0.00129123902807019
0.00120580460460401
0.00111248735671914
0.0010130005672845
0.000908729754986006
0.000800857060605895
0.000690468416664628
0.00057847773415465
0.000465438141042061
0.000351644277991633
0.000237521331970807
0.000122289825715521
1.59007827746957e-05
0.00149733088718428
0.00144832257011451
0.00138806858793867
0.00131676728287554
0.00123561114203988
0.00114637784741495
0.00105074922666756
0.000950091074748328
0.000845587126608485
0.000738374392799248
0.000629561599580405
0.000520132413571527
0.000410806490865173
0.000302247791159047
0.00019567712381874
9.22077866481261e-05
8.5717789169805e-06
0.000129648965519412
0.000379674765740745
0.00013197117715587
0.000559031925944297
0.000379064078288789
0.000134852569374364
0.000701337564759852
0.000556575847360214
0.000377552087062814
0.000134881440527066
0.000822569015300181
0.000697399994615343
0.000551387662723244
0.000372706645879479
0.00013055021268837
0.000929269938042348
0.000816918831979316
0.000689369204388405
0.000542094248485204
0.000363016127441572
0.000122864486579563
0.00102459978198276
0.000921626661253578
0.000806154837786912
0.000676234748755232
0.000527729023226454
0.000348856524992537
0.000113500989063563
0.00111034433270067
0.00101487694186275
0.000908017392640199
0.000789391115074429
0.000657498090699937
0.000508487220879752
0.000331427216448956
0.000103355587888484
0.00118762877948365
0.00109853677733233
0.000998439558273607
0.000887688937458179
0.000766448697079931
0.000633482030165931
0.00048516108695658
0.000311593308529595
9.26286397378551e-05
0.00125712494626494
0.00117367594444432
0.00107936065673887
0.000974674955723727
0.000860684944618936
0.000737835325443538
0.000604853229263803
0.000458410663025832
0.000289710297543913
8.13840604541283e-05
0.00131915109499915
0.00124088534113521
0.00115178397010835
0.00105229882801369
0.000943779555981784
0.0008276559776468
0.000704217270682376
0.000572157719141072
0.000428626981469987
0.000265930020904359
6.97886874519807e-05
0.00137377344106249
0.00130043095817957
0.00121620100111412
0.00112148148898537
0.00101765182072828
0.000906507639468625
0.000789301149387091
0.00066610519929054
0.000535783082824657
0.000396077899319119
0.00024041401501212
5.81022289971635e-05
0.00142090757157614
0.00135235835296307
0.00127280970365029
0.00118262093273466
0.00108314531196743
0.000976264072138778
0.000863611403495226
0.000746136826230096
0.000623892366389535
0.000496062668342888
0.00036101825627877
0.00021338596518119
4.6640778306098e-05
0.0014603983535567
0.00139658245391663
0.00132162589440496
0.0012358533812302
0.00114058535759224
0.00103770850137485
0.000928960220209565
0.000815642502731461
0.000698577579548328
0.000577956385986978
0.000453333169481452
0.000323727251696963
0.000185117172596804
3.57371233632626e-05
0.00149207405287387
0.00143295882868734
0.00136256161021626
0.00128116714645789
0.00119006219295643
0.00109111516982651
0.000986078835646891
0.000876349081877212
0.000763052701170487
0.000647042648884982
0.000528698634661323
0.000407950539060066
0.000284505972549973
0.000155881445716925
2.56743465823752e-05
0.00151577930187718
0.00146133209710861
0.00139548343297515
0.00131847050560381
0.00123154326351747
0.0011365416682046
0.00103520273127373
0.000928932452603356
0.000818931931747151
0.000706306660174148
0.000591989315939948
0.000476546966692779
0.000360286024619519
0.000243654630299272
0.000125882075626489
1.66638213720274e-05
0.00153138983638805
0.00148155989723968
0.00142024634198218
0.00134763405166672
0.00126492940640508
0.00117393616037128
0.00107636085413556
0.000973589132083665
0.000866822993080426
0.000757219850483211
0.000645911481475082
0.000533905497581944
0.000421942264559686
0.000310708016671045
0.000201466835039993
9.53730503437397e-05
9.05972539078441e-06
0.00153878501859701
0.00149348586153333
0.00143667807370453
0.00136848787016583
0.00129006433760764
0.00120316547639979
0.00110945942952669
0.00101029820386669
0.000906859010035424
0.000800290073308119
0.00069175098435525
0.00058239301644294
0.000473278482117463
0.000365304524939076
0.000259578839121475
0.000158333272999951
6.48789411950921e-05
3.49645191568186e-06
0.000129992694645241
0.000380627653525938
0.00013247504432092
0.000560700188054262
0.000380327190483455
0.000135534652717329
0.00070386290353901
0.000558676783821702
0.000379139299891313
0.00013574286651322
0.000826106876754284
0.000700479265541011
0.00055393978122359
0.000374625322142702
0.000131575545524254
0.000933987173075316
0.000821137307416419
0.000693026948884158
0.000545108883288917
0.000365260251981268
0.000124029270184656
0.00103067527189444
0.000927160356598
0.000811084933694963
0.000680486132620975
0.000531205007090652
0.000351410330311181
0.000114780991286283
0.00111796878889734
0.00102191623554044
0.000914404129599705
0.000795051032939845
0.000662344315874563
0.00051241181917304
0.000334269557488213
0.000104727045725271
0.00119700516053696
0.00110728551065148
0.00100648408102917
0.000894949029547747
0.000772840283505424
0.000638910913358373
0.000489512385601102
0.000314697768382308
9.40625655069175e-05
0.00126846698276872
0.00118434976314015
0.00108927867711604
0.00098374578556621
0.000868819365062648
0.000744944939591933
0.000610840320427238
0.000463156884455598
0.000293042285379151
8.2845610652817e-05
0.00133268006095625
0.00125370879943578
0.00116380190428156
0.00106340592712825
0.000953874802408356
0.000836647638716423
0.00071201613227915
0.000578664733715159
0.00043372385073645
0.000269443817274997
7.12362629242026e-05
0.0013897142072889
0.00131563372977023
0.00123055172200563
0.00113485940130861
0.00102994057971619
0.000917604267099765
0.000799114805140971
0.000674547017030165
0.000542754962525026
0.000401465802928807
0.000244051083086988
5.94906146950967e-05
0.00143948354382139
0.00137017024338712
0.00128972779264096
0.00119850759992766
0.00109786708344603
0.000989702470456116
0.000875665051044573
0.000756716135559976
0.000632910036468164
0.000503424791727975
0.0003666201162327
0.000217074416839064
4.7922512109135e-05
0.00148182647992232
0.0014172281949369
0.00134134238587372
0.0012544847675332
0.00115797969876814
0.00105372979660376
0.000943491694871723
0.000828584184596126
0.000709841489238985
0.000587459101419421
0.000460988961987934
0.000329446778054074
0.000188771454036943
3.68669924614039e-05
0.00151655927997512
0.00145665255673608
0.00138529858734153
0.00130277189520185
0.00121036302939148
0.00110995722479703
0.00100332773247963
0.000891889093632124
0.000776785025537902
0.000658882467246286
0.000538569445637787
0.000415779336422446
0.000290226278609057
0.000159402987750814
2.66115844219342e-05
0.00154350942925125
0.00148827268798579
0.00142144975562247
0.00134326568695169
0.00125497436334397
0.00115843387837889
0.0010554028227601
0.000947306674151826
0.000835364709930833
0.000720701360224676
0.000604266592067002
0.000486640679494708
0.000368141127760003
0.000249237079160689
0.00012916177525556
1.73738567224445e-05
0.00156253557060561
0.00151193300075657
0.00144964041572351
0.00137582727791291
0.00129170549922519
0.0011990996672167
0.00109973919289957
0.000995029289728067
0.000886190238587427
0.000774399070596133
0.00066080975114486
0.000546451601717508
0.000432084406205478
0.000318415242591798
0.000206749423095825
9.8281446703694e-05
9.51917206096355e-06
0.00157353529969633
0.00152750520937571
0.00146972613842787
0.00140031010054323
0.00132041974071871
0.00123183875492639
0.00113625929861881
0.00103505218909117
0.000929411570872866
0.000820504490082535
0.000709513039534363
0.000597615333431673
0.000485901274780838
0.000375294765088234
0.000266937890677959
0.000163131489974578
6.72591274190587e-05
3.71514011649133e-06
0.00157641305712698
0.00153485375292936
0.00148154750421394
0.00141654544257452
0.00134094778472016
0.00125648750571628
0.00116481366960906
0.00106725665648518
0.000964973276692877
0.00085909906934614
0.000750793813805607
0.00064123765395692
0.000531609852872624
0.000423034559423338
0.000316622284482112
0.00021413341643388
0.000119073875470383
3.72174464896106e-05
7.15620970465851e-07
0.00038128385176731
0.000132824288531304
0.000561955271196212
0.000381280774697315
0.000136047687162727
0.000705861733279245
0.000560343971282024
0.000380403485518095
0.000136429361682443
0.000829000766687339
0.0007030017238541
0.000556034660761996
0.000376204863477612
0.000132421611939711
0.000937933435545119
0.000824669435955276
0.000696093377232845
0.000547640939906814
0.000367150772946077
0.000125014171695224
0.00103584080239019
0.000931867725058479
0.000815282144852655
0.000684109803081817
0.00053417321220016
0.00035359765508085
0.000115882384781522
0.0011245314548509
0.00102797707944965
0.000919905829120771
0.000799930302949604
0.000666526900950395
0.000515805091181854
0.000336734511082356
0.000105922106426168
0.00120515477753603
0.00111489080064656
0.00101347929389328
0.000901265148983684
0.000778404839011804
0.000643642533832149
0.000493311515506273
0.000317416567127512
9.53260563867664e-05
0.00127840498670926
0.00119370274196328
0.00109797082301569
0.000991697774016663
0.000875953627952557
0.000751184593510131
0.000616100323057914
0.00046733393436319
0.000295983762742618
8.4144841513303e-05
0.00134461723558357
0.00126502319332163
0.00117440626202896
0.00107320811898293
0.000962786261476791
0.000844587987051043
0.000718907334723302
0.000584420153600023
0.000438239677909989
0.000272567009861238
7.25337408284509e-05
0.00140386754085501
0.00132913067016552
0.00124329216269899
0.00114673686931539
0.00104085224020247
0.000927459173559883
0.000807833007862734
0.000682050542321752
0.000548957730048966
0.000406267401010108
0.000247303095310484
6.07430714139858e-05