/*--------------------------------*- C++ -*----------------------------------*\
  =========                 |
  \\      /  F ield         | OpenFOAM: The Open Source CFD Toolbox
   \\    /   O peration     | Website:  https://openfoam.org
    \\  /    A nd           | Version:  12
     \\/     M anipulation  |
\*---------------------------------------------------------------------------*/
/*   Windows 32 and 64 bit porting by blueCAPE: http://www.bluecape.com.pt   *\
|  Based on Windows porting (2.0.x v4) by Symscape: http://www.symscape.com   |
\*---------------------------------------------------------------------------*/
FoamFile
{
    format      ascii;
    class       volScalarField;
    location    "300";
    object      nut;
}
// * * * * * * * * * * * * * * * * * * * * * * * * * * * * * * * * * * * * * //

dimensions      [0 2 -1 0 0 0 0];

internalField   nonuniform List<scalar> 
10116
(
3.74070566992697e-05
3.92013103680776e-05
0.000386710701741037
3.96465630098073e-05
4.08514533349907e-05
0.000395890690839817
4.15407489911786e-05
0.000980403832111866
0.000395710524844988
4.24818974488051e-05
4.23676692785024e-05
0.000404170127286944
4.32823190457057e-05
0.000998715225865281
0.000405068649497818
4.44992701812518e-05
0.00165572658776089
0.000990707812739746
0.000407076838769323
4.41506834896612e-05
4.37551493804624e-05
0.000411644721969936
4.48820241979747e-05
0.00101513794390696
0.00041350913550823
4.63538964916749e-05
0.00168391029224903
0.0010091758745481
0.000416664358588338
4.62419648216004e-05
0.00232971773816197
0.00166305803295893
0.00100279081050615
0.000413811758861335
4.35799741752323e-05
4.50188738834252e-05
0.000418382511027482
4.63455155474321e-05
0.00102989872211759
0.000421126566395235
4.8056929845707e-05
0.00170908733117092
0.00102573719476606
0.000425314548147201
4.81648368489821e-05
0.00236795378403968
0.00169134835953045
0.00102144736107378
0.000423538920051165
4.56492210455094e-05
0.00296369148316944
0.00233215454469316
0.00166899415781667
0.00100863472876638
0.000411677329928906
4.13279759276269e-05
4.61639929535299e-05
0.000424442348983742
4.76782038210431e-05
0.00104315364726294
0.000427991356009119
4.9614867994745e-05
0.00173163883784879
0.00104062029859873
0.000433121051379822
4.99309339858827e-05
0.0024020125369606
0.00171661743814772
0.0010381819697594
0.000432321329095975
4.75532050637324e-05
0.00301179587391396
0.00237042582686023
0.00169737114080648
0.00102738069176513
0.000421364231298517
4.33011233809802e-05
0.00354276691674091
0.00296104515975503
0.00232914847909603
0.00166711679431063
0.00100265506014548
0.000401980484571287
3.84144095623123e-05
4.71963396230641e-05
0.000429875764740975
4.88856209458017e-05
0.00105503360344658
0.000434163901769302
5.10333908545676e-05
0.00175182767588764
0.00105398399953134
0.000440156716467835
5.15468023618601e-05
0.00243242756994886
0.00173924865862526
0.00105322141793717
0.000440249110071527
4.930276170225e-05
0.00305454385278689
0.0024045113998418
0.00172272142565092
0.00104420517824151
0.000430118183578816
4.51178746061812e-05
0.00360035143799786
0.00300910652019429
0.00236737367650924
0.00169545226137387
0.00102129284087528
0.000411465800693922
4.02595328719165e-05
0.00406434496050975
0.00353633787963325
0.00294892224921746
0.00231596595487296
0.00165255355072301
0.000985280771130198
0.00038816064277991
3.5314914853469e-05
4.81215732362362e-05
0.000434729146517115
4.99734931182214e-05
0.00106565400368337
0.000439697440791502
5.23185700626303e-05
0.0017698719606532
0.00106596073502641
0.000446483313732408
5.30182584617034e-05
0.00245957733531892
0.00175950785819954
0.00106672666049862
0.000447395684224045
5.09041806923447e-05
0.00309261859873313
0.00243494696789837
0.00174542637205121
0.00105932959511434
0.000438023207463265
4.67885392614626e-05
0.00365141916396448
0.00305181015448371
0.0024014212528143
0.00172077642101639
0.0010380321468423
0.000420045305278333
4.19595956341811e-05
0.00413091420719617
0.00359381515506405
0.00299679539511427
0.00235396980592291
0.00168063673531883
0.00100360906169253
0.00039734986456083
3.70212407138223e-05
0.00453148690123071
0.00405566726299802
0.00351681540814942
0.00292386173220567
0.0022891538267305
0.00162488088272091
0.000959890530713355
0.000372217965357353
3.20605586387764e-05
4.89457686992221e-05
0.000439047326978068
5.09495087647581e-05
0.00107511881967929
0.000444640699694563
5.34763255459954e-05
0.00178596280789914
0.001076667332944
0.000452155624202337
5.4351626293755e-05
0.00248377739092174
0.00177761465234258
0.00107883155681381
0.000453823695419297
5.23631382381912e-05
0.00312651650091325
0.00246211400402541
0.00176575350618645
0.00107291466939213
0.000445151939347325
4.83185586790144e-05
0.00369680179611489
0.00308984138685027
0.00243182421852026
0.00174346397894198
0.00105308675321232
0.000427797703878582
4.35242450214949e-05
0.00418984653864351
0.00364478046543061
0.00303933402916765
0.00238783267654869
0.00170574910369116
0.00102008284079683
0.000405669049220882
3.85945051709423e-05
0.00460649534207816
0.00412208655795624
0.00357397848856841
0.00297131575402966
0.00232669899038885
0.00165248614187168
0.0009777580992289
0.000381058721090409
3.36192761296617e-05
0.00494902912742348
0.00452150009716498
0.00403088198135352
0.00348137349325099
0.00288357022999579
0.00224805285222517
0.00158616860428847
0.000928866098900743
0.000354469096045844
2.8608931403355e-05
4.96751675860576e-05
0.000442872664637913
5.18182742634686e-05
0.00108352371491309
0.000449040433958855
5.45150788700833e-05
0.00180027100109726
0.00108620927917347
0.000457223735481106
5.55536073695003e-05
0.0025053030614763
0.00179376116360705
0.00108965420855029
0.000459588615293626
5.36857430987245e-05
0.0031566548236505
0.00248632924625298
0.0017839232929087
0.00108509443201451
0.000451566582827867
4.97134232066419e-05
0.00373711309998707
0.00312369956817541
0.00245896499783787
0.00176378087016007
0.00106661463239287
0.000434791444065284
4.49581797994178e-05
0.0042421186442051
0.00369006748420122
0.00307722001717433
0.00241807847495159
0.00172825657197448
0.00103490717451015
0.000413191207552884
4.00435401323289e-05
0.00467280225671201
0.00418087731817425
0.00362466673662117
0.00301349605203203
0.00236016927250976
0.00167718543315805
0.00099383058126683
0.000389069349043263
3.50575310453003e-05
0.00503190357092597
0.00459633000902838
0.00409688754384746
0.00353792979322077
0.0029303270026555
0.00228488653423884
0.00161309821868735
0.00094616105779307
0.000362917066855212
3.00093981626553e-05
0.00532182742189484
0.00493809917575956
0.00449293615228841
0.00398708083923349
0.00342828136028957
0.00282741980581947
0.00219349038877153
0.00153803776965333
0.000892861732870171
0.000334650613304596
2.49775795369846e-05
5.03156255647194e-05
0.000446244149773904
5.25876106794502e-05
0.00109095654354222
0.000452937749056208
5.54396314546952e-05
0.00181295067610134
0.00109468334637659
0.000461735541000532
5.66311718228978e-05
0.00252439849576397
0.00180811901447754
0.00109930128632791
0.000464741388203235
5.48783610495718e-05
0.00318339732366427
0.00250786850688923
0.00180012834625884
0.00109598717687249
0.000457321954170208
5.09786639779439e-05
0.0037728723466939
0.00315380263906624
0.00248316018874442
0.00178194648886962
0.00107874813090134
0.000441087866286035
4.6266498059983e-05
0.00428845881621609
0.00373029297049676
0.00311095279386902
0.0024450861435259
0.00174842035774473
0.0010482347707259
0.000419980613458407
4.13729743319158e-05
0.00473152299623726
0.00423301852739498
0.00366970955506361
0.00305107242135014
0.00239007674814564
0.00169933432300087
0.00100830305873723
0.000396317359191015
3.63833837886177e-05
0.00510507833058126
0.00466246861746131
0.00415531286700782
0.00358809569916695
0.00297190658979261
0.00231773955815752
0.0016372077576869
0.000961732075481305
0.000370579885455805
3.1302930910806e-05
0.00541197210912984
0.0050207718345677
0.0045672727312743
0.00405231328236639
0.00348389675153091
0.00287318831776268
0.00222937150711084
0.00156411978808268
0.000909485334461955
0.000342657821729541
2.62101156264162e-05
0.00565426452259725
0.0053100347858335
0.00490650361673493
0.00444232286379666
0.00392256399141475
0.00335697468411782
0.00275539843139626
0.00212601406838472
0.00148089376386943
0.00085163922176007
0.000312521411042289
2.12303182147674e-05
5.08724719685947e-05
0.000449196004938268
5.32620306429668e-05
0.00109749722194321
0.000456373021864056
5.62583629285107e-05
0.00182414118362369
0.00110217745781
0.000465732786804844
5.75907825753115e-05
0.00254128177988282
0.00182084297870598
0.00110787042322819
0.000469329359074283
5.59481511896655e-05
0.00320706482021329
0.00252697618655826
0.00181454063365448
0.00110569987148198
0.000462468383494489
5.2120201311948e-05
0.00380453226518532
0.00318051422109433
0.00250468499290618
0.00179815251290266
0.00108960406263281
0.000446740175731021
4.74538259410593e-05
0.00432948583691226
0.0037659764199629
0.00314094892851614
0.0024691694726957
0.00176645639023414
0.00106019481823159
0.000426096743559666
4.2586761077343e-05
0.00478349519734094
0.00427924173477308
0.00370972301098946
0.00308453865970121
0.00241679302761012
0.00171918685520563
0.00102132191092497
0.000402864232838982
3.76011264763515e-05
0.00516979907102395
0.00472103413608821
0.00420713197503303
0.00363268546055422
0.00300896285126094
0.00234711018836944
0.00165884053229319
0.000975762854962233
0.000377518338266877
3.2496611490586e-05
0.00549149593508171
0.00509375689287605
0.00463297519149574
0.00411007140854164
0.00353325012590224
0.0029139095015265
0.00226139255147911
0.00158748619444126
0.000924467461693222
0.000349930383932953
2.73495947720479e-05
0.00575106464199046
0.00539995553306193
0.004988613355656
0.00451573786378858
0.00398661986688629
0.00341130454266354
0.00279988987758359
0.00216071292699304
0.00150596605818773
0.000867491921895077
0.000320036603637601
2.22880513994131e-05
0.00595025078803599
0.00564160976882199
0.00527572888730192
0.00485002636895912
0.00436766403253737
0.0038368042579784
0.00326702667817057
0.00266712638903724
0.00204534750467303
0.00141427677896535
0.000804666448718089
0.000287940555959906
1.74603080919368e-05
5.13508449785384e-05
0.000451758097243277
5.38488608189798e-05
0.00110321686435367
0.000459380172070836
5.69761108802506e-05
0.00183396793659614
0.00110877235403277
0.000469256616375546
5.84401262412376e-05
0.00255614800639406
0.00183207278324339
0.00111545007619767
0.000473395697068935
5.69014333648491e-05
0.00322794259456982
0.00254387052151666
0.00182731510104392
0.00111433006190538
0.000467053058918535
5.31447560101803e-05
0.00383249169647099
0.00320415488130265
0.00252378303465214
0.00181257010089012
0.00109928821196582
0.000451797300849392
4.85260133686334e-05
0.00436574016349684
0.0037975699190842
0.00316757008222452
0.00249060109883525
0.00178255343699074
0.0010709012163631
0.000431590580506158
4.3688918030553e-05
0.00482943336191112
0.00432016575437209
0.00374522400050088
0.00311430647380278
0.00244062612223577
0.00173695341081966
0.00103301188857529
0.000408765443694456
3.87136579286198e-05
0.00522700668447615
0.00477286810554942
0.00425307521109047
0.00367230737559525
0.00304197913374722
0.00237335982691583
0.00167824159897866
0.000988392966198081
0.000383790338748562
3.35940127363677e-05
0.00556176297037796
0.00515830286901045
0.00469115621996952
0.00416131111244116
0.003577135301959
0.00295021863056565
0.00229003541557513
0.0016084658083562
0.000937978220022939
0.000356520834358442
2.84023563398974e-05
0.00583640660491103
0.00547926911618665
0.00506110048977847
0.00458064399189563
0.00404336108516734
0.00345954119955573
0.00283949619544999
0.00219169756508881
0.00152844501545321
0.000881797178053446
0.000326872168490468
2.32670601706621e-05
0.00605307810815205
0.00573816360812458
0.00536502128206791
0.0049310772732421
0.00443967717037707
0.00389927143550482
0.00331972537632506
0.00271005248612145
0.00207863635446248
0.00143817568419403
0.000819643841402827
0.000294911852525361
1.83408446051042e-05
0.00621331084542513
0.00593674154224242
0.00560475691815176
0.00521396004193008
0.00476622868962048
0.00426842666137983
0.00372926326124823
0.00315744791917242
0.00256155724518363
0.00195045564121689
0.00133715319476514
0.000751243695230056
0.000260797639292915
1.37734226120783e-05
5.1755011097128e-05
0.000453962492070022
5.43530233492137e-05
0.00110817957059509
0.00046199193347681
5.76008822717694e-05
0.00184254243067369
0.00111453919068846
0.000472342051668853
5.91864253776074e-05
0.00256917136667398
0.00184193425603893
0.00112212126416948
0.000476981416243979
5.7745554991319e-05
0.00324628304969369
0.00255874671501978
0.00183859148413901
0.00112196642844882
0.000471118860630324
5.40587107132135e-05
0.0038571013578795
0.00322500904838845
0.00254067173846739
0.00182535336130491
0.00110789719428059
0.000456305278252209
4.94889487402955e-05
0.00439769447381495
0.00382547088368674
0.0031911348257971
0.00250962230636536
0.00179688018563694
0.00108045722530615
0.000436509343919674
4.46849604061581e-05
0.00486996041275191
0.00435632938288947
0.00377666138467728
0.00314073304525324
0.00246184374334061
0.00175281799802835
0.00104348294435115
0.000414069742864239
3.97246549868438e-05
0.00527750427673907
0.00481868446533101
0.00429375779124843
0.00370747141519689
0.0030713586308109
0.00239678812608682
0.00169561409486662
0.00099974129629507
0.000389447489586735
3.45975445724109e-05
0.00562380851361966
0.00521535465843392
0.00474265588402182
0.00420675302101802
0.00361614681161879
0.0029825850422055
0.00231564886810488
0.00162729308480428
0.000950149152544762
0.000362482725938753
2.93709937696382e-05
0.00591175950236299
0.00554934262612744
0.00512520742008232
0.00463813305109195
0.00409371859037334
0.0035024544792062
0.00287483073210891
0.00221943040857795
0.00154864233510959
0.000894708824033283
0.000333072592528929
2.41728473228811e-05
0.0061436985111817
0.00582327466492692
0.00544377864580725
0.00500264859909732
0.00450337106032805
0.00395463293672926
0.00336653924903265
0.0027482879988098
0.00210838187746682
0.00145962131196772
0.000833179427471045
0.000301266396213877
1.91573693602066e-05
0.00632153248170861
0.00603930051862405
0.00570061928363936
0.00530206365761492
0.0048456620494847
0.00433855014047243
0.00378973020455378
0.00320816471403583
0.002602623732576
0.00198210037309846
0.00135970708612267
0.00076523563478773
0.000267176827824989
1.44791696194711e-05
0.00644663284980912
0.00619898086075411
0.00589748322459982
0.00553810563626353
0.00512181994180254
0.00465452830643827
0.00414410710173801
0.00359864033351125
0.00302655663977943
0.00243695898560911
0.00183958444196319
0.00124792062863462
0.000690355833207624
0.000230848887219605
1.02428223957521e-05
5.2088654718372e-05
0.00045582703339529
5.47789673351519e-05
0.00111243481093316
0.000464236636389523
5.8137505313097e-05
0.00184996276539732
0.00111954178887959
0.000475022734701903
5.98355038321859e-05
0.0025805061556917
0.00185053918664672
0.0011279558255429
0.000480123332956464
5.84874697766828e-05
0.00326231101428739
0.00257177904931634
0.00184849552864727
0.00112868976266326
0.000474705972746889
5.48685291270047e-05
0.00387867254606459
0.00324332927547986
0.00255554556737939
0.00183664120487216
0.00111551867337854
0.000460305977456592
5.03485896109003e-05
0.00442576657644312
0.00385002994172186
0.00321192564490078
0.00252644834967033
0.00180958856872605
0.00108895723841665
0.000440896868844744
4.55803711953477e-05
0.00490562222348506
0.00438820485530283
0.00380442936574328
0.00316413284909422
0.0024806828750139
0.00176694515997005
0.00105283480445231
0.000418822284545784
4.06389800981358e-05
0.00532199281038181
0.00485910474677393
0.00432971413184936
0.00373862001752046
0.00309745118669728
0.00241765563694809
0.00171113577388796
0.00100991311113462
0.000394536194669085
3.55101828328028e-05
0.00567851743245021
0.00526571511902517
0.0047881836758335
0.00424700352212957
0.00365078321777069
0.0030114002600885
0.00233852200294973
0.00164416235516333
0.000961092543453241
0.000367864090286109
3.02579414825881e-05
0.00597824304806732
0.00561121562922038
0.00518187715859272
0.00468903365808037
0.00413839593657443
0.00354062067033894
0.00290634570815235
0.00224424521288899
0.00156678006163486
0.000906349084058961
0.000338685690868003
2.50070190566292e-05
0.00622367171680157
0.00589841520725695
0.00551336149546653
0.00506595932327697
0.00455980830009112
0.00400379010020023
0.00340820985332808
0.00278242027690525
0.00213502357076773
0.00147890535817911
0.000845408136767464
0.000307034482321046
1.99133318197445e-05
0.00641688912732188
0.00612966959880509
0.00578511767857505
0.00537979171596282
0.00491583400815318
0.00440060325168007
0.00384334850377356
0.00325324519485071
0.00263922701597016
0.00201039796939697
0.00137996569560878
0.000777904970378319
0.000273009559218773
1.51350740842183e-05
0.00655962142408191
0.00630691325520136
0.00599929053039196
0.00563265577826152
0.005208100052628
0.0047317783611031
0.00421185782087603
0.0036566896865446
0.00307492955615693
0.00247585975640594
0.0018693376341697
0.00126894488528759
0.000703244884565708
0.000236596673465896
1.07794489439613e-05
0.00665308243154844
0.006431536334268
0.00615747973968887
0.00582631555546094
0.00543831307254182
0.00499864865992132
0.00451450165165134
0.00399328760752771
0.00344282671041236
0.00287200812882375
0.00229084233850224
0.0017101399194415
0.00114415846248451
0.000620281096629575
0.000197342929568612
6.89703419248223e-06
5.23549599415869e-05
0.000457371671833524
5.51305501194419e-05
0.00111603356878949
0.000466136681161686
5.85908815041226e-05
0.00185631333052237
0.0011238339885822
0.000477326622216753
6.03930545454988e-05
0.00259028749341911
0.00185798594031065
0.00113301785698358
0.000482853736249463
5.9133078661954e-05
0.00327622472891211
0.00258312188224782
0.00185713897844923
0.00113457216259418
0.000477850738188178
5.55803751265249e-05
0.00389748071966212
0.00325933994231576
0.00256857806880634
0.00184655846349487
0.0011222321478886
0.00046383787767425
5.11108504376435e-05
0.00445032443391299
0.00387155755609324
0.00323019355437693
0.00254127168743808
0.00182081539344291
0.00109648680734064
0.000444793415162203
4.6380246707722e-05
0.00493689886806487
0.00441620835736178
0.00382887593442053
0.00318478466037222
0.00249735493816144
0.00177948315413074
0.00106115846429091
0.000423064790374431
4.14618179833229e-05
0.0053610863638348
0.00489467342522397
0.00436141263825714
0.00376614157127588
0.00312056482115854
0.00243619308548936
0.00172496562411712
0.00101900392315664
0.000399099127998205
3.63363788558036e-05
0.00572666238607009
0.00531008353127476
0.00482835603091014
0.00428258881097096
0.00368147706243585
0.00303700409566724
0.00235890625782521
0.00165924386046798
0.000970908417536438
0.000372708700850549
3.10654484718694e-05
0.00603681564640127
0.0056657727473405
0.00523190762922155
0.00473404477344783
0.00417798520546449
0.00357452303103393
0.00293441819969167
0.00226641845268291
0.00158304233219681
0.000916823120184138
0.000343756768789968
2.57716990566791e-05
0.00629419096798612
0.00596470943848678
0.00557480721878601
0.00512193936424047
0.00460979722794888
0.00404742381981375
0.00344529129994933
0.00281288129693337
0.00215887767481197
0.00149623559365155
0.00085644150672123
0.000312259202872398
2.06104372186367e-05
0.0065010163333693
0.0062094118560599
0.00585971746846682
0.00544847910856639
0.00497793023413226
0.00445561357872235
0.00389098452904408
0.00329339750347805
0.00267192392900992
0.00203576127724848
0.00139819772563238
0.000789361718654651
0.000278304263157742
1.5742904944243e-05
0.00665917739083815
0.00640199915647621
0.00608899288005104
0.00571601659738059
0.00528424955822035
0.00480005473453066
0.0042718445653105
0.00370819611103462
0.00311795580716585
0.00251055821777167
0.00189596569214755
0.00128785030649301
0.000714944301358641
0.000241869442111094
1.1279699707241e-05
0.00677022583960862
0.00654421663629377
0.00626460459320468
0.00592669490853254
0.00553084496979823
0.00508246342433162
0.00458901258127477
0.00405817933876157
0.0034980282762491
0.00291765982521695
0.00232725355318628
0.00173773321589278
0.00116344732400991
0.000631938836890265
0.00020239435214384
7.26987321506253e-06
0.006835204572022
0.00663728425332078
0.00638797676521848
0.0060821638938363
0.00571951771697542
0.0053046346714968
0.0048441061289079
0.00434471664520561
0.00381361743831506
0.00325904130382103
0.00269072790533919
0.0021197975540768
0.00155840753936519
0.00102212842220335
0.00053794940590248
0.000158903575237222
3.86792544317452e-06
5.25567101706706e-05
0.000458612732843707
5.54110111198833e-05
0.00111901215312113
0.000467710916740776
5.89650523433468e-05
0.00186166576614966
0.00112746307273696
0.000479277320932611
6.08641501255625e-05
0.00259863176489735
0.00186435920594681
0.00113736229629444
0.000485201023950324
5.9687764078142e-05
0.00328819713762589
0.00259291039535442
0.00186462014814183
0.00113967719212675
0.000480585007588946
5.62001878402911e-05
0.0039137680774184
0.00327323894437507
0.0025799229124356
0.00185521611863632
0.001128108705791
0.000466935912714051
5.17813500489252e-05
0.00447169238228421
0.00389032827368867
0.00324616132967499
0.00255426397522789
0.00183068340451992
0.00110312319510492
0.000448235887024428
4.70900286906025e-05
0.00496421296224476
0.00444070693756194
0.00385030900462978
0.0032029361811995
0.00251204888341973
0.00179056540569441
0.00106853656259665
0.000426835293998241
4.21974242900603e-05
0.00539532342946378
0.00492586918467373
0.00438926579795488
0.00379037890720615
0.00314097257272411
0.00245260635069139
0.00173724689739823
0.00102710081458583
0.000403175927896532
3.70803038418644e-05
0.00576892018906932
0.00534907220626856
0.00486371270452382
0.00431397002913329
0.00370860802398142
0.00305969579321213
0.00237702435276809
0.00167268994488356
0.00097968755791013
0.000377056686106606
3.17972115867553e-05
0.00608831472309195
0.00571378480561317
0.00527599232483039
0.00477377307095812
0.00421300021512216
0.0036045809170985
0.00295937551891519
0.00228619068821283
0.00159759078036205
0.000926225159648445
0.000348326395676981
2.64687639547454e-05
0.00635627928424633
0.00602311548968274
0.00562899501063858
0.00517137462363334
0.00465401977418614
0.00408610705858399
0.00347824808687802
0.002840030993026
0.00218020604314508
0.00151178468828156
0.000866377310754259
0.000316984076596335
2.12501190742718e-05
0.00657516955899054
0.00627972522084431
0.0059255404421701
0.00550914867534903
0.00503285741143674
0.00450436238904509
0.00393329152485709
0.00332914962576721
0.00270112289830364
0.00205848645775078
0.00141459483192119
0.000799706158921358
0.000283102194836903
1.63039522828786e-05
0.00674699746537908
0.0064858776889802
0.00616814626422182
0.00578962597912664
0.00535156642766101
0.00486050274889304
0.00432505321343247
0.00375398461031763
0.00315630444059321
0.00254157582845713
0.00191985093784296
0.0013048789638274
0.000725532247252103
0.000246650303297244
1.17438536540641e-05
0.00687345729255287
0.00664348406142601
0.00635897329050994
0.00601515767094319
0.00561245720552995
0.0051564720870873
0.00465490450344194
0.00411567128906752
0.00354704233526112
0.00295829655210904
0.00235975755810154
0.0017624499648647
0.00118081256911623
0.000642549095523629
0.000207047562487392
7.61872773156236e-06
0.00695591482033351
0.00675410271404471
0.00649979926119164
0.00618775465812368
0.00581769766701259
0.00539443480218397
0.00492482883787674
0.00441593398432754
0.00387515282906042
0.00331094902509218
0.00273326192216863
0.00215337006735654
0.00158354077645965
0.00103944133866373
0.000548219417502183
0.000163167974572737
4.08812650539119e-06
0.00699522960410062
0.00681877321145335
0.00659186091442205
0.00630888852323882
0.00596899091525775
0.00557627006101437
0.00513680799623363
0.00465679567275254
0.00414271297468274
0.00360206099875591
0.00304383754389321
0.00247878756338562
0.00191928644287114
0.00137916903585099
0.000876215558921783
0.000438571170136835
0.000114010863251111
1.52883342220439e-06
5.26960549244151e-05
0.000459562130864723
5.56222855495171e-05
0.0011214005452897
0.000468978502964122
5.92632685070649e-05
0.00186607880316879
0.00113046665276808
0.000480893769983332
6.12529077039979e-05
0.00260563806286651
0.00186973094564894
0.00114103575883381
0.000487189080802243
6.01566333410104e-05
0.00329837620406745
0.00260126107911036
0.00187102381722688
0.00114405983931639
0.000482936734605722
5.67329766316415e-05
0.00392774418235958
0.00328519886298903
0.00258971466382725
0.00186271166849506
0.00113321092665128
0.000469631193259401
5.2365251241792e-05
0.00449015460768697
0.00390658333361486
0.00326002541031177
0.00256557717163041
0.00183930173498225
0.00110893552415385
0.000451257558831052
4.7714938074051e-05
0.0049879358033571
0.00446202393481849
0.00386900066000407
0.00321880713202879
0.0025249331330176
0.00180031148323953
0.00107504368208054
0.000430168919834989
4.28506917080698e-05
0.00542517903132779
0.00495311339849499
0.00441363735291269
0.00381163528155437
0.00315891701004633
0.00246707939939665
0.00174810857334757
0.00103428281664943
0.000406802186117558
3.77462433222122e-05
0.00580588462409666
0.00538321860595017
0.00489472805924609
0.00434155305538705
0.00373251123231028
0.00307974065355988
0.00239307506799857
0.00168463788368648
0.000987512755683223
0.000380944836417913
3.24567179287214e-05
0.00613347406498168
0.00575592669787818
0.00531473812480222
0.00480874955709806
0.00424389115732852
0.00363116246592104
0.0029815059899148
0.00230377510606463
0.00161057019252047
0.000934640794785382
0.000352431682496949
2.7101221803242e-05
0.00641083140339492
0.00607446879300054
0.00567668930059698
0.00521494741768747
0.00469306773990517
0.00412033724717985
0.00350748327600539
0.00286418186238853
0.00219923670818926
0.00152570463443909
0.000875303394985163
0.000321246332582545
2.18340854408038e-05
0.00664042717079294
0.00634163239763923
0.00598353882997642
0.00556266622673718
0.00508138182236513
0.00454750875166981
0.00397081928664069
0.00336094385020957
0.00272716403808571
0.00207881880147107
0.00142931706578849
0.000809028846465201
0.000287444998612851
1.68194471101622e-05
0.00682438799157754
0.00655980919968009
0.00623794601953864
0.00585458990278868
0.00541104754817759
0.00491399784725571
0.00437223201338214
0.0037946759889052
0.00319047314901705
0.00256929407392734
0.00194126688831701
0.00132020476278859
0.000735097689403775
0.000250981744047529
1.2172547124317e-05
0.00696452046003716
0.00673103914992641
0.00644221784960239
0.00609323087613843
0.00568454765066549
0.00522192751271731
0.00471327471999814
0.00416669994369734
0.00359064544098991
0.00299454223961008
0.00238883544302217
0.00178463799089731
0.00119646614290993
0.000652155822230249
0.000211268192166369
7.94334863293405e-06
0.00706231801983211
0.00685702985014418
0.00659830372674967
0.00628078964611492
0.00590425297350731
0.00547367386896415
0.00499614629794493
0.00447895377023246
0.00392971100364881
0.00335707469118922
0.00277115524024101
0.00218336563049411
0.00160607375833833
0.0010550440962376
0.000557582766897903
0.000167119719098786
4.29544501992753e-06
0.00711895023812956
0.0069391444307885
0.00670777779834148
0.00641908207473259
0.00607221717137645
0.00567147121881207
0.00522318284464655
0.00473380614685511
0.00421007455777358
0.00365972965131279
0.00309198777262199
0.00251778299235498
0.00194963594165038
0.0014014949563851
0.000891255394215449
0.00044722874948568
0.000117368218888319
1.62446380115359e-06
0.00713508500453368
0.00697823262516089
0.00677168055298976
0.00650937491918731
0.00618995592344542
0.00581708326638928
0.00539638475042576
0.00493349586919808
0.00443423217736534
0.00390534754724028
0.00335500245467963
0.00279306485864999
0.00223133684324864
0.00168353574719149
0.00116568498689922
0.000699427708201903
0.000316844156029097
6.30599267259578e-05
3.0046904145093e-07
0.000460229741774005
5.57695071118845e-05
0.00112322247007323
0.000469947317316728
5.94872462716389e-05
0.00186959669670515
0.00113287563135498
0.000482197310738332
6.15627262322498e-05
0.00261138523595957
0.00187415956095855
0.00114407598093134
0.000488836736526257
6.05434571240042e-05
0.00330688771563648
0.00260827235298575
0.001876421571883
0.00114776631443603
0.000484929385953676
5.71835384813788e-05
0.0039395893468478
0.00329536792051416
0.00259806923748314
0.00186912924616178
0.00113759298049935
0.000471950906196543
5.286774649174e-05
0.00450595748928866
0.0039205322470313
0.0032719571766862
0.00257534429655583
0.00184676621091851
0.00111398478665195
0.000453888135152229
4.82593086825416e-05
0.00500839197645207
0.00448044260719563
0.00388518993585779
0.00323259122044034
0.00253615675024127
0.00180882768062952
0.0010807464785513
0.000433097520030392
4.34263781354605e-05
0.00545106814988501
0.00497677619061614
0.00443484760752772
0.00383017855172644
0.00317461323966257
0.00247977615139036
0.00175766623246964
0.00104062139352067
0.000410011018166964
3.83382417075091e-05
0.00583807721533153
0.00541299547817623
0.00492181949685645
0.00436569575041797
0.0037534831019054
0.00309737437847918
0.00240723607006044
0.00169521130353953
0.000994458991877426
0.000384406874784868
3.30479984298039e-05
0.00617293734218128
0.00579279053250868
0.00534867768957578
0.00483944077874125
0.00427105426729757
0.00365459268045374
0.00300106530917399
0.00231936204202573
0.00162211108328557
0.000942147984033128
0.000356106531188971
2.76717230475144e-05
0.00645863180779615
0.00611950099104599
0.00571855892417834
0.00525325457183245
0.00472745906024865
0.00415055013601316
0.00353335082589605
0.00288560930952826
0.00221617192304984
0.00153813178729306
0.000883299600639174
0.000325079673590981
2.23644760250087e-05
0.00669773349212678
0.00639602597209617
0.00603454110098259
0.00560978370999054
0.00512416860606653
0.00458562468984315
0.00400404482625613
0.00338916400760123
0.00275034279456858
0.00209697222444945
0.00144250580396043
0.000817410909087789
0.000291366713313562
1.72907946811439e-05
0.00689247338228391
0.00662487170222286
0.00629940852979439
0.00591184597783841
0.00546353670752431