/*--------------------------------*- C++ -*----------------------------------*\
  =========                 |
  \\      /  F ield         | OpenFOAM: The Open Source CFD Toolbox
   \\    /   O peration     | Website:  https://openfoam.org
    \\  /    A nd           | Version:  12
     \\/     M anipulation  |
\*---------------------------------------------------------------------------*/
/*   Windows 32 and 64 bit porting by blueCAPE: http://www.bluecape.com.pt   *\
|  Based on Windows porting (2.0.x v4) by Symscape: http://www.symscape.com   |
\*---------------------------------------------------------------------------*/
FoamFile
{
    format      ascii;
    class       volScalarField;
    location    "300";
    object      omega;
}
// * * * * * * * * * * * * * * * * * * * * * * * * * * * * * * * * * * * * * //

dimensions      [0 0 -1 0 0 0 0];

internalField   nonuniform List<scalar> 
10116
(
2.46684449252647
2.46684230619094
0.788879560154012
2.38168278023543
2.46684037434543
0.794298077513723
2.38168073115369
0.468905593102618
0.772343233086486
2.2869990796252
2.46683966880391
0.799113564571358
2.38167826518772
0.473131821957432
0.777707778485419
2.28699711069542
0.352273968833782
0.463729682954234
0.750961380789326
2.21611237401089
2.46683965030362
0.803400203022201
2.3816772664089
0.476927746995467
0.782472220348629
2.28699441463174
0.355628136102296
0.467930129254493
0.756228256977114
2.21611054821525
0.296154572737874
0.35028132508382
0.45588238193602
0.732843864306036
2.18722112886702
2.46683978580382
0.807207212092757
2.3816771765463
0.480324434661671
0.786715747991415
2.28699326054341
0.358668041956613
0.471700502845484
0.760905395774135
2.21610803161023
0.298954353864087
0.353625830711395
0.460035275924183
0.738013713598686
2.18722111344267
0.265098991595101
0.295318165009165
0.346763581166226
0.44791785061143
0.721513664984518
2.1861956951192
2.4668413685838
0.810575725517236
2.38167737770093
0.483352573255214
0.790486442235285
2.28699311108596
0.361405568537743
0.475074187201329
0.765072262132917
2.21610688236824
0.301511373869853
0.356654296575619
0.463762255456615
0.742602253316109
2.18721786632177
0.26752309362285
0.298116431288547
0.350087267205052
0.452018460269993
0.726615520647747
2.18619463023127
0.246507967853135
0.26471980970536
0.293514968998803
0.342548189283019
0.441319745649254
0.714733787250223
2.19193092613174
2.46683893406624
0.813545479844704
2.38167885884751
0.486041431932939
0.793824869991702
2.28699319377416
0.363858083872626
0.478081996558967
0.768775515734511
2.21610665677382
0.303829101748826
0.359381077989501
0.467097271579441
0.746691153305375
2.18721697139099
0.269753642830423
0.300669393202686
0.353095993540363
0.455697973094952
0.731139914951277
2.18619226249515
0.248658913050621
0.267146480762705
0.296305902919122
0.345846613631636
0.445377895051867
0.719794616511216
2.19192873064037
0.234873901131549
0.246294262625433
0.263659383477534
0.291007615432345
0.338308770309823
0.435818661514343
0.708629490155959
2.19485480249103
2.46683904079181
0.816154688767289
2.38168808425956
0.48841904369339
0.796769474785016
2.28699258831112
0.366044644856839
0.480753071132614
0.772054895780554
2.21610663601871
0.305916841253006
0.361823925114602
0.47007085713008
0.750325873590164
2.18721661999197
0.271788823616931
0.30298291082379
0.35580479423067
0.458990685211469
0.735172647095133
2.18619027037833
0.250653534359694
0.269376798682678
0.298851165053612
0.348832225850524
0.449018177148033
0.72427817577652
2.19192848832118
0.236814552575784
0.248449705149558
0.266085865252218
0.293788552072953
0.341584381526112
0.439846106014903
0.713657374869413
2.19485015232858
0.227447744804883
0.234712364828536
0.24555287788853
0.261993280871586
0.28811176307063
0.334173212965978
0.430397641177321
0.701084478166051
2.19513010905381
2.46684086466175
0.818435856896662
2.38167559547836
0.490511991057889
0.79935621817812
2.28700262511247
0.36798465466655
0.48311515761119
0.774947811665995
2.21610587556009
0.307786713560573
0.364001907316705
0.4727118650587
0.753544868782538
2.18721647277543
0.273632486731403
0.305066736582537
0.358231581294344
0.461926776577574
0.7387579087941
2.18619125997732
0.252485708771117
0.271411174807215
0.301157298712956
0.35152011160173
0.452275669497453
0.728273171177466
2.19192690643811
0.238628810530196
0.250445947604061
0.268314930823494
0.296324330917314
0.344548908167675
0.443457044156272
0.718106815286278
2.19485243204409
0.229219384451205
0.236658385919025
0.247712002684396
0.264418751639368
0.290883622899924
0.337430963898409
0.434400030786959
0.706074243436245
2.19512151805097
0.222726656512348
0.227304999119296
0.234109352936315
0.24431340339082
0.259893155249428
0.285011285592406
0.329922139072863
0.424347374781649
0.69176695468232
2.19480822437472
2.46684255093326
0.820417752604349
2.3816788484251
0.492344804204844
0.801615687523471
2.2869908309815
0.369697206119963
0.485194435524138
0.777489264805909
2.21610416576437
0.30945223475062
0.365934349502685
0.475047637754541
0.75638468279686
2.18721468473173
0.275291817067934
0.306933073461093
0.360395385469966
0.464534726668422
0.741933143030137
2.18619092902473
0.254155092420976
0.273253917709226
0.303234365248338
0.353928176427768
0.455180363229702
0.731825966852063
2.19192753429074
0.240306728448511
0.252278969876786
0.270347612274595
0.298621542196095
0.347217526419959
0.44668755395123
0.722069859702206
2.19485473143737
0.230889584769121
0.238475133224623
0.24971049738441
0.266646345410219
0.293410607895963
0.340378384600444
0.43798599774432
0.710485285135561
2.19512608154368
0.224358347006909
0.229082489399798
0.236061283192218
0.2464770660738
0.262319084681764
0.287777080479171
0.33316577031718
0.428324841167762
0.696710493478967
2.19479983611408
0.219825917038568
0.22259748365115
0.22677398580594
0.233102318329279
0.242701326248224
0.257534785755334
0.281743357601175
0.325345611867615
0.417434856980405
0.680868408370024
2.19480304129596
2.46684081028803
0.822126630497939
2.38166980617841
0.49394007690691
0.803579438113385
2.28699515946082
0.371200658843523
0.487015133889578
0.779709168800613
2.21610205645478
0.310927487653534
0.367640239328566
0.477103915083833
0.758879141394886
2.18721526355803
0.276776054591734
0.308595437508262
0.362315395954213
0.466841479920362
0.744734296821437
2.18618964161154
0.255665074728793
0.274912330980411
0.305094657833997
0.356075381273574
0.457760426619045
0.73497228179042
2.19192488371781
0.241844466589766
0.253948880406677
0.272188574203825
0.300690400706795
0.349608154877193
0.449567916876734
0.725594483055805
2.19485120055929
0.232444952893933
0.24015467754583
0.251544914820665
0.268677151780361
0.295699371125538
0.343030944253052
0.441192975064312
0.714412610334855
2.195130432074
0.225909800822865
0.230755661229083
0.237882281514533
0.248479011159885
0.264546329365426
0.290297526801169
0.336098906496259
0.431885221143264
0.701073985401992
2.19480464736688
0.221339542433039
0.224235407719189
0.228558885897622
0.235062506934856
0.244872275745097
0.259964336868615
0.284506519626574
0.328577073751986
0.421385277421189
0.685757772011813
2.19479501555152
0.2181881763591
0.219711450577066
0.222117912975127
0.22591485101617
0.231811667018414
0.240879407147983
0.255037971164039
0.278305157284067
0.320368992523667
0.409657536597988
0.668452064775012
2.19512812818563
2.46683985124048
0.823587870830348
2.38168064200168
0.495318597376411
0.805272437098048
2.28698762562563
0.372512410807254
0.488599949559365
0.781638739299931
2.21610899807564
0.312226589862905
0.369137843296324
0.47890457043099
0.761059077752879
2.1872132785729
0.278095637944087
0.310067889698923
0.364010428930996
0.468872325443422
0.747194836695824
2.18619123714684
0.257021589579156
0.276395694275662
0.306751682853903
0.357980775049632
0.460042528112944
0.737747621894221
2.19192740332767
0.243242315949525
0.255459204995822
0.273845277067728
0.302543279356955
0.351739711613207
0.452126065889626
0.728715272469376
2.19484594005444
0.233878631290437
0.241693624225715
0.253215736906953
0.270516062783174
0.297760266291659
0.345406717394024
0.44405165784576
0.717903517597696
2.1951243974717
0.227364544893316
0.232313089521038
0.239564979063969
0.250315871476639
0.26657610099545
0.292579550706813
0.338737533830593
0.435067678905812
0.704956990464103
2.1948070628902
0.222791044621078
0.225790195566437
0.230237636152216
0.236890224519655
0.246879877911402
0.262193589474773
0.287023005147735
0.331497134549473
0.42491712659269
0.690064253161123
2.19480217615547
0.219601206269524
0.221231677903763
0.223764456878982
0.227710813970063
0.233784335352039
0.243061848788918
0.257475212760311
0.281068980262298
0.323589340085559
0.413578424230636
0.673279324358243
2.19512037004046
0.217440547712
0.218089303859117
0.219277105566998
0.221370325424267
0.224857654334025
0.230393006719406
0.238989858676725
0.252489996694897
0.274735616223129
0.31503545133056
0.401070479923005
0.65437719463644
2.19485279987643
2.46684056009798
0.824825028417155
2.38168130178913
0.496499705772909
0.806721306565597
2.28699943135633
0.373648774924609
0.489969447555021
0.783302640465139
2.21611567215928
0.313363336274434
0.37044450762197
0.480472044542305
0.76295361190613
2.18721877668313
0.279261563000846
0.31136452166845
0.365498590727756
0.470650860702491
0.749344822141556
2.18619172442462
0.258232224288904
0.2777144595937
0.308219456993529
0.359662994872648
0.462051655517368
0.740185085973511
2.19192836767607
0.24450351048987
0.256815937896374
0.275327066067947
0.304193692416986
0.353631166339525
0.454388520995101
0.731467585351503
2.19485094309879
0.235188278754788
0.243092408281352
0.254726686583955
0.272170708709037
0.299605771984403
0.347524665938871
0.446589938848642
0.720994056969116
2.19511864222229
0.22871308347004
0.233748355120677
0.241106367774068
0.251988404342979
0.268413522453489
0.294633749004513
0.341100034182964
0.437903304637951
0.708406799262823
2.19479891982451
0.224161267967177
0.227247324419098
0.231799382788321
0.238578223535255
0.248720959082431
0.264224119664158
0.289300231618673
0.334122517672318
0.428071963810301
0.693894178023276
2.19480496038054
0.220967551077005
0.222686852467081
0.225325882343804
0.229398729310709
0.235622251483545
0.245078360431973
0.259709609886762
0.283583985364362
0.326496719455478
0.417078355209057
0.677520718194182
2.195129760349
0.218767586552531
0.219509298305722
0.220807032990941
0.223030269638817
0.226670326946264
0.232383718264619
0.241188986710406
0.254939571898358
0.277503506562098
0.318245759011972
0.404959546027916
0.659133276539971
2.19484918546941
0.217321282740078
0.217356926344434
0.217696829754484
0.218623190203629
0.220497975740958
0.223756896251427
0.228992432937717
0.237159087613921
0.250001052970358
0.271152800227451
0.309484862239125
0.391759613572664
0.638336721414783
2.19192522476786
2.4668404913453
0.825853066118655
2.38167961298062
0.497500639652537
0.807946485617114
2.28699742850727
0.374624959421113
0.491143009771454
0.784726483021204
2.21611305737228
0.314350945071875
0.371576475925432
0.481826735267108
0.764587674319283
2.18722400332669
0.28028501142953
0.312499103150408
0.366797091213037
0.472199106419358
0.75121270761608
2.18619299766685
0.259305618224333
0.278879647560823
0.309512015185186
0.361139973961287
0.463811057057561
0.742314278697603
2.1919287607558
0.245633381204213
0.258026717666229
0.276644415065579
0.305655620047797
0.355301033117224
0.456380087704936
0.733883827739207
2.19485467000062
0.236374891139768
0.244354346385331
0.256083865000148
0.273650533172268
0.301249456827314
0.349403765694063
0.448834286385999
0.723718995161815
2.19512398490616
0.229950828575698
0.235059273782579
0.242507103477806
0.253500559746519
0.270066430617399
0.296472782733628
0.343205529682031
0.44042027027639
0.711460186031248
2.19479306796396
0.225438439626991
0.228597741327526
0.233238107776371
0.240123810976943
0.250396581498358
0.266061395050571
0.291349184094513
0.336472057506521
0.43088152989823
0.697295360383388
2.19480342665164
0.222265776398086
0.224059762648647
0.22678825995587
0.230967913703623
0.237318435773707
0.246926234246251
0.26174334029393
0.285858277220845
0.329108849370125
0.420202166747809
0.681289384836169
2.19512632801815
0.220060978149419
0.220879642709996
0.222269791919497
0.22460289734789
0.228372130482138
0.234236269504927
0.243218527704887
0.257182808842884
0.280019657730623
0.321140916843317
0.408424405569761
0.663294436041044
2.19485258049552
0.218574933723796
0.21869127230035
0.219127513774093
0.220168573571985
0.222178257006742
0.225593229359496
0.231007704642561
0.239380963277949
0.252468341436534
0.273928862348449
0.312686931859912
0.395614866019027
0.643006173411503
2.19192741227953
0.217640190042052
0.217251766465871
0.217002793955688
0.217124991783595
0.217905471809096
0.219658093643379
0.222759085989457
0.227753821673932
0.235540471613879
0.247751908355721
0.267784183223977
0.303984566736072
0.381917765538246
0.62001400086689
2.18618823126722
2.46684130098681
0.826694961305498
2.38167770438791
0.498338408697299
0.808967147873202
2.28699543098901
0.375454926115825
0.49213788799327
0.785930035198515
2.21611093280268
0.315201895037447
0.372548905070526
0.48298768334321
0.765984330398822
2.18722288082255
0.281176936613556
0.313484826604242
0.367922054764538
0.473537229337569
0.752823469021688
2.18619393060793
0.260250881386025
0.279902421237986
0.310643066689573
0.362428754864534
0.465342470245577
0.744163148889725
2.1919287016657
0.246638581041697
0.259100186215199
0.277808348839261
0.306943040095379
0.356767099296602
0.458123813382427
0.73599389510762
2.19485292944908
0.237441865754011
0.245484799425954
0.257294973514934
0.274966059104896
0.302705308418917
0.351062491799739
0.450809419226222
0.726110230791905
2.19513031107177
0.231076855891505
0.236246918539637
0.243770636578382
0.254858596192173
0.271544419689797
0.298110346538083
0.345073085224239
0.442645057700736
0.714151189865662
2.19479840078954
0.226616036398335
0.229837014765529
0.234551865635643
0.24152791146632
0.251910977056508
0.267713542825717
0.293182812664135
0.338565169902615
0.433374353451153
0.70030467721368
2.1947977462854
0.223482173811891
0.22533908127828
0.228142954039554
0.232412700248237
0.238870564761316
0.2486069718283
0.263582371721152
0.28790338207653
0.331445185269399
0.422982507360049
0.684635388123139
2.19512489722755
0.221297412135553
0.222180846517048
0.223648785027565
0.226074493719122
0.229952719844644
0.235944242090278
0.245076498533799
0.259222695974352
0.282293052223868
0.323739915131122
0.411514092800167
0.666991743666666
2.19485504661975
0.219805781195876
0.219988971236795
0.220506316350753
0.221644335164645
0.223767941444487
0.227314572712121
0.232880164866596
0.241428479614191
0.254724836052215
0.276449487285009
0.315571095562193
0.39904084329159
0.647065362376609
2.19192692893591
0.218831528234542
0.218513032849517
0.218348723824092
0.218572967710166
0.219474383863004
0.221366959984658
0.224626937476833
0.229801151579113
0.237792263160403
0.250243547128921
0.270574049964328
0.307181719125545
0.385737600378134
0.624558343666652
2.18619074014018
0.218255854201469
0.217583313635909
0.216932025031558
0.216503465913749
0.216540205854439
0.217285572883584
0.218998197807341
0.222017213430504
0.226857058934647
0.234360903638756
0.246041894289799
0.265029952858365
0.299044576958689
0.372078811313587
0.599817417549814
2.18721474599503
2.46684309613265
0.827365473942908
2.38167703063359
0.499026004807987
0.809801817563929
2.28699292128804
0.376151422729191
0.492970026557978
0.786933026628294
2.2161089965998
0.315927790558537
0.373375700563496
0.483971943697918
0.767165137798424
2.18722016851673
0.281947867987244
0.314334146838803
0.368888513946885
0.474683852949749
0.75419984877199
2.18619515758417
0.261077224717516
0.280793737822177
0.311625745952799
0.363545324791683
0.466665913676086
0.74575699301665
2.19192828740503
0.2475265700259
0.260045470540194
0.278830013553514
0.308069598958961
0.358046275848992
0.459641250351761
0.737825444399768
2.19485206099429
0.238394235137422
0.246490459015397
0.258368682701802
0.27612833073563
0.303987282453595
0.352518565805112
0.452538369092839
0.728197401801063
2.19512669997278
0.232092928619704
0.237314733100732
0.244902405774113
0.2560703191666
0.272858112196532
0.299560502278152
0.346721224632627
0.444602355758495
0.716511575367136
2.19480283198186
0.227691489467312
0.230964301484391
0.235741876574125
0.242794172517854
0.253270626853618
0.269190382629008
0.294815020394889
0.340421089950318
0.435576938816324
0.702955332351273
2.1948029621994
0.224608572956323
0.226518444932785
0.229385784704947
0.233731445785876
0.24027990506056
0.250125185688424
0.265235235030826
0.289732656413398
0.333525550611237
0.425448247162853
0.687593767655116
2.19511928954686
0.222461574205359
0.223399650143736
0.224933116957184
0.2274368084338
0.231406854674794
0.237505838012779
0.246765012636046
0.261065862887662
0.284335910739843
0.3260630051619
0.414262483622681
0.670275163295457
2.1948516314625
0.220989034144634
0.221228658744944
0.221814376701757
0.223034127856729
0.225253709993432
0.228911227205894
0.234604235720094
0.24330060785391
0.256774530944509
0.278724724890773
0.318157901080355
0.402093449153282
0.650678168116453
2.19193170187303
0.220008887121307
0.219748465631829
0.219655679147296
0.219966394468586
0.220970002463135
0.222980485837542
0.226374261760297
0.23169971868489
0.239863759407333
0.252518933570819
0.273103972105502
0.310057610386976
0.389120921273913
0.628484381839843
2.18619276783091
0.219394668014325
0.218782532128087
0.218205660647478
0.217868314127528
0.218014536872473
0.218887429940617
0.220744778826277
0.223925479661853
0.228945279271626
0.236651446031165
0.248566699302123
0.267842115685713
0.302243402631812
0.375861267111918
0.604215603944373
2.18721596708876
0.21906160545848
0.218210116493035
0.217293931859064
0.216496514375411
0.216034148888569
0.216108727255948
0.216912924429352
0.218677339015135
0.221728356419013
0.226561839499716
0.233974456626094
0.245368909201356
0.263606585882223
0.295704321094512
0.363746333152774
0.580275091422407
2.21611792753311
2.46683944064222
0.827876634358812
2.38167783782806
0.499576277509638
0.810466603880623
2.28699142992586
0.376725821311295
0.49365328303756
0.787752874115025
2.21610652985059
0.316539275172246
0.37406954217343
0.484795095212567
0.76814892690259
2.18721901724206
0.282607732793444
0.3150586435393
0.369710262476456
0.475655959626255
0.755362988252159
2.18619352178532
0.26179368877131
0.281564125600228
0.312472451754713
0.364504567399025
0.467799796701705
0.747118641966985
2.1919279616372
0.248305169000352
0.260871800646397
0.279720352879415
0.309048368817871
0.359154449686159
0.460952342527246
0.739403573080915
2.19485081581848
0.239238080339451
0.247378805397019
0.259314137403787
0.277148493519386
0.30510898977274
0.353788824553022
0.454042569940319
0.730008302759704
2.19512544417726
0.233002703674778
0.238267785936353
0.245909158028613
0.25714446486358
0.274018611971667
0.300837240038762
0.34816768426506
0.446315158664031
0.718570424220024
2.1948056521113
0.228665166402997
0.231981415334237
0.236811678666187
0.24392817309978
0.254483501593835
0.27050270143945
0.296260015116085
0.342058443581366
0.437513958413777
0.705278624416626
2.19480526654263
0.225641003059846
0.227595368467856
0.230516067165283
0.2349255970729
0.241550384231056
0.2514876653673
0.266712062846429
0.291360297601094
0.335369413375831
0.427625934356451
0.690197521622986
2.19512437741721
0.223543917445191
0.224528046204591
0.226116687125273
0.228685991405467
0.232733285315025
0.238922783505603
0.248289190973258
0.262721367499973
0.28616211222382
0.328130501775857
0.416698650573468
0.673175660659219
2.19484785676178
0.222108090210363
0.222395471903922
0.223038878445482
0.224327469461858
0.226627791004044
0.230378555663867
0.236178837581411
0.2450002536439
0.258624877819166
0.280767640618091
0.320468560503484
0.404807751053969
0.653888157608427
2.19193007580079
0.221146378152677
0.220935222247869
0.220902934503964
0.221286686061739
0.222376421752941
0.224486071955212
0.227992301362765
0.23344503849819
0.241755101743948
0.25458325564804
0.27538525217762
0.312634773315286
0.392134152034616
0.631993732150689
2.1861943565254
0.220526474139801
0.219964717849408
0.219451060607183
0.219191345884881
0.219430316957078
0.220410708912922
0.222389681787947
0.225706181898172
0.230877405551706
0.238754515557477
0.250868702128965
0.270388933696261
0.305117030460789
0.379200020662564
0.607986271918339
2.18721838595093
0.220156496441201
0.219357027863801
0.218506185331299
0.217790479119507
0.217427834653125
0.217619862584307
0.218558022942299
0.220471849339007
0.223687434100657
0.228701754314122
0.236315252569209
0.24793949989161
0.266454941250726
0.298918279573603
0.3674930668416
0.58450839138917
2.21610690834468
0.219976341833723
0.219025595252934
0.217947267449361
0.216914257578811
0.216127710013767
0.21576528095573
0.215982265706672
0.216951370612644
0.218904620131177
0.222175602685386
0.227262780743045
0.23495075780011
0.246590853530682
0.264872916548384
0.296249976935923
0.361020704919001
0.569059292641222
2.28700646185534
2.46683921275885
0.828239813427924
2.38169005484296
0.499999924567016
0.810969347378704
2.28699253570821
0.377188199310651
0.494200145093813
0.788405513975476
2.2161048610001
0.317045904620179
0.37464174573946
0.485471009067885
0.768952624155316
2.18721590981314
0.28316575044519
0.315668932276975
0.370399854081666
0.476468856397088
0.756331473271489
2.18619359583332
0.262408961490781
0.282223510741881
0.313194710221971
0.365320164215624
0.468760929318254
0.748268716718481
2.19193049903059
0.248982248179921
0.261588234083524
0.280489877995232
0.309891685087997
0.360106394332822
0.462075393936024
0.740751154072883
2.19484819539617
0.239980065447378
0.248157680645997
0.260140581373826
0.278037481849267
0.306083465498267
0.354889095196293
0.455341856112997
0.731567888500698
2.19512362012124
0.233811082628597
0.239112184166835
0.246798409116507
0.258090219262805
0.275037097302504
0.301954181034513
0.349429280160499
0.447804872129656
0.720355729097454
2.19480412780748
0.229539535702297
0.232892046785919
0.237766407080195
0.244936757322074
0.255558454627327
0.27166171857664
0.297531883475197
0.343495026034242
0.439208352743122
0.707304028080868
2.19480796181073
0.226578639212531
0.228570271795716
0.231535720690175
0.235998857464614
0.24268779323844
0.252702619536198
0.26802388049665
0.292800723149772
0.336995534280712
0.429540209638499
0.692477706197998
2.19512666724052
0.224539291901999
0.225562150383575
0.227197178557109
0.229821607762082
0.233933781545676
0.24019938443959
0.249656229877125
0.264199751243773
0.287786227881432
0.329962156740157
0.418849187988029
0.675725743213853
2.19484861131747
0.22315228249772
0.223480029442338
0.224172086784803
0.225518612190583
0.227886771600479
0.231715836988074
0.237606304080868
0.246533182797582
0.260285585804823
0.282592740167497
0.322523933297911
0.407212646982229
0.656721998809908
2.19192653717667
0.222226415298605
0.222057153248775
0.222076078087638
0.22252146039833
0.223683680214403
0.225876620075627
0.229477239407408
0.235036956051008
0.243470165475995
0.256444941018036
0.277431943479292
0.314935491934009
0.394813210261148
0.635117858295811
2.18619686990347
0.221624652854134
0.221105932507027
0.220646024212018
0.220452123718474
0.220769433289393
0.221840283220646
0.223921346719318
0.227351786054272
0.232650291893072
0.240671629436931
0.252954465252964
0.272683133485254
0.307690384672855
0.382174122602089
0.611364038907705
2.18722072079405
0.221249675562295
0.220493863057163
0.219698952299912
0.219053233022053
0.218775432729787
0.219066699244839
0.220117492026189
0.222156633172042
0.225510282502856
0.23067674741601
0.238460026182939
0.250279474076837
0.269031483742391
0.301802781255589
0.370795934469191
0.588090066412801
2.21610846298858
0.221034737856204
0.220128752847149
0.219107755595491
0.218148028680809
0.217452654187498
0.21719915475202
0.217541551275275
0.218651156591784
0.22075893386657
0.224198115231875
0.229468255281197
0.237357760873863
0.249226670682691
0.267781745041907
0.299507742012533
0.364760740811457
0.573060817111478
2.28699470794799
0.220938230746419
0.219948780067213
0.218785793662375
0.217616201272883
0.216632848651008
0.215999573699792
0.215850745171045
0.216328681482945
0.217619023563676
0.219980183313832
0.223783387329086
0.229582085060086
0.238247243790698
0.251277443991939
0.271619080661185
0.306155180761106
0.375812124682041
0.590191717972462
2.38167954678526
0.828464171606141
2.38166509639098
0.500306293872109
0.81132663310927
2.2870059666485
0.377547593298173
0.494620906102307
0.788895908472878
2.21610331497916
0.317456327496895
0.375102386423569
0.486012004473124
0.76959204447476
2.1872158979704
0.283630263921614
0.316174587753943
0.370968543350476
0.477136271572759
0.757122136914899
2.18619160365415
0.262931161396047
0.282781087737567
0.313803086188131
0.36600454702992
0.469564441199068
0.749225502988217
2.19192972031874
0.249565482480489
0.262203449602552
0.281148492918981
0.310611013843625
0.360915689820256
0.463027051502284
0.74188877171116
2.19485337270252
0.240627088135734
0.248834969754112
0.260857077935758
0.278805790006729
0.306923000298681
0.355834080119862
0.456454427839118
0.732898602386914
2.1951187384178
0.234523757831981
0.239854615968875
0.247578027518239
0.258916852210364
0.275924517988107
0.302924355929852
0.350521795137552
0.449091223064411
0.721892216618647
2.19480178969246
0.230318508301403
0.233701136167926
0.238612217042711
0.245827510742172
0.256504754474063
0.272678689705484
0.298644301514331
0.344747673862119
0.440681497668036
0.709058624442603
2.19479981465496
0.227422937093823
0.229445664003651
0.232448510614518
0.23695648355752
0.243699137276719
0.253779081461066
0.269182081907135
0.294068166143673
0.338421786094364
0.431214000236955
0.694463801281001
2.19513151782003
0.22544586404156
0.226501192612548
0.228175125172159
0.230845762702642
0.2350122996733
0.241341730274529
0.25087465803978
0.265512350426601
0.289222940657648
0.331576896335352
0.420738735642218
0.677956634654739
2.19485277722098
0.224115489590033
0.224477270430695
0.225210293875135
0.226605508900271
0.229030577233363
0.232925278977014
0.238891428346433
0.247907106770058
0.261767699888367
0.28421504328514
0.324344087510416
0.409334672647988
0.659211085748801
2.19192291506548
0.22323745438371
0.223103759082514
0.223166008634269
0.223663354287711
0.224886504398662
0.227149307118143
0.230829047714314
0.236478563169839
0.245015502968365
0.258114470546673
0.279259267724029
0.316981156798604
0.397186456616987
0.637876449405448
2.18619178273486
0.222670922084306
0.222189043088591
0.221774857176214
0.221636684506147
0.222020057121342
0.223166924749518
0.225333590602172
0.228859530656081
0.234264914081119
0.242407806872579
0.254833535244859
0.274739874102418
0.309986858460313
0.384819867607994
0.614384637396523
2.18722284463987
0.222314135839462
0.221595952886893
0.220848933184372
0.220262865907744
0.220056996579633
0.220431947814208
0.221577328036524
0.223721486999553
0.227190881876622
0.232485248116469
0.240411865640123
0.252396924844058
0.271350437337922
0.30438507246659
0.373739845676654
0.591321148216757
2.21609857667638
0.222095240673479
0.221227123759937
0.220255685374939
0.219359246539796
0.218741908069379
0.218580809956131
0.219028860029015
0.220256313198714
0.222493539076084
0.226073906430451
0.231498301710706
0.239558603662477
0.251622451587124
0.270410914799988
0.3024323681655
0.368058517482319
0.576383949416624
2.28699512467784
0.221966349160928
0.221015565723507
0.219902947517541
0.218799172127394
0.217899400957532
0.217367623940965
0.217337078305428
0.217948697414294
0.219386826015601
0.221908746112934
0.225885386736605
0.231871928889193
0.240744166694915
0.254010458736205
0.274633356394326
0.309518073921692
0.379602178764642
0.593477096984041
2.38167999921591
0.221900174747471
0.220917968023172
0.219728916123981
0.218496879938444
0.217410623630166
0.216626553414437
0.216267826772026
0.216461734896054
0.217373176175495
0.219229001333712
0.222350641441466
0.227212546055866
0.234548735935292
0.245577547988053
0.262542813981713
0.290152265198118
0.340147385102135
0.447915703677961
0.833902778167419
3.68516613460284
0.500504242266484
0.811559672123123
2.28698296712007
0.377811812650672
0.494925379614809
0.789245949687414
2.21610783658697
0.317778256213497
0.375460383025563
0.486427942983092
0.770070356115583
2.18721390899975
0.284008834855883
0.316584205504447
0.371426340069548
0.47767039264518
0.75775081909991
2.18619189888378
0.263367744043947
0.283245216198403
0.314307123856034
0.366568881484444
0.470223964999814
0.750005959321013
2.19193000242875
0.25006214502304
0.26272556865267
0.281705365080514
0.311216860885059
0.361594667820742
0.46382231796485
0.7428340789432
2.1948535198862
0.241186001643835
0.24941835290644
0.261472297451027
0.279463298673219
0.307639011439366
0.356637282119441
0.457396830395782
0.734021180115234
2.19512437369111
0.235146804652863
0.240501995730462
0.248255913778143
0.259633439422723
0.276691369504504
0.303760037363801
0.351459879789977
0.450192255119155
0.723201924431139
2.19479665210587
0.231006928159233
0.234414395246175
0.239355831357427
0.246608350279079
0.257331726749168
0.273564614552266
0.299610325799358
0.345832146137826
0.441953031789317
0.710566997235602
2.19479696219786
0.228176950673652
0.230225490819941
0.233259436053077
0.23780472010037
0.244592121356173
0.25472645211697
0.270198047751851
0.295176398861852
0.339665044305511
0.432668542250834
0.696181938963735
2.19512546559696
0.226264228580543
0.227346671874759
0.229053119683943
0.231762360936728
0.235974291093727
0.242357059135698
0.251953754416385
0.266670791730086
0.290486671067321
0.332992685840234
0.422390171145343
0.679897637257368
2.19485595507918
0.224995038095925
0.225385418426092
0.226152851313466
0.227588896763323
0.23006159857526
0.234011189655676
0.240040693151645
0.249130958466872
0.263082939373238
0.285649549538856
0.325948134965575