/*--------------------------------*- C++ -*----------------------------------*\
  =========                 |
  \\      /  F ield         | OpenFOAM: The Open Source CFD Toolbox
   \\    /   O peration     | Website:  https://openfoam.org
    \\  /    A nd           | Version:  12
     \\/     M anipulation  |
\*---------------------------------------------------------------------------*/
/*   Windows 32 and 64 bit porting by blueCAPE: http://www.bluecape.com.pt   *\
|  Based on Windows porting (2.0.x v4) by Symscape: http://www.symscape.com   |
\*---------------------------------------------------------------------------*/
FoamFile
{
    format      ascii;
    class       volScalarField;
    location    "300";
    object      p;
}
// * * * * * * * * * * * * * * * * * * * * * * * * * * * * * * * * * * * * * //

dimensions      [0 2 -2 0 0 0 0];

internalField   nonuniform List<scalar> 
10116
(
83333.3332282101
83333.3332279893
83333.3332288482
83333.3332282371
83333.3332278165
83333.3332286365
83333.3332280164
83333.3332299209
83333.3332288812
83333.3332282757
83333.3332276909
83333.3332284692
83333.333227844
83333.3332297156
83333.3332286687
83333.333228055
83333.3332309133
83333.3332299704
83333.3332289406
83333.3332283302
83333.3332276116
83333.3332283463
83333.3332277192
83333.3332295483
83333.3332285017
83333.3332278832
83333.3332307116
83333.3332297653
83333.3332287276
83333.33322811
83333.3332317845
83333.3332309704
83333.3332300366
83333.3332290107
83333.3332284047
83333.3332275785
83333.3332282669
83333.3332276402
83333.3332294199
83333.3332283785
83333.3332277588
83333.3332305433
83333.3332295992
83333.3332285613
83333.3332279387
83333.3332315806
83333.3332307694
83333.3332298321
83333.3332287984
83333.3332281852
83333.3332325052
83333.3332318366
83333.3332310369
83333.3332301005
83333.3332290855
83333.3332285018
83333.3332275911
83333.3332282295
83333.3332276071
83333.3332293304
83333.3332282992
83333.3332276803
83333.33323041
83333.3332294716
83333.3332284398
83333.3332278152
83333.3332314079
83333.3332306031
83333.3332296675
83333.3332286338
83333.3332280152
83333.3332322916
83333.3332316339
83333.333230837
83333.3332298975
83333.3332288759
83333.3332282842
83333.3332330829
83333.3332325491
83333.3332318864
83333.3332310856
83333.3332301591
83333.333229167
83333.3332286236
83333.3332276483
83333.3332282347
83333.3332276193
83333.3332292798
83333.3332282628
83333.3332276474
83333.3332303127
83333.3332293826
83333.3332283608
83333.3332277376
83333.3332312684
83333.3332304715
83333.3332295413
83333.3332285133
83333.3332278931
83333.3332321089
83333.3332314637
83333.3332306723
83333.3332297347
83333.3332287124
83333.333228116
83333.3332328509
83333.3332323361
83333.3332316847
83333.3332308876
83333.333229959
83333.33322896
83333.3332284086
83333.3332335326
83333.3332331144
83333.3332325774
83333.3332319134
83333.333231121
83333.3332302146
83333.3332292614
83333.3332287699
83333.3332277491
83333.3332282826
83333.3332276763
83333.3332292688
83333.3332282689
83333.3332276597
83333.3332302515
83333.3332293324
83333.3332283247
83333.3332277053
83333.3332311635
83333.3332303752
83333.333229453
83333.3332284348
83333.3332278167
83333.3332319597
83333.3332313267
83333.333230542
83333.3332296101
83333.3332285933
83333.3332279958
83333.3332326519
83333.3332321557
83333.3332315159
83333.3332307249
83333.3332297985
83333.3332287988
83333.3332282428
83333.3332332723
83333.3332328827
83333.3332323656
83333.3332317137
83333.3332309261
83333.3332300182
83333.3332290583
83333.3332285582
83333.3332338695
83333.3332335493
83333.3332331232
83333.3332325824
83333.3332319216
83333.3332311475
83333.333230273
83333.3332293727
83333.3332289391
83333.3332278921
83333.3332283726
83333.3332277769
83333.3332292982
83333.333228317
83333.3332277167
83333.3332302274
83333.3332293219
83333.333228331
83333.333227718
83333.3332310936
83333.3332303147
83333.3332294035
83333.3332283994
83333.3332277855
83333.3332318453
83333.3332312236
83333.3332304467
83333.3332295233
83333.3332285163
83333.3332279211
83333.3332324882
83333.3332320089
83333.3332313801
83333.3332305966
83333.3332296762
83333.3332286817
83333.3332281249
83333.3332330493
83333.333232685
83333.3332321867
83333.3332315472
83333.3332307661
83333.333229861
83333.3332289002
83333.3332283954
83333.3332335727
83333.3332332906
83333.3332328929
83333.333232373
83333.3332317253
83333.3332309569
83333.3332300815
83333.3332291744
83333.3332287315
83333.3332341088
83333.3332338737
83333.3332335429
83333.3332331072
83333.3332325639
83333.3332319156
83333.3332311703
83333.3332303379
83333.333229501
83333.3332291291
83333.3332280756
83333.333228503
83333.3332279197
83333.333229368
83333.3332284068
83333.3332278173
83333.333230241
83333.3332293512
83333.333228379
83333.3332277754
83333.3332310591
83333.333230291
83333.333229393
83333.3332284062
83333.3332277992
83333.3332317657
83333.333231155
83333.333230387
83333.3332294748
83333.3332284818
83333.3332278915
83333.3332323608
83333.3332318965
83333.3332312778
83333.333230503
83333.3332295914
83333.3332286068
83333.3332280524
83333.3332328654
83333.3332325229
83333.3332320412
83333.3332314136
83333.3332306406
83333.3332297417
83333.3332287859
83333.3332282804
83333.3332333179
83333.3332330689
83333.3332326972
83333.3332321967
83333.333231562
83333.3332308008
83333.3332299284
83333.3332290203
83333.3332285723
83333.3332337659
83333.3332335781
83333.3332332856
83333.3332328799
83333.3332323584
83333.3332317242
83333.3332309849
83333.3332301521
83333.3332293081
83333.3332289261
83333.3332342615
83333.3332341029
83333.3332338542
83333.3332335076
83333.3332330632
83333.3332325255
83333.3332319
83333.3332311916
83333.3332304096
83333.3332296447
83333.3332293369
83333.3332282977
83333.3332286724
83333.3332281031
83333.3332294765
83333.3332285371
83333.3332279601
83333.3332302924
83333.3332294204
83333.3332284686
83333.3332278763
83333.3332310608
83333.3332303045
83333.3332294219
83333.3332284545
83333.3332278574
83333.3332317215
83333.3332311214
83333.3332303637
83333.3332294651
83333.3332284898
83333.3332279066
83333.3332322698
83333.3332318182
83333.3332312098
83333.3332304448
83333.3332295448
83333.3332285741
83333.3332280247
83333.3332327211
83333.3332323971
83333.3332319296
83333.3332313134
83333.3332305495
83333.3332296598
83333.3332287136
83333.3332282104
83333.333233108
83333.3332328865
83333.333232537
83333.3332320538
83333.3332314315
83333.3332306787
83333.3332298128
83333.3332289093
83333.3332284606
83333.3332334718
83333.3332333248
83333.333233066
83333.3332326873
83333.3332321859
83333.3332315653
83333.3332308335
83333.333230004
83333.3332291585
83333.3332287711
83333.3332338639
83333.3332337618
83333.3332335612
83333.333233254
83333.3332328406
83333.3332323255
83333.3332317144
83333.3332310123
83333.3332302302
83333.3332294572
83333.3332291393
83333.3332343341
83333.3332342476
83333.3332340717
83333.3332338012
83333.3332334393
83333.3332329933
83333.3332324711
83333.3332318762
83333.3332312115
83333.3332304869
83333.3332298004
83333.3332295588
83333.3332285562
83333.333228879
83333.3332283251
83333.3332296224
83333.3332287063
83333.3332281435
83333.3332303814
83333.3332295283
83333.3332285985
83333.3332280195
83333.3332310993
83333.3332303557
83333.3332294907
83333.3332285443
83333.333227959
83333.3332317134
83333.3332311232
83333.3332303773
83333.3332294945
83333.3332285395
83333.3332279659
83333.3332322156
83333.333231775
83333.3332311769
83333.3332304226
83333.3332295369
83333.3332285837
83333.3332280416
83333.3332326163
83333.3332323078
83333.3332318532
83333.3332312474
83333.3332304936
83333.333229616
83333.3332286833
83333.3332281849
83333.3332329425
83333.3332327439
83333.3332324129
83333.3332319446
83333.3332313342
83333.333230591
83333.3332297346
83333.3332288399
83333.3332283935
83333.3332332296
83333.3332331162
83333.3332328855
83333.33323253
83333.3332320465
83333.3332314388
83333.3332307157
83333.3332298928
83333.3332290513
83333.3332286632
83333.3332335237
83333.3332334696
83333.3332333106
83333.3332330382
83333.3332326525
83333.3332321581
83333.3332315609
83333.3332308663
83333.3332300875
83333.3332293125
83333.3332289888
83333.3332338735
83333.3332338524
83333.3332337342
83333.3332335128
83333.3332331914
83333.333232777
83333.3332322778
83333.3332316973
83333.3332310387
83333.3332303138
83333.3332296178
83333.3332293668
83333.3332343285
83333.3332343135
83333.3332342055
83333.3332340021
83333.3332337098
83333.3332333392
83333.3332329012
83333.3332324024
83333.3332318441
83333.3332312289
83333.333230567
83333.3332299638
83333.3332297891
83333.3332288487
83333.333229121
83333.3332285834
83333.3332298044
83333.3332289127
83333.3332283655
83333.3332305074
83333.3332296735
83333.3332287674
83333.3332282033
83333.3332311744
83333.3332304444
83333.3332295982
83333.3332286743
83333.3332281029
83333.3332317422
83333.3332311613
83333.3332304284
83333.3332295635
83333.33322863
83333.3332280686
83333.3332321988
83333.3332317677
83333.3332311799
83333.3332304371
83333.3332295679
83333.3332286351
83333.3332281024
83333.3332325509
83333.3332322554
83333.3332318119
83333.3332312162
83333.3332304735
83333.3332296108
83333.3332286947
83333.3332282037
83333.3332328209
83333.3332326409
83333.3332323251
83333.3332318701
83333.3332312709
83333.3332305383
83333.3332296943
83333.3332288123
83333.3332283705
83333.3332330378
83333.3332329519
83333.3332327441
83333.3332324085
83333.3332319407
83333.3332313454
83333.3332306321
83333.3332298185
83333.3332289851
83333.3332285993
83333.3332332437
83333.3332332289
83333.3332331042
83333.3332328612
83333.3332324995
83333.3332320235
83333.3332314394
83333.3332307534
83333.333229981
83333.3332292095
83333.3332288851
83333.3332334805
83333.3332335143
83333.3332334453
83333.3332332667
83333.333232981
83333.333232595
83333.3332321166
83333.3332315498
83333.3332308985
83333.3332301768
83333.3332294789
83333.3332292213
83333.3332337976
83333.3332338561
83333.3332338148
83333.3332336703
83333.3332334283
83333.3332330989
83333.3332326926
83333.3332322165
83333.3332316722
83333.3332310626
83333.3332303994
83333.333229786
83333.3332296028
83333.3332342432
83333.3332343024
83333.3332342614
83333.3332341203
83333.3332338888
83333.333233581
83333.333233211
83333.3332327888
83333.3332323192
83333.3332318025
83333.3332312416
83333.3332306463
83333.3332301307
83333.3332300199
83333.3332291729
83333.3332293964
83333.3332288758
83333.333230021
83333.3332291545
83333.3332286239
83333.3332306691
83333.3332298551
83333.3332289736
83333.3332284257
83333.3332312858
83333.33323057
83333.3332297431
83333.3332288433
83333.3332282874
83333.3332318078
83333.3332312361
83333.3332305169
83333.3332296711
83333.3332287606
83333.3332282134
83333.3332322196
83333.3332317966
83333.333231219
83333.3332304889
83333.3332296379
83333.3332287271
83333.3332282064
83333.333232525
83333.3332322395
83333.3332318063
83333.3332312204
83333.3332304899
83333.3332296441
83333.3332287478
83333.3332282663
83333.3332327422
83333.3332325772
83333.333232274
83333.3332318305
83333.3332312422
83333.3332305213
83333.333229692
83333.333228826
83333.3332283913
83333.3332328953
83333.3332328314
83333.333232642
83333.3332323232
83333.3332318693
83333.3332312859
83333.3332305835
83333.3332297818
83333.3332289604
83333.3332285789
83333.3332330214
83333.3332330384
83333.3332329415
83333.3332327232
83333.3332323819
83333.3332319223
83333.3332313507
83333.3332306744
83333.3332299108
83333.333229147
83333.3332288246
83333.3332331577
83333.333233236
83333.3332332076
83333.3332330646
83333.3332328093
83333.3332324477
83333.3332319878
83333.3332314339
83333.3332307909
83333.3332300752
83333.3332293806
83333.333229122
83333.3332333459
83333.3332334656
83333.3332334808
83333.333233387
83333.3332331889
83333.3332328958
83333.3332325178
83333.3332320623
83333.3332315312
83333.3332309284
83333.3332302683
83333.3332296526
83333.3332294626
83333.3332336353
83333.3332337752
83333.3332338094
83333.3332337367
83333.3332335654
83333.3332333086
83333.3332329798
83333.3332325889
83333.3332321413
83333.3332316377
83333.3332310813
83333.3332304835
83333.3332299572
83333.3332298389
83333.3332340733
83333.3332342122
83333.3332342409
83333.3332341615
83333.3332339862
83333.3332337327
83333.3332334187
83333.3332330574
83333.3332326571
83333.3332322211
83333.3332317499
83333.333231247
83333.3332307215
83333.333230294
83333.3332302398
83333.333229526
83333.3332297031
83333.3332291996
83333.3332302703
83333.3332294298
83333.3332289164
83333.333230865
83333.3332300713
83333.3332292152
83333.3332286846
83333.3332314329
83333.3332307315
83333.3332299242
83333.3332290497
83333.3332285106
83333.3332319101
83333.3332313472
83333.3332306423
83333.3332298161
83333.3332289303
83333.3332283989
83333.3332322783
83333.3332318622
83333.3332312943
83333.333230578
83333.333229746
83333.333228859
83333.3332283524
83333.3332325389
83333.3332322612
83333.3332318365
83333.3332312606
83333.3332305432
83333.3332297156
83333.3332288419
83333.3332283718
83333.3332327058
83333.3332325529
83333.33323226
83333.3332318263
83333.3332312486
83333.3332305405
83333.3332297279
83333.333228881
83333.3332284556
83333.333232801
83333.3332327542
83333.3332325795
83333.3332322742
83333.3332318326
83333.3332312606
83333.3332305703
83333.3332297829
83333.3332289769
83333.3332286018
83333.3332328552
83333.3332328971
83333.3332328222
83333.3332326242
83333.3332323003
83333.3332318551
83333.3332312956
83333.3332306302
83333.333229878
83333.3332291253
83333.333228807
83333.3332329014
83333.3332330154
83333.3332330197
83333.333232906
83333.3332326761
83333.3332323356
83333.3332318921
83333.3332313505
83333.3332307168
83333.3332300093
83333.3332293218
83333.3332290652
83333.3332329758
83333.3332331447
83333.3332332061
83333.3332331543
83333.333232993
83333.3332327308
83333.3332323774
83333.3332319401
83333.3332314214
83333.3332308262
83333.3332301717
83333.3332295591
83333.3332293681
83333.3332331198
83333.3332333263
83333.3332334236
83333.3332334093
83333.3332332901
83333.3332330779
83333.3332327854
83333.3332324224
83333.3332319945
83333.3332315033
83333.3332309529
83333.3332303575
83333.3332298275
83333.3332297038
83333.3332333827
83333.3332336085
83333.3332337201
83333.333233718
83333.3332336127
83333.3332334204
83333.3332331573
83333.3332328364
83333.3332324663
83333.333232051
83333.3332315916
83333.3332310917
83333.3332305624
83333.3332301244
83333.3332300629
83333.3332338102
83333.3332340376
83333.3332341418
83333.333234127
83333.3332340075
83333.3332338044
83333.3332335385
83333.3332332267
83333.3332328804
83333.3332325063
83333.3332321071
83333.3332316843
83333.3332312426
83333.3332307886
83333.333230449
83333.3332304359
83333.3332299064
83333.3332300389
83333.333229552
83333.3332305507
83333.3332297363
83333.3332292402
83333.3332310932
83333.3332303204
83333.3332294902
83333.3332289776
83333.3332316142
83333.3332309273
83333.3332301402
83333.3332292915
83333.3332287703
83333.3332320484
83333.3332314941
83333.3332308034
83333.3332299975
83333.3332291374
83333.3332286232
83333.3332323747
83333.3332319643
83333.3332314059
83333.3332307039
83333.3332298919
83333.33322903
83333.3332285391
83333.3332325924
83333.3332323205
83333.333231903
83333.333231337
83333.3332306336
83333.3332298254
83333.3332289758
83333.3332285191
83333.333232712
83333.3332325677
83333.3332322831
83333.333231858
83333.3332312908
83333.3332305962
83333.333229802
83333.333228977
83333.3332285627
83333.3332327541
83333.3332327199
83333.3332325562
83333.333232262
83333.333231831
83333.3332312703
83333.333230593
83333.3332298219
83333.3332290342
83333.3332286679
83333.3332327432
83333.3332328039
83333.3332327462
83333.3332325642
83333.3332322548
83333.3332318225
83333.3332312748
83333.3332306213
83333.3332298827
83333.3332291445
83333.333228832
83333.3332327088
83333.3332328506
83333.3332328806
83333.3332327905
83333.3332325817
83333.333232259
83333.3332318302
83333.3332313006
83333.3332306774
83333.3332299804
83333.3332293033
83333.3332290502
83333.3332326822
83333.3332328902
83333.3332329888
83333.3332329711
83333.3332328403
83333.3332326041
83333.3332322718
83333.3332318506
83333.3332313437
83333.3332307572
83333.3332301102
83333.3332295041
83333.3332293149
83333.3332326987
83333.3332329584
83333.333233107
83333.3332331406
83333.3332330648
83333.3332328902
83333.3332326286
83333.3332322897
83333.3332318793
83333.3332313996
83333.333230856
83333.3332302658
83333.3332297389
83333.3332296141
83333.3332327996
83333.3332330963
83333.3332332768
83333.3332333401
83333.333233295
83333.3332331555
83333.333232937
83333.3332326518
83333.3332323085
83333.3332319118
83333.3332314635
83333.3332309684
83333.3332304399
83333.3332299977
83333.3332299317
83333.3332330331
83333.3332333521
83333.3332335458
83333.3332336164
83333.3332335764
83333.3332334443
83333.3332332395
83333.3332329777
83333.3332326703
83333.3332323247
83333.3332319444
83333.3332315315
83333.333231091
83333.3332306317
83333.3332302827
83333.3332302604
83333.333233443
83333.3332337703
83333.333233959
83333.3332340147
83333.3332339541
83333.3332338012
83333.3332335802
83333.3332333112
83333.3332330085
83333.3332326819
83333.333232337
83333.3332319767
83333.3332316042
83333.3332312261
83333.3332308467
83333.3332305943
83333.3332305953
83333.3332303203
83333.3332304013
83333.3332299319
83333.3332308601
83333.3332300714
83333.3332295923
83333.3332313522
83333.3332306006
83333.3332297962
83333.3332293018
83333.333231828
83333.3332311558
83333.3332303891
83333.3332295667
83333.3332290642
83333.3332322217
83333.3332316754
83333.3332309991
83333.3332302137
83333.3332293801
83333.3332288841
83333.3332325084
83333.3332321024
83333.3332315532
83333.3332308656
83333.3332300742
83333.3332292385
83333.3332287646
83333.3332326853
83333.333232417
83333.3332320058
83333.3332314496
83333.3332307608
83333.3332299727
83333.3332291484
83333.333228707
83333.333232761
83333.3332326216
83333.3332323431
83333.3332319258
83333.3332313691
83333.3332306888
83333.333229914
83333.3332291131
83333.3332287114
83333.3332327538
83333.3332327279
83333.3332325722
83333.3332322865
83333.3332318652
83333.3332313155
83333.3332306519
83333.3332298989
83333.333229132
83333.3332287763
83333.333232684
83333.3332327579
83333.333232713
83333.3332325433
83333.3332322457
83333.3332318248
83333.3332312886
83333.3332306481
83333.3332299252
83333.3332292042
83333.3332288995
83333.3332325775
83333.3332327398
83333.3332327894
83333.3332327177
83333.3332325259
83333.3332322183
83333.3332318026
83333.3332312848
83333.333230673
83333.3332299887
83333.333229325
83333.3332290772
83333.3332324612
83333.3332326993
83333.3332328268
83333.3332328363
83333.3332327302
83333.3332325158
83333.3332322015
83333.3332317947
83333.3332312993
83333.3332307224
83333.3332300851
83333.3332294885
83333.3332293025
83333.3332323654
83333.3332326669
83333.3332328564
83333.3332329288
83333.3332328884
83333.3332327451
83333.3332325096
83333.3332321914
83333.3332317965
83333.3332313277
83333.3332307918
83333.3332302083
83333.3332296878
83333.3332295645
83333.3332323248
83333.3332326776
83333.3332329137
83333.3332330306
83333.3332330351
83333.3332329399
83333.333232759
83333.3332325042
83333.3332321841
83333.3332318037
83333.3332313656
83333.3332308762
83333.3332303522
83333.3332299129
83333.3332298467
83333.3332323796
83333.3332327725
83333.3332330399
83333.3332331823
83333.3332332099
83333.333233139
83333.3332329872
83333.3332327691
83333.3332324961
83333.3332321757
83333.3332318123
83333.3332314088
83333.3332309713
83333.3332305115
83333.3332301588
83333.3332301318
83333.3332325772
83333.3332329989
83333.3332332823
83333.3332334307
83333.3332334582
83333.3332333861
83333.3332332363
83333.3332330271
83333.3332327726
83333.3332324828
83333.333232164
83333.3332318204
83333.3332314556
83333.3332310766
83333.3332306905
83333.3332304282
83333.3332304188
83333.3332329583
83333.3332333994
83333.333233684
83333.3332338194
83333.3332338239
83333.3332337244
83333.3332335488
83333.3332333202
83333.3332330557
83333.3332327677
83333.3332324644
83333.3332321507
83333.3332318305
83333.3332315095
83333.3332311977
83333.3332308964
83333.3332307151
83333.3332307134
83333.3332307618
83333.3332307975
83333.3332303491
83333.3332311958
83333.3332304329
83333.3332299725
83333.33323164
83333.3332309097
83333.3332301307
83333.3332296544
83333.3332320727
83333.3332314151
83333.333230669
83333.3332298728
83333.3332293894
83333.3332324281
83333.3332318896
83333.3332312276
83333.333230463
83333.3332296561
83333.3332291791
83333.333232678
83333.3332322756
83333.333231735
83333.333231062
83333.3332302914
83333.3332294826
83333.3332290268
83333.333232817
83333.3332325506
83333.3332321447
83333.3332315979
83333.333230924
83333.3332301567
83333.3332293585
83333.3332289338
83333.3332328518
83333.3332327147
83333.3332324404
83333.3332320301
83333.3332314837
83333.3332308182
83333.3332300635
83333.3332292878
83333.3332289005
83333.3332327993
83333.3332327776
83333.3332326273
83333.3332323483
83333.3332319355
83333.3332313968
83333.3332307475
83333.3332300137
83333.3332292698
83333.3332289262
83333.3332326762
83333.3332327583
83333.3332327222
83333.3332325613
83333.3332322733
83333.3332318627
83333.3332313378
83333.3332307109
83333.3332300052
83333.3332293041
83333.3332290092
83333.3332325052
83333.3332326817
83333.3332327453
83333.3332326873
83333.3332325089
83333.3332322138
83333.3332318099
83333.3332313035
83333.3332307042
83333.3332300345
83333.3332293869
83333.3332291461
83333.3332323094
83333.3332325695
83333.3332327187
83333.333232749
83333.3332326625
83333.3332324657
83333.3332321667
83333.333231773
83333.3332312888
83333.3332307226
83333.3332300968
83333.3332295125
83333.3332293311
83333.3332321145
83333.3332324479
83333.333232669
83333.3332327719
83333.33323276
83333.3332326422
83333.3332324286
83333.3332321281
83333.3332317471
83333.333231289
83333.3332307615
83333.3332301867
83333.3332296748
83333.3332295543
83333.3332319501
83333.3332323467
83333.3332326268
83333.3332327865
83333.3332328313
83333.3332327726
83333.333232623
83333.333232394
83333.3332320937
83333.3332317278
83333.3332312994
83333.3332308162
83333.3332302982
83333.3332298652
83333.3332298007
83333.3332318497
83333.3332323005
83333.3332326268
83333.3332328275
83333.3332329106
83333.3332328905
83333.3332327831
83333.3332326021
83333.3332323583
83333.3332320597
83333.3332317111
83333.3332313162
83333.3332308828
83333.3332304267
83333.3332300764
83333.3332300508
83333.3332318522
83333.3332323494
83333.3332327099
83333.3332329355
83333.3332330375
83333.3332330345
83333.333232946
83333.3332327889
83333.3332325766
83333.3332323191
83333.3332320235
83333.3332316946
83333.3332313371
83333.333230959
83333.3332305713
83333.3332303059
83333.3332302913
83333.3332320031
83333.3332325399
83333.3332329228
83333.3332331566
83333.333233257
83333.3332332476
83333.3332331531
83333.3332329944
83333.3332327876
83333.3332325451
83333.3332322758
83333.3332319855
83333.3332316793
83333.3332313637
83333.3332310486
83333.3332307382
83333.3332305462
83333.333230535
83333.3332323406
83333.3332329114
83333.3332333062
83333.3332335328
83333.3332336114
83333.3332335719
83333.3332334453
83333.3332332581
83333.3332330305
83333.3332327773
83333.3332325087
83333.3332322318
83333.3332319511
83333.3332316719
83333.3332314032
83333.3332311575
83333.3332309183
83333.3332307759
83333.3332307966
83333.3332312249
83333.3332307933
83333.3332315642
83333.3332308307
83333.3332303928
83333.333231955
83333.3332312453
83333.3332304912
83333.3332300356
83333.3332323462
83333.3332317032
83333.3332309778
83333.3332302073
83333.3332297429
83333.333232666
83333.3332321347
83333.3332314871
83333.3332307434
83333.3332299632
83333.3332295057
83333.3332328819
83333.3332324823
83333.33323195
83333.3332312915
83333.3332305418
83333.3332297601
83333.3332293233
83333.3332329863
83333.3332327202
83333.3332323186
83333.3332317809
83333.333231122
83333.3332303756
83333.3332296044
83333.3332291973
83333.3332329839
83333.3332328465
83333.3332325749
83333.3332321704
83333.333231634
83333.3332309836
83333.3332302495
83333.3332294998
83333.3332291284
83333.33323289
83333.333232869
83333.3332327216
83333.3332324474
83333.3332320422
83333.3332315142
83333.3332308797
83333.3332301657
83333.3332294465
83333.3332291165
83333.3332327186
83333.3332328045
83333.3332327734
83333.3332326185
83333.3332323381
83333.3332319366
83333.3332314228
83333.33323081
83333.3332301229
83333.3332294436
83333.33322916
83333.33323249
83333.3332326748
83333.3332327475
83333.333232699
83333.3332325306
83333.3332322458
83333.3332318524
83333.3332313573
83333.3332307711
83333.3332301178
83333.3332294886
83333.3332292565
83333.3332322238
83333.3332324986
83333.3332326628
83333.3332327083
83333.3332326368
83333.3332324541
83333.3332321679
83333.3332317858
83333.3332313128
83333.3332307581
83333.3332301457
83333.3332295761
83333.3332294008
83333.3332319417
83333.3332322978
83333.3332325423
83333.3332326683
83333.3332326786
83333.3332325811
83333.3332323855
83333.3332321002
83333.3332317317
83333.333231284
83333.3332307659
83333.3332302014
83333.3332297004
83333.3332295841
83333.3332316686
83333.3332320981
83333.3332324118
83333.3332326049
83333.3332326817
83333.3332326525
83333.3332325288
83333.3332323213
83333.3332320381
83333.3332316851
83333.333231266
83333.3332307899
83333.3332302794
83333.3332298544
83333.3332297925
83333.3332314331
83333.3332319285
83333.333232301
83333.333232548
83333.3332326759
83333.3332326973
83333.3332326265
83333.3332324765
83333.3332322575
83333.3332319775
83333.3332316418
83333.3332312549
83333.3332308262
83333.3332303754
83333.3332300309
83333.3332300081
83333.3332312671
83333.3332318226
83333.3332322442
83333.3332325319
83333.3332326947
83333.3332327487
83333.3332327112
83333.3332325979
83333.3332324213
83333.3332321914
83333.3332319156
83333.3332315995
83333.3332312486
83333.3332308732
83333.333230488
83333.3332302255
83333.3332302135
83333.3332312074
83333.3332318193
83333.3332322814
83333.3332325965
83333.3332327774
83333.3332328445
83333.3332328194
83333.333232721
83333.3332325644
83333.3332323618
83333.3332321223
83333.3332318526
83333.3332315586
83333.333231248
83333.333230932
83333.3332306191
83333.3332304235
83333.3332304065
83333.3332312978
83333.3332319633
83333.333232458
83333.3332327874
83333.3332329686
83333.3332330275
83333.3332329916
83333.3332328843
83333.3332327243
83333.3332325256
83333.3332322992
83333.3332320529
83333.3332317926
83333.3332315247
83333.3332312589
83333.3332310073
83333.3332307567
83333.3332306027
83333.3332306194
83333.3332315729
83333.3332322908
83333.333232812
83333.3332331442
83333.3332333087
83333.3332333381
83333.3332332672
83333.3332331258
83333.333232937
83333.3332327183
83333.3332324825
83333.3332322382
83333.3332319911
83333.3332317457
83333.3332315087
83333.3332312905
83333.3332310922
83333.3332308752
83333.3332308083
83333.3332308263
83333.3332319646
83333.3332312611
83333.3332308399
83333.3332323016
83333.3332316149
83333.3332308912
83333.333230459
83333.3332326473
83333.3332320192
83333.3332313132
83333.3332305682
83333.3332301258
83333.333232933
83333.333232409
83333.3332317755
83333.3332310525
83333.3332302987
83333.3332298607
83333.3332331183
83333.3332327207
83333.3332321964
83333.3332315519
83333.3332308234
83333.3332300688
83333.3332296514
83333.3332331918
83333.3332329244
83333.3332325264
83333.3332319973
83333.3332313531
83333.3332306279
83333.3332298838
83333.3332294953
83333.3332331559
83333.3332330162
83333.3332327457
83333.333232346
83333.3332318192
83333.3332311839
83333.3332304707
83333.3332297476
83333.3332293932
83333.3332330247
83333.3332330014
83333.3332328547
83333.3332325837
83333.3332321851
83333.3332316675
83333.3332310479
83333.3332303541
83333.3332296607
83333.3332293454
83333.3332328101
83333.3332328956
83333.3332328664
83333.3332327149
83333.3332324401
83333.3332320468
83333.3332315439
83333.3332309455
83333.3332302777
83333.3332296218
83333.3332293509
83333.33323253
83333.333232718
83333.3332327952
83333.3332327527
83333.3332325913
83333.3332323148
83333.3332319309
83333.3332314467
83333.3332308742
83333.3332302384
83333.3332296298
83333.3332294078
83333.3332322014
83333.3332324844
83333.3332326581
83333.3332327137
83333.3332326528
83333.3332324809
83333.3332322054
83333.3332318339
83333.3332313717
83333.3332308293
83333.3332302319
83333.3332296792
83333.3332295115
83333.3332318427
83333.3332322137
83333.3332324741
83333.3332326166
83333.3332326433
83333.3332325617
83333.3332323805
83333.333232108
83333.3332317508
83333.3332313133
83333.3332308056
83333.3332302529
83333.3332297651
83333.3332296541
83333.3332314747
83333.3332319271
83333.3332322653
83333.3332324834
83333.3332325849
83333.3332325788
83333.3332324759
83333.3332322862
83333.3332320176
83333.3332316762
83333.3332312663
83333.3332307981
83333.3332302965
83333.3332298816
83333.333229823
83333.3332311214
83333.3332316495
83333.3332320569
83333.3332323397
83333.3332325028
83333.3332325574
83333.3332325165
83333.333232392
83333.3332321938
83333.3332319297
83333.3332316056
83333.3332312265
83333.3332308031
83333.3332303586
83333.3332300215
83333.3332300015
83333.3332308094
83333.3332314091
83333.3332318779
83333.3332322146
83333.3332324261
83333.3332325262
83333.3332325307
83333.3332324535
83333.3332323068
83333.3332321003
83333.3332318414
83333.3332315363
83333.3332311916
83333.3332308192
83333.3332304383
83333.3332301814
83333.3332301731
83333.3332305687
83333.3332312377
83333.3332317616
83333.3332321416
83333.3332323877
83333.3332325174
83333.3332325497
83333.3332325017
83333.3332323875
83333.3332322187
83333.3332320045
83333.3332317522
83333.3332314687
83333.3332311627
83333.3332308478
83333.3332305371
83333.3332303449
83333.3332303301
83333.3332304339
83333.3332311724
83333.3332317465
83333.3332321599
83333.3332324265
83333.3332325683
83333.3332326094
83333.3332325707
83333.333232469
83333.333232318
83333.3332321285
83333.3332319089
83333.3332316661
83333.3332314079
83333.333231145