/*--------------------------------*- C++ -*----------------------------------*\
  =========                 |
  \\      /  F ield         | OpenFOAM: The Open Source CFD Toolbox
   \\    /   O peration     | Website:  https://openfoam.org
    \\  /    A nd           | Version:  12
     \\/     M anipulation  |
\*---------------------------------------------------------------------------*/
/*   Windows 32 and 64 bit porting by blueCAPE: http://www.bluecape.com.pt   *\
|  Based on Windows porting (2.0.x v4) by Symscape: http://www.symscape.com   |
\*---------------------------------------------------------------------------*/
FoamFile
{
    format      ascii;
    class       surfaceScalarField;
    location    "300";
    object      phi;
}
// * * * * * * * * * * * * * * * * * * * * * * * * * * * * * * * * * * * * * //

dimensions      [0 3 -1 0 0 0 0];

internalField   nonuniform List<scalar> 
28915
(
-6.26391889896134e-07
9.22081720706544e-08
-1.02418610567291e-08
-7.08076923098654e-07
9.13800481761962e-08
-9.69179274779407e-09
-4.54719130799776e-07
1.63901814252649e-07
-1.38552321821726e-08
-7.22017938127251e-07
1.00599119782137e-07
-1.76184404081447e-08
-7.88749259084108e-07
9.02113501404346e-08
-9.53500916456486e-09
-5.12707896897169e-07
1.62307612689493e-07
-1.29391344855908e-08
-8.14685578148408e-07
9.96948362118298e-08
-1.67128921789984e-08
-4.75244657098801e-07
2.28316117077064e-07
-1.05245447491807e-08
-5.07714344676439e-07
1.83566867885631e-07
-3.22200772943917e-08
-8.03791030963135e-07
1.14453564624465e-07
-2.80803558205307e-08
-8.68282453907037e-07
8.89169432106496e-08
-9.37934875709916e-09
-5.70536090955961e-07
1.60276685121827e-07
-1.22339883815234e-08
-9.06189882055137e-07
9.81978895698411e-08
-1.62247876329772e-08
-5.29497517188433e-07
2.26292412369785e-07
-9.73095591027108e-09
-5.72404354835004e-07
1.8190666937866e-07
-3.04569331316889e-08
-9.06956694266662e-07
1.13403638359484e-07
-2.69446192225011e-08
-5.02203228087173e-07
2.8952025765602e-07
-9.21706183089017e-09
-5.37899302598983e-07
2.59389339145169e-07
-2.54324243711546e-08
-5.76135254618595e-07
2.11697242638519e-07
-5.61570376290355e-08
-8.98101279872251e-07
1.28058597730857e-07
-3.98371962799121e-08
-9.46623548388214e-07
8.74637303046749e-08
-9.11991145836021e-09
-6.27862320968276e-07
1.57896125827795e-07
-1.16514543631882e-08
-9.96499414654191e-07
9.67570943811243e-08
-1.58177565261654e-08
-5.83787526637661e-07
2.23673898584578e-07
-9.10651878965201e-09
-6.37130276482932e-07
1.79692169874147e-07
-2.89991823071131e-08
-1.00873599001406e-06
1.11652765133187e-07
-2.60895261651046e-08
-5.54699628536254e-07
2.87233382235737e-07
-8.44448355800781e-09
-5.99180326767551e-07
2.57234314213538e-07
-2.37767604605902e-08
-6.49481910917208e-07
2.09847500872123e-07
-5.35490143287578e-08
-1.0134318764056e-06
1.27000055074725e-07
-3.86088775520562e-08
-5.22395212009899e-07
3.47671512957086e-07
-7.79322180863298e-09
-5.65177832993278e-07
3.3004555516861e-07
-2.13720907023984e-08
-6.19772289262636e-07
3.01983522951857e-07
-4.55552631567507e-08
-6.40507048407702e-07
2.3706263239451e-07
-8.35377578900273e-08
-9.75248397037669e-07
1.37727937239168e-07
-5.09680672643493e-08
-1.02360144296714e-06
8.57750207069488e-08
-8.79623336473884e-09
-6.84429573862687e-07
1.55182214137102e-07
-1.11498165703895e-08
-1.08550420917117e-06
9.5253644587108e-08
-1.53654130627684e-08
-6.37818170284622e-07
2.20504588351556e-07
-8.57719099231107e-09
-7.01410772491596e-07
1.77126187161393e-07
-2.77390657855913e-08
-1.10918616281602e-06
1.09990696893621e-07
-2.53495814204738e-08
-6.07385099743468e-07
2.84155323127998e-07
-7.79566749556051e-09
-6.60602347412977e-07
2.54378279863951e-07
-2.23700521695234e-08
-7.22943194271408e-07
2.07317300338325e-07
-5.12020611942839e-08
-1.12702175433079e-06
1.24996263239622e-07
-3.74878624362958e-08
-5.73355866552774e-07
3.45254582320588e-07
-7.06039494923719e-09
-6.24208931245565e-07
3.27619243337173e-07
-1.97981166609337e-08
-6.90324863265122e-07
2.99617771618124e-07
-4.29943018471664e-08
-7.22141137714778e-07
2.35180454966533e-07
-8.00921597382118e-08
-1.10086448528955e-06
1.3673322292698e-07
-4.971644244041e-08
-5.3360940463382e-07
4.02755573463561e-07
-6.36311011573393e-09
-5.81504136882394e-07
3.95811319047715e-07
-1.74450492527328e-08
-6.50829303066942e-07
3.84784114241708e-07
-3.68011702081126e-08
-6.89400668484475e-07
3.38548302831869e-07
-6.88248516914071e-08
-6.81963371355721e-07
2.52651149353541e-07
-1.11092215255787e-07
-1.02577677644157e-06
1.431826298991e-07
-6.043303178866e-08
-1.09900366473846e-06
8.38800123747764e-08
-8.47424942481586e-09
-7.40044526450509e-07
1.52148281799351e-07
-1.07553604670758e-08
-1.17298519898119e-06
9.35837405578737e-08
-1.4889215628673e-08
-6.91342503425071e-07
2.16829221436693e-07
-8.12226433029471e-09
-7.64874890108102e-07
1.74199394692475e-07
-2.66284733600097e-08
-1.20819204302863e-06
1.08280013613888e-07
-2.46357911070727e-08
-6.59977080456952e-07
2.80336909599962e-07
-7.24014886018843e-09
-7.21790784174474e-07
2.50896126708077e-07
-2.11579005411367e-08
-7.95952648468303e-07
2.04399700393366e-07
-4.91323093400957e-08
-1.23907304614022e-06
1.23140562008542e-07
-3.64398987998604e-08
-6.24612501052348e-07
3.4184821958382e-07
-6.43601473124097e-09
-6.83478337238954e-07
3.24287333074097e-07
-1.84350368043081e-08
-7.61087197515312e-07
2.96413911565575e-07
-4.07045530194282e-08
-8.03907777279411e-07
2.32444999584227e-07
-7.68837061842181e-08
-1.22443779746581e-06
1.34567321617042e-07
-4.84773456926589e-08
-5.82984224743388e-07
4.00291143454733e-07
-5.66170391227999e-09
-6.38256174022753e-07
3.93264858764077e-07
-1.59539534961918e-08
-7.18788184747963e-07
3.82133904901246e-07
-3.43545983394825e-08
-7.68029561464154e-07
3.36164148138083e-07
-6.534668817214e-08
-7.69323671759137e-07
2.50901759130869e-07
-1.06894352932297e-07
-1.15859003893879e-06
1.42392947012157e-07
-5.92937061615435e-08
-5.38474139330021e-07
4.54871271776187e-07
-4.85119445748356e-09
-5.90859873583331e-07
4.56919639449124e-07
-1.34095189152769e-08
-6.64951536142338e-07
4.60123960819366e-07
-2.85885467190086e-08
-7.21077282217089e-07
4.30501303506052e-07
-5.3923165333194e-08
-7.28965675921924e-07
3.59066546812084e-07
-9.2074653759871e-08
-7.01183856838713e-07
2.59564259409928e-07
-1.36825568554681e-07
-1.05501272780385e-06
1.4614745656617e-07
-6.82046589153096e-08
-1.17271899353191e-06
8.19182956959397e-08
-8.20512873527434e-09
-7.94541854151816e-07
1.48832726461975e-07
-1.04532007332171e-08
-1.25874062314563e-06
9.17318522184333e-08
-1.44456527498812e-08
-7.44139901996845e-07
2.12697696236241e-07
-7.75194078865787e-09
-8.27276497913173e-07
1.70919314394855e-07
-2.56873916114821e-08
-1.3055189202359e-06
1.06384917752861e-07
-2.39439915231695e-08
-7.12226224233366e-07
2.75844217698159e-07
-6.76551665182135e-09
-7.82426419452367e-07
2.46826564216862e-07
-2.0113993011201e-08
-8.68051674895287e-07
2.01070522994668e-07
-4.73174767650483e-08
-1.34949907439083e-06
1.21258423665557e-07
-3.54539376352623e-08
-6.75889831805235e-07
3.37511813282804e-07
-5.89756938367905e-09
-7.42666645248216e-07
3.20098529869172e-07
-1.72544076725219e-08
-8.31612134393855e-07
2.92469380032255e-07
-3.87016373286052e-08
-8.8517432686376e-07
2.29274106483906e-07
-7.39969151819074e-08
-1.34626237488916e-06
1.32627402739137e-07
-4.72453333535596e-08
-6.32718921413151e-07
3.96640307654793e-07
-5.05733515762638e-09
-6.95343420566824e-07
3.89591075532965e-07
-1.46523241681502e-08
-7.87042768397338e-07
3.78409548047629e-07
-3.21764019278375e-08
-8.46889470530997e-07
3.32773826111898e-07
-6.21721582264523e-08
-8.56836638474473e-07
2.48143065093886e-07
-1.02943192983357e-07
-1.28920563850449e-06
1.40220386613472e-07
-5.80749795406856e-08
-5.86405677732386e-07
4.52401750391161e-07
-4.17894620665035e-09
-6.45617863609143e-07
4.54355621397063e-07
-1.19942201130817e-08
-7.29853901430813e-07
4.57360851730245e-07
-2.62781091668369e-08
-7.96537976089175e-07
4.27851736061431e-07
-5.05813608082646e-08
-8.12544897096679e-07
3.56876264403807e-07
-8.77410752553779e-08
-7.91758868912194e-07
2.58075922688243e-07
-1.31998371113313e-07
-1.1925669836197e-06
1.45562899596232e-07
-6.72931737736722e-08
-5.40739751938943e-07
5.0439672416995e-07
-3.30898008562678e-09
-5.96837184200161e-07
5.14133492231799e-07
-9.53032934895897e-09
-6.72930345159942e-07
5.29281069004434e-07
-2.09639444028193e-08
-7.32774942263507e-07
5.13056346888945e-07
-4.02222287965367e-08
-7.58372156176438e-07
4.54996886207713e-07
-7.07397897640537e-08
-7.43704735373663e-07
3.66441317153736e-07
-1.1335966037307e-07
-7.06925196029344e-07
2.61864712401471e-07
-1.60077054058533e-07
-1.07306818115956e-06
1.47821459593399e-07
-7.41739045556292e-08
-1.24462511150447e-06
7.98947966900066e-08
-7.98243802968661e-09
-8.47735654053952e-07
1.45297787290416e-07
-1.0185230658848e-08
-1.34260323262465e-06
8.97174229008202e-08
-1.40585178400278e-08
-7.96015720453127e-07
2.08164819287006e-07
-7.45674682731812e-09
-8.88413998958427e-07
1.67318531702764e-07
-2.4898922700931e-08
-1.40093897150792e-06
1.04283800518503e-07
-2.3304698883955e-08
-7.63904985453116e-07
2.70747232364121e-07
-6.37073313783763e-09
-8.422469754802e-07
2.42227178730833e-07
-1.92393190074148e-08
-9.38937433973172e-07
1.97330103100269e-07
-4.57448071374713e-08
-1.45806619513752e-06
1.19161752129329e-07
-3.45281743397562e-08
-7.26938947001425e-07
3.32328642554746e-07
-5.43513094234714e-09
-8.01480818729565e-07
3.15116058305205e-07
-1.62408233759405e-08
-9.01506550719539e-07
2.87821470239357e-07
-3.69708345977142e-08
-9.65418323480639e-07
2.25632574314248e-07
-7.14464846186396e-08
-1.46629796218842e-06
1.30652941390883e-07
-4.60620655878185e-08
-6.82544821285635e-07
3.91871585869939e-07
-4.53374115218499e-09
-7.52463068475058e-07
3.8484178065728e-07
-1.35208524459745e-08
-8.55218377372656e-07
3.73664378852392e-07
-3.02722105621736e-08
-9.25482908259408e-07
3.2851976828192e-07
-5.93545478749888e-08
-9.43796433387616e-07
2.44899574266895e-07
-9.93070710416528e-08
-1.41785827963203e-06
1.38182014948976e-07
-5.67731068374678e-08
-6.34721289664223e-07
4.48549699680039e-07
-3.59365338058438e-09
-7.00770307754667e-07
4.50438805525939e-07
-1.07524195280145e-08
-7.95145230595813e-07
4.53274013639907e-07
-2.42245351398696e-08
-8.72311646996688e-07
4.23942183126116e-07
-4.75700363652866e-08
-8.96356435441471e-07
3.53539012043392e-07
-8.37538555939665e-08
-8.82481496787195e-07
2.55446338197491e-07
-1.27445861691095e-07
-1.32786199583561e-06
1.43434401125923e-07
-6.62105120182846e-08
-5.87594580145481e-07
5.01948888669433e-07
-2.69211894750205e-09
-6.50081782738645e-07
5.11604558625362e-07
-8.18313353003935e-09
-7.35301688918631e-07
5.26513570600362e-07
-1.87756907546308e-08
-8.04448903800961e-07
5.10313754408853e-07
-3.70657734662166e-08
-8.38122949038723e-07
4.52588714380531e-07
-6.65414838369325e-08
-8.29680322167456e-07
3.64595190162212e-07
-1.08284774953086e-07
-7.99254812626058e-07
2.60698167899153e-07
-1.54799302618543e-07
-1.21416395227467e-06
1.473919475194e-07
-7.35868956307324e-08
-5.43070280297159e-07
5.51909742726108e-07
-1.83432308080091e-09
-6.01396371773737e-07
5.68406769162119e-07
-6.02810891219945e-09
-6.80211138239581e-07
5.93879521719834e-07
-1.42500517509824e-08
-7.40024438739078e-07
5.88447413401816e-07
-2.84727653337472e-08
-7.68054601986468e-07
5.40899585915217e-07
-5.14485910580483e-08
-7.70484937938094e-07
4.62721790299433e-07
-8.60030431265381e-08
-7.45712591284139e-07
3.67421202371929e-07
-1.32092847279845e-07
-7.06380745274089e-07
2.62065768564214e-07
-1.80621579905109e-07
-1.08780886967492e-06
1.48783560640011e-07
-7.78324653649467e-08
-1.31459999198044e-06
7.77668396137364e-08
-7.79121992263584e-09
-8.99476654552233e-07
1.41582738213932e-07
-9.94444483144795e-09
-1.42441917002123e-06
8.75571705430597e-08
-1.37215620729249e-08
-8.46788076200684e-07
2.03288295854153e-07
-7.21748222444662e-09
-9.48099305339438e-07
1.6344520889576e-07
-2.42287232463732e-08
-1.49424682678666e-06
1.01991171658783e-07
-2.27413687816716e-08
-8.14809459876919e-07
2.65116831128892e-07
-6.04776275790443e-09
-9.01027691806847e-07
2.37160255669666e-07
-1.85173691942432e-08
-1.00837174972617e-06
1.93211339753286e-07
-4.43925925645072e-08
-1.56451019243787e-06
1.16828325024051e-07
-3.36862909673024e-08
-7.77531570148824e-07
3.26385734355361e-07
-5.04564750215411e-09
-8.59659476846791e-07
3.09425236139687e-07
-1.53896385867651e-08
-9.7045784894798e-07
2.82534547671563e-07
-3.54926827673541e-08
-1.04430031572206e-06
2.21509515405123e-07
-6.92075187862073e-08
-1.58430467384017e-06
1.28434242511574e-07
-4.49571128740183e-08
-7.32217049912039e-07
3.86083590390759e-07
-4.0828064271316e-09
-8.09331831111684e-07
3.79101408805382e-07
-1.25514607729868e-08
-9.22965316842637e-07
3.67959008571419e-07
-2.86319158467763e-08
-1.0033614481957e-06
3.23439921247019e-07
-5.68988597990472e-08
-1.02963671393287e-06
2.41127169833805e-07
-9.60816454477749e-08
-1.54461038615471e-06
1.36182749836352e-07
-5.54893125926715e-08
-6.83159567188153e-07
4.43395173791293e-07
-3.08534735435941e-09
-7.56022245303018e-07
4.45232316630033e-07
-9.67230606188863e-09
-8.6047951839753e-07
4.47907520802849e-07
-2.24300639589258e-08
-9.47987299016273e-07
4.18841220575878e-07
-4.49176987559299e-08
-9.79863924631624e-07
3.49231431478242e-07
-8.01788469805024e-08
-9.72637765413126e-07
2.52253659477604e-07
-1.23220613766525e-07
-1.46104625031804e-06
1.41368492799554e-07
-6.49531110535079e-08
-6.34824773133975e-07
4.97905374509776e-07
-2.12543479252787e-09
-7.03740022308136e-07
5.07498599067684e-07
-6.99475341850162e-09
-7.9812096076101e-07
5.22172749817885e-07
-1.68318912340091e-08
-8.76531522193617e-07
5.06041011394548e-07
-3.42405398504693e-08
-9.18178276260655e-07
4.48768206092314e-07
-6.27435109809717e-08
-9.15869396015142e-07
3.61485460990763e-07
-1.0360353120526e-07
-8.91710719702675e-07
2.58276892760557e-07
-1.49828858718579e-07
-1.35296352397417e-06
1.45382481536768e-07
-7.2784656398725e-08
-5.89332852395532e-07
5.49456652744788e-07
-1.24527673161404e-09
-6.53637910706221e-07
5.65906338748831e-07
-4.75200666260225e-09
-7.40875089298096e-07
5.91158040946806e-07
-1.21633170115679e-08
-8.08725388372408e-07
5.85716255597077e-07
-2.54771565157493e-08
-8.43492102889023e-07
5.38427449927173e-07
-4.74661979171063e-08
-8.52115154308599e-07
4.60721784011288e-07
-8.10372187266109e-08
-8.32868834527738e-07
3.66003624975253e-07
-1.2643412945031e-07
-7.99907845046275e-07
2.61258237080452e-07
-1.75134336990113e-07
-1.23224437165635e-06
1.48534202170279e-07
-7.768723300453e-08
-5.46674206586495e-07
5.98156685375178e-07
-6.19972778094885e-10
-6.05890949589325e-07
6.20718462933531e-07
-3.04756367295326e-09
-6.87408098163865e-07
6.55301481159722e-07
-8.56906642355526e-09
-7.48994244633139e-07
6.58980034800803e-07
-1.87748078711911e-08
-7.75444700943079e-07
6.1943377670673e-07
-3.56202254072986e-08
-7.79106775330278e-07
5.49151842081331e-07
-6.16019479756455e-08
-7.70982448009565e-07
4.62577213218191e-07
-9.92211709457122e-08
-7.42640996036963e-07
3.6581326445604e-07
-1.48121912862377e-07
-7.02964039576049e-07
2.60971434684172e-07
-1.98016050596305e-07
-1.10362914303985e-06
1.49288372807885e-07
-7.83645147698186e-08
-1.3825231151054e-06
7.55385316696879e-08
-7.61751161469936e-09
-9.49663309538378e-07
1.37696369022782e-07
-9.74206033118134e-09
-1.50404756646557e-06
8.52787899891136e-08
-1.34300036164899e-08
-8.9630357581151e-07
1.98123819799254e-07
-7.02576855246447e-09
-1.00616815099552e-06
1.59338200266482e-07
-2.36549303508438e-08
-1.58526049245626e-06
9.95343925033557e-08
-2.22425159921325e-08
-8.64756849113637e-07
2.59023477011718e-07
-5.78772247124933e-09
-9.58565181909602e-07
2.31688458705648e-07
-1.79220194208322e-08
-1.07614345517223e-06
1.88765004702922e-07
-4.32291852869894e-08
-1.66859650579735e-06
1.14279612582988e-07
-3.29287146941039e-08
-8.27463788194248e-07
3.19768650280714e-07
-4.71944283207021e-09
-9.16972415359033e-07
3.03113708873253e-07
-1.4687460263735e-08
-1.03820176208825e-06
2.7668202105741e-07
-3.42426514576884e-08
-1.12155093403368e-06
2.16940818887976e-07
-6.72529856599202e-08
-1.70000335661557e-06
1.25951162637179e-07
-4.39386990966341e-08
-7.81512043368141e-07
3.79378829502829e-07
-3.69817677018391e-09
-8.65691020457908e-07
3.72476788784634e-07
-1.17375114054271e-08
-9.89976798482548e-07
3.61392660930331e-07
-2.72358794628767e-08
-1.08017426331458e-06
3.17606487974043e-07
-5.47763252941757e-08
-1.11399193172176e-06
2.36810083707816e-07
-9.32257883927227e-08
-1.66920697228435e-06
1.33917633728388e-07
-5.42706663359606e-08
-7.31480374988335e-07
4.37053840378423e-07
-2.64946106016876e-09
-8.11098789008256e-07
4.38836016382918e-07
-8.74063105154001e-09
-9.25527164714043e-07
4.41341049234371e-07
-2.08853389586772e-08
-1.02317176395065e-06
4.12614939441492e-07
-4.26213971550098e-08
-1.06258452442198e-06
3.439950345566e-07
-7.70450318495124e-08
-1.06158531121764e-06
2.48492706157821e-07
-1.19439758412288e-07
-1.59224440040201e-06
1.39385843144435e-07
-6.366966408616e-08
-6.82173033784569e-07
4.9237563005077e-07
-1.63222820137088e-09
-7.5752817810921e-07
5.01894210805429e-07
-5.95891772373234e-09
-8.61056801280441e-07
5.16306193360127e-07
-1.51343835116391e-08
-9.48645116593401e-07
5.00288235586575e-07
-3.17631401794857e-08
-9.98102579938048e-07
4.43621441084039e-07
-5.93829725342387e-08
-1.0017173316713e-06
3.57312866562763e-07
-9.93882458542371e-08
-9.83581187462901e-07
2.55216034218586e-07
-1.45193229023845e-07
-1.48959157670513e-06
1.43384674251e-07
-7.16944676190391e-08
-6.35920421066962e-07
5.45218661841386e-07
-7.25689674564178e-10
-7.06272258420259e-07
5.61621763561664e-07
-3.61446798554943e-09
-8.02003867980047e-07
5.86616176766874e-07
-1.03092426926644e-08
-8.77896251988207e-07
5.81186733455816e-07
-2.28060946790368e-08
-9.19329773908e-07
5.34262301991453e-07
-4.3896934453018e-08
-9.34020211857399e-07
4.5718997377384e-07
-7.65416284544491e-08
-9.20200784415991e-07
3.63214994654078e-07
-1.21209423617545e-07
-8.9351332037077e-07
2.59101023926475e-07
-1.69938142544244e-07
-1.37435440861836e-06
1.46634349943322e-07
-7.73012055129976e-08
-5.92800123352171e-07
5.95642247569156e-07
-5.97381349215793e-11
-6.5761198284668e-07
6.18215906540669e-07
-1.83390659967952e-09
-7.47049321691363e-07
6.52623402494264e-07
-6.57599260832222e-09
-8.15840552247663e-07
6.56306917750516e-07
-1.59074192317449e-08
-8.47659953595441e-07
6.16991270863035e-07
-3.18254467681626e-08
-8.56119683306163e-07
5.47128234069969e-07
-5.68594376800072e-08
-8.53484843659992e-07
4.61083171757362e-07
-9.36145045036521e-08
-8.30632174095524e-07
3.64884482260428e-07
-1.42068163863218e-07
-7.97546757659708e-07
2.60562186909181e-07
-1.92578741285339e-07
-1.25176307471765e-06
1.49224748752344e-07
-7.87703003418741e-08
-5.51850309416237e-07
6.43836927440868e-07
3.01916149435263e-10
-6.11180684084358e-07
6.71896205272495e-07
-6.71407745858998e-10
-6.946383634379e-07
7.14677491753675e-07
-3.9516712263279e-09
-7.58822459966079e-07
7.26278267318882e-07
-1.08755430469957e-08
-7.86229435829829e-07
6.93080322874909e-07
-2.29742581708655e-08
-7.87039301917086e-07
6.28402320443867e-07
-4.20065823933732e-08
-7.79435876410904e-07
5.48218177520669e-07
-7.02050791846695e-08
-7.67412988739105e-07
4.59390395381813e-07
-1.10128204402783e-07
-7.37047320677453e-07
3.62585813271023e-07
-1.6114934766692e-07
-6.98053321914351e-07
2.58708366959165e-07
-2.11496379263202e-07
-1.12247765876143e-06
1.49315702228054e-07
-7.46929688263752e-08
-1.44831673685224e-06
7.32450895843758e-08
-7.45122188711325e-09
-9.98208607842672e-07
1.33665053086622e-07
-9.57972689797655e-09
-1.58136727581505e-06
8.28769739000423e-08
-1.31712556912265e-08
-9.44443140322799e-07
1.92715710860658e-07
-6.87978360710257e-09
-1.06250518924745e-06
1.55044955707966e-07
-2.31691791211011e-08
-1.67382193557004e-06
9.69389321525923e-08
-2.18009011263964e-08
-9.13591794835447e-07
2.52541777872163e-07
-5.58308948591472e-09
-1.01469096538364e-06
2.25871755840495e-07
-1.74330234680472e-08
-1.14207633774331e-06
1.84036630159824e-07
-4.22204385032941e-08
-1.77011818588771e-06
1.11541031216346e-07
-3.22507646758297e-08
-8.76552672815104e-07
3.12567184816671e-07
-4.45491756546755e-09
-9.73214240686077e-07
2.96256185717845e-07
-1.41134915552574e-08
-1.10450634756341e-06
2.70340233266746e-07
-3.31914347366483e-08
-1.19693542909319e-06
2.11984244185972e-07
-6.55476510043186e-08
-1.81313573358416e-06
1.23225771992916e-07
-4.30154769138291e-08
-8.30225518606653e-07
3.71862486407565e-07
-3.38041618196674e-09
-9.21322757038588e-07
3.65058833150125e-07
-1.10330176657767e-08
-1.05598361772208e-06
3.54064096384733e-07
-2.60624264868905e-08
-1.15562569181532e-06
3.11105359714165e-07
-5.2955948742031e-08
-1.19657493734334e-06
2.31988254901172e-07
-9.07050683329467e-08
-1.79135846259702e-06
1.31357235723002e-07
-5.31371514713315e-08
-7.79463376150111e-07
4.29645036370702e-07
-2.28331042691831e-09
-8.65760311297398e-07
4.31367539690098e-07
-7.92761544846456e-09
-9.89995141260388e-07
4.33697119903984e-07
-1.95741936681608e-08
-1.09752548124373e-06
4.05379690604196e-07
-4.06556216820933e-08
-1.14414358287602e-06
3.37911362153837e-07
-7.43187432545328e-08
-1.14895461428202e-06
2.44136504435509e-07
-1.16072965536547e-07
-1.7212051828854e-06
1.37112907372704e-07
-6.24214622476696e-08
-7.2940431440993e-07
4.85494388453543e-07
-1.2092459296854e-09
-8.11179467566274e-07
4.949111304292e-07
-5.07334453891245e-09
-9.23794060507147e-07
5.09013826813875e-07
-1.36758489533147e-08
-1.02042585664476e-06
4.93141083988254e-07
-2.96298757788232e-08
-1.07748062989643e-06
4.37219927657079e-07
-5.64676063301513e-08
-1.08671739673535e-06
3.5212894373061e-07
-9.56813394335634e-08
-1.07417206667408e-06
2.51540374098768e-07
-1.41002851224127e-07
-1.62414796795745e-06
1.41392123639181e-07
-7.04998831730616e-08
-6.82589369199061e-07
5.39313574689818e-07
-2.68959811073813e-10
-7.59026084293733e-07
5.5563468297115e-07
-2.61894266684101e-09
-8.63274670674698e-07
5.80309953997564e-07
-8.69207863288594e-09
-9.47176567422484e-07
5.74906714455151e-07
-2.04726084896528e-08
-9.95171297829543e-07
5.28464374890752e-07
-4.07644071109001e-08
-1.01575374690499e-06
4.52225482594158e-07
-7.25612914853138e-08
-1.00714844283831e-06
3.59274186333469e-07
-1.16499272677887e-07
-9.8648757355857e-07
2.56229960055045e-07
-1.65063643241741e-07
-1.51424407848114e-06
1.44703954426708e-07
-7.65024845846253e-08
-6.39174198061415e-07
5.91150443757714e-07
4.42291613418464e-10
-7.09676122497253e-07
6.13711913212229e-07
-7.51547393185692e-10
-8.07131936990371e-07
6.47884881122832e-07
-4.80053356483781e-09
-8.83176245784353e-07
6.5156858821891e-07
-1.33550778560071e-08
-9.20338801452113e-07
6.12577888846536e-07
-2.84422767511677e-08
-9.33501631195136e-07
5.43288001564497e-07
-5.26128120298675e-08
-9.36216747588564e-07
4.57946948223562e-07
-8.85415568911256e-08
-9.18745751663458e-07
3.62475886846089e-07
-1.36468997303528e-07
-8.9216153200037e-07
2.58698452479552e-07
-1.87384488742286e-07
-1.39753049987529e-06
1.47418730037529e-07
-7.89372186164428e-08
-5.98215665699985e-07
6.41176422931534e-07
8.31129291019957e-10
-6.62832078866292e-07
6.69327224292837e-07
4.80494042336199e-10
-7.53802410205046e-07
7.12003544796144e-07
-2.04970367882084e-09
-8.24626722150297e-07
7.23659690582652e-07
-8.12457127209298e-09
-8.56527731911094e-07
6.90709601463203e-07
-1.93267799964923e-08
-8.60708413548001e-07
6.26434950593006e-07
-3.7462547827059e-08
-8.57162179584577e-07
5.46752769713991e-07
-6.48024656380229e-08
-8.50582846178693e-07
4.58473787482747e-07
-1.0403273188356e-07
-8.25837091262622e-07
3.62196339624945e-07
-1.54910537195897e-07
-7.93731147332481e-07
2.58716633038985e-07
-2.06384498563796e-07
-1.27491381463408e-06
1.49425377206428e-07
-7.57673849316928e-08
-5.58647073440469e-07
6.89554791234743e-07
9.32965816654679e-10
-6.17686903039079e-07
7.22653918248659e-07
1.10690647628575e-09
-7.02350136521847e-07
7.72927034719258e-07
-3.54917969886955e-10
-7.68635689554422e-07
7.91500016405481e-07
-4.57274353944715e-09
-7.9825964653311e-07
7.63476407517709e-07
-1.28526914590679e-08
-7.99192537860292e-07
7.02855475852474e-07
-2.65403823824759e-08
-7.88012083100175e-07
6.2691321279551e-07
-4.71484686521412e-08
-7.76204477824429e-07
5.43753048798655e-07
-7.68900207856796e-08
-7.6179728095329e-07
4.54300643692835e-07
-1.18390723983599e-07
-7.29465353999956e-07
3.57743355908124e-07
-1.70665558428635e-07
-6.92321471650988e-07
2.55159375924215e-07
-2.20104774695646e-07
-1.1450132480785e-06
1.48758688876858e-07
-6.55009996981989e-08
-1.51193806583406e-06
7.09089960443292e-08
-7.2856951996422e-09
-1.04505308195276e-06
1.29527663293957e-07
-9.43876044198042e-09
-1.65628661586082e-06
8.03974853673674e-08
-1.29268412011236e-08
-9.91124305977994e-07
1.87109402904489e-07
-6.76318838120135e-09
-1.11700292333256e-06
1.50541640822621e-07
-2.27480834585064e-08
-1.75980133762393e-06
9.42187316599008e-08
-2.14045847393491e-08
-9.61187836140054e-07
2.45736607941601e-07
-5.42463243816329e-09
-1.06925986978104e-06
2.19766702556836e-07
-1.70319730368093e-08
-1.20602744247047e-06
1.79064342857375e-07
-4.13413139290332e-08
-1.86889823119585e-06
1.08633842019321e-07
-3.16451404961699e-08
-9.24641121494247e-07
3.04874461336681e-07
-4.2442457781918e-09
-1.028209994641e-06
2.88931944967302e-07
-1.36473738672739e-08
-1.16917942816715e-06
2.63582488293465e-07
-3.23066131830026e-08
-1.27026116335141e-06
2.06693624275558e-07
-6.40481962919316e-08
-1.92348163036337e-06
1.20276917695775e-07
-4.21801509788314e-08
-8.78176659354636e-07
3.63641347058761e-07
-3.12306356538598e-09
-9.76016897000955e-07
3.56956013018921e-07
-1.04603560967264e-08
-1.12075116169437e-06
3.46081899551101e-07
-2.50867723696803e-08
-1.22945963659783e-06
3.04026609223273e-07
-5.13991849073081e-08
-1.27713810075767e-06
2.26723790402761e-07
-8.84797154947427e-08
-1.91079457342528e-06
1.28525802471855e-07
-5.20964425222734e-08
-8.2690911780733e-07
4.21290602273868e-07
-1.98240451129704e-09
-9.19775573127907e-07
4.22954470853322e-07
-7.260599355731e-09
-1.05360879684478e-06
4.25116839773285e-07
-1.84721988830481e-08
-1.17074931825426e-06
3.97256846840333e-07
-3.89899192363964e-08
-1.22422730911539e-06
3.31076071966858e-07
-7.1958636971161e-08
-1.2344509540502e-06
2.39226416239143e-07
-1.13073903969044e-07
-1.8476238550887e-06
1.34502500026565e-07
-6.1226787178818e-08
-7.76303651890855e-07
4.77399067985298e-07
-8.54634271171101e-10
-8.64449545915673e-07
4.86686818321469e-07
-4.33224581195803e-09
-9.86036701105777e-07
5.00451466296798e-07
-1.24393108692265e-08
-1.0915482503801e-06
4.84746537732351e-07
-2.78184208726893e-08
-1.1559540073559e-06
4.29694269126684e-07
-5.3965431387592e-08
-1.17048087185372e-06
3.46024683896922e-07
-9.24429177186502e-08
-1.16310645833601e-06
2.4722110754809e-07
-1.37248172438158e-07
-1.75639615540894e-06
1.3912160665074e-07
-6.92826415055327e-08
-7.29109659467547e-07
5.31890157937125e-07
1.24496779395988e-10
-8.11639029288833e-07
5.48079749195465e-07
-1.76472066122671e-09
-9.24381421213312e-07
5.72356689311762e-07
-7.30917148284375e-09
-1.01621986058753e-06
5.66982190504869e-07
-1.84738962247931e-08
-1.07063637030733e-06
5.21125506824076e-07
-3.80698881896333e-08
-1.0968910114806e-06
4.45906973656372e-07
-6.91074359556402e-08
-1.09318839988327e-06
3.54244930835338e-07
-1.12345332291968e-07
-1.07813241810377e-06
2.52670614378042e-07
-1.60628370407229e-07
-1.65198296327421e-06
1.42730114333652e-07
-7.54919873273091e-08
-6.85562253920489e-07
5.84815431671522e-07
8.86222036444488e-10
-7.61814687157955e-07
6.07305987552602e-07
1.98426979732689e-10
-8.67342713601572e-07
6.4115330942301e-07
-3.25142851493131e-09
-9.50651314848222e-07
6.44820765081746e-07
-1.11308643583946e-08
-9.9310511568493e-07
6.06248114427141e-07
-2.54895965430498e-08
-1.01084963707434e-06
5.37699678281168e-07
-4.88901496629084e-08
-1.01872779731415e-06
4.53279214934648e-07
-8.4055061687601e-08
-1.00641602635277e-06
3.58820799808023e-07
-1.31418254821512e-07
-9.86082109168144e-07
2.56041216297373e-07
-1.824739483177e-07
-1.54101884755056e-06
1.45560620732713e-07
-7.85578853739505e-08
-6.44725578744737e-07
6.36348228862704e-07
1.31207729628934e-09
-7.14739342267912e-07
6.64545290209212e-07
1.51610643494484e-09
-8.13347761666262e-07
7.07028501543903e-07
-3.49728170285353e-10
-8.90897590724736e-07
7.18712818897471e-07
-5.67411417035708e-09
-9.27312572574075e-07
6.86091094913867e-07
-1.60832937549011e-08
-9.34812363763356e-07
6.22368808444657e-07
-3.34185099440119e-08
-9.35211065782649e-07
5.43357704714879e-07
-5.99734269063406e-08
-9.33923853239322e-07
4.55798156088008e-07
-9.85231860309881e-08
-9.14686569292662e-07
3.60206821510332e-07
-1.49129398123557e-07
-8.89393259066021e-07
2.5715717684277e-07
-2.01456691501647e-07
-1.42495660856517e-06
1.47788007943871e-07
-7.6670575178369e-08
-6.05535135439466e-07
6.86634299505315e-07
1.43014084904003e-09
-6.69643291148824e-07
7.1992028085034e-07
2.19466007589997e-09
-7.61500202907107e-07
7.70180615140973e-07
1.45357240248713e-09
-8.33978091952846e-07
7.88891660006205e-07
-1.93918397909915e-09
-8.67506237332623e-07
7.6117232818562e-07
-9.34044314135189e-09
-8.70909854790591e-07
7.0097866418386e-07
-2.21530197825615e-08
-8.62324350337911e-07
6.2553945656868e-07
-4.19367753005861e-08
-8.54505460919315e-07
5.42924419768931e-07
-7.09512528425598e-08
-8.45670156404472e-07
4.54017289898502e-07
-1.11979736780807e-07
-8.19104426014065e-07
3.57917646353318e-07
-1.64472226496867e-07
-7.8922563130275e-07
2.55562805699724e-07
-2.15609162222602e-07
-1.30247786864805e-06
1.4900007883656e-07
-6.7284179035329e-08
-5.67219473913435e-07
7.35800544183816e-07
1.29989008405038e-09
-6.25679925134297e-07
7.73584985623986e-07
2.32602212697889e-09
-7.10981791748486e-07
8.30810407278345e-07
2.30644281515861e-09
-7.78635176242038e-07
8.55575975939446e-07
2.94719781384815e-10
-8.10056546259756e-07
8.31764270365594e-07
-4.84472175670282e-09
-8.12681785166875e-07
7.7407827224172e-07
-1.42439857456769e-08
-8.0108682833371e-07
7.00956418873143e-07
-2.90502587191609e-08
-7.85470680343313e-07
6.21398676447308e-07