/*--------------------------------*- C++ -*----------------------------------*\
  =========                 |
  \\      /  F ield         | OpenFOAM: The Open Source CFD Toolbox
   \\    /   O peration     | Website:  https://openfoam.org
    \\  /    A nd           | Version:  12
     \\/     M anipulation  |
\*---------------------------------------------------------------------------*/
/*   Windows 32 and 64 bit porting by blueCAPE: http://www.bluecape.com.pt   *\
|  Based on Windows porting (2.0.x v4) by Symscape: http://www.symscape.com   |
\*---------------------------------------------------------------------------*/
FoamFile
{
    format      ascii;
    class       volVectorField;
    location    "300";
    object      U;
}
// * * * * * * * * * * * * * * * * * * * * * * * * * * * * * * * * * * * * * //

dimensions      [0 1 -1 0 0 0 0];

internalField   nonuniform List<vector> 
10116
(
(-7.19320302454422e-06 0.0001444526475423 3.91765565823958e-05)
(-6.90419725699948e-06 0.000177409098611435 3.84890568299584e-05)
(-4.65567110030631e-06 0.000226613020037717 7.38366801117702e-05)
(-2.24268062076892e-05 0.000118997041678981 4.07222325943087e-05)
(-6.63812040324052e-06 0.000210532860043252 3.776598779352e-05)
(-4.42681852105547e-06 0.000259128271255469 7.27217070217189e-05)
(-2.15862706845771e-05 0.000149854547917387 3.9788103319825e-05)
(-3.25567691359119e-06 0.000255569346013233 0.000113309526053991)
(-1.52920836487809e-05 0.000214124368273304 7.46459263719011e-05)
(-3.78520214721113e-05 0.000115448399696691 4.22461051766766e-05)
(-6.42002234790827e-06 0.000243394465863606 3.70100220308937e-05)
(-4.22179809688806e-06 0.000291842339395044 7.15002220957899e-05)
(-2.08051558589753e-05 0.000181201468789131 3.87852564571874e-05)
(-3.0760047783712e-06 0.000286730159308096 0.000111889408237221)
(-1.46122671233907e-05 0.0002454249385525 7.3427924837092e-05)
(-3.65322470280355e-05 0.000145841951813805 4.11632476260103e-05)
(-2.37301856803742e-06 0.000271634436774122 0.000152690270219133)
(-1.07120742286036e-05 0.0002511354089376 0.000114499598940714)
(-2.68672795486676e-05 0.000211582986133234 7.60973598953186e-05)
(-5.4317687802559e-05 0.000113740259682247 4.41010454176145e-05)
(-6.22840366522649e-06 0.000275765157148163 3.61588257122951e-05)
(-4.04628963163777e-06 0.000324408060974849 7.01746405332842e-05)
(-2.01354006163582e-05 0.000212504323790543 3.79504575441017e-05)
(-2.91373265740284e-06 0.000318105243181558 0.000110242440809038)
(-1.39832701507646e-05 0.000277212634921822 7.21214048572077e-05)
(-3.53003787874924e-05 0.000176898698130512 4.01763103526615e-05)
(-2.21405302193979e-06 0.000301460212692329 0.00015104925868928)
(-1.01634735252834e-05 0.000281724236952583 0.00011299312357124)
(-2.5779468673036e-05 0.00024251015667166 7.48411905018369e-05)
(-5.25261043230747e-05 0.000144136562824573 4.2953250342876e-05)
(-1.7350470975902e-06 0.000283172367920912 0.000189660176983714)
(-7.86362464340708e-06 0.000269505368246081 0.000154149338566365)
(-1.91188485341348e-05 0.000250142237463529 0.000116233200295141)
(-3.91411086752242e-05 0.000210116599890656 7.75898332394509e-05)
(-7.21297497627771e-05 0.000110197894555584 4.55794100871735e-05)
(-6.0547884400233e-06 0.000307513021048575 3.51292103577077e-05)
(-3.89978612584178e-06 0.000356604056553548 6.8724903479743e-05)
(-1.95471551115871e-05 0.000243338763135206 3.70912623927994e-05)
(-2.77320644741114e-06 0.000349447391463123 0.000108386815935478)
(-1.34407353970091e-05 0.000309017552084643 7.0756326923421e-05)
(-3.42089919255414e-05 0.000208014970607664 3.93238036438714e-05)
(-2.07129587246852e-06 0.00033153791367469 0.00014905231738588)
(-9.65504832622454e-06 0.000312694743809815 0.000111277650513079)
(-2.47702295310955e-05 0.000274097979833399 7.35048370013099e-05)
(-5.08537684312162e-05 0.000175266815622115 4.18248592961186e-05)
(-1.58683381081096e-06 0.00031190976157448 0.000187897687578606)
(-7.37166196666758e-06 0.000298992917933691 0.000152431351277282)
(-1.82012617024818e-05 0.000280525401186646 0.000114718050548752)
(-3.76502624437154e-05 0.000240964228522447 7.63426073656786e-05)
(-6.98362860063154e-05 0.000140672091136951 4.43849919471296e-05)
(-1.26887683433797e-06 0.000292105777602872 0.000224171392406664)
(-5.80775925084275e-06 0.000281950423915007 0.000190906274889249)
(-1.41099227109791e-05 0.00026912903443448 0.000156037146280335)
(-2.82149409873161e-05 0.000249467487346874 0.000117761969815228)
(-5.2032609947108e-05 0.000208003886614973 7.86453366685056e-05)
(-9.08431747743322e-05 0.000104940513411987 4.61942834374276e-05)
(-5.90885801136043e-06 0.000338500743259766 3.39744099749945e-05)
(-3.77983865770501e-06 0.000388283969801961 6.71571768026606e-05)
(-1.90138653791477e-05 0.000273545710868978 3.61595435866674e-05)
(-2.6528624133599e-06 0.000380569790464992 0.000106327890101135)
(-1.29683151168359e-05 0.000340480090393158 6.92787661327203e-05)
(-3.32451978819073e-05 0.000238661860419331 3.84560696515773e-05)
(-1.94755220542972e-06 0.00036167059386846 0.000146724692723609)
(-9.21020883628084e-06 0.000343718417868783 0.00010937433568689)
(-2.38710796184672e-05 0.000305780351886818 7.21252187594968e-05)
(-4.93441515117118e-05 0.000206513114636411 4.09487237620807e-05)
(-1.45458778033515e-06 0.000340940438605289 0.000185656840281503)
(-6.92118168095057e-06 0.000328820358063431 0.000150373909247335)
(-1.73506998370346e-05 0.000311399475316024 0.000112990975191832)
(-3.62476983272014e-05 0.000272525874425924 7.49966873444788e-05)
(-6.77315898666084e-05 0.000171910096094576 4.31590769119053e-05)
(-1.12567825852557e-06 0.000320030381478083 0.00022235618427457)
(-5.34529452100025e-06 0.000310447239451301 0.00018906750248519)
(-1.32724589452487e-05 0.000298498878827456 0.000154328987869293)
(-2.6912675867825e-05 0.000279814643229217 0.00011629469111635)
(-5.01219577196495e-05 0.000238862027226628 7.74437799234443e-05)
(-8.80863185337935e-05 0.000135475137079506 4.51669925281064e-05)
(-9.04896240043019e-07 0.000299250837274724 0.000256346772915054)
(-4.25815377479075e-06 0.000291389032209724 0.000224880843927006)
(-1.04388931749086e-05 0.000281910179025563 0.000192649554066153)
(-2.09215063281189e-05 0.000268854717001233 0.000157459396178922)
(-3.76935738855414e-05 0.000248384820782936 0.000118633982249207)
(-6.51423093954197e-05 0.000205143723994026 7.90810822086053e-05)
(-0.000109807418122244 9.83643902269324e-05 4.62889264974039e-05)
(-5.782124947417e-06 0.000368616443728463 3.29358740001624e-05)
(-3.67910718642039e-06 0.000419337817953456 6.54898581120513e-05)
(-1.85475614372355e-05 0.000303002913139499 3.51807490400733e-05)
(-2.55188269081131e-06 0.000411324477910295 0.000104076260713672)
(-1.25711621875999e-05 0.000371424293224071 6.76867767807173e-05)
(-3.23823911779545e-05 0.000268662801143759 3.75087276963991e-05)
(-1.84111067091671e-06 0.000391689174593865 0.000144091652259939)
(-8.82522691956904e-06 0.000374538090827847 0.000107274149717978)
(-2.30684964166966e-05 0.000337120299569599 7.06360867870888e-05)
(-4.79908089721271e-05 0.000237277389773448 4.00895049594942e-05)
(-1.34036704868811e-06 0.000370088023738509 0.000182964652722006)
(-6.52663466008875e-06 0.000358752119473223 0.000147997223137716)
(-1.65953553008459e-05 0.000342377723160436 0.000111079771612743)
(-3.49716777177929e-05 0.000304222735763283 7.36223522867501e-05)
(-6.58029695080223e-05 0.000203290634673122 4.22834075601534e-05)
(-9.98495449695798e-07 0.00034827872197131 0.000219941220558399)
(-4.92663126768254e-06 0.000339292383425494 0.000186769192797724)
(-1.25056731561248e-05 0.000328271103909754 0.000152275537226253)
(-2.57067884008341e-05 0.000310699108025064 0.00011459599814635)
(-4.83280294289297e-05 0.000270454168736957 7.61259741588825e-05)
(-8.5575313708135e-05 0.00016681368305707 4.39614200628269e-05)
(-7.66121352041554e-07 0.000326625616502221 0.000254515440950103)
(-3.81241198746487e-06 0.000319122330503301 0.000222991415190789)
(-9.64566254192639e-06 0.000310334386516616 0.000190831932287527)
(-1.97134220995406e-05 0.000298226165529563 0.000155825736550004)
(-3.60035980030559e-05 0.000278787910852908 0.000117264440286107)
(-6.28386299243339e-05 0.000236064978581603 7.79766432508502e-05)
(-0.000106656720210175 0.000128931069476728 4.54231975252341e-05)
(-6.05804043229206e-07 0.000305138093168152 0.00028656763583876)
(-3.02995148606085e-06 0.000298924969350861 0.000256499829599424)
(-7.62629758051109e-06 0.000291599045034472 0.000226239024880443)
(-1.54973000824821e-05 0.000281908921564481 0.000193804955888528)
(-2.80045943188882e-05 0.000268224195876731 0.000158037896809898)
(-4.70847908643347e-05 0.000246773745268657 0.000118740132318509)
(-7.80307918239011e-05 0.000201566934203594 7.89918073555586e-05)
(-0.000128406428685507 9.05528345051042e-05 4.60049545816917e-05)
(-5.6657899419337e-06 0.000397784679699449 3.19856723356549e-05)
(-3.58689879091503e-06 0.000449661616925482 6.37544082960273e-05)
(-1.81369560678043e-05 0.000331599707830423 3.42135151967662e-05)
(-2.46673114459009e-06 0.000441587525411557 0.000101653850016889)
(-1.22302489727388e-05 0.000401736387179973 6.5997339450729e-05)
(-3.16084220709179e-05 0.000297909392065336 3.65129214778015e-05)
(-1.7510062533992e-06 0.000421446286080591 0.000141180752242469)
(-8.4981907939549e-06 0.000404992664483587 0.0001049843961532)
(-2.23723523255018e-05 0.000367942394174247 6.90250249646172e-05)
(-4.67815193487718e-05 0.000267379412214415 3.91279053320824e-05)
(-1.24266637399079e-06 0.000399191862215256 0.000179859599417473)
(-6.1868783971382e-06 0.000388581555863715 0.000145316089952249)
(-1.59341206215951e-05 0.000373154998066159 0.000108965099864403)
(-3.3836816322605e-05 0.000335584039868037 7.21367411990321e-05)
(-6.40619116383083e-05 0.000234179898049378 4.14392814547638e-05)
(-8.8880664675073e-07 0.000376683822083139 0.000216959838959328)
(-4.56111751966872e-06 0.000368288383577344 0.00018403046957102)
(-1.18283336746571e-05 0.000358179549743129 0.00014989798901204)
(-2.46258390549061e-05 0.000341715649940009 0.000112703779497718)
(-4.66936661951615e-05 0.000302222029227955 7.47818727576098e-05)
(-8.32524665645334e-05 0.000198309579673921 4.29923530483019e-05)
(-6.41968497405643e-07 0.000354339372295287 0.000251969470319618)
(-3.41187192577784e-06 0.000347219686102925 0.000220526360714654)
(-8.92696334036666e-06 0.000339145404224708 0.00018855087250121)
(-1.86121510209727e-05 0.00032802812958532 0.000153824387144013)
(-3.4443590960053e-05 0.000309746048411811 0.000115634130025192)
(-6.06984563174237e-05 0.00026774610699767 7.67274906375693e-05)
(-0.000103783328905594 0.000160353462583192 4.42696971771079e-05)
(-4.73103169899373e-07 0.000332200763683253 0.000284742933708072)
(-2.59770957646082e-06 0.000326129797340255 0.000254605427728343)
(-6.86144893591987e-06 0.000319281153629067 0.000224378330433009)
(-1.43453001551752e-05 0.000310353982584117 0.000192079115966146)
(-2.64192235678594e-05 0.000297673601626966 0.000156535547772143)
(-4.50357002659679e-05 0.000277294510241355 0.000117513041342367)
(-7.54111609521331e-05 0.00023259104803106 7.8013763345245e-05)
(-0.000124973088499456 0.000121119206695903 4.52316274533428e-05)
(-3.60815776162216e-07 0.000310207444422031 0.000315334520585136)
(-2.03365145387483e-06 0.000305187526452772 0.000286288776274845)
(-5.39847164551839e-06 0.000299378837319649 0.000257435752550046)
(-1.12951074483053e-05 0.000291842837091379 0.000227034884476682)
(-2.07158884615998e-05 0.000281586469184199 0.000194032876110435)
(-3.49111030660171e-05 0.000267117233227069 0.000157733774010213)
(-5.60165812490458e-05 0.000244547933071626 0.000118160696226552)
(-9.0292691936963e-05 0.000197196171168354 7.84520052658706e-05)
(-0.000146166879410319 8.12868049466062e-05 4.54318989077599e-05)
(-5.56067070890902e-06 0.000425936646280462 3.10279019704939e-05)
(-3.50308972398033e-06 0.000479160863790674 6.19658133131807e-05)
(-1.77755806467565e-05 0.000359247159982271 3.3238543255861e-05)
(-2.39260540133741e-06 0.000471250262172802 9.90858953148513e-05)
(-1.19257721036281e-05 0.000431319193459064 6.42340353646578e-05)
(-3.09181727627414e-05 0.000326287342140064 3.5513916336909e-05)
(-1.67502330980413e-06 0.000450813657767968 0.000138022917300114)
(-8.21857307043737e-06 0.00043495615551934 0.000102523775140921)
(-2.17675326524453e-05 0.000398118774569783 6.73103733913852e-05)
(-4.56959074310364e-05 0.000296712517358414 3.8090661333849e-05)
(-1.16011350255755e-06 0.000428107672370913 0.000176382170528946)
(-5.89766248601191e-06 0.000418154097159274 0.000142356042917282)
(-1.53640761214176e-05 0.000403563043183389 0.000106653832369862)
(-3.28374669952141e-05 0.000366421612661258 7.05163124827721e-05)
(-6.24984769040302e-05 0.000264394508277518 4.04931086152614e-05)
(-7.95492101826711e-07 0.000405089447876541 0.000213460963594276)
(-4.24763994066806e-06 0.000397251219480244 0.000180880236405107)
(-1.12417757528986e-05 0.000387988214108022 0.000147204561414472)
(-2.36771070296181e-05 0.000372530221272551 0.000110595016781785)
(-4.52389155689477e-05 0.000333643716445982 7.33162985553563e-05)
(-8.11420395774032e-05 0.000229303492805685 4.21528073373651e-05)
(-5.34744868983013e-07 0.000382228919242403 0.000248745911016008)
(-3.06325793688421e-06 0.000375499042257365 0.000217506412842946)
(-8.29570713693851e-06 0.000368127578915473 0.000185820209629563)
(-1.76360407464823e-05 0.000357982467854508 0.000151482429743219)
(-3.30433587706625e-05 0.000340851161836305 0.000113793878184961)
(-5.87387497665707e-05 0.000299617320813155 7.54311224349025e-05)
(-0.000101124826053241 0.00019194521621916 4.32469519356373e-05)
(-3.53177453988207e-07 0.000359598567451275 0.000282083472696178)
(-2.20947514183731e-06 0.000353703809827571 0.000252018463466945)
(-6.17308458626001e-06 0.000347353257840554 0.000221940792265781)
(-1.3306307273514e-05 0.000339201932326918 0.000189868184749972)
(-2.49802506280478e-05 0.000327561441041604 0.000154633668321994)
(-4.3152176442693e-05 0.000308379365111861 0.000115992205644063)
(-7.2979928211188e-05 0.000264386750895847 7.68609363351532e-05)
(-0.000121835996743485 0.000152586508092374 4.41999624593354e-05)
(-2.31257694477462e-07 0.000337164316153372 0.000313515944925154)
(-1.61572677766712e-06 0.000332080427161289 0.000284406303243886)
(-4.65433789921017e-06 0.000326536300105203 0.000255572550732486)
(-1.01799982283718e-05 0.000319549260312898 0.000225277111767914)
(-1.9194455737243e-05 0.000310113995955653 0.000192459976629418)
(-3.29717402620403e-05 0.000296699463266108 0.000156413498853939)
(-5.36659900743094e-05 0.000275226693153481 0.000117117391443772)
(-8.74448912603825e-05 0.000228337934484643 7.76214914502154e-05)
(-0.000142586422074794 0.000111792806054159 4.47576247029289e-05)
(-1.66596297657336e-07 0.000314852116542886 0.000343153487781573)
(-1.23293386467855e-06 0.000310633259851233 0.000314755078383947)
(-3.6124161404674e-06 0.000305911656444046 0.000286877050769192)
(-7.95794042248724e-06 0.000299880146357131 0.000257890296526431)
(-1.50301910331856e-05 0.000291802343396837 0.000226912542605022)
(-2.57259337090226e-05 0.000280816586198501 0.000193323123969542)
(-4.13091014938478e-05 0.000265434534158469 0.000156619752712499)
(-6.42157955351942e-05 0.000241600832130706 0.000116940388386612)
(-0.000101582022815992 0.000191852851573369 7.74438411059409e-05)
(-0.000162697703040961 7.02549663489378e-05 4.44952860445687e-05)
(-5.45668516361318e-06 0.00045299375795383 3.00538827524761e-05)
(-3.42827360251637e-06 0.000507756324769759 6.01252892692768e-05)
(-1.74439964034509e-05 0.000385870945405 3.22459012695977e-05)
(-2.32767177964957e-06 0.000500210620206006 9.63979956896915e-05)
(-1.16530422218967e-05 0.000460084364162217 6.24066664739051e-05)
(-3.02993188494599e-05 0.000353707591122013 3.44947283219671e-05)
(-1.61094810065205e-06 0.000479679333047769 0.000134651640467468)
(-7.97575207662285e-06 0.00046432108524704 9.99138764641341e-05)
(-2.12347515812945e-05 0.000427557575996213 6.55134521269955e-05)
(-4.47220785710271e-05 0.000325168883403694 3.70446162380003e-05)
(-1.09134645429964e-06 0.000456706529849625 0.000172573942251903)
(-5.65275291228971e-06 0.000447340337358872 0.000139148011382001)
(-1.48732451799695e-05 0.000433473287854177 0.000104163121443958)
(-3.19658974966858e-05 0.000396600051133209 6.87793213525063e-05)
(-6.10914739964094e-05 0.000293817050433882 3.94400961012198e-05)
(-7.17207860153336e-07 0.000433354277983597 0.000209496166534676)
(-3.98214019435773e-06 0.000426030812555463 0.000177359025371408)
(-1.07401549968396e-05 0.000417537244113575 0.00014422111604741)
(-2.28522205453912e-05 0.000402968683169526 0.000108276338213651)
(-4.39451081734301e-05 0.000364532242897714 7.17045963741634e-05)
(-7.92347483694719e-05 0.000259606025727994 4.12387520633531e-05)
(-4.44066725328446e-07 0.000410141682800971 0.000244903233122594)
(-2.76571725323015e-06 0.000403787571921783 0.000213970717308596)
(-7.75248874036392e-06 0.000397077984913896 0.000182662234865093)
(-1.67880100699547e-05 0.000387834061004283 0.000148805366508542)
(-3.18118462873598e-05 0.000371745659041708 0.000111718265313271)
(-5.69890485982875e-05 0.000331123147058498 7.40047137457415e-05)
(-9.86896000924639e-05 0.000223017521328353 4.24175975531909e-05)
(-2.49029858913635e-07 0.000387172078950453 0.000278638551788389)
(-1.87231816092893e-06 0.000381474446579413 0.00024876612106028)
(-5.57085152795512e-06 0.000375621170760867 0.000218937286319724)
(-1.23922394939947e-05 0.000368229755308716 0.000187187319714294)
(-2.37043032826483e-05 0.000357605494420131 0.000152366334363804)
(-4.1460495570314e-05 0.000339610452186908 0.000114236309737093)
(-7.07457820168792e-05 0.000296375398385357 7.56357941103944e-05)
(-0.000118915387585974 0.000184253031960375 4.32244979213822e-05)
(-1.15042530151253e-07 0.000364433113132341 0.000310747296226434)
(-1.23930940742155e-06 0.00035933349608277 0.000281720080913458)
(-3.98755973157325e-06 0.000354082464949492 0.000253020334308844)
(-9.18073974520501e-06 0.000347655254644319 0.000222922490856774)
(-1.78276845554021e-05 0.000339045888067451 0.000190369411702671)
(-3.12173106690292e-05 0.000326717642711455 0.000154655865608898)
(-5.15079334608692e-05 0.000306467453092382 0.000115740443317563)
(-8.47981618917541e-05 0.000260256085142574 7.65867195578038e-05)
(-0.000139307385887796 0.000143263586185066 4.38357220542383e-05)
(-4.08202048728967e-08 0.000341880941485696 0.000341322504553425)
(-8.26366960937036e-07 0.000337407800501865 0.000312882957500179)
(-2.88551283975765e-06 0.000332748519238054 0.000285028743814568)
(-6.86967432791955e-06 0.00032705349804683 0.000256136286397704)
(-1.35515435443648e-05 0.00031958423527446 0.000225321918253666)
(-2.38522304064289e-05 0.000309473718020236 0.000191957798473813)
(-3.90609110090682e-05 0.000295185569697422 0.000155526195091075)
(-6.16349062993626e-05 0.000272458588571809 0.000116114043466382)
(-9.86090609379452e-05 0.000223100798776664 7.67797186931222e-05)
(-0.000159118006906821 0.000100621093828497 4.39508647125411e-05)
(-2.11881302967584e-08 0.000319448930537725 0.000370473966799384)
(-6.1122716816377e-07 0.000315654215464196 0.000342358548741392)
(-2.19357568326998e-06 0.000311655430912733 0.000315085607731321)
(-5.29161745353763e-06 0.000306697717223424 0.000287053309814549)
(-1.05150906649021e-05 0.000300129178764068 0.000257468293394204)
(-1.85470256707244e-05 0.00029133691461778 0.000225839120790632)
(-3.02507487381192e-05 0.000279493582845585 0.00019172302975702)
(-4.6984137286199e-05 0.000263067074900019 0.000154707603188845)
(-7.14531628127749e-05 0.000237801517573464 0.000115028891327507)
(-0.000111594760552808 0.000185328116278929 7.58629319867867e-05)
(-0.000177563157158511 5.71783923021249e-05 4.29053086157508e-05)
(-5.35804303839026e-06 0.000478902970073629 2.90708265767919e-05)
(-3.36090956594291e-06 0.000535391353818983 5.82393157778736e-05)
(-1.71354251713962e-05 0.000411395799352315 3.12373926949965e-05)
(-2.27131345049969e-06 0.000528383672019189 9.36093732948618e-05)
(-1.14087914700384e-05 0.000487948524370353 6.05258718081585e-05)
(-2.97351595474501e-05 0.000380088885763486 3.34603318424059e-05)
(-1.55749683842138e-06 0.000507943410451175 0.000131101745600087)
(-7.76467089508012e-06 0.000492987531347494 9.71791257817242e-05)
(-2.07599652782756e-05 0.000456172005807534 6.36443988267548e-05)
(-4.38419271311396e-05 0.000352651613897283 3.5980251343877e-05)
(-1.03430737075521e-06 0.000484876064995523 0.00016847867733436)
(-5.44592781755115e-06 0.000476029094940329 0.000135724561376003)
(-1.44492461739171e-05 0.000462780653134037 0.000101514579999555)
(-3.12018101111843e-05 0.000426021979560861 6.69488961978591e-05)
(-5.98238377154559e-05 0.000322351175896332 3.83483242918392e-05)
(-6.53068727386159e-07 0.000461351031627586 0.000205117178330694)
(-3.75998737007278e-06 0.000454497651901531 0.000173507237774957)
(-1.0313894013066e-05 0.000446696819580495 0.00014097897599682)
(-2.21410070924522e-05 0.000432898441073097 0.000105765786087831)
(-4.28038246837778e-05 0.000394748498503316 6.99603924285691e-05)
(-7.75148791331502e-05 0.000289098660806742 4.02156548102824e-05)
(-3.69031029793178e-07 0.000437938121750599 0.000240501643320716)
(-2.51662205673629e-06 0.000431940620761779 0.000209971093609074)
(-7.29160680395342e-06 0.000425843554333439 0.000179117575059856)
(-1.60599173286209e-05 0.000417418986751187 0.000145821103733035)
(-3.07362153591359e-05 0.000402252691192192 0.000109413956844992)
(-5.54243385736897e-05 0.000362075369422908 7.24205854945387e-05)
(-9.6474816868941e-05 0.000253380501368333 4.15411639870528e-05)
(-1.60962916202483e-07 0.000414771456915394 0.000274476546677107)
(-1.58612434027723e-06 0.000409277190389979 0.000244898577881069)
(-5.05536177884738e-06 0.000403899683022806 0.000215398811589372)
(-1.16043393767303e-05 0.000397222082705268 0.000184056837528491)
(-2.25946164356696e-05 0.000387538101646058 0.000149739333169433)
(-3.99711171852828e-05 0.000370614950418188 0.000112221273110002)
(-6.87398130173792e-05 0.000327975558510291 7.42647398301657e-05)
(-0.000116219241628156 0.00021537491452674 4.23713411868521e-05)
(-1.39805281643589e-08 0.000391860429974652 0.000307085826698797)
(-9.11514426152896e-07 0.00038678088784493 0.000278260652734944)
(-3.40585993124754e-06 0.000381834839630173 0.000249791195399303)
(-8.30596525217011e-06 0.000375961834087585 0.000219980823314385)
(-1.66254556596491e-05 0.00036815686620147 0.000187780833207211)
(-2.96631550212663e-05 0.000356884936759864 0.000152500690062685)
(-4.95682610141504e-05 0.000337844899765817 0.000114096801658325)
(-8.23546897625088e-05 0.000292362182000529 7.54567877936701e-05)
(-0.000136217155715823 0.000174963585008477 4.29213340501493e-05)
(7.21462313636148e-08 0.000369181366350932 0.000338426327948524)
(-4.60861492397215e-07 0.000364517195100488 0.000310094972177862)
(-2.23506026915368e-06 0.000359960385586873 0.000282381572269447)
(-5.89809849383981e-06 0.000354621560341127 0.000253675793551018)
(-1.22312516958708e-05 0.0003477638922348 0.000223102441520406)
(-2.21742549035899e-05 0.000338527773892746 0.000190035172461206)
(-3.70311997200244e-05 0.00032536275308173 0.000153951327676751)
(-5.92635539813182e-05 0.000303869704787815 0.000114909970135659)
(-9.58378267252441e-05 0.000255135682759893 7.5879875356645e-05)
(-0.000155831325673442 0.000132012440180533 4.3132465454543e-05)
(1.00623581472833e-07 0.00034670093081319 0.000368592664372964)
(-2.15915596340743e-07 0.000342480407297874 0.00034047686444227)
(-1.48373780652273e-06 0.000338357618177046 0.000313250660069359)
(-4.22572484912079e-06 0.000333533641225672 0.000285318947122351)
(-9.0678347620723e-06 0.00032736270939285 0.00025589102804095)
(-1.6717173521673e-05 0.000319236410676636 0.000224473489342626)
(-2.80611949708657e-05 0.000308314441437056 0.000190612618038602)
(-4.44854746777484e-05 0.000293011484978665 0.000153878902178592)
(-6.87221585433951e-05 0.000268846424511237 0.000114445859769682)
(-0.000108610480291997 0.00021664880293579 7.53812436819109e-05)
(-0.000174137382825199 8.72543909848685e-05 4.25183361719316e-05)
(7.79801272685075e-08 0.000324368887614462 0.000397668513125185)
(-1.53772210589637e-07 0.000320619469125235 0.000369500677527122)
(-1.09921188417906e-06 0.000316991088731947 0.00034249517772448)
(-3.1882717661929e-06 0.000312750647913824 0.000315042976922026)
(-6.92330599836765e-06 0.000307252223021387 0.000286388513302873)
(-1.28555706200005e-05 0.000299965881053008 0.000256091570773365)
(-2.1625827312506e-05 0.000290331635165995 0.000223820067875473)
(-3.41136239822432e-05 0.000277509828695527 0.000189216624223602)
(-5.17718458116901e-05 0.000259895439543329 0.000151923337769163)
(-7.75098856563976e-05 0.000233008725559182 0.000112308399981902)
(-0.000120024445093356 0.000177415576220122 7.35190727206778e-05)
(-0.000190167690886811 4.17301641100064e-05 4.03854638331401e-05)
(-5.25728962493563e-06 0.00050365309151955 2.80831210200582e-05)
(-3.29671595704477e-06 0.000562023657996345 5.6327382639706e-05)
(-1.68384776360962e-05 0.000435779732682944 3.02220130129591e-05)
(-2.22235417408759e-06 0.000555713845065567 9.07417433712975e-05)
(-1.11867896144431e-05 0.000514852182306667 5.86066309500376e-05)
(-2.92143201517923e-05 0.00040536217189688 3.24111967706762e-05)
(-1.5128507430815e-06 0.000535520657902495 0.000127402814322162)
(-7.58140195070964e-06 0.00052086975526574 9.43410565204345e-05)
(-2.03320271279212e-05 0.000483877873079242 6.1719292366436e-05)
(-4.3042343190803e-05 0.000379078768541081 3.49014469115565e-05)
(-9.8768745393533e-07 0.000512517960452953 0.000164144872533757)
(-5.27189578153247e-06 0.000504119796903246 0.000132118854473897)
(-1.40801815950097e-05 0.00049138578651844 9.87339414518165e-05)
(-3.05154133313347e-05 0.000454606569215242 6.50406147327346e-05)
(-5.86715838472871e-05 0.000349899862318332 3.72475624111855e-05)
(-6.01240729040159e-07 0.00048896742569293 0.000200377307162239)
(-3.57660521968152e-06 0.000482539193125884 0.000169367813192909)
(-9.95409467946488e-06 0.000475356015739828 0.00013751143560444)
(-2.15272118416936e-05 0.000462213173272107 0.000103086497438841)
(-4.18004597487873e-05 0.000424183880973704 6.81085103019899e-05)
(-7.59510297627508e-05 0.000317682382533378 3.91144729623469e-05)
(-3.08160363405559e-07 0.000465492716363695 0.000235603693501527)
(-2.31123158030347e-06 0.000459829972428897 0.000205557605181976)
(-6.90582306207968e-06 0.000454294939179361 0.000175230773019899)
(-1.54408169675681e-05 0.00044660635929159 0.000142563119667672)
(-2.98036287691692e-05 0.000432237533640245 0.000106902771036092)
(-5.40279622130913e-05 0.000392342838243173 7.06881366872886e-05)
(-9.44583286437863e-05 0.000282919498073895 4.05667456516968e-05)
(-8.80184400201156e-08 0.00044225940587416 0.000269667928806973)
(-1.34773430736841e-06 0.000436969194520815 0.000240473230418411)
(-4.62254866813497e-06 0.000432040454102509 0.000211378288160704)
(-1.09351945248677e-05 0.000426023136595077 0.00018052036122867)
(-2.16396426939835e-05 0.000417192755093141 0.000146782613818962)
(-3.86657402997111e-05 0.000401214279139675 0.000109954562883874)
(-6.69415759786779e-05 0.000358993138830399 7.27211442276646e-05)
(-0.000113743188013637 0.000245769183972482 4.15243488425562e-05)
(7.18460350041597e-08 0.000419298001893065 0.000302609059068096)
(-6.32815847431401e-07 0.000414262979091649 0.000274085036416953)
(-2.91007950682428e-06 0.000409618676965212 0.000245923576665416)
(-7.55645206985379e-06 0.000404274912695359 0.000216481353878528)
(-1.55895250737245e-05 0.000397223691476558 0.000184714771603143)
(-2.83120388951224e-05 0.00038692616465346 0.000149955647179389)
(-4.78574816827724e-05 0.00036897314653112 0.000112165084167069)
(-8.01500207454452e-05 0.000324055880127485 7.41534122892275e-05)
(-0.00013333698929194 0.000206088938905814 4.20729415933383e-05)
(1.70768461479896e-07 0.000396605155222901 0.000334532057309851)
(-1.41978009729699e-07 0.000391801193641769 0.000306426935353773)
(-1.66771085042186e-06 0.000387373689747963 0.000278950580564104)
(-5.0501575980833e-06 0.000382398653174243 0.000250518444728976)
(-1.10766860191557e-05 0.000376141165535415 0.000220266599236566)
(-2.07014756587386e-05 0.000367751441097758 0.000187578824533701)
(-3.52358478992239e-05 0.000355674248397641 0.000151940596084747)
(-5.71294746237218e-05 0.000335400881363851 0.000113402355377886)
(-9.3267256377409e-05 0.000287351299319947 7.485964551484e-05)
(-0.000152681446708852 0.000163675577371222 4.22773129831594e-05)
(2.10633376344071e-07 0.000374167124141991 0.000365532547269888)
(1.40129091876504e-07 0.000369599707686268 0.000337568334509789)
(-8.47783420004274e-07 0.000365406964390611 0.000310507545091739)
(-3.27536515770319e-06 0.000360749187971889 0.000282769570231709)
(-7.78001712815692e-06 0.000354988116301868 0.000253576280734283)
(-1.50883889404098e-05 0.000347524617579992 0.000222438544676043)
(-2.61056330862687e-05 0.000337518304552255 0.000188898397910389)
(-4.22322749076894e-05 0.000323366361083978 0.000152518861976858)
(-6.62087447403044e-05 0.000300434272423668 0.00011343602069786)
(-0.00010582351838394 0.000248785271470981 7.46279303091728e-05)
(-0.0001709939794095 0.000118441357674458 4.18837092771081e-05)
(1.95658798060656e-07 0.000351968582327595 0.000395682886924333)
(2.30228532502922e-07 0.000347643432857486 0.000367572670106889)
(-4.06649380253962e-07 0.00034372369615414 0.000340653808300576)
(-2.14404392168049e-06 0.000339429530311945 0.000313325641989195)
(-5.50256976213441e-06 0.000334127895899479 0.000284837498545758)
(-1.10578224424526e-05 0.00032730013291458 0.000254751238220367)
(-1.94745294729006e-05 0.000318383040933881 0.000222728904094352)
(-3.165667232322e-05 0.00030652128769961 0.000188401173763045)
(-4.90889499132179e-05 0.000290051309934614 0.00015139000321856)
(-7.47163205286283e-05 0.000264239020063837 0.000111983525631414)
(-0.000117161537222574 0.00020875326510576 7.32247541797569e-05)
(-0.000187035546883091 7.13464061261655e-05 4.01098008615766e-05)
(1.34173439147092e-07 0.00032998714730848 0.000425037632516003)