/*--------------------------------*- C++ -*----------------------------------*\
  =========                 |
  \\      /  F ield         | OpenFOAM: The Open Source CFD Toolbox
   \\    /   O peration     | Website:  https://openfoam.org
    \\  /    A nd           | Version:  12
     \\/     M anipulation  |
\*---------------------------------------------------------------------------*/
/*   Windows 32 and 64 bit porting by blueCAPE: http://www.bluecape.com.pt   *\
|  Based on Windows porting (2.0.x v4) by Symscape: http://www.symscape.com   |
\*---------------------------------------------------------------------------*/
FoamFile
{
    format      ascii;
    class       volScalarField;
    location    "200";
    object      k;
}
// * * * * * * * * * * * * * * * * * * * * * * * * * * * * * * * * * * * * * //

dimensions      [0 2 -2 0 0 0 0];

internalField   nonuniform List<scalar> 
10123
(
0.000210531079654154
0.000214628593933805
0.000593811960922868
0.000211075963425747
0.00021827003350946
0.000605851978876931
0.000215251313649338
0.000873979886017237
0.000593928044582776
0.000211827218016149
0.000221442388164043
0.000616418108832495
0.000218923784647051
0.000891459973617884
0.000606011193833766
0.000216064464934281
0.00110083672393088
0.000873316372089745
0.000592665179457566
0.00021039403819208
0.00022418767915469
0.000625601851204287
0.000222110727143939
0.000906720061135264
0.000616620087944187
0.000219774693643788
0.00112252377014134
0.000890803566306458
0.000604765871699832
0.000214626811802179
0.00129761979943555
0.00109951350817175
0.000868773174906272
0.000587143119137139
0.000206068556683609
0.000226559841680648
0.000633545816693389
0.000224864819540563
0.000919999283638837
0.000625823335066264
0.000222984604824799
0.00114145453464389
0.000906066033859111
0.000615406857906507
0.000218331620301447
0.00132280366204423
0.00112119669541404
0.000886207107485693
0.000599168122288264
0.000210224374159196
0.00147396722580089
0.00129538390185203
0.00109231041039414
0.000858518405008996
0.000575677611495676
0.000199648092876409
0.000228607237616917
0.00064040484574399
0.000227243055591449
0.000931505514119805
0.000633774675605332
0.000225754388620566
0.00115793576720873
0.000919342828322874
0.00062462880012414
0.000221532548447759
0.00134480633538445
0.00114011450711811
0.000901429703616757
0.000609761847413688
0.000213866803106711
0.00150215829716743
0.00132055313599831
0.00111389621740872
0.000875791767396334
0.000587490206705379
0.000203660954540882
0.0016346388909037
0.00147061602714746
0.00128573269174702
0.00107786503844485
0.000841339581327602
0.000558920526273485
0.000192187372748186
0.000230371575546706
0.00064631761725189
0.000229295342983705
0.000941438497321545
0.000640635727507203
0.000228144527743342
0.00117222225676483
0.000930844536973498
0.000632586887121682
0.000224291420664213
0.00136397267973764
0.00115658088443537
0.000914671530679685
0.000618946516098976
0.000217013736275237
0.00152681101460342
0.00134252879458268
0.00113273249313022
0.000890886235416062
0.00059792005237663
0.000207192334683667
0.00166546321649975
0.00149877919936756
0.00131077129356614
0.00109922249161705
0.000858310398955004
0.000570381080970246
0.000195951106388873
0.00178244194611335
0.00163032301096283
0.00145857124686765
0.00126749433454367
0.00105558507249952
0.000817651401675179
0.000538442287577206
0.000184758969258558
0.000231889622423432
0.000651403961311655
0.000231063797642431
0.000949984913014745
0.00064654876830061
0.000230207207850495
0.00118455228418879
0.000940772442200377
0.000639449490273975
0.000226671189240385
0.00138059077214283
0.00117085332453209
0.000926142495708373
0.000626865092588375
0.00021972466222704
0.0015482981384556
0.00136166704918928
0.00114912900486085
0.000904020411687248
0.000606967624825061
0.000210244941179454
0.00169244039572097
0.00152338998980619
0.00133263378653786
0.0011178704860707
0.000873154690369877
0.000580532252208976
0.000199313387578082
0.00181559954649348
0.00166110993657144
0.00148657416881562
0.0012922505528877
0.00107656365679713
0.000834175541546006
0.000549389518999031
0.000187753269578427
0.00191927500579909
0.0017774712831735
0.00161621367803364
0.00143687313724019
0.00124055675572371
0.00102602966995131
0.000788586079407008
0.000515369035508117
0.000180439785993486
0.000233193988258529
0.000655770613111445
0.000232587117673368
0.000957315469590709
0.000651636113905343
0.000231985280961123
0.00119515032344037
0.000949314087033348
0.000645363365125184
0.000228725257832047
0.00139493082386749
0.00118317083830821
0.000936044283895872
0.000633689620954973
0.000222062026038215
0.00156693335473218
0.00137825951249976
0.00116334283707963
0.000915400218125055
0.000614769260508454
0.000212875910963605
0.00171596595332762
0.00154483507357951
0.0013516742849736
0.001134108686612
0.000886077422149847
0.000589344017150091
0.000202228624616004
0.00184463813935327
0.00168803417264579
0.0015110442127776
0.00131387720193958
0.00109489301293508
0.000848645010761453
0.000559155189956604
0.000190777738560613
0.00195451878045601
0.00181058733901774
0.00164681802134006
0.00146454905146616
0.00126486872607286
0.00104648285710813
0.00080453164828676
0.00052556673635125
0.00018044906184607
0.00204641479518206
0.00191389237558182
0.00176177900018604
0.00159156527142407
0.00140575746683553
0.00120573669672885
0.00099012986618755
0.000754923290252833
0.000489784474138555
0.000179318551259457
0.000234314037344899
0.000659512870472217
0.000233895777411792
0.000963585330508466
0.00065600475692086
0.000233517571924344
0.00120422525107692
0.000956640669728836
0.000650452691334974
0.000230497344475296
0.00140724923226354
0.00119375800116365
0.00094456473840131
0.000639570932630937
0.000224080503731129
0.00158301357216137
0.00139257720318131
0.00117561207407535
0.000925225250839177
0.000621489669276016
0.000215145948024903
0.00173637473486932
0.00156343244318342
0.00136818441710143
0.00114818988397736
0.000897277570097199
0.000596944064398834
0.000204750207312203
0.00186997330095481
0.00171150733829796
0.00153236695179572
0.00133271848596781
0.00111086139654339
0.000861248194646868
0.000567636645213487
0.000193451160630678
0.00198540105006176
0.00183956726170662
0.00167358113411207
0.00148874427064635
0.00128611973786132
0.00106436423208332
0.000818516776817668
0.000534837630806509
0.000182475404467303
0.00208353514237557
0.00194909457500631
0.00179469955464267
0.00162180935145079
0.00143293493406867
0.00122945181708061
0.00100992624926428
0.000770177435766022
0.00049938336571085
0.000179678981501017
0.00216464935186776
0.00204074899571147
0.0018970133760977
0.00173474663719339
0.00155684623640243
0.0013662480254914
0.00116393579730311
0.000948492272128792
0.000716813222863321
0.00046213821095508
0.000163995864462807
0.00023527481866977
0.000662715035727533
0.000235020241602756
0.000968934650464959
0.00065974941279473
0.000234834474206844
0.00121196937798828
0.000962907398715663
0.000654824682896817
0.000232024330870118
0.00141778654570127
0.00120282364515759
0.000951874856021716
0.000644634348345919
0.000225822745780632
0.00159682197339164
0.00140487635017148
0.00118616009798799
0.000933682210947685
0.000627282400651475
0.00021710802777507
0.00175398605889964
0.00157947955769503
0.00138243407340232
0.00116034884397861
0.000906950845371838
0.000603493712511561
0.000206934192737548
0.00189195789003766
0.00173186893521198
0.0015508607034155
0.00134906145941617
0.00112471447419512
0.000872176074376442
0.000574957011408669
0.000195808245378393
0.00201235543335366
0.00186484440539954
0.00169691375990961
0.00150983410286115
0.00130464231721698
0.00107994983412238
0.000830702307824976
0.000542863985568291
0.000184441661066825
0.00211607524768333
0.00197991618870721
0.0018235060073963
0.00164826874455105
0.00145670779313101
0.0012501918742749
0.001027244345792
0.00078359039498528
0.000508103555246561
0.000183398686048062
0.00220346142570851
0.00207782954026181
0.0019320138865987
0.00176728522442601
0.0015865503711255
0.00139276777136586
0.00118691511930631
0.000967515714908972
0.00073140486634484
0.000471466957299331
0.000168437087780543
0.00227442340487153
0.00215875387377347
0.00202293042344047
0.0018680518325358
0.00169698487294263
0.00151322582019194
0.00131926695920989
0.00111568777087637
0.000901373710560816
0.000674523594349175
0.000428844011367063
0.000143330562265341
0.000236096338280672
0.000665453653207033
0.000235983655926866
0.000973489009533641
0.000662954645454266
0.000235966379505564
0.00121855784930875
0.000968254222261014
0.000658573588050524
0.000233337864535836
0.0014267657704523
0.00121055991477949
0.00095812921970257
0.000648986379764054
0.000227325098275286
0.00160862615371941
0.00141539719756988
0.00119519447834503
0.000940940642414562
0.000632272412899717
0.000218802168700868
0.00176910646348835
0.0015932595455277
0.00139467773565176
0.00117080602524268
0.000915280669250142
0.000609143204740073
0.000208826029267645
0.00191093058176323
0.00174943907947484
0.00156682183791621
0.00136317210912493
0.00113668166353463
0.00088161889885417
0.000581278614356704
0.000197874113331962
0.00203575084876863
0.00188677674970952
0.00171715614727071
0.00152813199193666
0.00132071590744476
0.00109347683340177
0.000841273152070853
0.000549814454944933
0.00018647125364742
0.00214448571041361
0.0020068102470158
0.00184863162977877
0.0016713436750467
0.00147743882224852
0.00126827741412559
0.00104234452723737
0.000795265566017237
0.000515443916303294
0.000179354611208629
0.00223749457237236
0.00211030873562672
0.00196265588752805
0.00179576942597373
0.00161255187448308
0.00141597693334416
0.00120702091386081
0.000984169911713302
0.000744184831996037
0.000479512791985507
0.000172553672396031
0.00231475703426732
0.00219752848881251
0.00205980702172722
0.00190265679954877
0.0017289537881146
0.00154222388492939
0.00134498259188118
0.00113780123431257
0.00091953196240653
0.000688364731958598
0.000437950762928381
0.00014799720896543
0.00237598701959259
0.00226831857143473
0.00214013465729965
0.00199234894119492
0.00182769987521485
0.00164977921459988
0.00146167611615283
0.00126532031469814
0.00106125797746744
0.000848963783429401
0.000627468830791814
0.000390620536712125
0.00012064820371749
0.000236793275650747
0.000667789158766018
0.000236808419750473
0.000977356385175011
0.000665694730068655
0.000236936887435003
0.00122414784453502
0.000972806143417142
0.000661783352326872
0.00023446723694523
0.00143439107714584
0.00121714170027283
0.000963466951167482
0.00065272022827975
0.000228618610440124
0.00161867547068853
0.00142436242655622
0.00120290604597669
0.000947153488592283
0.000636563839509026
0.000220263020191386
0.00178202664434749
0.00160503946259115
0.00140515378652616
0.00117976627542827
0.000922433504574237
0.000614013121655328
0.000210458947940876
0.00192721808378067
0.00176452404046409
0.00158053142328457
0.00137530118433784
0.00114697864053476
0.000889754918288217
0.000586742472624682
0.000199680820514504
0.0020559430603202
0.00190570386032168
0.0017346270497408
0.00154392997447034
0.00133460024211939
0.00110516776553558
0.000850414608723035
0.000555852568973109
0.000188231246444703
0.00216915025056384
0.00203015127639699
0.00187043539811276
0.00169136920992202
0.00149543329681912
0.00128397873488037
0.00105545530876735
0.000805398716712236
0.000521882352562364
0.00018064202834181
0.00226721617411896
0.00213865812540149
0.00198939285860789
0.00182062120924069
0.00163523751917939
0.0014362256224725
0.0012245602748921
0.000998691006848274
0.000755251469803631
0.000485540456255926
0.000175735172046437
0.00235013109597533
0.00223150105537576
0.00209210393540707
0.00193296510414176
0.00175695511254471
0.00156761994608808
0.00136749756183624
0.00115715834872604
0.000935428145768522
0.000700324563201912
0.000446084345612487
0.000152138765134716
0.00241767682475378
0.00230861701659423
0.0021787049691105
0.00202882182410575
0.00186171470226251
0.00168100546150729
0.00148981493317365
0.00129009208734717
0.00108238002828529
0.000866141287694924
0.000640401082097664
0.000399360367744259
0.00012484383263378
0.00246951155422807
0.0023696834604239
0.00224898196032926
0.00210813749451915
0.00194974240505592
0.00177734589256596
0.00159417772568048
0.00140271186780008
0.00120466504898645
0.00100083571831631
0.000791268330625992
0.000575529729304753
0.000348291783545253
9.73828100406836e-05
0.000237375988206506
0.00066976958819506
0.000237508667380798
0.000980633638556855
0.000668032279367457
0.000237768644823318
0.00122887893531309
0.00097667273062491
0.000664527407542376
0.000235438002669313
0.00144084693283131
0.00122272609057742
0.000968012267136082
0.000655918279016837
0.000229732001895521
0.00162719892008815
0.00143197595084177
0.00120946845010792
0.000952458213916675
0.000640247901981946
0.000221522050233849
0.00179301857309056
0.00161506809023759
0.00141408312333858
0.00118741786320794
0.00092855898852198
0.000618202191197545
0.000211864261749118
0.00194113143875393
0.00177741398918028
0.00159225415876041
0.00138568356520834
0.0011558058645316
0.000896744793046223
0.000591455519905137
0.000201232096839135
0.00207327656301615
0.00192195216082048
0.0017496304753443
0.00155750489313883
0.00134654037105338
0.00111523200799518
0.000858297727097739
0.000561101227907154
0.000189898439757265
0.00219043995352324
0.00205029604463894
0.00188925547178169
0.00170865946781755
0.00151097643357094
0.00129754767475992
0.00106679208258181
0.000814176105543491
0.000527570157980811
0.00017985248536205
0.00229302391660961
0.00216326749871413
0.00201260061850257
0.0018421944742666
0.00165493389099455
0.00145380928259902
0.00123979343247138
0.00101130228865849
0.000764866787566096
0.000491355512562714
0.000178415858207204
0.00238103048960649
0.00226116136763243
0.00212029367282295
0.00195941841737095
0.00178139629273985
0.00158978760431453
0.00138714860405798
0.00117404935233259
0.000949278401312006
0.000710646447691376
0.000452915545093394
0.000155727295596069
0.00245424596348187
0.00234393095283652
0.00221249426816649
0.00206077816024687
0.00189152252108429
0.00170836974081451
0.00151446886044881
0.00131178922472934
0.00110087657446982
0.00088115299889481
0.000651733441225069
0.000407151276419872
0.000128609464198534
0.00251238438482263
0.00241134034199854
0.00228907665996841
0.0021462991095283
0.00198561065048729
0.00181059101638168
0.00162450178929602
0.00142984504505588
0.00122835619862375
0.00102083952623094
0.000807345436149584
0.000587579167834868
0.000356354634621013
0.00010092198433306
0.00255515900228167
0.00246301920958819
0.00234969105756005
0.00221571393079213
0.00206352645250764
0.00189659033851743
0.00171812508858708
0.00153073246841302
0.00133659185266024
0.00113749423690804
0.000934553382231377
0.000728264707373801
0.000518763100648973
0.00030247999380868
7.43507388800787e-05
0.000237846708758194
0.000671437868425919
0.000238093841755332
0.000983402720563241
0.000670017732303532
0.000238475557119623
0.0012328731709402
0.000979949545231015
0.000666870089978982
0.000236269990647745
0.00144629806437344
0.00122745249458144
0.000971874481128422
0.000658654974601088
0.000230689932949489
0.0016344045703518
0.00143842189670024
0.00121503777506634
0.000956977456495482
0.000643406799224506
0.000222607768934676
0.00180233329055497
0.00162357409840958
0.00142166801639373
0.00119393200212309
0.000933792017065361
0.000621799362365815
0.000213076297681713
0.00195296240089657
0.00178838029452764
0.00160223669368885
0.00139453689116611
0.0011633475593083
0.000902733362296509
0.000595505607572461
0.000202559239060611
0.00208808028602271
0.00193583208638964
0.00176245410402247
0.0015691175653388
0.0013567659580961
0.00112386393142468
0.000865074255010872
0.000565632760654468
0.000191315608314183
0.00220871534538985
0.00206758877410574
0.00190541585045019
0.00172351381898035
0.00152433872785649
0.00130922208959467
0.00107655666476427
0.000821757542781465
0.000532583072640052
0.000181062589395353
0.00231530277212824
0.00218450910356252
0.00203263456045106
0.00186082263096767
0.00167194793774475
0.00146900459406801
0.0012529635409687
0.00102221384974713
0.000773233316879121
0.000496736119831448
0.000179991189392911
0.0024078659879391
0.00228691360959082
0.00214476765871472
0.00198238750547491
0.00180262237205501
0.00160904285620816
0.00140422045965779
0.00118872462923957
0.000961311627232131
0.000719690097050319
0.000458862124313051
0.000158753109138611
0.00248619725502589
0.00237476897788671
0.00224199382451641
0.00208867839877239
0.001917550359405
0.00173226595477713
0.00153599744842802
0.00133073335731628
0.00111702002558826
0.000894235521077778
0.000661571259531233
0.000413894620933321
0.000131906350802546
0.00255000410700019
0.0024478498159751
0.00232420718998837
0.00217974371095356
0.00201705433986623
0.00183973856531284
0.00165108630175949
0.00145362628094994
0.00124911437530127
0.0010383585330245
0.000821423990475026
0.000598169216500931
0.000363607558690545
0.00010415145823453
0.00259901405977463
0.00250586163879638
0.00239114546359702
0.00225539698555336
0.00210107320083728
0.0019316684508726
0.00175043478654035
0.00156000184207541
0.00136257532849091
0.00115996950250067
0.000953318421357652
0.000743176746157425
0.000529811354544972
0.000309681960825385
7.71783766024633e-05
0.00263304934749399
0.00254848764977453
0.00244242662275851
0.00231526877300266
0.00216929537732011
0.00200785846107016
0.0018341112576008
0.00165063909025602
0.00145971625895171
0.00126351240765317
0.00106397519117341
0.000862484093570789
0.000659932173173529
0.000457302099128106
0.000253492897307306
5.21071576608883e-05
0.000238206465332904
0.000672813522124791
0.000238566203759437
0.000985723726393946
0.000671689318510956
0.000239065345901412
0.00123623549143747
0.0009827167624485
0.000668862726181469
0.000236976903127627
0.00145088968407786
0.00123144286057689
0.000975148316042844
0.000660994138306185
0.000231511155075906
0.00164047888537675
0.00144386476439008
0.00121975250487311
0.000960819346883292
0.000646112263601982
0.000223543658164243
0.0018101993417325
0.00163076508620321
0.00142809130090897
0.00119946267802705
0.000938253045227548
0.000624887497742596
0.000214126608624429
0.00196298150749019
0.00179767338749238
0.00161070579799363
0.00140206041007709
0.00116977149011209
0.000907852170111367
0.00059897992589536
0.000203693571861204
0.002100663814279
0.00194763486356518
0.00177336690960261
0.00157901069521109
0.00136548995363114
0.00113124235811434
0.000870880699073139
0.000569508205800954
0.00019259500244754
0.00222432095560053
0.00208235779623841
0.00191922432771134
0.00173621552456501
0.00153577505438773
0.0013192251256329
0.00108493595629468
0.000828279883527985
0.00053691945085921
0.000182843021110828
0.00233442715119832
0.00220274305385315
0.00204983641104968
0.00187682481286709
0.00168657193972694
0.00148207408033157
0.00126430026179271
0.00103161929345785
0.000780477644850728
0.000501468224785646
0.000180386603569547
0.00243103478004324
0.00230914402384474
0.00216589684511828
0.00200222292676386
0.00182095915650459
0.001625683389547
0.00141897976359175
0.00120141807588969
0.000971735114007264
0.000727671974819332
0.000463897750756854
0.000161177380649606
0.00251395265580891
0.00240154876278992
0.00226760979103501
0.00211290894752073
0.00194015981414261
0.00175302805110283
0.00155470538047584
0.00134719715416813
0.00113105073990687
0.000905618845670641
0.000670125229770178
0.000419695946148112
0.000134742725227203
0.00258288770503152
0.00247973974764459
0.00235488408720759
0.00220895029282415
0.0020445188532943
0.0018652012431574
0.00167431079200635
0.00147440024326171
0.00126724449218727
0.00105365427864197
0.000833707922287475
0.00060740450708643
0.000369925303418171
0.000106997420133192
0.00263754239632736
0.0025434224785221
0.00242747200409545
0.00229018045905594
0.00213399672439212
0.00196243440695727
0.00177877370863396
0.0015856702141208
0.00138535604775596
0.00117966808894083
0.000969760633995523
0.000756251654566261
0.000539558180636137
0.000316252800457993
7.98236324481504e-05
0.00267767632320965
0.00259231694485778
0.00248506882723546
0.00235631020453146
0.00220835641033708
0.00204459980805842
0.00186822857078606
0.00168185543807576
0.00148778112098854
0.00128820448187585
0.00108510550837752
0.000879909331924996
0.000673583833445428
0.000467220032024134
0.000259728823307513
5.42370397704924e-05
0.00270290233658366
0.00262620435341841
0.00252734802418964
0.00240695494140125
0.00226720957087208
0.00211134720749501
0.00194242521822719
0.00176295532694972
0.00157518150601285
0.00138133166496002
0.00118365378012945
0.00098422856486437
0.000784644969098566
0.000586251310129939
0.000391230391542493
0.000201515696555034
3.15481840726492e-05
0.000238470076054685
0.000673907652178333
0.000238923378235254
0.000987650610345842
0.000673069590450062
0.000239538748285693
0.00123905396578943
0.000985037679598985
0.000670540282687186
0.000237564768606012
0.00145474724587728
0.00123480179143662
0.000977912926814235
0.000662984375318224
0.000232208463818388
0.00164558668589195
0.00144844931469302
0.00122373360248283
0.000964077132718511
0.000648425107015906
0.00022434688929055
0.00181682209399106
0.00163682710609413
0.00143351624284033
0.00120414641927132
0.000942047618074962
0.00062753756387839
0.000215035607916199
0.0019714352066794
0.00180552127837492
0.00161786736179316
0.00140843430845489
0.00117522841935889
0.000912219312981061
0.00060197077768977
0.000204698836808862
0.00211131439618517
0.001957630123011
0.00178261710370499
0.00158740755971256
0.00137290732168347
0.001137530529531
0.000875845086868041
0.000572796450078604
0.000193394598158972
0.00223758220634065
0.00209491200212263
0.00193096958186801
0.00174702933425285
0.00154552283711987
0.00132776343662414
0.00109210132161523
0.000833863644105577
0.000540627541000603
0.000188861282529585
0.00235075598607175
0.00221831352794764
0.00206453177069376
0.00189050406819246
0.00169908287341119
0.00149326529198554
0.00127401848837698
0.00103969549539975
0.000786718429195055
0.00050566212143891
0.000181258049313825
0.00245092349229907
0.00232822677827766
0.0021840387858679
0.00201926138502413
0.00183671861073166
0.00163999330840591
0.00143167991191419
0.00121234975934861
0.000980729211563641
0.000734553674166174
0.000468151282411337
0.000163072289973472
0.0025379191332391
0.00242466888955195
0.00228972720835152
0.0021338358863429
0.00195969358497491
0.00177097221229366
0.00157087982305202
0.00136143650406379
0.00114319302816381
0.000915505107534495
0.000677546691150823
0.000424606315300042
0.000137156811362324
0.00261146209559714
0.00250743927175264
0.0023815273070839
0.00223432005079439
0.00206838125479172
0.00188732956648376
0.00169449760165565
0.00149245912455797
0.00128300652365601
0.00106695608858945
0.000844394214671672
0.00061541869218216
0.000375357945992647
0.000109458508211174
0.00267124768979888
0.00257624472626397
0.00245920092833081
0.00232056239837214
0.00216276052678041
0.0019893187726589
0.00180353963974156
0.00160810207079732
0.00140526234835836
0.00119687865365223
0.00098412415776712
0.000767673945437854
0.000548079879719824
0.000321996584986011
8.21730788040514e-05
0.00271699895141063
0.00263078759589325
0.00252244788492989
0.00239228868380588
0.00224261305952824
0.00207683262114802
0.00189816343256565
0.00170924384060068
0.00151239995492859
0.00130985883719635
0.00110363108832492
0.000895185994503315
0.000685573893546393
0.000476019834249026
0.000265540512072166
5.63046656142917e-05
0.00274843233038361
0.00267081756156735
0.0025709819521793
0.0024491845021502
0.00230762433950227
0.00214959150239094
0.00197818591977053
0.00179594888108311
0.00160514921588141
0.00140804420811591
0.00120691686812733
0.00100389366573342
0.000800622902231933
0.00059853231878777
0.000399909797307035
0.000206740012748676
3.30417545713745e-05
0.0026492112001521
0.00276500793743228
0.00269591003995933
0.00260456602335755
0.00249092580666169
0.00235740551658653
0.00220718693076747
0.00204322201624561
0.00186791870761288
0.00168343708970435
0.0014919614177519
0.00129576151260195
0.00109714958569146
0.000898290332802454
0.000700970065393965
0.000507167979965593
0.000320756127406054
0.000147175170082727
1.45724770730742e-05
0.000238694178104832
0.000674741290446439
0.000239177299294618
0.000989228111716119
0.000674168700100874
0.000239892499805377
0.00124140221602405
0.000986963893810688
0.000671922799040651
0.000238032415603198
0.00145797787795018
0.00123761711572441
0.000980231361064439
0.000664658419247655
0.000232786165978687
0.0016498712106625
0.00145230088069731
0.00122708473557468
0.000966828225172654
0.000650393316718338
0.000225027695372088
0.0018223834658782
0.00164192455372296
0.00143808635232064
0.00120810234990397
0.000945266305238368
0.000629805468332766
0.00021581614249773
0.00197854558949084
0.00181212883350819
0.00162390589640051
0.00141381938555173
0.00117985180441678
0.000915936980537104
0.000604545796982684
0.000205579446546585
0.00212029470730138
0.00196606384542235
0.00179043073278218
0.00159451093976685
0.00137919435121335
0.00114287518820688
0.00088008545791099
0.000575659665519897
0.000194330127266239
0.00224880138484172
0.00210553791754757
0.00194091877594787
0.00175619960228965
0.00155380058870441
0.00133502657714214
0.00109821055189781
0.000838630457861273
0.000543565288314019
0.000182832119587021
0.00236462834737828
0.0022315450980539
0.00207702682061456
0.00190214458527221
0.00170973965492469
0.00150280887878138
0.00128231744402533
0.00104660250350023
0.000792048300655629
0.000509620778415144
0.000181840752773389
0.00246790341515744
0.00234452021614288
0.00219953491617472
0.00203382354245017
0.00185019711046691
0.0016522416164249
0.0014425598616486
0.00122172536707951
0.000988458876230926
0.000740489992041662
0.000471691742513112
0.000164788977777695
0.00255849334581783
0.00244451578125252
0.00230871770444027
0.00215181164095961
0.0019764810122747
0.00178640158245404
0.00158479501649068
0.00137369445056938
0.00115365621288961
0.000924039811221393
0.000683973981414592
0.000428711388817352
0.000139217966815517
0.00263614032996386
0.00253135689119816
0.00240453433745429
0.00225623315202753
0.00208899961223482
0.00190645637795146
0.00171195212860851
0.00150807846338334
0.00129664443181373
0.00107847632240431
0.000853661644249032
0.000622334805551461
0.000379992423323073
0.000111574406948159
0.00270054913303965
0.00260476318675551
0.00248676397492832
0.00234695787214463
0.00218775632748482
0.00201268734273607
0.00182507111462567
0.00162760698983672
0.00142257285477223
0.00121184717471283
0.000996620273150126
0.00077760918290777
0.000555476449614174
0.000326932757030253
8.41999946156978e-05
0.00275143570451291
0.00266443179213832
0.00255510967072694
0.0024237217659341
0.00227254745593843
0.00210500519996906
0.0019243315378032
0.00173318702579005
0.00153392092002467
0.00132878648672026
0.00111982267852977
0.000908538651394938
0.00069606091331528
0.000483732693392593
0.00027064001701179
5.81523427632062e-05
0.00278853389492659
0.00271008479010253
0.00260927289359899
0.00248621571538409
0.00234307237304521
0.002183147929619
0.00200957029661917
0.00182490639492832
0.00163144857651142
0.0014314821329521
0.0012273230967565
0.0010211408397424
0.000814644805893286
0.000609347604739174
0.000407678175548389
0.000211768482960036
3.45546865741542e-05
0.00281153753477282
0.00274142865776131
0.00264899532412922
0.00253415002245108
0.0023990061173468
0.00224677686570189
0.00208047031961261
0.00190253132108051
0.00171514622337085
0.00152052672684254
0.00132097640542721
0.00111885055840775
0.000916370784897418
0.000715386783358935
0.000517968633985259
0.000328122310933617
0.000151406785509687
1.54884819555487e-05
0.00270994675477284
0.00264234573679466
0.00282009403507433
0.00275789703577212
0.00267383915687514
0.00256728692893144
0.00244002659166888
0.00229549491700693
0.0021366031475746
0.00196564542639963
0.00178466915012745
0.00159577006524632
0.00140115742122078
0.00120313092816164
0.00100402282896061
0.000806042315297002
0.000611260162100487
0.000422752874138741
0.000246608635124738
9.20091030628664e-05
3.79960564966975e-06
0.00067539393257997
0.000239389745232716
0.000990503470714613
0.000674993523176553
0.000240134016054869
0.00124334471961111
0.000988539175344968
0.000673022654738345
0.00023837506012573
0.00146067255900574
0.00123996262265354
0.000982153548583505
0.000666033427547509
0.000233240978058426
0.00165345550652252
0.00145552649922525
0.00122989306476773
0.000969134174135342
0.000652047141462519
0.000225589172663145
0.00182704239364678
0.00164620047364826
0.00144192601207094
0.0012114324322655
0.000947984289840796
0.000631733471656083
0.000216476646938585
0.00198450960187739
0.00181767754425106
0.00162898441944044
0.00141835705982136
0.00118375792120607
0.000919091704819819
0.000606752121857821
0.000206334960894617
0.00212784137394209
0.00197315750634166
0.00179701092246172
0.00160050257040167
0.00138450829848413
0.00114740574777784
0.00088369918091988
0.000578148634178464
0.000195181945402342
0.00225825542602534
0.00211449753952413
0.00194931577916123
0.00176394892469393
0.00156080657031405
0.00134118598617726
0.00110340631109964
0.000842712098661663
0.000546263245244764
0.000183479620430631
0.00237635996873993
0.00224273935296022
0.00208760554604007
0.00191200938624046
0.00171878133076787
0.00151091719777374
0.00128938027123916
0.00105249192417771
0.000796563393875988
0.00051155493882838
0.000179937245767595
0.0024823257860628
0.00235836273340677
0.00221270699221798
0.00204621088697415
0.00186167264150781
0.00166267990434828
0.00145184235278191
0.00122973472531382
0.000995066866831667
0.000745567551860492
0.000474661839920286
0.00016626432646707
0.00257605727798451
0.00246146012957279
0.00232493677876194
0.00216717258682588
0.00199083582663188
0.00179960428810805
0.00159671089172033
0.00138420016892714
0.00116263491291887
0.000931378180353163
0.000689448374232458
0.000432212067529989
0.000141014532389603
0.00265732652464223
0.0025518891374825
0.00242428907264875
0.00227505604007034
0.00210671882679374
0.00192290187068219
0.00172696701182892
0.00152152157887293