/*--------------------------------*- C++ -*----------------------------------*\
  =========                 |
  \\      /  F ield         | OpenFOAM: The Open Source CFD Toolbox
   \\    /   O peration     | Website:  https://openfoam.org
    \\  /    A nd           | Version:  12
     \\/     M anipulation  |
\*---------------------------------------------------------------------------*/
/*   Windows 32 and 64 bit porting by blueCAPE: http://www.bluecape.com.pt   *\
|  Based on Windows porting (2.0.x v4) by Symscape: http://www.symscape.com   |
\*---------------------------------------------------------------------------*/
FoamFile
{
    format      ascii;
    class       volScalarField;
    location    "200";
    object      nut;
}
// * * * * * * * * * * * * * * * * * * * * * * * * * * * * * * * * * * * * * //

dimensions      [0 2 -1 0 0 0 0];

internalField   nonuniform List<scalar> 
10123
(
7.18938834347869e-05
7.25856102472169e-05
0.000584097671327248
7.33046419802114e-05
7.31733575378539e-05
0.000590466203752341
7.399888696713e-05
0.00140108225635518
0.000592675164783255
7.4963624667411e-05
7.36768770403362e-05
0.000596144501096842
7.45962567621088e-05
0.00141598008377111
0.000599134798765134
7.56693553612972e-05
0.0023120590867494
0.00141246428426757
0.00060325855961481
7.59133069918481e-05
7.41086326695798e-05
0.000600994825689858
7.51077084848132e-05
0.0014291367719762
0.000605012472006205
7.62850668235916e-05
0.00233704509173935
0.00142752173212649
0.000609836332924226
7.66270921356738e-05
0.00320976343670856
0.00232056456428111
0.00142523948522644
0.00060933917575026
7.56397958663157e-05
7.44794042186954e-05
0.000605120057999438
7.5545969664628e-05
0.00144053159086813
0.00060998438810498
7.68093843595681e-05
0.00235882715933996
0.00144084256096556
0.000615943640585062
7.72520051309039e-05
0.00324552118709594
0.00234569932590773
0.0014404991086337
0.000615994247716203
7.63507251753621e-05
0.00404469214737275
0.00321233463507922
0.0023267688485979
0.00143092551189494
0.000607371105679904
7.44807520556257e-05
7.47977864705144e-05
0.00060866462957585
7.59221824054274e-05
0.00145034014358804
0.000614181996835202
7.72573252612887e-05
0.00237769353770839
0.00145235734767739
0.000621088302447356
7.77892554040468e-05
0.0032764092428015
0.00236758992775971
0.00145403982942295
0.000622255905098224
7.69732860581898e-05
0.00409116707158029
0.0032481524683037
0.00235204719434335
0.00144629299140561
0.000614000722243295
7.51786429546583e-05
0.00479866094082265
0.00404080783321875
0.00320770521564999
0.0023234799554845
0.00142407709745938
0.000598741628964813
7.29756656840087e-05
7.50709667751748e-05
0.000611733008579605
7.62452047157787e-05
0.00145879102031612
0.000617774126391594
7.76413329359494e-05
0.00239396982498738
0.00146225248083558
0.000625396745814977
7.82440035304129e-05
0.00330307119193514
0.002386536147035
0.00146573010739495
0.000627549826423565
7.75102048876821e-05
0.00413112127372698
0.00327907617792213
0.00237406072838073
0.00145997597048343
0.00062030697956586
7.57907842873715e-05
0.00485544065432078
0.00408724529536211
0.00324352346957352
0.0023487665807406
0.00143935756584061
0.000605231516328091
7.36450237187755e-05
0.00546968473470364
0.00478995348730992
0.00402473265069734
0.00319043601923837
0.00230571571032754
0.00140556499481285
0.0005868786388071
7.14651411522421e-05
7.53050930875061e-05
0.000614393690963578
7.65221873193642e-05
0.00146608642430061
0.000620878444780056
7.79710617079323e-05
0.00240798888162905
0.00147076867894801
0.000629065738262427
7.86327035164475e-05
0.00332603243037415
0.00240287325590399
0.00147575369642335
0.000631949734021571
7.79683638947972e-05
0.00416549779200408
0.00330575901937881
0.00239310345105723
0.00147179342774934
0.000625645075057254
7.63201686622865e-05
0.0049041221225945
0.00412715731699859
0.00327444440525964
0.00237080456730536
0.00145301963660367
0.000611492264517012
7.42420309555471e-05
0.00553618666183552
0.00484662158991751
0.00407101652160256
0.00322608677369841
0.00233077580127737
0.00142051200297066
0.000592845834392014
7.19651983286444e-05
0.00606312825944338
0.0054581474805637
0.00476457173097283
0.00399251655506817
0.00315697567085603
0.00227344655615951
0.00137928851400387
0.000574680981238319
6.97138508005844e-05
7.55055269325877e-05
0.00061670294482319
7.67602054407999e-05
0.00147238943837303
0.000623573343702379
7.82538926286462e-05
0.00242005588586625
0.00147811692032288
0.000632231628256221
7.89662632259386e-05
0.00334576680870675
0.00241694015328144
0.00148436682872011
0.000635674914874356
7.8356473291087e-05
0.00419502565914812
0.0033287334633377
0.00240951507863025
0.0014819077940619
0.000630080826975032
7.6773845644556e-05
0.00494590006950608
0.0041614898071889
0.00330112024928627
0.0023898701551965
0.00146482929010173
0.000616791789322718
7.47607674365279e-05
0.00559310363905051
0.00489519872940163
0.00411079702656687
0.00325687354342912
0.00235264989677127
0.00143396622901588
0.000598999051040625
7.25570359070523e-05
0.00613868904686351
0.00552449026141444
0.0048209568072853
0.00403843512591478
0.00319220993285501
0.00229799925358419
0.00139346746826462
0.000578699226990142
6.97766256551013e-05
0.00658651316011468
0.00604997833194189
0.00542624914686599
0.00471933161556206
0.003941824223024
0.00310689614213356
0.00222914550518294
0.00134873500053371
0.00055983042854037
8.17012537036968e-05
7.56771326856628e-05
0.0006187090633952
7.69637255578111e-05
0.00147783627800205
0.000625916013458997
7.84970191044837e-05
0.00243043669606727
0.00148446623032637
0.000634981173885988
7.92527462546912e-05
0.00336270017560772
0.00242904623709211
0.00149179440571425
0.000638883889432666
7.86890542292337e-05
0.0042203363457876
0.00334847671115256
0.00242364114088466
0.00149058376947859
0.000633812558507063
7.71581683316989e-05
0.00498169700501152
0.00419097665823171
0.00332408668246288
0.00240629644877161
0.00147493352213054
0.000621180197006574
7.52059237198494e-05
0.00564185328269652
0.00493688049541202
0.00414501510555042
0.00328343737704858
0.00237158601241715
0.00144561600693478
0.000604197637792495
7.30699267962496e-05
0.006203280485966
0.00558126262669399
0.00486929356777925
0.00407791330659651
0.0032226566526751
0.00231948248536539
0.00140651862794292
0.000584845321319447
7.07625835227472e-05
0.00667043122446198
0.0061253497903998
0.00549221283789981
0.00477516837088119
0.00398710432142897
0.00314143330694205
0.00225285291597647
0.00136100105976327
0.00056356907428259
8.18656271340855e-05
0.00704722839876848
0.0065722246183412
0.00601351970797321
0.00537067623584184
0.00465244897019058
0.00387209696580141
0.00304108512739179
0.00217464405269635
0.00131304070364904
0.000558986825306536
7.47200285639909e-05
7.58238387334061e-05
0.000620453603018409
7.7138274206046e-05
0.00148254414741903
0.000627952947913704
7.87049609637446e-05
0.00243936115977107
0.00148995475411883
0.000637374064085983
7.94985995063051e-05
0.00337720905151904
0.00243946025856438
0.00149821333444732
0.000641672807947338
7.89746012696926e-05
0.00424198659550688
0.00336541640782383
0.00243579699006786
0.00149806095126333
0.000637022498529313
7.74863470536254e-05
0.00501230207543245
0.00421625034169702
0.00334382303106087
0.00242043082246125
0.00148359006188464
0.000624866470528125
7.55849191104388e-05
0.00568353623465469
0.00497259226401882
0.00417440524076875
0.00330630956929125
0.00238790434448824
0.00145558629861117
0.000608464628630983
7.35049176449046e-05
0.00625851991522397
0.00562988173691037
0.00491076958312287
0.00411187805672225
0.0032489388189008
0.00233810600365957
0.00141786977028996
0.000589766469378403
7.12680600221738e-05
0.0067421048629682
0.00618977061372127
0.00554866311872864
0.00482304897826772
0.00402604951435392
0.0031713027275092
0.00227371034953071
0.0013734929213969
0.000570737077904473
8.35606136148214e-05
0.00713878139099464
0.00665592960314709
0.00608843947327428
0.00543593478959184
0.00470741855680647
0.0039164442723513
0.00307464501873282
0.00219709155182974
0.00132434410212472
0.000564519352536445
7.67437608142288e-05
0.00745191997541149
0.00703191136287692
0.00653220767053444
0.00594970657764498
0.00528958235181404
0.0045633012563208
0.0037830898791499
0.00295973709727086
0.00210942350456604
0.00127375502350502
0.000532080381923525
6.52947989700003e-05
7.59487058714484e-05
0.000621977447613983
7.72869536395082e-05
0.00148661595076642
0.000629726273465617
7.88832972917499e-05
0.0024470283030573
0.00149469962320478
0.000639456618879038
7.97091255327596e-05
0.00338962326551921
0.00244841356595191
0.00150376475175565
0.000644102757597877
7.92198082376228e-05
0.0042604691495137
0.0033799301609572
0.00244625519104509
0.0015045243710451
0.000639815777522941
7.77678298633774e-05
0.0050384068005198
0.00423786854023249
0.00336075828233315
0.00243259352263894
0.0014910475953073
0.000628041557426965
7.59068768441098e-05
0.00571909279649082
0.00500312340256853
0.00419959900247866
0.0033259673044657
0.00240194574408382
0.00146412994850227
0.000612049928506795
7.38696851827845e-05
0.00630567115933523
0.00567145054932328
0.00494630876414105
0.00414105699489079
0.00327157630875646
0.00235416914710158
0.00142758583719931
0.000593740072832136
7.1684719978164e-05
0.00680333060563344
0.00624485711707214
0.0055970079364323
0.00486414294448737
0.00405956793801755
0.00319710615716352
0.00229184225133909
0.00138428833284294
0.000574054993881972
6.95130594925056e-05
0.00721692952306673
0.00672741219102864
0.00615247657395587
0.00549179762594524
0.0047545725189533
0.00395460244908366
0.00310370196784316
0.0022171303468232
0.00133650948801194
0.000570369390263424
7.86195625735661e-05
0.00755037640759501
0.0071232288828623
0.00661539980578581
0.00602378435914189
0.0053537516296762
0.00461706722370284
0.00382621779956878
0.0029920839222579
0.00213081882928466
0.00128629052659004
0.000539863419981752
6.74208954349498e-05
0.00780652268386469
0.0074355868285867
0.00698878929457722
0.00646146890437701
0.00585625185838457
0.00518228916271779
0.00445105546234016
0.00367374844683603
0.00286150360506958
0.00203095969663694
0.00121622790766247
0.000495176763402097
5.49686411283381e-05
7.60538750926128e-05
0.000623304431309334
7.74138499167428e-05
0.00149012958870602
0.000631272134980554
7.90353200242245e-05
0.00245360960780099
0.00149880209700683
0.000641269761656053
7.98895067879888e-05
0.0034002299588538
0.00245610585948879
0.00150856628787577
0.000646219383191993
7.94299475128591e-05
0.00427621695414613
0.00339234839795259
0.0024552488555698
0.00151011755810295
0.000642251908440257
7.80093964317273e-05
0.00506061949197551
0.00425632337717968
0.00337527054319055
0.00244306020493247
0.00149749594629967
0.000630811363614828
7.61825095807222e-05
0.00574934460106204
0.00502916462596116
0.00422115249384447
0.00334283861839545
0.00241403001423593
0.00147149430405208
0.000615173690977099
7.41829177369289e-05
0.00634581548776788
0.00570690889807028
0.00497669726307907
0.00416607607508818
0.00329103808825993
0.00236799927248008
0.00143590643506833
0.000597146538402551
7.19807342487056e-05
0.00685552050465317
0.00629187531869119
0.0056383474221019
0.00489936408765605
0.00408837388131715
0.00321934604583601
0.00230750373826681
0.00139349144406758
0.000577279526119774
6.96061728140276e-05
0.00728362875982595
0.00678846738313106
0.00620723713339135
0.00553965051681184
0.00479505673487367
0.00398745905378891
0.00312883233493065
0.00223456520229266
0.0013458701195576
0.00055770870483548
8.00689235104714e-05
0.00763438507532556
0.00720116653014347
0.00668644672430875
0.00608711990938388
0.00540870215212039
0.00466320353898755
0.00386333854168732
0.00302013782093717
0.00215005022744142
0.00129790346946247
0.000547445835612449
6.93077687540473e-05
0.00791115057918144
0.00753378489047177
0.00707953699212264
0.00654369470556352
0.0059290279163909
0.00524496753222926
0.00450328487668111
0.00371540667541215
0.00289261643101902
0.0020522792859232
0.00123038240550002
0.000503427632081584
5.68803169580412e-05
0.00811639268886427
0.00778919592735876
0.00738960850849723
0.00691194661232908
0.00635711801688113
0.00573239599532706
0.00504777539013167
0.00431387892952953
0.00354182723570113
0.00274333347057833
0.00193331451699183
0.0011430930650999
0.000451605403096944
4.4427877428026e-05
7.61408495761742e-05
0.000624451161772529
7.75207385130297e-05
0.00149315901674963
0.00063262040612326
7.91651887605633e-05
0.00245924992101714
0.0015023460535755
0.000642847681100136
8.00441477215866e-05
0.00340927757995262
0.00246270893882608
0.00151271888394391
0.00064806029876878
7.96101748133904e-05
0.00428960678032341
0.00340295863581033
0.00246297810902117
0.00151495842174259
0.0006443744847575
7.82166830286207e-05
0.00507947442330755
0.00427204700223767
0.003387690125208
0.00245206477692913
0.00150307885381658
0.000633224905094108
7.6418514374685e-05
0.00577501308098437
0.00505132316743207
0.00423955567681899
0.00335730049765506
0.00242443229512616
0.00147786388196435
0.000617913235437237
7.44537448849744e-05
0.00637989727156717
0.00573707695523001
0.00500262199752849
0.00418748659894224
0.00330774665913455
0.00237990687560397
0.00144310250090971
0.000600255669311302
7.22765197053116e-05
0.00689988494488414
0.00633190565202874
0.00567361662815466
0.00492948988434684
0.00411308232653047
0.00323847655762073
0.0023209927002638
0.00140142978185882
0.000580295700731703
6.95448806327608e-05
0.00734042419670912
0.00684050935661071
0.00625398345493457
0.00558058102633235
0.00482976824430984
0.00401571008938995
0.00315051229464912
0.00224962225407076
0.00135418102240704
0.000558855895511951
8.12900997912787e-05
0.00770604250280148
0.00726767845206175
0.00674713249531553
0.00614129357502961
0.00545578981313015
0.0047028298095711
0.00389531903589391
0.00304441601349504
0.0021664926191302
0.00130279593525061
0.000551706746949121
7.09423655117271e-05
0.00800040856751674
0.00761756337997162
0.00715699056647551
0.00661393628936465
0.00599127357954865
0.00529865941462479
0.00454811425902838
0.00375126867297674
0.00291959619715275
0.00207101472402023
0.00124323048933944
0.000511288126235791
5.85960653898226e-05
0.00822646645063
0.00789354292860318
0.00748718173134967
0.00700161119141965
0.00643783881517048
0.00580339059590267
0.00510856143775668
0.00436425440899902
0.0035818434246546
0.00277343861885638
0.00195484921965315
0.00115762018285233
0.000459574546425645
4.60425523645022e-05
0.00838638366340992
0.00809812630666631
0.00774057663611303
0.00730726111592525
0.00679786844151803
0.0062182751281352
0.00557712165499729
0.00488382087561168
0.00414881393920256
0.0033838182427828
0.00260077566396654
0.00181409653208872
0.00105534876852449
0.000402251743167437
3.40092059814121e-05
7.62097615998347e-05
0.00062544142953413
7.7608987253857e-05
0.00149576157456102
0.000633794244369565
7.927464083313e-05
0.00246406901146044
0.00150540302254525
0.000644229045377114
8.01759835231579e-05
0.00341697854842171
0.00246836821494485
0.00151630833863952
0.000649669365001765
7.97647592865373e-05
0.00430096675895631
0.0034120094489274
0.00246961487835252
0.00151914743214785
0.000646227157505482
7.83948435573281e-05
0.0050954390888823
0.00428541647553217
0.00339830408705655
0.00245980724020623
0.00150791427575722
0.000635322217068351
7.66211714131483e-05
0.00579673059659499
0.0050701321831167
0.00425523862250458
0.00336968155906063
0.00243338538265563
0.00148337742410463
0.000620280557470483
7.46835074148557e-05
0.00640874492898298
0.00576267433532713
0.00502468637471866
0.00420577418081877
0.00332207446057309
0.00239015958570659
0.00144933364101448
0.000603013942994118
7.25803316454294e-05
0.00693748261667851
0.00636589062284777
0.00570363031426004
0.00495519938796598
0.00413423541565672
0.00325490826772834
0.00233261631919981
0.00140839496575849
0.000583552269141882
6.99375681843168e-05
0.00738864295443733
0.00688474753670803
0.00629379003967996
0.00561551296178595
0.00485947015203859
0.0040399543064023
0.00316917141861765
0.0022626122028799
0.00136150875422816
0.000561887754024483
8.20080588924796e-05
0.00776701117569498
0.00732431176447175
0.006798866876136
0.00618755265558213
0.00549608119332555
0.00473682039573605
0.00392283292674502
0.00306536935032158
0.0021807637427247
0.00130982761309788
0.00055632749684289
7.23206110015315e-05
0.00807651358996049
0.00768901655170293
0.00722309255433385
0.00667394895248298
0.00604453422010685
0.00534468679661982
0.00458663333240824
0.00378217628860777
0.00294288402056784
0.0020862612504955
0.00125308541342715
0.000517736403309529
6.00980810907115e-05
0.00832037356066616
0.00798255098641521
0.00757042929920833
0.00707816174860793
0.00650682103329546
0.00586413483702405
0.00516064866070415
0.00440750033216343
0.00361628380161236
0.0027994564909352
0.00197369182731154
0.00117078415620638
0.000467348142958634
4.75159213628143e-05
0.00850118592978149
0.00820789803605153
0.00784424634082686
0.00740364079474043
0.00688583477275897
0.00629692870368897
0.00564585455133378
0.00494231556804154
0.00419703905492196
0.00342208103058828
0.00262988820426073
0.00183520921168791
0.00106937263396338
0.000409650960304458
3.53026635066131e-05
0.00862078396550871
0.00836725021174172
0.00804709998010896
0.00765325226884936
0.0071844568434817
0.00664552539191829
0.00604398358040123
0.00538805922304298
0.00468699203282016
0.00395182809296181
0.00319509383963324
0.00242947240090247
0.00167084904105117
0.000951919760435857
0.000346424670869862
2.3823472243415e-05
7.62610435887967e-05
0.00062625998365698
7.76787371144268e-05
0.00149795034652713
0.00063480966989113
7.9364690770276e-05
0.00246816092437148
0.00150802575482641
0.000645443422726438
8.02869446479774e-05
0.00342351225308334
0.00247320426252637
0.00151940812229982
0.000651087592447106
7.98964997160641e-05
0.00431057935988766
0.00341971348619944
0.00247530504999767
0.0015227733885139
0.000647848862978397
7.85478607683177e-05
0.00510892020210767
0.00429675936968731
0.0034073604300028
0.00246645898428742
0.00151210504186678
0.000637156388894302
7.67964817717188e-05
0.00581505287079716
0.0050860581177718
0.00426857675301857
0.00338026708102977
0.00244108838621186
0.00148815462136041
0.000622319687146203
7.48758954021761e-05
0.00643308553002151
0.00578433239321971
0.0050434200102588
0.00422136456676404
0.00333434626172942
0.00239898651325602
0.00145471608360991
0.000605428580848901
7.28617677132938e-05
0.00696924028305341
0.00639465656619689
0.00572910289669647
0.00497708892983364
0.00415231084248292
0.00326900434942452
0.00234262788183617
0.00141443490568178
0.000586896579811201
7.1080958935955e-05
0.00742944618447025
0.00692223775852135
0.00632759279439598
0.00564525071447015
0.00488482869109701
0.00406071971852261
0.00318520637666006
0.00227383742549009
0.00136819707523204
0.000565994874118334
8.21884242266356e-05
0.00781872162114079
0.00737239230665372
0.00684285240741168
0.00622695810017727
0.00553048208506505
0.00476591862061126
0.00394645648568846
0.00308341298757778
0.00219310760912814
0.00131662684205287
0.000560315655413906
7.34251792959696e-05
0.00814122935061789
0.0077498087706775
0.00727938497124053
0.00672512518714279
0.00609003176390864
0.00538408783584509
0.00461968960905525
0.00380877789971073
0.00296298817592856
0.00209978696380103
0.00126187568314067
0.00052322480709694
6.13902845887121e-05
0.00840042963102205
0.00805843504275269
0.00764143327810979
0.00714350942957507
0.0065657797508731
0.005916132070039
0.00520531845605407
0.00444467213533639
0.00364595785917379
0.00282177293658982
0.00198963826513831
0.00118195198793728
0.000473940468808228
4.88142913215899e-05
0.00859916638742934
0.0083015369428564
0.00793267856808101
0.00748589265727047
0.00696096453385546
0.00636417088498332
0.005704685945124
0.00499245544277497
0.00423844568473685
0.00345500190608456
0.00265505146547024
0.00185375798230193
0.00108225762377985
0.000417135497562674
3.65126387842777e-05
0.00873967541160631
0.00848173566967931
0.00815614581087449
0.00775562529887775
0.00727895651405642
0.00673115068268074
0.00612000949316631
0.00545404818808695
0.00474279451344531
0.00399761096762591
0.00323140733350791
0.00245720546029543
0.00169086293539747
0.000964965286654245
0.000353102179948106
2.47972915736995e-05
0.00882325643177096
0.00860085886023192
0.00831406335971665
0.00795531163566431
0.00752263714986457
0.00702001012012882
0.00645402342834882
0.00583184118389206
0.00516150164524621
0.00445283361205213
0.00371785760353237
0.00297022171774061
0.00222442265054481
0.00149934330779021
0.000829179488982466
0.000282083261057457
1.42358517862577e-05
7.62986802174367e-05
0.000626873105456409
7.77294363449572e-05
0.0014997344878159
0.000635663012514997
7.94353065950717e-05
0.00247158948895165
0.0015102381633442
0.000646498961643429
8.03777187995467e-05
0.0034290232812129
0.00247731033648197
0.0015220709178961
0.000652337557659362
8.00072288673579e-05
0.00431868499981218
0.00342624929081454
0.00248016909494448
0.00152591020050818
0.000649276050672438
7.86784216921949e-05
0.00512026933478676
0.00430635765540496
0.00341507103125899
0.00247216551968418
0.00151573785338145
0.000638775234293905
7.69476780277234e-05
0.00583046194376408
0.00509950678957923
0.0042798959009377
0.00338930320819885
0.00244771202586553
0.00149230496220591
0.000624116366875714
7.5047638921904e-05
0.00645355602534542
0.00580260430155658
0.00505928616182838
0.00423462943050665
0.00334484398612366
0.0024065866179361
0.00145937827782505
0.000607206437909548
7.29631717927455e-05
0.00699597340705309
0.00641892859467699
0.00575066111334824
0.0049956817003551
0.00416772756054503
0.0032810830900904
0.00235124794351605
0.00141973958617317
0.000590278487008858
8.60490559592488e-05
0.00746385294691867
0.00695390543985613
0.00635621182661196
0.0056704993430239
0.00490642930712902
0.0040784720922987
0.00319896719624804
0.00228350534518533
0.0013743603697181
0.000572024096395061
8.25852656930668e-05
0.00786242707658963
0.00741307860970126
0.00688013719362567
0.00626043327033651
0.00555978100741471
0.004790773654492
0.00396669993164393
0.00309892841411815
0.00220382304577136
0.00132328159611109
0.000563538601621556
7.42885982274957e-05
0.00819607592123007
0.00780136903623791
0.00732718588770569
0.00676865186589735
0.00612880546776963
0.00541774400302054
0.00464800152130219
0.00383162762805901
0.0029802998491684
0.00211150789808994
0.00126927074755224
0.000527728734050678
6.24902668451595e-05
0.00846847881660416
0.00812296014123188
0.00770185227819362
0.00719917690360674
0.00661607797823037
0.0059605702423256
0.00524357494842682
0.00447658576208498
0.00367150100311841
0.00284103793879259
0.00200336689343651
0.00119147042822144
0.000479412578789246
4.99370823712681e-05
0.00868269948273476
0.00838135576488015
0.00800807571482925
0.00755606512210768
0.00702512394652579
0.00642166726322896
0.0057550678936529
0.00503547354307541
0.00427404591529469
0.00348334634777674
0.00267670635244091
0.00186974929319175
0.001093414459533
0.000423511353321223
3.75873073298467e-05
0.00884120866956379
0.0085794316993218
0.00824916701521282
0.00784297487737025
0.00735963527559073
0.00680431126418271
0.0061850323728192
0.0055105547922547
0.00479064631143366
0.00403693594991003
0.00326267811658225
0.00248124913777222
0.00170859175670498
0.000977202919398682
0.000360225774312979
2.57426056346378e-05
0.00894582618061816
0.0087194317218096
0.00842778360143184
0.00806296631008708
0.00762296197586772
0.00711191156489503
0.00653666924873183
0.00590467719024554
0.00522425453895293
0.00450553011155963
0.00376085731050184
0.00300421233802634
0.00225023728688479
0.00151772779647371
0.000840947872361851
0.000287943704471512
1.49098198331349e-05
0.00867954483753672
0.00899744937132901
0.00880265054711086
0.0085457518496128
0.00821831218918824
0.00781775000830467
0.00734740194099549
0.00681307879254161
0.00622098028504133
0.00557800782982764
0.00489272801734258
0.00417594210179815
0.00344085740131516
0.00270275323774904
0.00197897969401717
0.00129265088922517
0.000680937354404616
0.000207414187230993
6.37189321581394e-06
7.63322721236922e-05
0.000627220512549933
7.77657036483478e-05
0.00150110314425992
0.000636318754336551
7.94856698262733e-05
0.00247439572444139
0.00151204266881113
0.000647385260408103
8.04479172045371e-05
0.00343362609173427
0.00248074969118117
0.00152431893630628
0.0006534252291871
8.0097255428586e-05
0.00432548394341842
0.00343176166885716
0.00248429908006164
0.00152860710811407
0.000650538183933524
7.87877811429021e-05
0.00512978759295106
0.00431445100746294
0.00342161321041536
0.0024770459504904
0.00151888274216934
0.00064020684586057
7.70766040390256e-05
0.00584337628531309
0.00511082888978266
0.0042894762706469
0.00339699973075386
0.00245339922149672
0.00149591496069686
0.00062572319360948
7.51977516521987e-05
0.00647071139423411
0.00581797145748333
0.00507268786711673
0.00424589112168771
0.00335381056899587
0.00241313105991184
0.0014634531160769
0.00060890695526454
7.31266410273641e-05
0.00701839557439484
0.00643934169603837
0.00576885358811457
0.00501143525130456
0.00418085131447382
0.00329142211425694
0.00235867760582705
0.00142409410037082
0.000590498797339076
7.0977765161727e-05
0.007492758263791
0.00698056315724537
0.00638036648389604
0.00569187722984982
0.00492478557993225
0.00409362068036385
0.00321076409684738
0.0022918769908638
0.00137994197407706
0.000588319514577618
8.28505300333813e-05
0.00789922873934095
0.00744738718602068
0.00691163973661688
0.00628878696305766
0.00558466907709471
0.00481195573554877
0.00398401390140322
0.00311224493735982
0.00221316917346331
0.00133012048552238
0.0005661668425123
7.507045467381e-05
0.00824238717940239
0.0078449476790098
0.00736764529140082
0.00680556254744057
0.00616175958869712
0.00544642259923686
0.00467219655044983
0.00385121590980625
0.00299518591679885
0.0021217558116267
0.00127543374624656
0.000531210871097207
6.34295042767401e-05
0.00852611735893574
0.00817764465615019
0.00775310669716595
0.00724646460832905
0.00665887735091399
0.00599845932809787
0.00527626941531525
0.00450393110508867
0.00369344318629123
0.00285759337961015
0.00201500989125031
0.00119940808440039
0.000483924475946612
5.0902433053977e-05
0.00875368855915325
0.0084492008771721
0.00807219646137175
0.00761579557126636
0.00707980240503382
0.00647074101292249
0.00579814637128484
0.00507233299642066
0.00430462071069928
0.00350773835700827
0.00269533212003765
0.00188345874761397
0.00110289659233431
0.000428747912655755
3.85144533299982e-05
0.00892778103069923
0.00866271288566693
0.00832846353076485
0.00791746786395902
0.00742849250213575
0.00686681723735454
0.00624065762350154
0.00555896994445197
0.00483172088973282
0.00407075696870761
0.00328962105326253
0.00250202135076926
0.00172400216395132
0.000987875897783545
0.00036632016218273
2.65873603898918e-05
0.0090504783820945
0.00882066794778482
0.00852482478234766
0.00815482472828369
0.00770859691385073
0.00719040529070114
0.00660731557991208
0.00596700215524905
0.00527801944466147
0.00455074756158008
0.00379782844311198
0.00303354597727453
0.00227273602571737
0.00153419209433488
0.000852311049630747
0.000294694125171967
1.55925201185775e-05
0.00912321467063162
0.00892488468459713
0.00866353748290393
0.00833055927957338
0.00792320341418179
0.00744489149008066
0.00690167091199696
0.00630000946809026
0.00564708078593403
0.00495173676103002
0.00422508533368753
0.00348064415400311
0.00273393206528376
0.00200233986781125
0.00130897756174899
0.000691232413185086
0.000212466444232892
6.77242153483994e-06
0.00885019845981192
0.00865941936306993
0.00914662103870514
0.00897626666076148
0.00874589025238982
0.00844651531794215
0.00807462125027895
0.00763296296018311
0.00712674960288188
0.00656132290742875
0.00594250857526433
0.00527763765509528
0.00457616602590514
0.00385001388266199
0.00311379967303427
0.00238494000576962
0.00168456700271462
0.0010420074975647
0.000501095957441559
0.000123576418543316
1.59534861149938e-06
0.000627326079421043
7.77979771215304e-05
0.00150205716910226
0.000636663521725723
7.95200925819539e-05
0.00247662384094643
0.00151342454904561
0.000648081425186193
8.04967815488494e-05
0.00343741607194054
0.00248356396260763
0.00152614763494052
0.000654335358684827
8.01657659149977e-05
0.00433114400272961
0.00343636520461786
0.00248775654844638
0.00153088238092082
0.000651639151357517
7.88761084699062e-05
0.00513773148554163
0.00432123979711754
0.00342713066666539
0.00248118958028323
0.00152158775858635
0.000641466758579493
7.7184268201252e-05
0.00585415509492611
0.00512032481423232
0.00429755572647969
0.00340353154370129
0.00245826514947339
0.00149904527946049
0.000627152309510364
7.53251931769179e-05
0.00648503194804157
0.00583085090453781
0.00508397328327538
0.00425542648026052
0.00336145196355151
0.00241875837105003
0.00146701935514708
0.000610517873753714
7.3276784545765e-05
0.00703712899949408
0.00645644923002248
0.00578415819062158
0.00502474758210946
0.00419199894068227
0.00330026039805152
0.00236509389617749
0.00142800537170494
0.000591911770448039
7.1063129599364e-05
0.00751694653294038
0.00700292244540009
0.00640068654091905
0.00570992554346237
0.00494034664474766
0.00410652322398394
0.00322087029216434
0.00229902019656225
0.00138321866352076
0.000574201880727585
8.1983435234221e-05
0.00793009412413619
0.00747621054968222
0.00693816587774935
0.00631272841181819
0.0056057524153247
0.00482996544543555
0.00399879582780748
0.00312367998688892
0.00222128889545351
0.0013383583468948
0.000568486187105671
7.57423477009333e-05
0.00828133764448725
0.00788164299616616
0.00740177170693617
0.00683676267814965
0.0061896860890252
0.00547079616822909
0.00469282626668719
0.00386797521061618
0.00300798705956294
0.00213081361056664
0.0012807808591224
0.000534038848006321
6.42478853000533e-05
0.00857474844375846
0.00822381939187618
0.00779643745829054
0.00728650615798955
0.00669518918069114
0.00603067802168386
0.00530414240922064
0.00452731067590894
0.00371225425085353
0.00287181900155322
0.00202485912494855
0.00120591670989385
0.000487629383830195
5.17341267377505e-05
0.00881378980326857
0.00850666585910021
0.0081265497936865
0.00766648496299562
0.00712627178321829
0.00651251951345428