/*--------------------------------*- C++ -*----------------------------------*\
  =========                 |
  \\      /  F ield         | OpenFOAM: The Open Source CFD Toolbox
   \\    /   O peration     | Website:  https://openfoam.org
    \\  /    A nd           | Version:  12
     \\/     M anipulation  |
\*---------------------------------------------------------------------------*/
/*   Windows 32 and 64 bit porting by blueCAPE: http://www.bluecape.com.pt   *\
|  Based on Windows porting (2.0.x v4) by Symscape: http://www.symscape.com   |
\*---------------------------------------------------------------------------*/
FoamFile
{
    format      ascii;
    class       surfaceScalarField;
    location    "200";
    object      phi;
}
// * * * * * * * * * * * * * * * * * * * * * * * * * * * * * * * * * * * * * //

dimensions      [0 3 -1 0 0 0 0];

internalField   nonuniform List<scalar> 
28900
(
-1.15428776492509e-05
2.41571595096474e-07
4.62698676156684e-08
-1.18474831029907e-05
2.31926315123225e-07
7.26747381368036e-08
-2.46847297869407e-06
3.26955555431391e-07
9.80372914617494e-09
-1.35293655838768e-05
2.97293235110484e-07
1.36800553747453e-07
-1.21505460118059e-05
2.14670126769229e-07
8.83873802752651e-08
-2.56866232100362e-06
3.15331864251048e-07
1.67791087595322e-08
-1.38973080927773e-05
2.82335844920717e-07
1.58267262341246e-07
-1.24749656811968e-06
3.95169233777258e-07
8.2018678953738e-10
-3.45513378908696e-06
4.05913041884718e-07
1.51561194047607e-08
-1.51007922395771e-05
3.48017710845774e-07
2.23043130535973e-07
-1.24405198284555e-05
2.02802867276783e-07
8.71652948295374e-08
-2.6753507135652e-06
3.01767439506827e-07
1.95858666605004e-08
-1.42328043024935e-05
2.5226691997173e-07
1.71598846370513e-07
-1.32134283354455e-06
3.85247628989932e-07
3.92972919795676e-09
-3.56905687236114e-06
3.89560672954345e-07
2.3468895250228e-08
-1.5513442878314e-05
3.32109064558194e-07
2.38795717221714e-07
-9.36989676168777e-07
4.58410410806657e-07
-1.36823907709248e-09
-1.78518569720705e-06
4.88590907129849e-07
-1.01218193467691e-09
-4.04402463993214e-06
4.75470220373257e-07
1.38095507493965e-08
-1.68227235874629e-05
3.98715785076169e-07
3.01191950772606e-07
-1.27176909435539e-05
1.94812251961658e-07
8.23519389786957e-08
-2.78173381253776e-06
2.90381946882133e-07
1.87990106419809e-08
-1.45515030210453e-05
2.34821961831594e-07
1.71026339766417e-07
-1.39829067203685e-06
3.74271870020633e-07
4.44251228507776e-09
-3.69446833347292e-06
3.69708809315826e-07
2.75479730875455e-08
-1.58845874569779e-05
2.93260257626277e-07
2.49466878743884e-07
-1.0025765773746e-06
4.506482954041e-07
1.85514239263264e-10
-1.86948494730097e-06
4.74675942213241e-07
3.11116721029639e-09
-4.16748427175005e-06
4.57083955183432e-07
2.1944735294974e-08
-1.7283881016618e-05
3.81770086258616e-07
3.1817049908596e-07
-8.37903501243188e-07
5.18719878706365e-07
-1.83450581223828e-09
-1.32388113086039e-06
5.6819981395115e-07
-8.42391074530359e-09
-2.13429726820963e-06
5.77088754672863e-07
-1.20340711024221e-08
-4.70542549425895e-06
5.43228843905175e-07
1.08880467028452e-08
-1.80958504985082e-05
4.33626624636879e-07
3.77942114160697e-07
-1.29844179000624e-05
1.8785973405335e-07
7.88635609032489e-08
-2.88532731883157e-06
2.80717360039683e-07
1.76827556420635e-08
-1.48594611570359e-05
2.24528255149292e-07
1.6576679115635e-07
-1.47560378387436e-06
3.6353018459575e-07
4.16410524840911e-09
-3.82274874072957e-06
3.53972243849968e-07
2.79213389110898e-08
-1.62345388297377e-05
2.70352472095143e-07
2.50605558512065e-07
-1.07009501996548e-06
4.41203962227863e-07
5.85766753664187e-10
-1.95960986838719e-06
4.59418006096588e-07
4.85543218506523e-09
-4.30654498912852e-06
4.31733241832546e-07
2.81285390728696e-08
-1.77002357494713e-05
3.35375678353778e-07
3.30434462931998e-07
-8.99058822933038e-07
5.12531303406756e-07
-7.28196757578883e-10
-1.3997890401963e-06
5.55835683972424e-07
-5.06810352877025e-09
-2.22720129035087e-06
5.60203164558635e-07
-7.10678631012353e-09
-4.84381386874317e-06
5.22575354095529e-07
1.95210931006619e-08
-1.85942273742343e-05
4.16529047013593e-07
4.00003941872848e-07
-8.13364277703115e-07
5.77373861901303e-07
-2.66712935631504e-09
-1.14032216917762e-06
6.41226925703571e-07
-7.3754885239249e-09
-1.58258926435978e-06
6.6835816407866e-07
-1.6935086777872e-08
-2.48207004986991e-06
6.57430765144265e-07
-2.54917650818437e-08
-5.16753564467454e-06
5.84874575272466e-07
1.21386701147793e-08
-1.87619923663664e-05
4.53753892737877e-07
4.45933289509691e-07
-1.32423671464363e-05
1.80843205635149e-07
7.70982328518631e-08
-2.98599834266735e-06
2.7160844648259e-07
1.69175450258531e-08
-1.51582927765409e-05
2.16483257417705e-07
1.61199904694305e-07
-1.55192686994436e-06
3.52858184646217e-07
4.1811626860108e-09
-3.94916555333117e-06
3.41230177572467e-07
2.73914414154448e-08
-1.65731664195311e-05
2.5755043382179e-07
2.46831243465657e-07
-1.138030855367e-06
4.30747713015403e-07
7.17425857906239e-10
-2.05198686243824e-06
4.45033629962818e-07
5.47662248880607e-09
-4.4510687162455e-06
4.1213695230083e-07
3.0655482975551e-08
-1.80909300430746e-05
3.07652464400656e-07
3.3363582343465e-07
-9.61527162729074e-07
5.04103196353825e-07
-4.31385058564871e-10
-1.47859041002758e-06
5.42468495723998e-07
-3.66559799086477e-09
-2.32883418134157e-06
5.41410665729306e-07
-3.19244323556349e-09
-5.00022832135664e-06
4.92115718760249e-07
2.77943321798386e-08
-1.90472791238026e-05
3.64330395113288e-07
4.19142847812757e-07
-8.71346918561153e-07
5.72233763814778e-07
-1.72008792668642e-09
-1.21029311089461e-06
6.3050548014952e-07
-5.42840036594749e-09
-1.66802495417631e-06
6.53719137535618e-07
-1.31493964534152e-08
-2.58492640000734e-06
6.38099200776533e-07
-1.97780788672384e-08
-5.31701604282703e-06
5.62815823457197e-07
2.27040545031459e-08
-1.92798706205857e-05
4.36219445027914e-07
4.81651475791598e-07
-8.22676689647948e-07
6.34433775298891e-07
-3.01398557815409e-09
-1.06759826372672e-06
7.08493908354039e-07
-6.11317828473459e-09
-1.34355334135013e-06
7.52888259764817e-07
-1.48574504419989e-08
-1.81902720421062e-06
7.58736383141643e-07
-2.64271111734007e-08
-2.67376487273698e-06
7.00548153518739e-07
-3.49927852369992e-08
-5.42041278118897e-06
6.03600842536048e-07
1.94917371577367e-08
-1.89694633710003e-05
4.68105579520584e-07
4.88983290511347e-07
-1.34922625290412e-05
1.73846209673539e-07
7.60442891092201e-08
-3.08396843210419e-06
2.62365517984655e-07
1.64433253892852e-08
-1.54484497123482e-05
2.08797453171802e-07
1.5844123478485e-07
-1.62671555554569e-06
3.41987973061371e-07
4.40800152259195e-09
-4.07259794262746e-06
3.29694061064208e-07
2.71308784793442e-08
-1.69027058586667e-05
2.48167124386308e-07
2.42562812428146e-07
-1.20557925482083e-06
4.19400366375916e-07
1.00565279592652e-09
-2.14390705469986e-06
4.31194635721404e-07
6.13418849405011e-09
-4.59458452237591e-06
3.96866937357381e-07
3.1583757185356e-08
-1.84666232969232e-05
2.92369082751489e-07
3.3013653191024e-07
-1.02437684668111e-06
4.93845107755871e-07
-2.48317950600112e-10
-1.55860894733915e-06
5.28578699664073e-07
-2.8107949326492e-09
-2.43472760085029e-06
5.24222889584651e-07
-7.1918512492974e-10
-5.16299903029058e-06
4.68764028333354e-07
3.23068521953343e-08
-1.94718926612182e-05
3.3333696254612e-07
4.24890039304594e-07
-9.30263965563388e-07
5.64436746404217e-07
-1.41692170819617e-09
-1.28216654893442e-06
6.18205102763832e-07
-4.29584361982898e-09
-1.75777575439099e-06
6.37723217080488e-07
-1.02297313946777e-08
-2.6980747883133e-06
6.16030232263111e-07
-1.39621970854009e-08
-5.48700172360599e-06
5.28703973205388e-07
3.33973554436281e-08
-1.97598989510592e-05
3.7911012963985e-07
5.20046587436422e-07
-8.78265154168191e-07
6.29989858686581e-07
-2.16799510835678e-09
-1.13333516058547e-06
6.98877523855232e-07
-4.3561670871716e-09
-1.42287839042462e-06
7.39556843887508e-07
-1.19425121571834e-08
-1.91358671478657e-06
7.41624604479651e-07
-2.21179565928909e-08
-2.78254427616322e-06
6.8016089625913e-07
-2.83475259947082e-08
-5.57564825710447e-06
5.80065219269452e-07
3.40819050176754e-08
-1.94969895841324e-05
4.47550188716339e-07
5.61615558922298e-07
-8.51868736189187e-07
6.89724184234349e-07
-2.59775608626795e-09
-1.05107358595874e-06
7.71547498706991e-07
-4.88203130497756e-09
-1.24302843107496e-06
8.30107302333069e-07
-1.06813618624871e-08
-1.52063129134563e-06
8.49442417297132e-07
-2.04587256170116e-08
-1.92611473508961e-06
8.03156360035011e-07
-3.27159687929495e-08
-2.73428718508707e-06
7.1308695853261e-07
-3.73041313195183e-08
-5.54514154334799e-06
6.12698953906642e-07
3.38744324863496e-08
-1.88685406668353e-05
4.99801412922524e-07
6.46743927314803e-07
-1.37344086875622e-05
1.66825528749254e-07
7.53147139711942e-08
-3.17923969838846e-06
2.5284100522259e-07
1.62714944353549e-08
-1.57301909789848e-05
2.0085736468863e-07
1.56911623131893e-07
-1.69977378191948e-06
3.30699526608126e-07
4.72285744617542e-09
-4.19291735336336e-06
3.18272876854931e-07
2.72803798573906e-08
-1.72236059158876e-05
2.39415114515105e-07
2.3991789318097e-07
-1.27222507184969e-06
4.0724615720087e-07
1.3870350988712e-09
-2.23420980980004e-06
4.17470371622185e-07
6.93210155200364e-09
-4.7351681888303e-06
3.83474953977077e-07
3.2399234966269e-08
-1.88318020620565e-05
2.81734769307051e-07
3.25990140880242e-07
-1.08707315027289e-06
4.82018938719423e-07
7.7308920521679e-11
-1.6385421864442e-06
5.13916876088225e-07
-1.78516395687434e-09
-2.5408657802353e-06
5.07912019493374e-07
1.22453320377352e-09
-5.32468263192045e-06
4.51030986174475e-07
3.4598008412011e-08
-1.98776111663352e-05
3.16860432888455e-07
4.18982653897598e-07
-9.89503709790941e-07
5.54255297746192e-07
-1.17100851368571e-09
-1.35492969444018e-06
6.04482695442348e-07
-3.39039132276518e-09
-1.84982969333765e-06
6.21429547496438e-07
-7.96583786728147e-09
-2.81657717711652e-06
5.96173110769976e-07
-9.62991840446872e-09
-5.66347762357304e-06
5.03018491735724e-07
3.90917496884994e-08
-2.02079350044824e-05
3.45598900603577e-07
5.27305392562776e-07
-9.34519510640885e-07
6.22548655012246e-07
-1.8578124078973e-09
-1.20045679396985e-06
6.87257970215969e-07
-3.34927883490841e-09
-1.50465548316347e-06
7.24825461405019e-07
-9.6225475502682e-09
-2.01312865515135e-06
7.23121539341857e-07
-1.77810278387144e-08
-2.90297396857857e-06
6.56235443745779e-07
-2.10674678811058e-08
-5.75529853017183e-06
5.43349777734039e-07
4.87988656968314e-08
-2.00082604453408e-05
3.84030613813376e-07
6.4726725104371e-07
-9.05740389551511e-07
6.85725666901069e-07
-1.86434198644668e-09
-1.11377593313551e-06
7.62702610837505e-07
-3.29135197024034e-09
-1.31749289743001e-06
8.17844540373706e-07
-8.18049497668529e-09
-1.60800460462903e-06
8.34006610467405e-07
-1.69526913815609e-08
-2.02550443710893e-06
7.85320566500664e-07
-2.78901689432883e-08
-2.84518557521106e-06
6.9244510767497e-07
-2.98330994746446e-08
-5.70363543702616e-06
5.86477078997756e-07
5.36399255289663e-08
-1.94915742591525e-05
4.63642777914498e-07
7.20997843461739e-07
-8.95187139711204e-07
7.43404090199889e-07
-1.7781212719895e-09
-1.06708933269165e-06
8.31795577107353e-07
-3.44996939876656e-09
-1.21716748508119e-06
9.01561525863712e-07
-6.63815166645718e-09
-1.39165318741939e-06
9.32027236033078e-07
-1.31639519683284e-08
-1.58954558513507e-06
8.95040095150925e-07
-2.32095723462077e-08
-1.93346221599322e-06
8.11371977087651e-07
-3.39012410103908e-08
-2.73321278693213e-06
7.1211046763112e-07
-3.08060819976939e-08
-5.60027559551464e-06
6.23509326860187e-07
8.5873933888479e-08
-1.85000515332298e-05
5.31234813214313e-07
1.03804601261414e-06
-1.39689362858212e-05
1.59739867017382e-07
7.47829312705128e-08
-3.27177211075817e-06
2.43062542504274e-07
1.62912725293284e-08
-1.60034909429038e-05
1.92690166996451e-07
1.55909851811901e-07
-1.77098622900763e-06
3.18957616789858e-07
5.09517102228436e-09
-4.31014483611721e-06
3.06602030196918e-07
2.77466033598302e-08
-1.75358334424339e-05
2.30405607628413e-07
2.38720814509017e-07
-1.33765479448453e-06
3.94334999167913e-07
1.79360556139966e-09
-2.32252000821675e-06
4.03482169967405e-07
7.82212578133587e-09
-4.87243812599944e-06
3.70374297414767e-07
3.35861222451542e-08
-1.91879324460209e-05
2.71990620041602e-07
3.24047617008229e-07
-1.14919520795621e-06
4.6888556037612e-07
4.8234604491883e-10
-1.71756743410825e-06
4.98513613486676e-07
-6.32742636037735e-10
-2.64542015986662e-06
4.91885053896365e-07
3.07368095182529e-09
-5.48314583061168e-06
4.35895722629814e-07
3.66928832146115e-08
-2.02699537098977e-05
3.05737563507366e-07
4.12577335611529e-07
-1.04869467989939e-06
5.42004716561249e-07
-7.95062524946351e-10
-1.42775482183739e-06
5.89227740965039e-07
-2.40984962888991e-09
-1.94225346669731e-06
6.04404713937937e-07
-5.85576485579295e-09
-2.93571114652615e-06
5.77615809204838e-07
-6.22978038334278e-09
-5.83789226732335e-06
4.84038601614653e-07
4.18258638681274e-08
-2.06300023146675e-05
3.29679075840789e-07
5.1135619168706e-07
-9.90995171064652e-07
6.12311627526948e-07
-1.58086943510418e-09
-1.26824864225899e-06
6.73611258617342e-07
-2.50854167294717e-09
-1.58785434292118e-06
7.08860199283435e-07
-7.623541380053e-09
-2.11558410032979e-06
7.04670300561358e-07
-1.40096149016596e-08
-3.02918246591391e-06
6.35032459150761e-07
-1.54396397592895e-08
-5.94111665247877e-06
5.16682563589225e-07
5.38214149044876e-08
-2.04721926195388e-05
3.49805269119302e-07
6.41413541982304e-07
-9.60066775822723e-07
6.78442928525466e-07
-1.56820743544391e-09
-1.17753942807364e-06
7.51519672897367e-07
-2.35694662606566e-09
-1.39368852096662e-06
8.03880642587669e-07
-6.20999507686003e-09
-1.69822500872986e-06
8.17212605544876e-07
-1.34953101623328e-08
-2.13042447814039e-06
7.65838305090594e-07
-2.24665088062515e-08
-2.96940511429892e-06
6.67806122612289e-07
-2.13081891864102e-08
-5.89373303791997e-06
5.47059259757471e-07
7.58594119684169e-08
-2.00577157924213e-05
3.82596945722758e-07
8.30792744344685e-07
-9.4799913877191e-07
7.39671472804336e-07
-1.13402895610576e-09
-1.12775479268297e-06
8.23517579256937e-07
-2.01435324888926e-09
-1.28831279470852e-06
8.90096610244378e-07
-4.39904892647839e-09
-1.47353618091315e-06
9.17833881472574e-07
-1.01258285207136e-08
-1.68112908522467e-06
8.79182003303657e-07
-1.92321451917495e-08
-2.03423519589874e-06
7.9403534450736e-07
-2.87100597410029e-08
-2.84450100690166e-06
6.91390031588518e-07
-2.34624734273544e-08
-5.77282519623066e-06
5.93169811992772e-07
9.66533262359019e-08
-1.94184783500408e-05
4.91124534273485e-07
1.14828154238476e-06
-9.49212111624306e-07
7.96007055694529e-07
-9.70521484536235e-10
-1.10449629346121e-06
8.90465174806326e-07
-2.08377200808861e-09
-1.2333356012238e-06
9.69349900720958e-07
-3.46293209494601e-09
-1.35555323025021e-06
1.00925238160707e-06
-6.95979870445758e-09
-1.44481717307808e-06
9.79362122618283e-07
-1.35447001608631e-08
-1.57743174443124e-06
9.00873301069937e-07
-2.26592699936679e-08
-1.89851349135398e-06
8.03720526175039e-07
-2.92892087661949e-08
-2.71472808581811e-06
7.07929425700379e-07
-1.0389243037003e-08
-5.58871902795555e-06
6.31581923324534e-07
1.86693214319128e-07
-1.82769369391026e-05
5.00941741880934e-07
1.18887854269703e-06
-1.41959171731163e-05
1.52534929176918e-07
7.44446936925124e-08
-3.36154201905018e-06
2.33079686655015e-07
1.64257094001142e-08
-1.62682390155552e-05
1.84418830613269e-07
1.5509890405032e-07
-1.8402591971483e-06
3.06836611690934e-07
5.49784431182886e-09
-4.42420869879404e-06
2.94658897708698e-07
2.83793423108218e-08
-1.78389955905735e-05
2.21094079507461e-07
2.37964717498327e-07
-1.40166674879935e-06
3.80769590062074e-07
2.19929745810774e-09
-2.40868605500635e-06
3.89098827725956e-07
8.76150881114006e-09
-5.0063488957979e-06
3.56987520389622e-07
3.50666786001857e-08
-1.95351933356783e-05
2.61877110791956e-07
3.24091108230991e-07
-1.21042786762505e-06
4.54659372650775e-07
9.07703348714429e-10
-1.7952410970061e-06
4.82393684205591e-07
5.53943170094398e-10
-2.74779426437475e-06
4.75621828047723e-07
4.94505115662895e-09
-5.6380579855327e-06
4.21219189153029e-07
3.92609078930258e-08
-2.06532737434362e-05
2.95512413081033e-07
4.11839241085096e-07
-1.10749193679816e-06
5.28035775429599e-07
-3.53404609511911e-10
-1.50002867795408e-06
5.72646421328728e-07
-1.37765685777573e-09
-2.03383907377441e-06
5.86629639107933e-07
-3.79310429438635e-09
-3.05323387857675e-06
5.59587887710258e-07
-3.09625939179908e-09
-6.00844319227146e-06
4.68143337956415e-07
4.48306934697887e-08
-2.10358096168864e-05
3.19511440380454e-07
4.98864103568761e-07
-1.04741976767141e-06
5.99615709981613e-07
-1.18675235063991e-09
-1.33610917897263e-06
6.57872113794252e-07
-1.58003548976043e-09
-1.67141698888636e-06
6.91227547594353e-07
-5.67152898226629e-09
-2.21873215912968e-06
6.85551037638831e-07
-1.06449251705162e-08
-3.15597522448637e-06
6.15538363798615e-07
-1.09397010901062e-08
-6.12241016314544e-06
4.97732931265307e-07
5.50555821604037e-08
-2.08938673190836e-05
3.36828172276584e-07
5.96183196620945e-07
-1.01450074156727e-06
6.68031570068577e-07
-1.28628620117466e-09
-1.24182997776222e-06
7.3786636711374e-07
-1.54639338239936e-09
-1.47092440549649e-06
7.88035326853198e-07
-4.44876127598784e-09
-1.79027059700002e-06
7.99383011398276e-07
-1.02924730568449e-08
-2.23855840306018e-06
7.4664607681027e-07
-1.7491940568861e-08
-3.09942794281126e-06
6.46447694767858e-07
-1.51854130244318e-08
-6.08727204401744e-06
5.20495554549338e-07
7.66619073501958e-08
-2.05197100931714e-05
3.53734493074479e-07
7.49655650067931e-07
-1.00108623863992e-06
7.32365703139076e-07
-8.35858959255008e-10
-1.18925634975465e-06
8.12617687423019e-07
-1.16538722969998e-09
-1.36075853377972e-06
8.76611299617085e-07
-2.64286762455101e-09
-1.55739988734174e-06
9.0205792531285e-07
-7.19308253112408e-09
-1.77580534395137e-06
8.618750323858e-07
-1.4857363656237e-08
-2.14121526097943e-06
7.74779069143997e-07
-2.24615296645229e-08
-2.97157501760083e-06
6.66387036459375e-07
-1.35660568546548e-08
-5.98419125335018e-06
5.47536624187913e-07
1.22273044620606e-07
-1.99690111599507e-05
3.65708195563079e-07
1.01560182473577e-06
-1.00155196003394e-06
7.92360478097048e-07
-3.49304272509126e-10
-1.16387430020242e-06
8.82592787125933e-07
-8.3187859008594e-10
-1.30230201207217e-06
9.58439983428995e-07
-1.39197847838153e-09
-1.43388212195623e-06
9.95962614531019e-07
-4.20005267319667e-09
-1.53065161490944e-06
9.6491119866403e-07
-1.00219458517845e-08
-1.67022527694182e-06
8.85862979564345e-07
-1.82673655703581e-08
-1.99922715410575e-06
7.87417448765297e-07
-2.4026239179051e-08
-2.82631203523764e-06
6.87308445614066e-07
-6.02200393404505e-09
-5.81109891203841e-06
6.03932582897261e-07
2.06217061480628e-07
-1.86558628496115e-05
4.30494553257101e-07
1.09670392368414e-06
-1.01116468303199e-06
8.48263139258194e-07
-4.5117584295503e-10
-1.15697439957141e-06
9.48453213273108e-07
-1.07978764243532e-09
-1.27535803223238e-06
1.0353038587831e-06
-1.3349579228444e-09
-1.37010518431167e-06
1.08321783850303e-06
-2.53873915939796e-09
-1.40383353272147e-06
1.05897969208313e-06
-5.85733570949306e-09
-1.42589728477507e-06
9.84097419221102e-07
-1.17551127163639e-08
-1.53137705451727e-06
8.89194177190557e-07
-1.84258269830142e-08
-1.85456596220793e-06
7.91818247070688e-07
-1.81574807142872e-08
-2.69521181323385e-06
7.02069483087476e-07
2.15440485823406e-08
-5.64752688392264e-06
6.18606501808905e-07
2.47060955920945e-07
-1.8138910638456e-05
4.84704780703498e-07
1.14831121564406e-06
-1.44155419007078e-05
1.45227836381153e-07
7.43910233028119e-08
-3.44858076273018e-06
2.229036677374e-07
1.66650547375297e-08
-1.65243800493663e-05
1.76047054544357e-07
1.5452198303888e-07
-1.90754165785592e-06
2.94443202374209e-07
5.91784151395602e-09
-4.5350217710149e-06
2.82520177166375e-07
2.91312545563448e-08
-1.81326754011615e-05
2.11630592649604e-07
2.37134675786295e-07
-1.46411247959534e-06
3.66690800661348e-07
2.59103047836835e-09
-2.49259655095841e-06
3.74356783233639e-07
9.70862702360338e-09
-5.13675164970924e-06
3.432569266954e-07
3.66122100990765e-08
-1.98726130957172e-05
2.5134152721507e-07
3.2403190383449e-07
-1.27053981286826e-06
4.39552849655377e-07
1.3281671647948e-09
-1.87130739959074e-06
4.65639691544978e-07
1.72315042857053e-09
-2.84776421709296e-06
4.58909725740679e-07
6.80684732304997e-09
-5.7893970639605e-06
4.06221400686523e-07
4.20512481626941e-08
-2.10281910788296e-05
2.84570043741042e-07
4.1442361500568e-07
-1.16559812697755e-06
5.12659625162918e-07
1.05738047480678e-10
-1.57133765361843e-06
5.54954549928556e-07
-3.45469808512137e-10
-2.12396697244772e-06
5.68077697200537e-07
-1.77570412901883e-09
-3.16843892554329e-06
5.41369993283975e-07
-2.93820692716142e-12
-6.17543992308233e-06
4.52736614230931e-07
4.9027197033722e-08
-2.14345950325699e-05
3.09237096772883e-07
5.0137497473004e-07
-1.1035191580956e-06
5.84862603216005e-07
-7.27672877167949e-10
-1.40357718728719e-06
6.40343627925377e-07
-5.83300515912019e-10
-1.75452519966584e-06
6.72105164887567e-07
-3.74645936542711e-09
-2.32110876344046e-06
6.65669207742001e-07
-7.49931678767966e-09
-3.28104921149521e-06
5.96759026690358e-07
-6.64225808356782e-09
-6.29864639807175e-06
4.82015577766972e-07
5.85559287410553e-08
-2.12988718857003e-05
3.28781896218833e-07
5.75074444441827e-07
-1.06883908316508e-06
6.54845655726511e-07
-8.91795891228819e-10
-1.30619576255321e-06
7.21698424459521e-07
-6.47978959439839e-10
-1.54847276757753e-06
7.69885702496086e-07
-2.69105332030365e-09
-1.8829147820646e-06
7.79810602789618e-07
-7.28867225030969e-09
-2.34750124159086e-06
7.26878971014867e-07
-1.30449903507774e-08
-3.22950375673098e-06
6.27143618999704e-07
-1.02780417124764e-08
-6.27078508227043e-06
5.02517744663315e-07
7.28676846513967e-08
-2.09058130582306e-05
3.46708688231664e-07
6.35561657283508e-07
-1.0541527331361e-06
7.21651018375036e-07
-5.5316990281449e-10
-1.2511357141811e-06
7.98861062545084e-07
-4.02147037140226e-10
-1.43399548333443e-06
8.60767603537586e-07
-1.04267065467921e-09
-1.64259190342711e-06
8.84540605989941e-07
-4.41522292299871e-09
-1.87249185974875e-06
8.43645597502256e-07
-1.06071433833392e-08
-2.25155971694679e-06
7.55984653781576e-07
-1.66876793223147e-08
-3.10391637601709e-06
6.45548511589088e-07
-7.90150537879373e-09
-6.18697496539048e-06
5.22325861469848e-07
1.1084510874193e-07
-2.038558708678e-05
3.50420842372259e-07
8.15791756008575e-07
-1.05396867171736e-06
7.84872466252177e-07
-9.0170222663357e-11
-1.2239233171008e-06
8.71684004564054e-07
1.46204073144431e-10
-1.37230619860057e-06
9.45201557275831e-07
2.47750599547461e-10
-1.51370688304797e-06
9.80809361683113e-07
-1.57032863844777e-09
-1.61858426609889e-06
9.48868245646912e-07
-6.25493807077376e-09
-1.76641207849095e-06
8.6925041072777e-07
-1.31440004147286e-08
-2.10709910528483e-06
7.68890578309056e-07
-1.70954794281322e-08
-2.95824418072521e-06
6.61182234883409e-07
4.71608544269303e-09
-6.05383448977318e-06
5.40064901590595e-07
1.90641712501614e-07
-1.88772949266489e-05
3.2466358234817e-07
9.12351054026823e-07
-1.06347820250279e-06
8.44439477947528e-07
2.34433589735306e-10
-1.2158014183179e-06
9.40541319305005e-07
5.28809845639463e-10
-1.3430290866431e-06
1.02465005406839e-06
6.28540794853346e-10
-1.44612389827731e-06
1.0705368071785e-06
5.17981302875552e-11
-1.48606287488941e-06
1.04552841474043e-06
-2.58908721466069e-09
-1.51296342441888e-06
9.70648138343306e-07
-7.74218045375918e-09
-1.62418224114388e-06
8.75615653943113e-07
-1.36623567375108e-08
-1.9548484839875e-06
7.76741782402362e-07
-1.31786301557458e-08
-2.80800265865767e-06
6.82695742453654e-07
2.80018196427098e-08
-5.81937573682433e-06
5.82066976033272e-07
2.26481306558742e-07
-1.86126619903043e-05
4.53707042072965e-07
1.11673647671141e-06
-1.07882969097379e-06
9.00842234110228e-07
-2.96735104587034e-10
-1.22047466387825e-06
1.00656468843278e-06
-5.26759588295477e-10
-1.3349228547857e-06
1.10077563094206e-06
-2.56255428287855e-10
-1.41427244410286e-06
1.15550222279334e-06
1.04459381635171e-10
-1.41770785194724e-06
1.13576819549352e-06
-5.85463462866121e-10
-1.38278580372631e-06
1.06334118407343e-06
-3.18592741821908e-09
-1.37582843739982e-06
9.69795543784697e-07
-7.3704835293523e-09
-1.47787177261139e-06
8.72781900732413e-07
-1.02507717390799e-08
-1.81399255555664e-06
7.79218464126514e-07
-1.82557612605823e-09
-2.69209400827376e-06
6.91262034034439e-07
4.8676753801109e-08
-5.7737168763414e-06
6.03003657941894e-07
2.61322626499513e-07
-1.83972629291051e-05
4.924905439224e-07
1.12660316462462e-06
-1.4628135495239e-05
1.37881377132905e-07
7.47080051845301e-08
-3.5330224609821e-06
2.12635835322786e-07
1.70303867717194e-08
-1.67719505854035e-05
1.67578307347121e-07
1.54364618966345e-07
-1.97287060301654e-06
2.81886523515176e-07
6.3450737793411e-09
-4.64258211976404e-06
2.70254306127198e-07
3.00126119385598e-08
-1.84166138138095e-05
2.02102239708052e-07
2.36340359624233e-07
-1.52490339511264e-06
3.52266592121232e-07
2.96695883981062e-09
-2.57419271778953e-06
3.59359312690576e-07
1.06719975869751e-08
-5.26351438652267e-06
3.29269161677437e-07
3.82496241190406e-08
-2.0199198768338e-05
2.40626464352258e-07
3.23090539266239e-07
-1.3293739781109e-06
4.23785356624976e-07
1.73925177025334e-09
-1.94560472184545e-06
4.48397806959968e-07
2.84612811709517e-09
-2.94517206290118e-06
4.41765106289158e-07
8.6052995177959e-09
-5.93686479769296e-06
3.90813522050743e-07
4.46025212337574e-08
-2.13924981780953e-05
2.73087553604881e-07
4.15234660059623e-07
-1.22278583207999e-06
4.96178043584994e-07
5.62175790454481e-10
-1.6413983373334e-06
5.36372190705407e-07
6.55360530999532e-10
-2.21230001190946e-06
5.48796797433979e-07
1.67332833584126e-10
-3.28103687007102e-06
5.22657539219671e-07
2.96439256345684e-09
-6.33897440092111e-06
4.3691705775322e-07
5.32309652002322e-08
-2.18271022046144e-05
2.97413469111545e-07
5.09508770571555e-07
-1.1590433220254e-06
5.68429523592632e-07
-2.46013451225985e-10
-1.47030726850945e-06
6.21360157333768e-07
4.2934813542428e-10
-1.836632437013e-06
6.51711731140017e-07
-1.87315339147406e-09
-2.42196526350487e-06
6.44947765379876e-07
-4.49881805090646e-09
-3.40379140996311e-06
5.77786720051931e-07
-2.31433868149509e-09
-6.47197639894963e-06
4.6649384705044e-07
6.50899115943888e-08
-2.17064597018626e-05
3.17621777576218e-07
5.91326200513148e-07
-1.1228647331472e-06
6.39320397493905e-07
-4.32356428331109e-10
-1.37026229893744e-06
7.03367538004177e-07
3.14317168590508e-10
-1.62570327622615e-06
7.49694308314622e-07
-9.42817441067647e-10
-1.97517875097574e-06
7.58621989464618e-07
-4.43665294163254e-09
-2.45569683586729e-06
7.06350248134365e-07
-8.89698665344983e-09
-3.35762116629757e-06
6.08610329039936e-07
-5.12431659405017e-09
-6.44746759070412e-06
4.87299057150404e-07
7.67093402379518e-08
-2.12956696438301e-05
3.39656512098585e-07
6.25262640938308e-07
-1.10704517975137e-06
7.07895516552148e-07
-1.57636961930989e-10
-1.31302706354909e-06
7.82241879855513e-07
4.55202860392318e-10
-1.50748572678656e-06
8.4214571878932e-07
5.81463511373268e-10
-1.72828875896543e-06
8.64563669683878e-07
-1.74864756516208e-09
-1.9698943191535e-06
8.23636029402304e-07
-6.6446495016525e-09
-2.3626481459667e-06
7.36698394589408e-07
-1.15138090051306e-08
-3.23501532874785e-06
6.27066409680382e-07
-3.73197800086831e-09
-6.36707838557862e-06
5.06664073926542e-07
9.30077533935829e-08
-2.07883128507014e-05
3.7219191782585e-07
6.66075987700501e-07
-1.10621678086506e-06
7.73727672704342e-07
1.71312505804709e-10
-1.28416908288031e-06
8.57627040768843e-07
9.25921671861425e-10
-1.44292993675726e-06
9.29239367389336e-07
1.74904865863575e-09
-1.59453016404078e-06
9.63386265420342e-07
9.34183484332393e-10
-1.70796557401381e-06
9.31146367135258e-07
-2.53625549218777e-09
-1.8647205578956e-06
8.51751686233647e-07
-8.06729762682018e-09
-2.21837259588912e-06
7.51057499651888e-07
-1.09259341255568e-08
-3.09343519372622e-06
6.41298129724156e-07
8.31289615194175e-09
-6.2684775973214e-06
5.19576485639506e-07
1.56322521936973e-07
-1.94678705136135e-05
3.75264190652478e-07
1.03108583059197e-06
-1.11564610916253e-06
8.36574254545654e-07
4.65911960371511e-10
-1.27499115516352e-06
9.29431774545698e-07
1.35140950423981e-09
-1.41143960921955e-06
1.0115154123446e-06
2.2422714238629e-09
-1.52330615711682e-06
1.05571660520352e-06
2.52208438516458e-09
-1.56986169384017e-06
1.03025710158754e-06
8.38489729945033e-10
-1.6022714490096e-06
9.55540080538812e-07
-3.23804083561827e-09
-1.72078171742472e-06
8.60238700294402e-07
-7.89466533581877e-09
-2.06392309461717e-06
7.58896047707616e-07
-5.73717747922273e-09
-2.94854234627951e-06
6.52724430233474e-07
3.2591468939936e-08
-6.01306400895896e-06
5.16213778837743e-07
1.92769960249228e-07
-1.91520100006356e-05
3.83550758814795e-07
1.06813152292166e-06
-1.13137654884291e-06
8.96655432377623e-07
3.30836973615046e-10
-1.27910605330573e-06
9.98436892297111e-07
9.69902054776221e-10
-1.40178211653559e-06
1.09028975842438e-06
1.74783844534152e-09
-1.48889580809366e-06
1.14318269494676e-06
2.60559705979946e-09
-1.49764803175593e-06
1.12298170307822e-06
2.53780624942453e-09
-1.46631623428944e-06
1.05096468301584e-06
6.23743711883659e-10
-1.46303479663979e-06
9.57932834280898e-07
-2.85450862705869e-09
-1.57046892872248e-06
8.60796571396647e-07
-5.12185410246983e-09
-1.91373354439252e-06
7.65406327939378e-07
3.84863492839964e-09
-2.80242212946999e-06
6.70997330535845e-07
4.93948474901767e-08
-5.92343705779335e-06
5.76551171870464e-07
2.5334457586794e-07
-1.89000299873838e-05
4.76573167112566e-07
1.14291648491882e-06
-1.15050356953422e-06
9.54431960975544e-07
-6.76006127183144e-10
-1.29181163658383e-06
1.06540622611331e-06
-5.95145579418278e-10
-1.40671073483673e-06
1.1666780196815e-06
-2.24709280331457e-10
-1.47803334369085e-06
1.22736422345675e-06
1.11156476910856e-09
-1.46273390177918e-06
1.21102297218121e-06
2.36597885953483e-09
-1.39589340194992e-06
1.14014368038638e-06
2.62067427572359e-09
-1.33075826133009e-06
1.04716457474932e-06
1.49825141849338e-09
-1.31809808120095e-06
9.50270190824194e-07
-8.73613790727793e-11
-1.42692920329719e-06
8.56016323266525e-07
1.51982527466624e-09
-1.78437220015684e-06
7.6656095118252e-07
1.57679588720963e-08
-2.72233867772594e-06
6.83369838443724e-07
6.57347209804294e-08
-6.09116097321082e-06
6.04506022841174e-07