/*--------------------------------*- C++ -*----------------------------------*\
  =========                 |
  \\      /  F ield         | OpenFOAM: The Open Source CFD Toolbox
   \\    /   O peration     | Website:  https://openfoam.org
    \\  /    A nd           | Version:  12
     \\/     M anipulation  |
\*---------------------------------------------------------------------------*/
/*   Windows 32 and 64 bit porting by blueCAPE: http://www.bluecape.com.pt   *\
|  Based on Windows porting (2.0.x v4) by Symscape: http://www.symscape.com   |
\*---------------------------------------------------------------------------*/
FoamFile
{
    format      ascii;
    class       volVectorField;
    location    "200";
    object      U;
}
// * * * * * * * * * * * * * * * * * * * * * * * * * * * * * * * * * * * * * //

dimensions      [0 1 -1 0 0 0 0];

internalField   nonuniform List<vector> 
10123
(
(-2.39312708964043e-05 -0.000352037111016853 4.64583412884036e-05)
(-1.58889376478467e-05 -0.000330263019017581 4.6621262079927e-05)
(-9.92219105869001e-06 -0.00017017214956742 9.1362973299734e-05)
(-6.3096059747759e-05 -0.000840309574475647 4.332268716401e-05)
(-1.05541767675023e-05 -0.000308189256631631 4.47184861528844e-05)
(-8.02924957317348e-06 -0.0001518906472313 8.938305878696e-05)
(-4.85633511449896e-05 -0.000815039480969447 4.05935146765089e-05)
(-5.31219116314581e-06 1.38603526601077e-05 0.000135056906827525)
(-3.04455349971498e-05 -0.00046450099127109 8.17083516236918e-05)
(-8.06580534830213e-05 -0.000959978943918473 4.35623210422655e-05)
(-8.99855927175073e-06 -0.000275220689017971 4.34070348767268e-05)
(-6.49536501714078e-06 -0.00012382432166937 8.67493402008074e-05)
(-3.66878360638951e-05 -0.000818657120943426 3.40894622958524e-05)
(-4.72441183921723e-06 3.87881368849529e-05 0.000133349694059824)
(-2.63651202718801e-05 -0.000464112570969274 7.95647188488545e-05)
(-7.03634780183937e-05 -0.000934995730137955 3.94712546184115e-05)
(-3.72158978925753e-06 9.64799869620955e-05 0.00017524542846809)
(-1.64715720078013e-05 -0.000134163513406013 0.00012407484041558)
(-4.76931421180211e-05 -0.000575377089364877 7.84484570611491e-05)
(-0.000100476605670085 -0.00101788353814097 4.60489217015184e-05)
(-8.89914539618209e-06 -0.000240313333832989 4.3037882746436e-05)
(-5.83624925423281e-06 -9.12883071759221e-05 8.48569768434212e-05)
(-3.17984249825109e-05 -0.00080430477546334 3.24649094563409e-05)
(-4.14514786417327e-06 6.9425601541024e-05 0.000130904180287264)
(-2.25962526562543e-05 -0.000449630850248038 7.6825328064265e-05)
(-6.03163824533138e-05 -0.000947109668735212 3.19452586127702e-05)
(-3.40657749577981e-06 0.000123456212312581 0.00017465374074776)
(-1.50954202160393e-05 -0.000119686721016765 0.00012250504847502)
(-4.3644440304594e-05 -0.000585047898671109 7.71530642111165e-05)
(-9.18554548169978e-05 -0.00099226164790713 4.12552169785587e-05)
(-2.678592175708e-06 0.000153463898009171 0.000213302304428386)
(-1.05592322932261e-05 9.27098729650362e-06 0.000162975790330933)
(-2.866600213049e-05 -0.000205607844419799 0.00011948761484732)
(-6.46003467419654e-05 -0.000621653274131366 7.80970355614919e-05)
(-0.000122993378086071 -0.00107725466833519 4.76623337251604e-05)
(-8.87356847413434e-06 -0.000205704255638557 4.23615416817668e-05)
(-5.55286666411297e-06 -5.85136714608218e-05 8.34981896052184e-05)
(-3.02874795149747e-05 -0.000783906199793784 3.2811069977597e-05)
(-3.78045338841786e-06 0.000102261476932052 0.000128657993268887)
(-2.05922531481849e-05 -0.000425335062958743 7.53617404739109e-05)
(-5.46440408633925e-05 -0.000937969863814483 2.98656204608802e-05)
(-3.08386369714993e-06 0.00015386089607038 0.000172855445261305)
(-1.35484559616492e-05 -9.55959026501703e-05 0.000120351450531984)
(-3.93331714777314e-05 -0.000577380237655654 7.3804179851077e-05)
(-8.3679704474317e-05 -0.00100704344428282 3.24049263799783e-05)
(-2.48838407262067e-06 0.000181039902518717 0.000213610855413532)
(-9.84841682184837e-06 3.02109240193328e-05 0.000162712659395076)
(-2.69026781536642e-05 -0.000198272583409078 0.000117746462748519)
(-6.07423738689113e-05 -0.000635914453214933 7.66460908378347e-05)
(-0.000114199134943762 -0.00105168072957531 4.31579446138609e-05)
(-1.8579465718139e-06 0.000202977576800659 0.000249143970257606)
(-7.26164148950319e-06 9.07207852014812e-05 0.000199988185566793)
(-1.88374694970056e-05 -3.99155506483987e-05 0.000156692521954051)
(-4.09560237060449e-05 -0.000244562152087567 0.000117324806594309)
(-8.15768925711588e-05 -0.000663101571118667 7.76847011836294e-05)
(-0.000149079409907276 -0.00113762848565288 4.90971720960356e-05)
(-8.59248051234052e-06 -0.000171189210398355 4.10890744728468e-05)
(-5.35633835804796e-06 -2.62708323262569e-05 8.2067007036253e-05)
(-2.95106910380612e-05 -0.000760964088492529 3.32469286250788e-05)
(-3.52308976804545e-06 0.000135362305802287 0.000126303444764745)
(-1.95396937346488e-05 -0.000399199229951129 7.45878927024062e-05)
(-5.18613125464519e-05 -0.000921892624427186 3.03002837959757e-05)
(-2.83793862695972e-06 0.000185728563799616 0.00017040374782283)
(-1.2447143332031e-05 -6.65466648291842e-05 0.000118719769834289)
(-3.64939365961287e-05 -0.000556730234002553 7.21436495129883e-05)
(-7.81131962875396e-05 -0.000998968688946275 2.98211380743892e-05)
(-2.28319611459704e-06 0.000210864776655482 0.000212322021596998)
(-9.00871745608538e-06 5.70298180480161e-05 0.00016145497020667)
(-2.46985227642105e-05 -0.000178389522680007 0.000115454219008188)
(-5.6284174472209e-05 -0.000631502210315292 7.27706439149203e-05)
(-0.000106506139816192 -0.00106808131293294 3.30587164013138e-05)
(-1.72970508704869e-06 0.000230739332407896 0.000250060440613732)
(-6.80780205811189e-06 0.000114245948994029 0.000200631938823843)
(-1.78685948889153e-05 -2.35173569296475e-05 0.000156507090235347)
(-3.89007078381341e-05 -0.000241185382925346 0.000115505580839432)
(-7.75988626384511e-05 -0.000680302354531125 7.58802451081487e-05)
(-0.000137893558041875 -0.0011148785733918 4.46519565956546e-05)
(-1.23072757760007e-06 0.000250150165543425 0.000282918382970474)
(-5.05025517141743e-06 0.000152114257072281 0.000234690329593292)
(-1.29571298044877e-05 5.20950152915093e-05 0.000192426311005929)
(-2.77059124200159e-05 -7.09855530735972e-05 0.000153034890945619)
(-5.29665686055133e-05 -0.000280725251741203 0.0001146513742335)
(-9.87706336015049e-05 -0.000704578614653982 7.69279637631645e-05)
(-0.000187809083741106 -0.00119519200122432 5.02096061274547e-05)
(-8.30510061600619e-06 -0.000137656926022205 3.99077614177694e-05)
(-5.16330903286395e-06 5.21424420064524e-06 8.0244780822122e-05)
(-2.86625602451504e-05 -0.000737109584939413 3.3327551467788e-05)
(-3.31325059513242e-06 0.000168087482945468 0.000123603587022874)
(-1.87918736324348e-05 -0.000372955747642698 7.3802149305094e-05)
(-4.99656680678395e-05 -0.000902656455323462 3.09686091988369e-05)
(-2.6286396679377e-06 0.000217921542240161 0.000167316934569532)
(-1.1637989749452e-05 -3.65208733998136e-05 0.000117032067104516)
(-3.46867277263752e-05 -0.000533494208877278 7.14623918613138e-05)
(-7.48603348286842e-05 -0.000984275886081591 3.0235577828792e-05)
(-2.10101398473557e-06 0.00024177235655782 0.000209809858294765)
(-8.31405679684079e-06 8.68658744033482e-05 0.000159730338146456)
(-2.29195372930885e-05 -0.000151440617876428 0.000114115996176983)
(-5.29903262906889e-05 -0.000612171260401045 7.09970682793369e-05)
(-0.000101481389322453 -0.0010605658471947 2.9941952923804e-05)
(-1.58748478477098e-06 0.000260120967515508 0.000249125512617597)
(-6.27799910047823e-06 0.000141673950650561 0.000199952918808617)
(-1.6550433922727e-05 7.1968073082012e-07 0.000155438377036287)
(-3.6246979135341e-05 -0.000223783090765703 0.000113029373650375)
(-7.30565241137714e-05 -0.0006779313049256 7.14631380720662e-05)
(-0.000127928997088405 -0.00113297507318335 3.33460362899398e-05)
(-1.13994305503797e-06 0.000278021760124225 0.000284263499757832)
(-4.7365960508532e-06 0.000176792178763955 0.000235941088808636)
(-1.23066709628646e-05 7.24956132423102e-05 0.000193215843635425)
(-2.64490364659863e-05 -5.73409082561522e-05 0.000152920908857743)
(-5.06359901303567e-05 -0.000279953073652496 0.000112857132043379)
(-9.39264438706828e-05 -0.000724835737331141 7.44814265339199e-05)
(-0.000164972202683871 -0.00118062859917024 4.45985204459505e-05)
(-7.76382645464123e-07 0.000296776383240322 0.000314990249098416)
(-3.4679878457457e-06 0.000205803363560905 0.000267435108196186)
(-8.97794588035418e-06 0.000119114956501212 0.000226056610147443)
(-1.93385003311042e-05 2.51993069157592e-05 0.000187513115691538)
(-3.62972732941094e-05 -0.00010182358281908 0.000148629275131075)
(-6.43582304202477e-05 -0.000317663079752609 0.000111083436511663)
(-0.000117540956313857 -0.000745684819940961 7.56677006195361e-05)
(-0.000220513371775345 -0.001260328190775 5.36180035008906e-05)
(-8.04893577388091e-06 -0.000105295557391148 3.87087477817459e-05)
(-4.95365758099514e-06 3.58036281956226e-05 7.80241765342606e-05)
(-2.7722089320161e-05 -0.000713346168399436 3.29651499018777e-05)
(-3.12471452296842e-06 0.000200124588038968 0.000120431719856952)
(-1.81119763563836e-05 -0.000347160747976096 7.25793971632205e-05)
(-4.82000535953177e-05 -0.00088204276991731 3.13212575205012e-05)
(-2.44130565668279e-06 0.000249918213508611 0.00016360407044209)
(-1.09815912246584e-05 -6.63774514608899e-06 0.000114979933289184)
(-3.32627453057197e-05 -0.000509928099517005 7.09642448420205e-05)
(-7.22594291041028e-05 -0.000966452846369858 3.11009544847136e-05)
(-1.93272191091312e-06 0.000273004659286454 0.00020623411677246)
(-7.71446792280783e-06 0.000117395597717818 0.000157364996435592)
(-2.15253133081945e-05 -0.000123036930468641 0.000112813344128892)
(-5.06063381074965e-05 -0.000590081461552176 7.04213883624703e-05)
(-9.86147128837565e-05 -0.00104669654190592 3.05176845853717e-05)
(-1.44954136251632e-06 0.000290329747883549 0.000246584552117129)
(-5.78274984067185e-06 0.000171247992306981 0.000198236875321775)
(-1.53351012589703e-05 2.92886558533741e-05 0.000154126954663316)
(-3.39465160502169e-05 -0.000197934694735305 0.000111794742011977)
(-6.96844059111156e-05 -0.000659342553064886 6.97379330007529e-05)
(-0.000123968398001382 -0.00112537260961754 2.94083852217477e-05)
(-1.03703909209835e-06 0.000307144095878654 0.000283560415485304)
(-4.36606642385501e-06 0.000204359604997006 0.000235644176225335)
(-1.14236802804993e-05 9.8147331830196e-05 0.000192855618112631)
(-2.47277875425733e-05 -3.4788271747759e-05 0.000151924288632712)
(-4.7671505116578e-05 -0.000264190811952796 0.000110261136540385)
(-8.88457744591058e-05 -0.000723919758166459 6.95278643115902e-05)
(-0.000145688272942402 -0.00119992546660319 3.21194862454502e-05)
(-7.11157049452106e-07 0.000324793821108925 0.000316643805066251)
(-3.23863416791732e-06 0.000231112226938422 0.000269088167600167)
(-8.51408785956576e-06 0.000141394551751572 0.000227463370418389)
(-1.84648874749817e-05 4.36298665169756e-05 0.000188477554378973)
(-3.47618198476772e-05 -9.00181406137932e-05 0.000148701352653695)
(-6.16035071163443e-05 -0.000319075726152374 0.000109276228166947)
(-0.000109891204038752 -0.000770091085459456 7.22827107212877e-05)
(-0.000187410946722779 -0.00123960051282836 4.35632069221031e-05)
(-4.60515625452222e-07 0.000343454434629261 0.000345878818116447)
(-2.29643253811367e-06 0.000256252136494012 0.000298677638507008)
(-6.13807611643746e-06 0.000175990653154055 0.000257913086241496)
(-1.35085003049898e-05 9.43846801392458e-05 0.000220047990603081)
(-2.55460692766496e-05 -3.07997844334276e-06 0.000181664406048916)
(-4.42596099436452e-05 -0.000134850093304465 0.000143077877376633)
(-7.52849432932422e-05 -0.00035646296183095 0.000106748548090595)
(-0.000134139428330837 -0.00078828826019608 7.47066848349141e-05)
(-0.000199496631916026 -0.00133919954561322 5.69308982981038e-05)
(-7.74653919840749e-06 -7.41741206047972e-05 3.73482518596245e-05)
(-4.72906535760483e-06 6.53963362109754e-05 7.54925358466798e-05)
(-2.67708538445764e-05 -0.000690161759141364 3.22642708006294e-05)
(-2.94341312748665e-06 0.000231348603501307 0.000116795945639475)
(-1.74219407804137e-05 -0.000322038892767144 7.08708386038186e-05)
(-4.64448517125194e-05 -0.000861179030540542 3.11930687904339e-05)
(-2.26946521152983e-06 0.000281415971194024 0.000159270938718072)
(-1.03988034268457e-05 2.26564465553681e-05 0.000112404091181103)
(-3.1951773672155e-05 -0.000486681582812625 7.00583230637357e-05)
(-6.95952925934922e-05 -0.00094709109867086 3.165988904373e-05)
(-1.77555500715426e-06 0.000304143663230949 0.000201737359493886)
(-7.18121574380509e-06 0.00014784676800928 0.000154331004573306)
(-2.03516189465621e-05 -9.46486250755818e-05 0.000111154883231056)
(-4.8540575774412e-05 -0.000567659037184896 7.0139746795299e-05)
(-9.56997217732011e-05 -0.00103018605174914 3.1677629755116e-05)
(-1.31562735178399e-06 0.000320822977611112 0.000242654266943824)
(-5.31819881089117e-06 0.000201402377211811 0.000195438716613785)
(-1.42666349873685e-05 5.88457123065985e-05 0.000152216203107257)
(-3.20401935798018e-05 -0.000170350003002708 0.000110722098745292)
(-6.70421164187492e-05 -0.000637984929726716 6.93521038000883e-05)
(-0.000123054342311589 -0.00111276328842675 3.04181344088552e-05)
(-9.30757967426611e-07 0.000336908393181516 0.000280982321248185)
(-3.99004840910983e-06 0.000233580506837454 0.000233929369000545)
(-1.05332204566694e-05 0.000126843533549372 0.000191652696965989)
(-2.30333064257265e-05 -6.98023318455117e-06 0.000150871702975356)
(-4.50442623327901e-05 -0.000239053401552808 0.000109136078171151)
(-8.58765293745712e-05 -0.0007056549537199 6.80442768879675e-05)
(-0.000145664532149575 -0.00119034814367815 2.89153216721579e-05)
(-6.32347149265565e-07 0.000353822091315535 0.000316081395769082)
(-2.96139694652464e-06 0.000258744984452111 0.000269035952362556)
(-7.87459957100236e-06 0.000167595528979749 0.000227557407076838)
(-1.72426824658011e-05 6.8066440148858e-05 0.000188345248523574)
(-3.27104783341632e-05 -6.8663908139017e-05 0.000147823205399895)
(-5.83154290073194e-05 -0.000304456791249089 0.000106635237008578)
(-0.000103084769638607 -0.000769819125038621 6.69626605287275e-05)
(-0.000157766243966075 -0.00125918708442336 2.96203844898456e-05)
(-4.12894031010473e-07 0.000371703246089035 0.000347750727753067)
(-2.12635975501309e-06 0.000282027405984549 0.000300627691307293)
(-5.79535466627163e-06 0.000199322462185745 0.000259735279104493)
(-1.28602336016419e-05 0.000115144868671448 0.000221689810732206)
(-2.44109716421297e-05 1.40233167833164e-05 0.000182960841280795)
(-4.24110314907138e-05 -0.000124484083164592 0.000143392742887919)
(-7.17642697387364e-05 -0.000360045682465089 0.000104727134077242)
(-0.000124350271747772 -0.000816252727665657 6.9581394625796e-05)
(-0.000173174512141152 -0.00124654601098247 4.41846286259415e-05)
(-2.51958551121322e-07 0.000390355830171563 0.000376113251480569)
(-1.42874494018983e-06 0.000305316946464459 0.000328928177532784)
(-4.04893204221882e-06 0.000228269336166793 0.000288463573628717)
(-9.23421637382414e-06 0.000152364410712104 0.00025102325830696)
(-1.7882906812697e-05 6.73406446105798e-05 0.0002130746219349)
(-3.11515629386339e-05 -3.44327351041749e-05 0.000174540199669878)
(-5.14803209828202e-05 -0.000170953445604478 0.000136464765597625)
(-8.51026676174118e-05 -0.000398020758012253 0.000102239616637486)
(-0.000138535826894322 -0.000839672388364905 7.61907295931044e-05)
(-0.000207023474044419 -0.00141087540370086 4.83873792726566e-05)
(-7.3462860038837e-06 -4.43538172089828e-05 3.58080557148015e-05)
(-4.49252273236957e-06 9.3924623082173e-05 7.27047447490023e-05)
(-2.57725895811156e-05 -0.000667846477737821 3.12861205932593e-05)
(-2.76467222412541e-06 0.000261683797035977 0.000112758711512872)
(-1.67134424102095e-05 -0.000297711005307899 6.87492865162307e-05)
(-4.4709120119747e-05 -0.000840696355579134 3.06427243292782e-05)
(-2.1081196799438e-06 0.000312255933744927 0.000154374672778442)
(-9.84832407567446e-06 5.12087999078626e-05 0.000109295877286061)
(-3.06758722858415e-05 -0.000463999609859772 6.86237593334172e-05)
(-6.68688582774399e-05 -0.000927255513143085 3.16578942380705e-05)
(-1.62878361358362e-06 0.000334924151085791 0.000196436606739148)
(-6.69518550844791e-06 0.000177853153039666 0.000150622130503154)
(-1.92922546439808e-05 -6.68006364512758e-05 0.000108947678134754)
(-4.65603089334229e-05 -0.000545520221878624 6.94517661317324e-05)
(-9.19911220798313e-05 -0.00101187641314779 3.24417382214358e-05)
(-1.18792009202156e-06 0.000351267403203814 0.00023754910062154)
(-4.88392577981486e-06 0.000231542142521452 0.000191664526734713)
(-1.33178100550093e-05 8.84119483184275e-05 0.000149630236296036)
(-3.03561828549122e-05 -0.000142726874360433 0.000109344448140243)
(-6.44318020894489e-05 -0.000616458524812257 6.92836446986721e-05)
(-0.000120349154202067 -0.00109832881743872 3.21066585807133e-05)
(-8.23287600618352e-07 0.000366892501406874 0.000276761495243637)
(-3.61893812605351e-06 0.00026327964008621 0.000230807327956313)
(-9.69784072358396e-06 0.000156333487374125 0.000189382672211968)
(-2.15024829222392e-05 2.20454179112852e-05 0.000149287162260798)
(-4.27609371514212e-05 -0.000212064100343086 0.000108311114607934)
(-8.34908381823631e-05 -0.000685126937939329 6.79570996012775e-05)
(-0.000150676188043604 -0.00118115490325732 3.08386091915541e-05)
(-5.46403981563535e-07 0.000383348035631549 0.000313434716571178)
(-2.66276672595362e-06 0.000287712531362882 0.00026730452527526)
(-7.19005360856964e-06 0.000196145059357219 0.000226413149566938)
(-1.59539010214149e-05 9.62067082280841e-05 0.000187511490792623)
(-3.06384510198717e-05 -4.14194390450666e-05 0.000147047262908353)
(-5.55717520835747e-05 -0.000279794070828988 0.000105737210213536)
(-0.000101627962320118 -0.000751147873013935 6.61141042647948e-05)
(-0.000172642735288528 -0.00124621132323574 3.13737047477815e-05)
(-3.48001629958388e-07 0.000400783795783043 0.000347249077967135)
(-1.90905202521959e-06 0.000309771345875007 0.00030073212247963)
(-5.30533018547952e-06 0.000225828357468702 0.000260114501745725)
(-1.19417786291123e-05 0.000140398157582901 0.00022210710477085)
(-2.28813167138514e-05 3.75729223012561e-05 0.000183133079367393)
(-4.00484476319665e-05 -0.000104016920113037 0.000142697509908598)
(-6.79503890684735e-05 -0.000346133201725421 0.000102008432521137)
(-0.000116185434216694 -0.000814958036597916 6.32954970576544e-05)
(-0.000182826258668152 -0.00129954042447578 2.4830084480513e-05)
(-2.12340269276755e-07 0.00041893097533208 0.000378119783321326)
(-1.30220541006355e-06 0.000331529858279623 0.000331098402061446)
(-3.7925732612166e-06 0.000252321431887127 0.000290586116410068)
(-8.74430926012502e-06 0.000174437263665712 0.000253114607979201)
(-1.70118702345273e-05 8.70706203106946e-05 0.000215119239096291)
(-2.9766377847874e-05 -1.83616814644971e-05 0.000176252749502435)
(-4.92668794737656e-05 -0.00016190224858907 0.00013696803950528)
(-8.1047926702896e-05 -0.000403854999603131 9.93979005734808e-05)
(-0.000132495193641851 -0.000859374745498326 6.82498001607165e-05)
(-0.000215406149409379 -0.00133928554214209 2.95533793203777e-05)
(-1.27757661819318e-07 0.000437482989532493 0.000406148517964672)
(-8.06295713726911e-07 0.000353765602426648 0.000358644261012827)
(-2.50489860507481e-06 0.000278382415772777 0.000318167158607887)
(-6.0346568407293e-06 0.000205142590472105 0.000280888699548372)
(-1.21571559913158e-05 0.000125897989593478 0.00024315290546999)
(-2.17109451455318e-05 3.67377024822573e-05 0.000204744246291579)
(-3.60456435985525e-05 -6.93511203763755e-05 0.000166221435912766)
(-5.77831253202134e-05 -0.000210617814771274 0.000129097449276434)
(-9.16594982535495e-05 -0.000443207585360723 9.81220227578882e-05)
(-0.000148710805840948 -0.000892345592541534 6.85718048433732e-05)
(-0.000255535966432593 -0.0015181582956318 5.19223077187004e-05)
(-6.8241182224081e-06 -1.58259305946382e-05 3.41508782814072e-05)
(-4.23373116622714e-06 0.000121367477412408 6.96392686452796e-05)
(-2.45977530026682e-05 -0.000646634056361122 3.0039803927448e-05)
(-2.58604460348203e-06 0.000291077516343152 0.00010839343652171)
(-1.59733920250089e-05 -0.000274279545435658 6.62942586887026e-05)
(-4.29297663504325e-05 -0.000821019170927733 2.97734319387125e-05)
(-1.9543522987554e-06 0.000342342953302993 0.000149011585486267)
(-9.31342343213687e-06 7.89434811365412e-05 0.000105721291152486)
(-2.94201193014204e-05 -0.000442030274920945 6.67235114236425e-05)
(-6.43153854666058e-05 -0.000907678972038129 3.11371175837452e-05)
(-1.49095698141051e-06 0.000365177309542337 0.000190460235375469)
(-6.24164044015673e-06 0.000207241569319231 0.000146289598430918)
(-1.82978867609901e-05 -3.96550837453543e-05 0.000106163980054546)
(-4.46509713706498e-05 -0.000523876748365371 6.8202828777666e-05)
(-8.81122771064379e-05 -0.000992687787268253 3.25075047158573e-05)
(-1.06675829664303e-06 0.000381430180237417 0.000231460925640287)
(-4.4779226797283e-06 0.000261357843822782 0.000187026029456539)
(-1.24515704250066e-05 0.000117570491762162 0.000146341417456132)
(-2.87947815625825e-05 -0.000115620003175822 0.000107409842649014)
(-6.17241008484755e-05 -0.000595152770309605 6.8781854936671e-05)
(-0.000114931236408546 -0.00108153732326607 3.30695177689438e-05)
(-7.1787309218447e-07 0.000396824778136877 0.000271154315832979)
(-3.26164790556045e-06 0.000292983202685257 0.000226454616668875)
(-8.92609910256067e-06 0.000185875153505676 0.000186111582311779)
(-2.01165163597781e-05 5.11414850868727e-05 0.000147041985798227)
(-4.06116016652226e-05 -0.000185031158269094 0.000107218460543182)
(-8.03696384040203e-05 -0.000664711221608959 6.80632847985434e-05)
(-0.000148166514039589 -0.00117174749033096 3.27125893939571e-05)
(-4.56339951238727e-07 0.000413019161675075 0.000308942588630458)
(-2.35637498767556e-06 0.000317065132684197 0.000263917009464567)
(-6.51972571486623e-06 0.000225349045657268 0.000223869043671667)
(-1.47281092430292e-05 0.000125324976580645 0.000185642520161665)
(-2.87214227130339e-05 -1.27937529876295e-05 0.000145809278716863)
(-5.31020303293721e-05 -0.000253364522181177 0.000105234759482794)
(-0.000100358413999288 -0.000732136613276374 6.63867443118582e-05)
(-0.000189178555049217 -0.00124828347083979 3.32845291523831e-05)
(-2.74669138746528e-07 0.000430237720971171 0.000344489424800954)
(-1.66114583422172e-06 0.000338621898291224 0.000298952759773772)
(-4.7562708546662e-06 0.000254245129331317 0.000258992290644082)
(-1.09312338324173e-05 0.000168506540350284 0.000221407545768469)
(-2.12472279868837e-05 6.52707641185886e-05 0.000182685048127123)
(-3.769772735602e-05 -7.72181101561384e-05 0.000142261980365427)
(-6.53507036737667e-05 -0.000321708308302887 0.000101556798333817)
(-0.000118192392219919 -0.000794336229933725 6.39771017856377e-05)
(-0.000219310260245315 -0.0012922009751993 2.71340023329577e-05)
(-1.57726006368361e-07 0.000448183534150631 0.000377599038293259)
(-1.12645733287114e-06 0.000359457720263267 0.000331276488072538)
(-3.40272938121489e-06 0.000279080918115072 0.000291142598749501)
(-8.02706625811975e-06 0.000200150831918048 0.000253878430193039)
(-1.5827004028621e-05 0.000111618457053195 0.000215948026885865)
(-2.7955376804502e-05 4.49535702169853e-06 0.000176802338918592)
(-4.65542055460535e-05 -0.000142122841339271 0.000136464971587642)
(-7.67402080700311e-05 -0.000390118319857031 9.61113914944606e-05)
(-0.000131844513644248 -0.000857910632184865 5.54017077212127e-05)
(-0.000243684114186026 -0.00142780434891041 1.70275099101345e-05)
(-9.92995020223679e-08 0.000466471728261235 0.000408196461651337)
(-7.16555236210256e-07 0.000380449197953021 0.000360949949325073)
(-2.31493406683678e-06 0.000303037503254738 0.000320506695022339)
(-5.66529998946156e-06 0.000228090384507918 0.000283302956347278)
(-1.14853487102418e-05 0.000147109153018862 0.00024569239960015)
(-2.06382374144969e-05 5.56555083456811e-05 0.000207294363018179)
(-3.44202597019155e-05 -5.42216087984924e-05 0.000168356915630087)
(-5.53016860756687e-05 -0.000202940155155807 0.000129585704873865)
(-8.84536370460165e-05 -0.000450505683944528 9.36994313083102e-05)
(-0.000150370291136924 -0.000907414483489724 5.89172881964636e-05)
(-0.000272742304098934 -0.00147759175240377 4.35765935339541e-05)
(-7.18868181341034e-08 0.000484801350441226 0.000436354263958531)
(-3.99914557133654e-07 0.000401921827952259 0.000388221045976456)
(-1.39506975373089e-06 0.000327440258124708 0.000347421974903907)
(-3.65720656394068e-06 0.000255409011262473 0.000310038180458477)
(-7.83017181540968e-06 0.000178881372654018 0.000272285921632208)
(-1.46143376624976e-05 9.56303351256779e-05 0.000233851609336321)
(-2.49203698781541e-05 2.36903029625084e-06 0.000195109559121577)
(-4.01251868896595e-05 -0.000107986058879632 0.000156922838463436)
(-6.25743440100663e-05 -0.000253847310785339 0.000121381803475117)
(-9.81175798074249e-05 -0.000493135218585857 9.0313098087001e-05)
(-0.000165817057084288 -0.000951946411562861 6.44316640734925e-05)
(-0.000264146500460859 -0.00164912985921857 4.62457159105301e-05)
(-6.13665546215165e-06 1.16042715227192e-05 3.24259728590767e-05)
(-3.93518396562379e-06 0.000147793891192694 6.63526879037366e-05)
(-2.31147676963594e-05 -0.000626573030490736 2.86412550927754e-05)
(-2.40239613373626e-06 0.00031951335527517 0.000103778393458449)
(-1.5162611795827e-05 -0.00025179977903006 6.3557430719237e-05)
(-4.09192061536096e-05 -0.000802447955966018 2.87549396291493e-05)
(-1.80632589030265e-06 0.000371615361628181 0.00014329120630628)
(-8.77727929528868e-06 0.000105806058953353 0.000101767801741999)
(-2.81202780676715e-05 -0.000420904398987472 6.44358694583197e-05)
(-6.18544597589173e-05 -0.000888992429942764 3.02579952873031e-05)
(-1.36242016056108e-06 0.000394793509341259 0.000183940760869947)
(-5.81191570038498e-06 0.000235914947736541 0.000141428920672117)
(-1.73449539368575e-05 -1.32931914306357e-05 0.000102867027424097)
(-4.28420516032231e-05 -0.000502917034045991 6.64439642358689e-05)
(-8.48064860804625e-05 -0.000973632713581918 3.19348780910296e-05)
(-9.54366979797118e-07 0.000411154445208617 0.000224566882809209)
(-4.0971320737067e-06 0.000290672847240396 0.000181647392697159)
(-1.16438917273617e-05 0.000146137820568961 0.000142388523177281)
(-2.73300464023359e-05 -8.91885131872699e-05 0.000104868357685405)
(-5.91610009704223e-05 -0.000574200308546961 6.77107739836727e-05)
(-0.000109357000838582 -0.00106267491467399 3.31123988363266e-05)
(-6.18206823499336e-07 0.000426513969907251 0.000264392030580683)
(-2.92077268702731e-06 0.000322433314306808 0.000221058239802487)
(-8.20879952132017e-06 0.000215124500319484 0.000181941076404532)
(-1.8835389108655e-05 7.9851504488159e-05 0.000144078144446813)
(-3.85398810598717e-05 -0.000158479636984 0.000105553946294835)
(-7.66553619141695e-05 -0.000644258209240333 6.76675790948231e-05)
(-0.000138292818119317 -0.00115746244389944 3.32179263465507e-05)
(-3.67451555624705e-07 0.000442617974630938 0.000302881047825479)
(-2.05309273375039e-06 0.000346414886477361 0.000259089095174706)
(-5.8819962640551e-06 0.000254614594562043 0.000220063792617836)
(-1.35878445443059e-05 0.000154549517794831 0.000182767998013206)
(-2.69337558908975e-05 1.59387534923653e-05 0.000143923343131266)
(-5.05303443629057e-05 -0.000226947293361894 0.000104432139628342)
(-9.63728475211048e-05 -0.000713849613905347 6.64372830185176e-05)
(-0.000182453755789205 -0.00125303357679786 3.32025514692985e-05)
(-1.95581380556059e-07 0.000459761906292699 0.000339712830641313)
(-1.39672621727348e-06 0.000367764261685166 0.000295315968339205)
(-4.20002558687788e-06 0.000283195477786076 0.000256219333588829)
(-9.93419491748112e-06 0.000197420358052183 0.000219325967624637)
(-1.96708243461279e-05 9.40890073863481e-05 0.000181236309339764)
(-3.54862173318782e-05 -4.89549682019114e-05 0.000141424656457985)
(-6.29097718915673e-05 -0.000296037179589255 0.000101511559634619)
(-0.000118736795695138 -0.000778928658523368 6.47576329360767e-05)
(-0.000237477175344534 -0.00131730305985126 3.53901085355425e-05)
(-9.23995066764227e-08 0.000477693935911292 0.000374665736152701)
(-9.11158932323716e-07 0.000388315517568121 0.000329403182548772)
(-2.94625764945859e-06 0.000307452524190373 0.000290002424098641)
(-7.21033092642883e-06 0.000228194691173004 0.000253257855771561)
(-1.45185718824196e-05 0.000139356729457376 0.000215721333492391)
(-2.6027589798158e-05 3.18080320286045e-05 0.00017678573163826)
(-4.39993380838748e-05 -0.000115681153079059 0.000136470797122116)
(-7.45675132289054e-05 -0.000365548785046344 9.65126428456683e-05)
(-0.000136240948058851 -0.000834442048029406 5.89566504405547e-05)
(-0.000231843203173825 -0.00140682200417971 3.64353297720886e-05)
(-5.06073623773984e-08 0.000495996272853417 0.000407571870777262)
(-5.67599818800653e-07 0.000408642437626659 0.000361123820434261)
(-1.99858344992895e-06 0.000330069073407977 0.000321160691577971)
(-5.08923621908376e-06 0.000254144339286631 0.000284285322320089)
(-1.05448406817925e-05 0.000172219045873656 0.000246938507590962)
(-1.92109689038194e-05 7.96304682490578e-05 0.00020861385784656)
(-3.23342718476263e-05 -3.19691474310618e-05 0.000169306189899858)
(-5.2259646543979e-05 -0.000183718947588051 0.000129118275985849)
(-8.52825432384435e-05 -0.000436747944709003 8.83846534371159e-05)
(-0.000152147403600355 -0.0009120412043904 4.73194601138229e-05)
(-0.000272683381284222 -0.00149327916354437 2.97152344187608e-05)
(-4.99599030972369e-08 0.000514269914336588 0.000438338958522888)
(-3.40825955264293e-07 0.000429123429860204 0.000390571248671493)
(-1.26381972339392e-06 0.000352662674639156 0.000349905397016687)
(-3.38321404825594e-06 0.000279052613510818 0.000312691380582663)
(-7.3159006409185e-06 0.000201068478839445 0.000275182698820272)
(-1.3780183618152e-05 0.000116152505313252 0.000236955668100889)
(-2.36679166681709e-05 2.05326533474473e-05 0.000198207426733162)
(-3.83239098580547e-05 -9.38578665405142e-05 0.000159411164588879)
(-6.0221300825479e-05 -0.000247678181367594 0.000121561110753552)