/*--------------------------------*- C++ -*----------------------------------*\
  =========                 |
  \\      /  F ield         | OpenFOAM: The Open Source CFD Toolbox
   \\    /   O peration     | Website:  https://openfoam.org
    \\  /    A nd           | Version:  12
     \\/     M anipulation  |
\*---------------------------------------------------------------------------*/
/*   Windows 32 and 64 bit porting by blueCAPE: http://www.bluecape.com.pt   *\
|  Based on Windows porting (2.0.x v4) by Symscape: http://www.symscape.com   |
\*---------------------------------------------------------------------------*/
FoamFile
{
    format      ascii;
    class       volScalarField;
    location    "400";
    object      k;
}
// * * * * * * * * * * * * * * * * * * * * * * * * * * * * * * * * * * * * * //

dimensions      [0 2 -2 0 0 0 0];

internalField   nonuniform List<scalar> 
10142
(
4.54111536599242e-05
4.36788736691503e-05
0.00018805529030778
4.67012728453557e-05
4.18465567014494e-05
0.000183099928649935
4.4972012193941e-05
0.000290741430002769
0.000188474149154764
4.82891429239687e-05
3.97697807287517e-05
0.000177703539323723
4.31825910363592e-05
0.00028369616630949
0.000183520557478463
4.65420391842902e-05
0.000370083637400737
0.00029054866336067
0.0001886676247403
4.88022495962157e-05
3.74304198853306e-05
0.000171730113790413
4.11139597193598e-05
0.000276042805671052
0.000178130101402477
4.47476178960954e-05
0.000361386229475944
0.000283512512469105
0.000183722298620673
4.70660877937401e-05
0.000437158672131428
0.000369571515027091
0.000289128358900621
0.00018725618213224
4.76325352079074e-05
3.48280077871517e-05
0.000165084264409044
3.8762145056806e-05
0.000267710959389253
0.000172152176628526
4.26585175136641e-05
0.000351975746702518
0.000275865723007441
0.000178347542788448
4.52866513173687e-05
0.000427056498073661
0.000360887949478596
0.000282122213817531
0.00018235407097997
4.59623232782654e-05
0.000496493508251825
0.000436313174849231
0.000367120611120654
0.00028570272591464
0.000183396705608752
4.51840003551256e-05
3.19828798337729e-05
0.000157646025352216
3.61453691062672e-05
0.000258630814487621
0.000165495422455021
4.02716322486593e-05
0.00034181742581925
0.000267539093726614
0.000172388204042173
4.32148119496661e-05
0.000416162531623395
0.000351486510254339
0.000274509416906123
0.000177036842658168
4.42570378054357e-05
0.000485147769936845
0.000426230570513048
0.000358481876942758
0.000278762561960185
0.000178591704898764
4.36215760444565e-05
0.000550277847582883
0.000495268842798603
0.00043302178957741
0.000362153171825268
0.000279708692076335
0.00017728085412237
4.20985778761335e-05
2.89056093727512e-05
0.000149378744268196
3.32716904082277e-05
0.000248736769521005
0.000158030306057991
3.76097226842553e-05
0.000330870018799781
0.000258463668313951
0.000165751221607532
4.08384070164962e-05
0.000404464676090574
0.000341336442635496
0.000266221075591038
0.000171149482759151
4.22672173277519e-05
0.000472944004779287
0.000415350349684827
0.000349127467011477
0.000271226627797947
0.000173393182823231
4.2033180403118e-05
0.000537804582872975
0.000483949998873858
0.000422996930471914
0.000353600178546539
0.000272883830104387
0.00017262303201258
4.06589541006705e-05
0.000599765460744537
0.000548732321531696
0.000491192657826349
0.000426765560887106
0.000354356680389651
0.00027121992553057
0.000169530611788006
3.86954762231075e-05
2.56317288239232e-05
0.000140215627979703
3.01572940387476e-05
0.000237977714271223
0.000149749482017131
3.46824176313526e-05
0.000319095423579994
0.000248572184086602
0.000158317648213847
3.81849638682966e-05
0.000391944565268742
0.000330398288962249
0.000257190409769401
0.000164595992219368
3.99772222185889e-05
0.000459886738755352
0.000403664960179776
0.000339027900992791
0.000263026767220139
0.000167646185359493
4.01728986283205e-05
0.000524409033671001
0.000471766337067728
0.000412175666091516
0.000344340612630481
0.000265479604521146
0.000167596638772683
3.92031421797212e-05
0.000586260037813349
0.000536292381475498
0.000479944402502032
0.000416844176968014
0.000345938513347615
0.000264558262136454
0.000165055658142548
3.73879868855737e-05
0.000645763859980875
0.000598004763574728
0.000543991843496765
0.000483804624601337
0.000417395112626814
0.000343863707629481
0.000260632986705497
0.000160566560016874
3.50235252793649e-05
2.22367617721493e-05
0.00013010287428469
2.68306450767373e-05
0.000226324824676211
0.000140594582097017
3.1508666050592e-05
0.000306461874189479
0.000237828245043355
0.00015008640677299
3.5273662825046e-05
0.000378587222875944
0.00031863408332139
0.000247352638717377
0.000157272525132772
3.74158500502742e-05
0.000445976503764306
0.000391157535291785
0.000328145408891783
0.000254098856809423
0.000161257059010072
3.80267115332367e-05
0.000510111598687682
0.000458727213143951
0.000400551411081767
0.000334344891686002
0.000257429434886026
0.000162049243209825
3.74943459200401e-05
0.000571751841137091
0.000522922437519211
0.000467831809818315
0.000406134454673288
0.000336827933921093
0.0002573386257871
0.000160235578668233
3.60698101592322e-05
0.0006313280402153
0.000584536800070979
0.000531633648341884
0.00047267627287085
0.000407628103779313
0.000335629446421317
0.000254176395751491
0.000156298432958601
3.38512938212196e-05
0.000643870059292384
0.000592761014726199
0.000535657263649283
0.000473062454939188
0.000405135270718544
0.000330992249194075
0.00024825864903252
0.000150516564803262
3.10768519546632e-05
1.88266147017738e-05
0.000119015629462576
2.33491576627337e-05
0.000213726573597124
0.000130516752813411
2.8117553667e-05
0.000292961099708517
0.000226196069015315
0.000141008610660017
3.21205880123585e-05
0.000364381382598962
0.000306014487352219
0.000236679109388565
0.000149179247276745
3.46169714337938e-05
0.000431219001765907
0.00037781314706573
0.000316443253079607
0.00024438262293322
0.000154148309928213
3.56280807732817e-05
0.000494930465891058
0.000444834465493113
0.000388108251573896
0.000323576756353875
0.000248673821849449
0.000155899526057737
3.55199358304138e-05
0.000556291991811959
0.000508648172139115
0.000454864841666259
0.000394628575526713
0.000326995274767188
0.000249496208645564
0.000154926229385591
3.45169116963986e-05
0.000615746115646388
0.000570058005566065
0.000518345278025741
0.000460690912971361
0.000397085433257482
0.000326720894368182
0.000247185514851489
0.000151710969063143
3.26790860215041e-05
0.000673555261253306
0.000629471366302509
0.000579382916279671
0.000523433068500525
0.000462106687862704
0.000395572957466241
0.000322987321758747
0.000242043578013384
0.000146478122202066
3.00451612018893e-05
0.000638252411060375
0.000583670666222406
0.000523753584951031
0.000459258271403311
0.000390295205813881
0.000315982368680763
0.000234243789501844
0.000139388603213584
2.68826891026139e-05
1.55630483323902e-05
0.000107009127981375
1.98300666966923e-05
0.000200133067306524
0.000119513115528499
2.45665639838135e-05
0.00027856384518523
0.000213628153331308
0.0001310467761418
2.87570499667253e-05
0.000349333469915156
0.000292533678341001
0.000225135422581212
0.000140277491527654
3.15927662954385e-05
0.000415624755697115
0.000363619570543188
0.000303894716758121
0.000233850107269835
0.000146295459510818
3.30114791165598e-05
0.000478890285463157
0.000430093780621983
0.000374831477322586
0.000312001750457127
0.00023915908125862
0.000149094207924638
3.331395858761e-05
0.000539917564895149
0.000493488919857621
0.000441045631520949
0.000382310607068173
0.000316405840765066
0.000240976474406409
0.000149059961512539
3.27191286060618e-05
0.000599168739037412
0.000554624642105418
0.000504152852211564
0.00044785633217156
0.000385757726791145
0.000317108610424936
0.000239598725396876
0.000146666632602179
3.12870840877411e-05
0.000656878284541639
0.000613922729896131
0.000564993698193568
0.000510285437843234
0.000450305551286717
0.000385251191162405
0.000314329698191489
0.000235320983889977
0.000142148050002911
2.90263941397124e-05
0.000713002240958576
0.000671597204284614
0.000623946691650156
0.000570437595275817
0.000511717952309726
0.000448526789233199
0.000380985669884839
0.000308249836176007
0.000228304982165581
0.000135603233375311
2.59971516317816e-05
0.000628553898952304
0.000570797403804706
0.000508615998933315
0.000442708818848373
0.000373084446785166
0.000298968976982554
0.000218650316589991
0.00012718155338334
2.25031681319221e-05
1.27109985232066e-05
9.43310412263606e-05
1.6472479280282e-05
0.000185500756363181
0.000107695703053385
2.09709368096914e-05
0.00026322743673558
0.000200080229415568
0.00012021333275165
2.52451903293066e-05
0.000333444692750632
0.000278163674292296
0.000212680321667992
0.000130543685759998
2.83753251259028e-05
0.000399211848959217
0.000348588952745197
0.000290495333790457
0.000222473893213093
0.000137679703322655
3.01910697344616e-05
0.000462022870917593
0.00041451458417547
0.000360708546269541
0.000299591404080111
0.000228845779323898
0.000141565933182459
3.09020203541037e-05
0.000522669635598097
0.000477469019940714
0.000426379168459862
0.000369165792429848
0.000305026936653444
0.000231731298852463
0.000142592949329255
3.07116126786146e-05
0.000581649363996086
0.000538274870661322
0.000489075493103319
0.000434173439408264
0.000373628511069073
0.000306759556763418
0.00023136723945006
0.000141110014427087
2.96702737154451e-05
0.000639211612542183
0.00059737454648534
0.000549649665816944
0.000496237651549853
0.00043766404913364
0.000374159240042547
0.000304990368550178
0.00022803168010185
0.000137392826487143
2.78035840543321e-05
0.000695380086820903
0.000654965180169868
0.000608494893134505
0.000556200097520403
0.000498769782206871
0.000436964782345239
0.000370936365428137
0.000299889815781675
0.0002218884837177
0.000131556451275022
2.51364796194061e-05
0.000749986170008088
0.000710972897599962
0.000665771495166738
0.000614400282242463
0.00055776629666032
0.000496822349235088
0.000432251882954197
0.000364075042181486
0.000291551389704095
0.000213022492043986
0.00012367298978251
2.17638770518779e-05
0.00061485917866536
0.000554508964738034
0.000490576734150141
0.000423613187333203
0.000353626203273668
0.000280037250118081
0.000201514079861805
0.000113912677513459
1.80344032385624e-05
1.05631327514237e-05
8.15709183312283e-05
1.35347081070181e-05
0.000169823563992979
9.53759408707873e-05
1.75350232039617e-05
0.000246894847118844
0.000185522631800516
0.000108635561963325
2.16935846058258e-05
0.000316692528143766
0.000262866635512747
0.000199277850821231
0.000120003560675743
2.50249801752635e-05
0.000382013852505944
0.000332720411173877
0.000276220416586053
0.000210220430614778
0.000128291972258492
2.71980125770089e-05
0.000444367763572772
0.000398116646489998
0.00034575290798389
0.000286344997969071
0.000217722429775285
0.000133327715341702
2.83160993116807e-05
0.000504600037276065
0.000460619080228096
0.000410873544292264
0.000355180922384828
0.000292829564150736
0.000221720238803606
0.000135465573036023
2.85199529863766e-05
0.000563238648970218
0.000521049171871829
0.000473136091416737
0.000419645703812948
0.000360682822535281
0.00029564303158781
0.000222449665856813
0.000135010199864406
2.78652328616237e-05
0.000620580005113251
0.000579881567274279
0.000533388269564289
0.000481306639010049
0.000424180929096961
0.000362279973789217
0.000294937975755935
0.00022013182545411
0.00013216602457048
2.63742530957248e-05
0.000676686485737624
0.000637331340126909
0.000592042605976874
0.000541010930740367
0.000484928605978209
0.000424574607866316
0.000360135363013894
0.000290873545801418
0.000214936417990356
0.000127116212731507
2.40904465195954e-05
0.000731439012076472
0.000693396936559521
0.000649247799688861
0.000599110103016073
0.000543741577124522
0.000484130096473807
0.000420982644557695
0.000354349436970019
0.000283535471378866
0.000206950332076621
0.00011993656615915
2.10626924663938e-05
0.000784595991832428
0.000747892031601119
0.000704896404338124
0.00065571568389918
0.000600918065776093
0.000541735459949206
0.000479077471019758
0.000413481309938435
0.000344964887972798
0.000272977536592748
0.000196232318399518
0.000110703676413606
1.74332218097075e-05
0.000597564953092572
0.000535160364318313
0.000469837689262922
0.000402088717760467
0.000332010583859539
0.000259247749551141
0.000182865539261069
9.96039224172018e-05
1.36867054097945e-05
9.14323306380148e-06
6.95872881729912e-05
1.12360260591144e-05
0.000153186565076406
8.31082585806846e-05
1.45118674091567e-05
0.000229493290906507
0.000169959442755708
9.66232205323108e-05
1.82898918265703e-05
0.000299031991442988
0.000246592410300835
0.000184912199622078
0.000108780670425208
2.1640690334803e-05
0.000364040139800717
0.000315995400552653
0.000261038230568553
0.000197064880702556
0.000118164026578192
2.40894152092524e-05
0.000425979879231681
0.000380933839692286
0.000329963840078071
0.000272241905680644
0.000205763369618168
0.000124379887032709
2.55817311188288e-05
0.000485774534863113
0.000442976429350984
0.000394547645208568
0.000340366833114987
0.000279811755134585
0.000210930733941999
0.00012767091406125
2.61745468618572e-05
0.000544004384384611
0.00050299790000305
0.000456362874432917
0.000404279496285548
0.000346907553458908
0.000283731720820332
0.000212808079902616
0.000128327244857481
2.5901115746611e-05
0.000601031977647196
0.000561493990538181
0.000516247856110959
0.000465512391373609
0.000409857431160201
0.000349598231142635
0.000284144404090018
0.000211586495341656
0.000126449242440499
2.47777439259488e-05
0.000656975407705872
0.000618727740678924
0.000574643376850801
0.000524904453253736
0.00047020787836261
0.000411352569302383
0.00034856486095976
0.000281171094971105
0.000207408823513793
0.000122241017975976
2.28571721958134e-05
0.000711748858271795
0.000674737924450036
0.000631717222577759
0.000582822124305869
0.000528771222702078
0.000470555018095149
0.000408900998530798
0.000343894531010361
0.000274892287743897
0.000200375918960073
0.000115839575328206
2.01988766561348e-05
0.00076513840896726
0.000729392741181027
0.00068743328837321
0.000639365032773549
0.00058585321131424
0.000527982182396489
0.000466696874052445
0.000402559367270473
0.000335615337812797
0.000265352639935126
0.000190543974768264
0.000107306154972504
1.68891623295292e-05
0.000816850060437127
0.000782439828335612
0.000741587668438182
0.000694396078937773
0.000641524617391473
0.000583894777044624
0.000522699160829182
0.000458686023311748
0.000392333763054999
0.000323746303591424
0.000252589879302753
0.000177965623506566
9.67180417772084e-05
1.31691023354797e-05
0.0005770521730041
0.000512965248957364
0.000446516151859001
0.000378226972784832
0.000308314088774822
0.000236651586323205
0.000162724276505247
8.42057717346358e-05
9.69968865878844e-06
8.38149034796161e-06
5.89664974969864e-05
9.59448938360694e-06
0.000135806530991381
7.15048037293822e-05
1.20806260528773e-05
0.000210960293312967
0.000153483526325074
8.46655857016989e-05
1.52505633672708e-05
0.000280388252145836
0.000229280777863533
0.000169608665914787
9.71503660920894e-05
1.83764804560236e-05
0.000345276248616494
0.000298373713128723
0.000244908600965084
0.000182999937669495
0.000107405597317536
2.09470210129729e-05
0.000406917979871162
0.000362976930043631
0.00031332635353685
0.000257256484911794
0.000192949798154799
0.000114756258946681
2.27450842833206e-05
0.000466275440523995
0.000424599018339128
0.000377433852585676
0.000324724565054217
0.000265958958834318
0.000199347573073599
0.00011922400362738
2.37048724118796e-05
0.000524038244976275
0.000484184392359558
0.000438789957537059
0.000388088330182819
0.000332304543138461
0.000271015428788764
0.000202416893321341
0.00012101543213283
2.38017746956486e-05
0.000580645514511897
0.000542277821695234
0.000498275393578725
0.000448879420056598
0.000394697369376127
0.000336101276423823
0.00027258473292151
0.000202362359216032
0.000120218859893319
2.30450961013009e-05
0.000636305032664165
0.000599203570014976
0.00055634499067489
0.000507914908435106
0.000454623577175368
0.000397297390477875
0.000336209410945344
0.000270756649432201
0.000199276594317953
0.000116921990490025
2.1476074238726e-05
0.000690979558028115
0.000655056235670801
0.000613212719572327
0.000565585831562193
0.000512884917813829
0.000456106640273992
0.000396000833448189
0.000332691839665056
0.0002655929367318
0.000193261634839636
0.000111342078098261
1.91679326269753e-05
0.000744472142932113
0.000709738862188255
0.000668883022500356
0.000622008770261418
0.000569795930490342
0.000513292044734427
0.000453447110143626
0.000390844925222361
0.00032556321879602
0.000257133257187979
0.000184389504333755
0.000103583120365307
1.62081646191129e-05
0.000796503106795963
0.000763032267522364
0.000723206052195773
0.000677113886320654
0.000625412728147328
0.000569116571317275
0.000509275432458454
0.000446674416133021
0.000381815682725141
0.000314826622519559
0.000245405097702398
0.000172702332903786
9.36957302571208e-05
1.27296279869168e-05
0.000846740110416196
0.000814634634026131
0.000775922445322748
0.000730682747583111
0.000679573810587532
0.000623617233206398
0.000563710047423542
0.000500872080388055
0.000435767134789757
0.000368902256327368
0.000300496752068227
0.000230440675099803
0.000158244680030872
8.1669909727784e-05
9.28543585698647e-06
0.000553549492847515
0.000488045054056754
0.000420704560584686
0.000352110102274603
0.000282599900007607
0.000212279393302743
0.000141068543182414
6.77741868463187e-05
6.12691725176501e-06
7.84699456879733e-06
4.99293405698973e-05
8.47057805823731e-06
0.000118013096103101
6.09967419000052e-05
1.02229925211796e-05
0.000191300491423322
0.000136326066639616
7.32747027389313e-05
1.27102493351036e-05
0.000260671752735486
0.000210886827105163
0.000153467036178925
8.55226790670295e-05
1.54060156251169e-05
0.000325681595969541
0.000279791414407814
0.000227786638727829
0.000168058341089965
9.62410875878816e-05
1.78893726219297e-05
0.000387217646718368
0.00034423452781722
0.00029580637871129
0.000241357427359698
0.00017927999200208
0.000104546413693969
1.98740915847755e-05
0.000446210318154412
0.000405543145812224
0.000359543459846237
0.000308241823031648
0.000251250436734895
0.000186958658781642
0.000110159476498
2.11472297060177e-05
0.000503460678664907
0.000464687823537598
0.000420472532288263
0.00037110258871453
0.000316879505925533
0.000257487884199913
0.000191275971309542
0.000113105151785415
2.16019014252994e-05
0.000559533316720582
0.000522321764073942
0.000479529307697008
0.000431436878460999
0.000378707970961876
0.000321780995288494
0.000260239565133341
0.000192431256789895
0.000113444744241475
2.12012585240778e-05
0.000614761882360441
0.000578834960030197
0.000537209250297721
0.000490083735668421
0.000438195474921267
0.000382410179235757
0.000323055993226416
0.000259607571261402
0.000190513443266057
0.000111149194717357
1.99780957934182e-05
0.000669193843139432
0.000634410737097149
0.000593781806562224
0.000547444030770349
0.000496111306918598
0.000440796468266385
0.000382278380525343
0.000320725594181817
0.000255613518650643
0.000185582865090029
0.000106440739570028
1.80086623599514e-05
0.000722660788490379
0.000689000596491823
0.000649305669308223
0.000603675626271425
0.000552789862005452
0.000497689450294453
0.000439333798365078
0.000378329601867496
0.000314789320443448
0.000248290969036538
0.000177731896773623
9.94934261258934e-05
1.53855641643599e-05
0.00077488232624524
0.000742404233798226
0.000703666383766295
0.000658746927154312
0.000608299597672084
0.00055335373954117
0.000494926995547701
0.000433811588786099
0.00037052982201819
0.000305235863965486
0.000237662750352431
0.000167012414179826
9.03812522409412e-05
1.22268814088643e-05
0.000825531400004547
0.000794340086657282
0.000756638043288205
0.000712490339093198
0.000662541475779047
0.000607808354580376
0.00054927924238477
0.000487837933573047
0.00042418451268937
0.000358846681430425
0.000292062342332826
0.000223746598668171
0.000153452502167151
7.91138691011275e-05
8.91379436305345e-06
0.000874248156958967
0.000844468850148656
0.000807917465792615
0.000764642596910361
0.000715284788399829
0.000660871111510178
0.000602397145407863
0.000540593520809509
0.000476377786679159
0.000410415055385637
0.000343270133422222
0.000275280499281022
0.000206564416141164
0.000137060113005356
6.55689918794136e-05
5.82894718999877e-06
0.000527183824113197
0.000460492922590391
0.000392485783942994
0.000323804558885585
0.00025490840969848
0.000186133717062021
0.000117873580925828
5.05817762174788e-05
3.21487851389279e-06
7.33297073347836e-06
4.18604801029467e-05
7.51605259798849e-06
0.000100691315021894
5.16196589238394e-05
8.76961659046911e-06
0.000170666331011127
0.000118912593860454
6.27638356606837e-05
1.06512543871579e-05
0.000239828152381411
0.000191435054055519
0.000136708351998674
7.43090606050226e-05
1.28261165746163e-05
0.000305207962815756
0.000260172961945198
0.000209644712551959
0.000152336077709577
8.49955517672487e-05
1.50483619428942e-05
0.00036690329122403
0.000324671827219534
0.000277349875007731
0.000224511191963077
0.000164783603929873
9.39222177557449e-05
1.70511158375787e-05
0.00042569056373951
0.000385845344381794
0.000340867485770463
0.000290890147394371
0.000235660657142625
0.000173763895209645
0.00010054826205934
1.85518456432149e-05
0.000482423820868809
0.000444616621864685
0.000401462500647181
0.000353332346545166
0.000300621493008648
0.000243132390826281
0.000179377443521648
0.000104629509057364
1.93254588699268e-05
0.00053785050690415
0.000501741870709274
0.000460082092456837
0.000413230776902474
0.000361914028844053
0.000306645227091699
0.000247107539266895
0.00018178954115751
0.000106098720530194
1.92666300322262e-05
0.000592471742658746
0.000557731072727265
0.000517318254216326
0.000471461701396286
0.000420946700251106
0.000366693288251955
0.000309093078199363
0.000247704719064578
0.000181094502665412
0.000104906791885673
1.83871878661742e-05
0.000646480541390171
0.000612885953171387
0.000573496021579703
0.000528451458927085
0.000478484703547008
0.000424639139223027
0.000367732294497708
0.000307982832570858
0.000244933852911651
0.000177319706359951
0.000101133870406926
1.67492038010618e-05
0.000699765007424785
0.000667241406924868
0.000628758286121336
0.000584408034199746
0.000534870965315653
0.000481196807809611
0.00042436401022817
0.000365007279191973
0.000303277470770257
0.00023880320184127
0.000170549161824287
9.5035645544962e-05
1.44461618745714e-05
0.000752047035992754
0.000720625972836022
0.000683038228390982
0.00063934984150949
0.000590207683770089
0.000536643444878582
0.000479672947869288
0.000420099486359151
0.000358465702427457
0.000294953975235095
0.000229334117589089
0.000160857644195093
8.6734387090854e-05
1.16051573452191e-05
0.000802983057527721
0.000772759752567231
0.000736130171579764
0.000693143289768994
0.000644429801232903
0.000591004612193722
0.000533874822765192
0.000473895601014135
0.000411773751334316
0.000348053449559107
0.000282993523168509
0.000216536376683776
0.000148276243492923
7.62591908189678e-05
8.50462416135265e-06
0.000852211649033713
0.000823315033555451
0.00078775197345641
0.000745556436879893
0.000697353923616086
0.000644155739233539
0.000586955048211974
0.000526572904512956
0.000463796301624084
0.00039932395411591
0.000333737517854426
0.00026738846559627
0.000200415465542196
0.000132796945423653
6.3464689305059e-05
5.5819854344045e-06
0.00089935427073074
0.000871925077021363
0.000837565454665798
0.000796288822300706
0.000748713511978425
0.0006958548197849
0.000638712860352227
0.000578107894821823
0.00051467439936376
0.000449311510133268
0.00038271407333648
0.000315504975356137
0.000248139608838044
0.000180957718189339
0.000114348435996734
4.87164375412206e-05
3.02900392248812e-06
0.000498048121885711
0.000430388933212306
0.000361921940942083
0.00029334357149192
0.000225231937383747
0.000158165699767016
9.32847248600952e-05
3.32618146244066e-05
1.22905166598241e-06
6.02755119740738e-06
3.38260596894903e-05
6.53108908887108e-06
8.4386716995887e-05
4.28329293843257e-05
7.50389041504439e-06
0.000149427889356479
0.00010183076859584
5.30916647320314e-05
8.95347541882404e-06
0.000217901902791897
0.000171082514583488
0.000119688457902669
6.37481077681974e-05
1.06385257755036e-05
0.000283857457880683
0.000239477279944893
0.000190514463830347
0.000136014935374399
7.39891669413582e-05
1.25024519174479e-05
0.000346024953963677
0.000304246558555599
0.000257892768241635
0.000206696512327762
0.000149537000733062
8.31290861991101e-05
1.43761312448616e-05
0.000404835577644508
0.000365528524149576
0.000321373209729555
0.00027262237105809
0.000219158899840264
0.000159784524947888
9.05148096093068e-05
1.59790346564348e-05
0.000461120980463743
0.000424076384884767
0.000381792809591382
0.000334768633362416
0.000283505124825547
0.000227926773486455
0.000166720369453703
9.56423436432698e-05
1.70076631634702e-05
0.000515800592982515
0.000480684093574183
0.000440033739394179
0.000394306914653648
0.000344324002880138
0.000290685014039733
0.000233176642457102
0.000170435094758457
9.82320741035639e-05
1.72698304651303e-05
0.000569611043351484
0.000536041588541006
0.000496777956093213
0.000452110260643599
0.000402909425022065
0.00035016049734245
0.000294320962424395
0.000235036377411147
0.00017100370241332
9.81745940443785e-05
1.67217799069431e-05
0.000622967350978552
0.000590603740245036
0.000552456549826426
0.000508679713127015
0.000460046405011547
0.000407651423130772
0.000352362100784672
0.000294452038598362
0.000233536141076452
0.000168453192999935
9.54166784195299e-05
1.54107429596666e-05
0.000675868642504249
0.000644548127135227
0.000607320509009293
0.000564269432049477
0.000516084722116621
0.000463840734614925
0.00040854741068423
0.000350874344313905
0.00029101473289947
0.000228651953096462
0.000162825978385578
9.0212455738387e-05
1.34257844580694e-05
0.000728051242683477
0.000697759056043089
0.000661383255590003
0.000618974188125301
0.000571171862628338
0.00051901398207457
0.000463529530097858
0.000405541059652963
0.000345615050552089
0.000283964262736304
0.000220397274024573
0.000154216805212333
8.27501809593833e-05
1.08903947028561e-05
0.000779148383478862
0.000749959988350451
0.000714468567019213
0.000672705353156519
0.0006252860557793
0.000573221827174162
0.000517527449403181
0.000459059144560317
0.000398533435567834
0.000336510125104099
0.000273269118835691
0.000208780024431471
0.000142674729659048
7.30970588257985e-05
8.0325078911086e-06
0.000828769758279301
0.000800809526575361
0.000766298224528315
0.000725251261052022
0.000678275014251959
0.000626368399198723
0.000570527232113031
0.000511594058949314
0.000450328523111643
0.000387433666530909
0.000323503287431826
0.000258904229632715
0.000193796142766661
0.000128193145368381
6.11634076801551e-05
5.3204888053359e-06
0.000876530282153856
0.000849945973917341
0.000816546800243341
0.000776331164423447
0.000729901425263215
0.000678255600419795
0.000622380785810987
0.0005630983823443
0.000501130044084185
0.00043724866366806
0.00037217912653563
0.000306557594474706
0.000240849582754566
0.000175413809394346
0.00011068126980149
4.70422325033562e-05
2.88662714685131e-06
0.000922040162427905
0.000896983712047877
0.00086484965278174
0.000825613334941561
0.000779868034385346
0.000728613156524716
0.000672835356982805
0.000613353851068146
0.00055088331855624
0.000486047961896091
0.000419754984443796
0.000352727555006673
0.000285641707955013
0.000219070157719265
0.000153586134772649
9.02837414764644e-05
3.17943929763199e-05
1.14787754931186e-06
0.000466216844380982
0.000397784937767512
0.000329028928272764
0.000260693456556878
0.00019348570195906
0.000128421907006072
6.76329968712648e-05
1.71928553124244e-05
2.68694281164787e-07
2.79877878730649e-06
2.37904254848631e-05
5.05084925522733e-06
6.89834056968565e-05
3.37870324007965e-05
6.21646180030133e-06
0.000128071289556361
8.54022383257299e-05
4.38094673704721e-05
7.48790268997304e-06
0.000195055945841991
0.000150125042676077
0.000102799921163233
5.37991943548612e-05
8.80301946158581e-06
0.000261739032684922
0.000217752846784303
0.000170521319833226
0.00011935107581184
6.34164540587139e-05
1.02762808974229e-05
0.000324745770592029
0.000282963341832281
0.000237396836147571
0.000187935448298428
0.000133667582505496
7.2416042696403e-05
1.19182544800701e-05
0.000383846682039301
0.000344636848890118
0.000301017257541233
0.000253377172318006
0.00020172413625771
0.00014507202541041
8.02390795970135e-05
1.34958648255774e-05
0.000439794371391185
0.00040317745201379
0.000361477843130938
0.000315377928842995
0.000265486483552275
0.000211841064752619
0.000153316668234457
8.62314514097942e-05
1.46901937311868e-05
0.000493640574988214
0.000459336367574801
0.000419476195830399
0.000374689911009771
0.000325926960176664
0.000273876685214925
0.000218426790313873
0.000158366311268481
8.98853024686425e-05
1.52302182510934e-05
0.000546415814182114
0.000513961873839009
0.00047571908991637
0.000432112013493147
0.000384122229341499
0.000332820859311586
0.000278735477809276
0.000221599533796111
0.000160241935639856
9.09389023675687e-05
1.49965218577532e-05
0.000598833062953668
0.000567734411074035
0.000530800112203135
0.000488218945702813
0.000440844255782858
0.000389852173728942
0.000336168950473963
0.000280123162367263
0.000221405137609536
0.000158965674950785
8.92789048594159e-05
1.40082905365442e-05
0.000651090165313982
0.000621044481487874
0.000585105454439197
0.000543348168657121
0.000496489632301489
0.000445652743476397
0.000391895014218757
0.00033592799467287
0.000277989867828852
0.000217821640047114
0.000154549075029192
8.50250800507467e-05
1.23377790600141e-05
0.000702968080988953
0.000673885524163807
0.000638783477669066
0.000597690877573048
0.000551244737065779
0.000500500793873538
0.0004465159365029
0.000390141480519713
0.000331972251354277
0.000272253742200938
0.000210835922349371
0.000147077368792292
7.84357725457558e-05
1.01036655241929e-05
0.000754072166111983
0.000725995979692248
0.000691713286721317
0.000651232641359116
0.000605153580091852
0.000554486332342191
0.0005002578587608
0.000443339102774784
0.000384462822626589
0.000324206465956095
0.000262871712292454
0.000200455420226446