/*--------------------------------*- C++ -*----------------------------------*\
  =========                 |
  \\      /  F ield         | OpenFOAM: The Open Source CFD Toolbox
   \\    /   O peration     | Website:  https://openfoam.org
    \\  /    A nd           | Version:  12
     \\/     M anipulation  |
\*---------------------------------------------------------------------------*/
/*   Windows 32 and 64 bit porting by blueCAPE: http://www.bluecape.com.pt   *\
|  Based on Windows porting (2.0.x v4) by Symscape: http://www.symscape.com   |
\*---------------------------------------------------------------------------*/
FoamFile
{
    format      ascii;
    class       volScalarField;
    location    "400";
    object      p;
}
// * * * * * * * * * * * * * * * * * * * * * * * * * * * * * * * * * * * * * //

dimensions      [0 2 -2 0 0 0 0];

internalField   nonuniform List<scalar> 
10142
(
83333.3385989017
83333.3387121533
83333.3385995422
83333.3385974954
83333.338828328
83333.3387131179
83333.3387104061
83333.338601039
83333.3385982338
83333.3385943971
83333.3389480987
83333.3388299196
83333.3388261997
83333.3387154784
83333.3387115294
83333.3387067042
83333.3386038174
83333.3385997771
83333.3385952567
83333.3385892464
83333.3390714352
83333.3389503485
83333.3389456564
83333.3388335214
83333.3388280688
83333.3388218534
83333.3387200242
83333.3387140154
83333.3387080108
83333.3387006837
83333.3386075289
83333.338602539
83333.338596839
83333.3385901784
83333.3385818962
83333.3391983839
83333.3390744967
83333.3390686422
83333.3389554487
83333.338948287
83333.3389406635
83333.3388404302
83333.3388319045
83333.3388240106
83333.3388148618
83333.3387264051
83333.3387185903
83333.3387105862
83333.3387020862
83333.3386921661
83333.3386111077
83333.3386061244
83333.338599487
83333.3385917355
83333.3385827938
83333.3385724169
83333.339329093
83333.3392024591
83333.3391952002
83333.3390814218
83333.3390721775
83333.339062908
83333.3389652817
83333.3389537032
83333.3389436686
83333.338932603
83333.3388502961
83333.3388389124
83333.3388280094
83333.3388171628
83333.338805004
83333.3387333185
83333.3387248438
83333.3387150516
83333.3387046397
83333.338693515
83333.338681224
83333.3386133335
83333.3386094663
83333.3386028088
83333.3385941315
83333.3385842014
83333.338573203
83333.3385610993
83333.3394635943
83333.3393343813
83333.3393254684
83333.3392116094
83333.3391998254
83333.3391885951
83333.3390949472
83333.3390795008
83333.3390668973
83333.3390536181
83333.338979629
83333.3389636853
83333.3389493053
83333.338935791
83333.3389212113
83333.3388615772
83333.3388486506
83333.3388349183
83333.3388211549
83333.3388072422
83333.3387923591
83333.3387392051
83333.3387314587
83333.3387209922
83333.3387088017
83333.3386958793
83333.3386824203
83333.3386681875
83333.3386130475
83333.338611421
83333.3386057662
83333.3385969836
83333.3385861745
83333.3385743373
83333.3385617412
83333.3385483485
83333.3396016968
83333.3394703449
83333.3394594366
83333.3393462341
83333.3393313761
83333.3393178335
83333.3392297942
83333.3392094626
83333.3391937499
83333.3391778326
83333.3391150201
83333.3390931542
83333.3390744941
83333.3390578125
83333.3390404531
83333.3389965323
83333.338977839
83333.3389591846
83333.3389414217
83333.3389243164
83333.3389065867
83333.3388722704
83333.3388595552
83333.3388442802
83333.3388277046
83333.3388109957
83333.3387944008
83333.3387773126
83333.3387424684
83333.3387369859
83333.3387271297
83333.3387141587
83333.3386995171
83333.3386844365
83333.3386692008
83333.3386535343
83333.338609325
83333.3386109081
83333.3386072838
83333.3385993305
83333.3385883506
83333.3385757271
83333.3385625103
83333.3385488242
83333.3385345928
83333.3397429622
83333.3396102172
83333.3395969082
83333.3394855082
83333.3394668737
83333.3394505612
83333.3393703243
83333.3393438212
83333.3393243461
83333.3393053052
83333.3392572501
83333.339227737
83333.3392037117
83333.3391832118
83333.3391625391
83333.339139189
83333.3391129696
83333.3390880478
83333.3390653892
83333.3390445171
83333.3390235299
83333.3390135217
83333.3389943155
83333.3389728817
83333.3389508598
83333.3389296372
83333.3389094329
83333.3388891979
83333.338880296
83333.3388697566
83333.3388545712
83333.3388363443
83333.3388168991
83333.338797709
83333.3387791175
83333.3387604332
83333.3387418216
83333.338739909
83333.3387320719
83333.3387195342
83333.3387040341
83333.3386873528
83333.3386707554
83333.3386543338
83333.3386377685
83333.338607029
83333.3386063489
83333.3386001694
83333.3385898402
83333.3385770163
83333.338563173
83333.3385491586
83333.3385348645
83333.3385202379
83333.3398866044
83333.3397535904
83333.3397374261
83333.3396295062
83333.3396061623
83333.3395865526
83333.3395171226
83333.3394827728
83333.3394586896
83333.3394359328
83333.3394073701
83333.3393679511
83333.339337166
83333.3393120572
83333.3392874519
83333.3392909851
83333.339254861
83333.3392218741
83333.3391931302
83333.3391677345
83333.3391428931
83333.3391644107
83333.339136699
83333.3391072847
83333.3390783866
83333.3390516783
83333.3390272336
83333.3390034046
83333.3390278214
83333.3390106536
83333.3389885498
83333.3389636436
83333.3389382642
83333.3389141816
83333.3388917264
83333.3388697224
83333.3388838814
83333.3388773277
83333.338864027
83333.3388456531
83333.3388244756
83333.3388027099
83333.3387818429
83333.3387619654
83333.3387423177
83333.3387363581
83333.3387390106
83333.3387344338
83333.3387236023
83333.3387083256
83333.3386907649
83333.3386727755
83333.3386553525
83333.3386383139
83333.3386213696
83333.338602115
83333.3385985591
83333.3385897317
83333.3385774047
83333.3385633802
83333.3385489659
83333.3385347008
83333.3385202659
83333.3385056683
83333.3400312927
83333.339899623
83333.3398801672
83333.3397780192
83333.3397487959
83333.3397253264
83333.3396707357
83333.3396263677
83333.3395965811
83333.3395694372
83333.3395666528
83333.3395143581
83333.3394750311
83333.3394443097
83333.3394150692
83333.339453653
83333.3394045166
83333.3393611498
83333.3393247932
83333.3392939543
83333.3392645327
83333.3393269516
83333.3392880149
83333.339248241
83333.3392105813
83333.3391771103
83333.3391476122
83333.3391195819
83333.3391869458
83333.3391610661
83333.3391299283
83333.339096444
83333.3390636411
83333.3390336501
83333.339006671
83333.3389809005
83333.3390370485
83333.3390243453
83333.3390039121
83333.3389780384
83333.3389496959
83333.338921673
83333.3388957349
83333.3388718923
83333.3388488713
83333.3388816821
83333.3388805457
83333.3388708503
83333.3388539925
83333.3388324246
83333.3388089095
83333.3387857302
83333.3387640211
83333.3387435311
83333.3387235349
83333.3387252026
83333.3387333666
83333.3387330295
83333.3387250893
83333.3387112037
83333.3386936874
83333.3386748558
83333.3386563314
83333.3386387283
83333.3386216173
83333.3386047857
83333.3385937081
83333.338587156
83333.3385760714
83333.3385624315
83333.3385479135
83333.3385335496
83333.3385195565
83333.3385054161
83333.3384912563
83333.3401749449
83333.3400469013
83333.340023748
83333.3399304645
83333.3398938833
83333.3398660065
83333.3398315353
83333.3397744095
83333.3397375298
83333.3397052853
83333.3397365772
83333.3396674677
83333.3396173156
83333.3395797031
83333.3395450313
83333.3396294818
83333.3395631973
83333.3395064077
83333.3394605115
83333.3394230946
83333.339388306
83333.3395038246
83333.3394500337
83333.3393967136
83333.3393478471
83333.3393059947
83333.3392704338
83333.3392374255
83333.3393603167
83333.3393229556
83333.3392799678
83333.3392354019
83333.3391932326
83333.3391560323
83333.3391237077
83333.3390935565
83333.3392035659
83333.3391827847
83333.3391530068
83333.3391174135
83333.3390799543
83333.3390441699
83333.339012147
83333.3389836864
83333.338956868
83333.3390393189
83333.3390330883
83333.3390166223
83333.3389919496
83333.3389623461
83333.3389313655
83333.3389018353
83333.338875061
83333.3388506365
83333.3388273236
83333.3388726998
83333.3388780777
83333.3388733896
83333.3388596866
83333.3388392447
83333.3388151379
83333.3387902779
83333.3387666282
83333.3387448459
83333.3387243812
83333.3387046125
83333.3387076817
83333.3387220759
83333.3387269818
83333.3387228759
83333.3387114707
83333.3386950421
83333.3386761331
83333.338656881
83333.3386385528
83333.3386213762
83333.3386046937
83333.3385884448
83333.3385813918
83333.33857224
83333.3385596192
83333.3385454242
83333.3385310931
83333.3385173592
83333.3385041139
83333.338490683
83333.3384773575
83333.3403142957
83333.3401932087
83333.3401659349
83333.3400858684
83333.3400399606
83333.3400071558
83333.3399995985
83333.3399263357
83333.3398806177
83333.3398425422
83333.33991876
83333.3398276558
83333.3397637753
83333.3397176953
83333.3396767371
83333.3398213969
83333.3397323484
83333.3396581079
83333.3396002213
83333.3395548123
83333.3395137821
83333.3396985632
83333.3396250126
83333.3395538931
83333.3394906379
83333.339438389
83333.339395558
83333.3393567053
83333.3395515353
83333.3394989411
83333.3394403152
83333.3393813563
83333.3393273147
83333.3392812719
83333.3392425739
83333.3392072844
83333.3393866301
83333.3393552319
83333.3393131643
83333.3392649055
83333.3392157744
83333.3391703026
83333.3391309265
83333.3390970398
83333.3390658322
83333.339211684
83333.3391987596
83333.3391734266
83333.3391385808
83333.3390986523
83333.3390582587
83333.3390209163
83333.338988107
83333.338959134
83333.3389321159
83333.3390332478
83333.3390349976
83333.3390244884
83333.339003195
83333.3389743004
83333.3389418287
83333.3389094595
83333.338879578
83333.3388528907
83333.338828637
83333.3388057034
83333.3388561239
83333.3388689042
83333.3388703671
83333.3388611702
83333.3388433856
83333.3388200396
83333.3387944599
83333.338769296
83333.3387460485
83333.3387248996
83333.3387050478
83333.338686044
83333.3386835392
83333.3387044604
83333.3387153815
83333.338716135
83333.3387081035
83333.3386937454
83333.3386756653
83333.338656281
83333.338637415
83333.3386199564
83333.3386037525
83333.3385879688
83333.3385727556
83333.3385652757
83333.3385542753
83333.3385409223
83333.3385269052
83333.3385133937
83333.3385008098
83333.3384887437
83333.3384764184
83333.3384643189
83333.3404455045
83333.3403357885
83333.3403035785
83333.3402426617
83333.340184931
83333.3401465738
83333.3401745686
83333.3400811025
83333.3400243834
83333.3399797561
83333.3401148181
83333.3399950025
83333.3399138315
83333.3398573518
83333.3398092109
83333.3400329333
83333.3399135248
83333.3398165493
83333.3397436004
83333.3396885089
83333.3396402871
83333.3399158188
83333.3398157606
83333.3397211175
83333.3396393102
83333.3395741349
83333.3395225924
83333.339477002
83333.3397654326
83333.3396924634
83333.3396130806
83333.3395353428
83333.3394662147
83333.3394093215
83333.3393630291
83333.3393217106
83333.3395906295
83333.339545189
83333.3394868404
83333.339421966
83333.3393578148
83333.3393002005
83333.3392519073
83333.3392116244
83333.3391753135
83333.3394023337
83333.3393806757
83333.3393436981
83333.3392955427
83333.3392422769
83333.3391899599
83333.3391429693
83333.3391029305
83333.3390686437
83333.3390373774
83333.3392093815
83333.3392064075
83333.3391882521
83333.3391570769
83333.3391172647
83333.3390741417
83333.3390323902
83333.3389949077
83333.3389624216
83333.3389338247
83333.3389073862
83333.3390178627
83333.3390286757
83333.3390256799
83333.339009702
83333.3389835511
83333.3389513387
83333.3389173494
83333.3388848737
83333.3388556892
83333.3388299205
83333.3388065272
83333.3387845879
83333.3388315971
83333.3388522025
83333.3388607794
83333.3388572477
83333.3388433983
83333.3388222127
83333.3387970903
83333.3387711668
83333.3387466673
83333.3387246103
83333.338704731
83333.3386860236
83333.3386682977
83333.3386528384
83333.3386802597
83333.3386975469
83333.3387039807
83333.3387003478
83333.3386888882
83333.3386725051
83333.3386537505
83333.3386347656
83333.3386170248
83333.3386010324
83333.3385862822
83333.3385718438
83333.3385581098
83333.3385458669
83333.3385338634
83333.3385205608
83333.3385074047
83333.3384952762
83333.3384842932
83333.3384738053
83333.3384629748
83333.3384525691
83333.3405626615
83333.3404710753
83333.3404328099
83333.3403985653
83333.3403262354
83333.3402812641
83333.3403552383
83333.3402371456
83333.3401668373
83333.3401148392
83333.3403259022
83333.3401691105
83333.3400664271
83333.3399972287
83333.3399409984
83333.3402681843
83333.3401082685
83333.3399817613
83333.3398900093
83333.3398232145
83333.3397668138
83333.3401616421
83333.3400257084
83333.339899784
83333.3397940272
83333.3397128114
83333.339650854
83333.3395975668
83333.3400084877
83333.3399080222
83333.3398008718
83333.3396984946
83333.3396101403
83333.3395399333
83333.3394846641
83333.3394364129
83333.3398215132
83333.3397573254
83333.3396772301
83333.3395904353
83333.3395068801
83333.3394340235
83333.3393749115
83333.3393270589
83333.339284801
83333.3396161894
83333.3395830987
83333.339530716
83333.3394650153
83333.3393944124
83333.3393269256
83333.3392679969
83333.3392192993
83333.3391787922
83333.3391426138
83333.3394048048
83333.3393957556
83333.3393676086
83333.3393235079
83333.3392695263
83333.3392127848
83333.3391592789
83333.3391125058
83333.3390731314
83333.3390394979
83333.3390090727
83333.3391954309
83333.339203785
83333.3391949746
83333.339170138
83333.3391331628
83333.3390895991
83333.3390450013
83333.3390034737
83333.3389671106
83333.3389359299
83333.3389085092
83333.3388833526
83333.3389927464
83333.3390131328
83333.3390188278
83333.3390097482
83333.3389881843
83333.3389580855
83333.3389239967
83333.3388898902
83333.3388584758
83333.3388309162
83333.3388068062
83333.3387848805
83333.3387645105
83333.3387991924
83333.3388276094
83333.3388438012
83333.3388469569
83333.3388381924
83333.3388203537
83333.3387969408
83333.3387712516
83333.3387460411
83333.3387230768
83333.3387028996
83333.3386848339
83333.3386677611
83333.3386518216
83333.3386159102
83333.3386495445
83333.3386732185
83333.3386857505
83333.3386873706
83333.3386798128
83333.3386658745
83333.3386484959
83333.3386300056
83333.3386122234
83333.3385962562
83333.338582235
83333.3385693728
83333.3385567089
83333.3385449804
83333.3385238272
83333.3385116507
83333.3384991323
83333.3384874469
83333.3384771781
83333.3384681778
83333.3384596379
83333.3384507545
83333.3384425246
83333.3406604588
83333.3405944182
83333.3405486157
83333.3405500076
83333.3404605937
83333.3404076127
83333.3405390993
83333.3403923227
83333.3403055333
83333.3402449596
83333.3405519327
83333.3403487527
83333.3402199983
83333.3401353805
83333.3400701209
83333.3405310844
83333.3403176562
83333.3401532562
83333.3400383416
83333.3399574976
83333.3398919352
83333.3404435128
83333.3402587668
83333.3400912164
83333.3399546694
83333.3398536731
83333.339779336
83333.3397173656
83333.3402893969
83333.3401513829
83333.3400067787
83333.3398719252
83333.3397590665
83333.3396725666
83333.3396067236
83333.3395506401
83333.3400873497
83333.3399978634
83333.3398884636
83333.3397725469
83333.3396638177
83333.3395718113
83333.3394996096
83333.339442886
83333.3393937818
83333.3398599399
83333.3398117715
83333.3397388036
83333.3396497856
83333.3395565245
83333.3394696839
83333.33939597
83333.3393368896
83333.3392891103
83333.3392472897
83333.3396246348
83333.3396078177
83333.3395665454
83333.339505401
83333.3394328984
83333.3393586584
83333.3392903929
83333.3392322736
83333.3391847238
83333.3391452249
83333.3391102273
83333.3393924652
83333.3393978151
83333.339381474
83333.3393450833
83333.3392940535
83333.3392359017
83333.3391778911
83333.3391251492
83333.3390800996
83333.3390425454
83333.3390104907
83333.3389817041
83333.3391693679
83333.3391896452
83333.3391916849
83333.3391753837
83333.3391437985
83333.3391022696
83333.339056808
83333.339012478
83333.3389725823
83333.3389384289
83333.3389094062
83333.3388838607
83333.3388606311
83333.3389580422
83333.3389879454
83333.3390029476
83333.3390020112
83333.3389865972
83333.3389603496
83333.338927817
83333.3388933636
83333.3388604228
83333.3388310977
83333.338805959
83333.3387841292
83333.3387642124
83333.3387459818
83333.3387593514
83333.3387951994
83333.3388190675
83333.3388294996
83333.3388268844
83333.338813505
83333.3387928781
83333.3387685163
83333.3387434013
83333.3387198556
83333.3386991764
83333.3386814492
83333.3386656645
83333.3386507017
83333.338637072
83333.3385733013
83333.3386126464
83333.338642475
83333.3386611948
83333.3386685485
83333.3386657609
83333.3386552289
83333.3386398832
83333.3386225085
83333.3386051506
83333.3385892771
83333.3385756221
83333.338563986
83333.3385534087
83333.3385429898
83333.338533882
83333.3384998722
83333.3384883094
83333.3384772378
83333.3384675408
83333.3384595207
83333.3384528354
83333.3384466367
83333.3384402141
83333.3384345126
83333.3407338039
83333.3406991931
83333.3406451726
83333.3406915848
83333.3405832788
83333.3405207356
83333.3407216529
83333.3405430401
83333.3404372837
83333.3403666735
83333.3407902816
83333.3405313876
83333.3403723427
83333.340269396
83333.3401939717
83333.3408238886
83333.3405414511
83333.34032974
83333.3401869762
83333.3400894339
83333.3400137794
83333.340769299
83333.3405186188
83333.3402962394
83333.3401206097
83333.3399955324
83333.3399066236
83333.3398350098
83333.3406193307
83333.3404295377
83333.3402342289
83333.3400565973
83333.3399126603
83333.3398063694
83333.3397281669
83333.3396633453
83333.340399157
83333.3402750641
83333.3401257418
83333.3399708518
83333.3398293665
83333.3397133319
83333.3396253624
83333.3395583611
83333.3395015876
83333.3401426925
83333.3400744211
83333.3399736454
83333.3398533859
83333.3397303479
83333.3396187594
83333.3395267544
83333.3394552718
83333.3393990393
83333.3393507625
83333.3398757932
83333.3398490504
83333.3397903741
83333.3397065314
83333.3396096357
83333.3395128128
83333.3394259836
83333.3393540161
83333.3392968055
83333.3392505223
83333.3392103007
83333.3396139321
83333.3396157345
83333.3395896453
83333.3395380813
83333.3394686539
83333.3393916476
83333.3393166286
83333.3392499942
83333.33919446
83333.3391494002
83333.3391119907
83333.3390790752
83333.3393648233
83333.3393852536
83333.3393826902
83333.3393570271
83333.3393124461
83333.3392562085
83333.3391962931
83333.3391391871
83333.3390889002
83333.339046846
83333.3390120877
83333.3389824087
83333.3389559768
83333.339131488
83333.3391635148
83333.3391771454
83333.3391709942
83333.3391469763
83333.3391098711
83333.3390657488
83333.3390202876
83333.3389777829
83333.3389407277
83333.3389096961
83333.3388835389
83333.3388604678
83333.3388397817
83333.3389143794
83333.3389532535
83333.3389776137
83333.3389855586
83333.3389776051
83333.3389567018
83333.3389273154
83333.3388939585
83333.3388605364
83333.3388298905
83333.3388035205
83333.3387814477
83333.3387624077
83333.3387450244
83333.3387294542
83333.3387128035
83333.3387554119
83333.3387866523
83333.3388045212
83333.338808725
83333.3388008854
83333.338784095
83333.3387620125
83333.338737922
83333.3387144163
83333.3386933555
83333.3386755704
83333.3386607422
83333.3386476639
83333.3386352872
83333.3386246172
83333.3385257131
83333.3385701088
83333.3386056463
83333.3386303995
83333.3386436527
83333.3386461626
83333.338639898
83333.3386274888
83333.3386117898
83333.3385953539
83333.3385799003
83333.3385665248
83333.3385556091
83333.3385467106
83333.3385388203
83333.3385312375
83333.3385251443
83333.3384747509
83333.3384645245
83333.3384554742
83333.3384481913
83333.3384427534
83333.338438715
83333.338435309
83333.3384317976
83333.3384285071
83333.3407819952
83333.3407790867
83333.3407177812
83333.3408142162
83333.3406871748
83333.3406144098
83333.3408955064
83333.3406834729
83333.3405571366
83333.3404752085
83333.3410344982
83333.340712439
83333.3405199116
83333.3403960821
83333.340309225
83333.3411451945
83333.3407768559
83333.3405086372
83333.3403336214
83333.3402166377
83333.3401299603
83333.3411449238
83333.3408072092
83333.3405143397
83333.3402904015
83333.340136687
83333.3400308476
83333.3399487594
83333.341010408
83333.3407496554
83333.3404862831
83333.3402529092
83333.3400700792
83333.3399400757
83333.3398476106
83333.3397732108
83333.340771409
83333.3405993156
83333.3403951985
83333.3401880292
83333.3400040151
83333.3398580218
83333.3397512223
83333.3396724192
83333.3396072099
83333.340476954
83333.3403814711
83333.3402426589
83333.3400801382
83333.3399177561
83333.3397744961
83333.3396599459
83333.3395737745
83333.3395078665
83333.339452334
83333.3401676523
83333.3401281733
83333.3400461374
83333.3399317503
83333.3398025037
83333.3396764316
83333.3395662511
83333.339477422
83333.3394088253
83333.3393547548
83333.3393086621
83333.3398664686
83333.3398642169
83333.3398254542
83333.3397537701
83333.3396600409
83333.3395585173
83333.3394618721
83333.3393780385
83333.3393099041
83333.3392560662
83333.3392124964
83333.3391749009
83333.3395836239
83333.3396047761
83333.3395964821
83333.3395586399
83333.3394970841
83333.3394217949
83333.3393434422
83333.3392703597
83333.3392073688
83333.3391558802
83333.3391144252
83333.339080009
83333.3390499672
83333.3393224509
83333.3393575624
83333.3393696635
83333.3393568633
83333.3393217244
83333.3392706623
83333.3392117871
83333.3391525019
83333.339098186
83333.3390517612
83333.3390137354
83333.3389825683
83333.338955939
83333.3389325289
83333.3390827267
83333.3391256807
83333.3391508805
83333.3391557846
83333.3391410271
83333.3391104472
83333.339069844
83333.3390251657
83333.338981414
83333.3389420681
83333.3389088434
83333.3388816561
83333.3388589254
83333.3388389047
83333.338821303
83333.3388627594
83333.33890968
83333.3389429588
83333.338959975
83333.3389603254
83333.3389461019
83333.338921264
83333.3388904215
83333.3388577432
83333.3388265883
83333.3387991869
83333.3387764576
83333.3387579402
83333.3387421473
83333.3387277925
83333.3387155028
83333.3386604729
83333.3387089697
83333.3387469869
83333.3387720952
83333.3387833839
83333.3387818145
83333.338769928
83333.3387510931
83333.3387288457
83333.338706147
83333.3386851522
83333.3386672455
83333.3386528222
83333.3386412631
83333.3386313005
83333.338622092
83333.3386148288
83333.3384739399
83333.3385226271
83333.3385632669
83333.3385936885
83333.3386127763
83333.3386208194
83333.3386193746
83333.3386107363
83333.3385975478
83333.3385824969
83333.338567846
83333.3385549548
83333.3385445513
83333.3385367292
83333.3385309095
83333.338526193
83333.3385219702
83333.3385186235
83333.3384492313
83333.3384409848
83333.3384344454
83333.3384299455
83333.3384274132
83333.338426436
83333.3384262138
83333.3384257812
83333.3384243697
83333.3408060937
83333.340830523
83333.3407657109
83333.3409080932
83333.3407649854
83333.3406841343
83333.3410492411
83333.3408045361
83333.340657656
83333.3405642997
83333.34127275
83333.3408843239
83333.3406568407
83333.3405105244
83333.3404113329
83333.3414890782
83333.3410172543
83333.3406854089
83333.3404747405
83333.3403359547
83333.3402373405
83333.3415728105
83333.3411228257
83333.3407425654
83333.3404613153
83333.3402748001
83333.340149673
83333.3400564466
83333.3414731253
83333.3411170235
83333.3407642093
83333.3404599061
83333.340229679
83333.3400719299
83333.3399632711
83333.3398786202
83333.3412201397
83333.3409816967
83333.3407028969
83333.3404262151
83333.3401876206
83333.3400048201
83333.3398758742
83333.3397837182
83333.3397094068
83333.3408792919
83333.3407463387
83333.3405549297
83333.3403349173
83333.3401205142
83333.3399368887
83333.339794776
83333.3396913837
83333.339614577
83333.3395511458
83333.3405130192
83333.3404569964
83333.3403431564
83333.3401872127
83333.3400147465
83333.3398506845
83333.3397111918
83333.3396019644
83333.3395200734
83333.3394571609
83333.339404537
83333.3401589145
83333.3401522342
83333.3400968426
83333.3399981568
83333.3398720288
83333.339738455
83333.3396142768
83333.3395091858
83333.3394259603
83333.3393619452
83333.3393113996
83333.339268566
83333.3398316746
83333.3398546107
83333.3398392275
83333.3397854265
83333.3397014976
83333.3396013543
83333.3394993927
83333.3394063277
83333.3393278572
83333.3392651729
83333.3392159482
83333.3391761235
83333.3391420249
83333.3395347643
83333.3395744633
83333.3395849988
83333.3395637288
83333.3395141529
83333.3394450345
83333.3393672948
83333.3392906249
83333.3392217454
83333.3391640083
83333.3391177144
83333.3390807472
83333.3390500666
83333.3390236249
83333.3392667702
83333.3393152962
83333.3393418817
83333.3393430656
83333.3393196165
83333.3392766179
83333.3392217451
83333.339162826
83333.33910626
83333.3390562929
83333.3390148428
83333.3389816368
83333.3389546777
83333.3389317087
83333.338911901
83333.3390244931
83333.3390770666
83333.3391131607
83333.3391292937
83333.3391248541
83333.3391025194
83333.3390674101
83333.3390254538
83333.3389820748
83333.3389415022
83333.3389064022
83333.3388777683
83333.3388549561
83333.338836141
83333.3388196854
83333.3388057644
83333.3388044206
83333.3388582154
83333.3388995892
83333.338925384
83333.3389343739
83333.3389277556
83333.3389087809
83333.3388817374
83333.3388510364
83333.3388203837
83333.3387925449
83333.338769142
83333.3387505627
83333.3387359929
83333.3387238726
83333.338713103
83333.3387045278
83333.3386033882
83333.338656788
83333.3387007792
83333.3387326386
83333.3387509353
83333.3387559965
83333.3387497767
83333.3387352174
83333.3387156853
83333.3386944777
83333.3386741643
83333.3386564316
83333.3386422027
83333.3386315118
83333.3386235618
83333.3386171862
83333.3386116737
83333.3386076123
83333.3384188132
83333.3384709888
83333.3385160191
83333.3385515799
83333.3385762323
83333.3385898315
83333.3385934964
83333.3385891855
83333.3385792993
83333.3385663937
83333.3385529155
83333.3385407908
83333.3385310119
83333.3385239785
83333.3385195856
83333.3385172611
83333.3385161473
83333.3385154914
83333.3385140798
83333.3384240903
83333.3384183931
83333.3384148048
83333.3384134622
83333.3384142526
83333.3384167627
83333.3384197803
83333.3384216739
83333.3384221647
83333.3408558321
83333.3407887525
83333.3409695745
83333.3408147897
83333.3407300565
83333.3411697196
83333.3408957676
83333.3407314701
83333.3406299926
83333.3414844656
83333.3410352125
83333.3407734899
83333.3406055325
83333.3404944733
83333.3418426703
83333.3412506291
83333.3408522779
83333.3406044599
83333.3404427692
83333.3403316996
83333.3420540647
83333.3414590804
83333.3409743703
83333.3406286973
83333.3404063783
83333.3402601001
83333.3401552045
83333.3420170234
83333.3415334314
83333.3410658036
83333.340674253
83333.3403885915
83333.3401996245
83333.3400729428
83333.3399775947
83333.3417607633
83333.3414316257
83333.3410528951
83333.3406856658
83333.3403787163
83333.3401519258
83333.3399975899
83333.3398905968
83333.3398066826
83333.3413682434
83333.3411837192
83333.3409198549
83333.3406221812
83333.3403396647
83333.3401052743
83333.3399300181
83333.3398067823
83333.3397178813
83333.3396460664
83333.34092882
83333.3408508451
83333.340693126
83333.3404801669
83333.3402497541
83333.340036429
83333.3398603821
83333.3397267418
83333.3396295644
83333.3395568263
83333.3394970679
83333.3405031214
83333.340491878
83333.3404143478
83333.3402789542
83333.3401092483
83333.3399335958
83333.3397743777
83333.3396431432
83333.3395419816
83333.3394662501
83333.3394079122
83333.3393593569
83333.3401166262
83333.340143213
83333.3401190893
83333.3400441559
83333.3399304229
83333.3397976188
83333.3396653379
83333.3395473051
83333.3394500538
83333.3393741969
83333.3393160672
83333.3392701468
83333.3392315551
83333.3397733022
83333.3398199065
83333.3398290563
83333.3397969666
83333.3397285074
83333.3396358564
83333.339533882
83333.3394353248
83333.3393485313
83333.3392772116
83333.3392212139
83333.33917757
83333.3391423055
83333.3391124924
83333.3394695425
83333.3395258162
83333.3395546979
83333.339551382
83333.3395168011
83333.3394578044
83333.3393846974
83333.3393078275
83333.3392353807
83333.339172495
83333.3391212282
83333.3390809714
83333.3390491543
83333.3390228644
83333.3390006381
83333.3391997998
83333.3392598564
83333.339299866
83333.3393151339
83333.3393047148
83333.3392720635
83333.3392238973
83333.3391679653
83333.339111292
83333.3390591763
83333.3390147783
83333.3389791225
83333.3389512996
83333.3389290595
83333.3389103007
83333.3388946803
83333.3389584725
83333.3390190639
83333.3390648804
83333.3390917708
83333.3390980278
83333.3390851099
83333.3390571825
83333.3390197537
83333.3389784297
83333.3389379641
83333.3389017775
83333.3388717568
83333.3388482572
83333.3388302271
83333.3388157648
83333.3388034218
83333.3387935775
83333.3387407106
83333.3388000847
83333.3388484706
83333.3388823642
83333.3388998661
83333.3389013189
83333.3388891766
83333.3388671892
83333.3388396123
83333.3388105087
83333.3387830444
83333.3387593714
83333.3387405382
83333.3387264957
83333.3387162131
83333.3387082129
83333.3387015213
83333.3386965352
83333.3385426055
83333.3385998857
83333.3386489244
83333.3386868322
83333.3387117746
83333.3387235075
83333.3387233872
83333.3387138705
83333.3386980212
83333.3386790731
83333.3386599956
83333.3386429183
83333.3386290591
83333.3386189309
83333.3386123019
83333.3386083508
83333.338605968
83333.3386044158
83333.3386027612
83333.3383611535
83333.338416018
83333.338464675
83333.3385047326
83333.3385345138
83333.3385534968
83333.3385623706
83333.3385627124
83333.3385566705
83333.3385466474
83333.338535026
83333.3385239523
83333.3385149975
83333.3385088118
83333.3385055373
83333.3385049781
83333.338506593
83333.3385091753
83333.3385110782
83333.3385119191
83333.3384001182
83333.3383974983
83333.338397314
83333.3383996
83333.3384041906
83333.3384102508
83333.3384157744
83333.3384199025
83333.340994228
83333.34083756
83333.3407519853
83333.3412530046
83333.3409537411
83333.3407782858
83333.3406732041
83333.3416455753
83333.341151144
83333.3408589765
83333.3406745798
83333.3405554464
83333.3421753289
83333.3414565105
83333.3409962717
83333.3407133938
83333.3405306233
83333.3404079943
83333.3425887241
83333.341802327
83333.341197662
83333.340784628
83333.3405258584
83333.3403579674
83333.3402411963
83333.3426618529
83333.3419989293
83333.3413843131
83333.3408891465
83333.3405421113