/*--------------------------------*- C++ -*----------------------------------*\
  =========                 |
  \\      /  F ield         | OpenFOAM: The Open Source CFD Toolbox
   \\    /   O peration     | Website:  https://openfoam.org
    \\  /    A nd           | Version:  12
     \\/     M anipulation  |
\*---------------------------------------------------------------------------*/
/*   Windows 32 and 64 bit porting by blueCAPE: http://www.bluecape.com.pt   *\
|  Based on Windows porting (2.0.x v4) by Symscape: http://www.symscape.com   |
\*---------------------------------------------------------------------------*/
FoamFile
{
    format      ascii;
    class       surfaceScalarField;
    location    "400";
    object      phi;
}
// * * * * * * * * * * * * * * * * * * * * * * * * * * * * * * * * * * * * * //

dimensions      [0 3 -1 0 0 0 0];

internalField   nonuniform List<scalar> 
28893
(
-1.82086539518148e-05
-3.65366985737521e-07
4.37004577178327e-07
-1.83219420774584e-05
-4.10870827613993e-07
5.24158686073871e-07
-2.88118659016094e-06
-3.78282801571069e-07
4.6411552326459e-08
-1.98701102003452e-05
-4.31577328712785e-07
9.07797125475575e-07
-1.84570813425955e-05
-4.84348519598862e-07
6.19490209162145e-07
-2.94082248307342e-06
-4.12006945125114e-07
6.07750903795293e-08
-1.99180522287866e-05
-4.89358885668241e-07
1.06145834207644e-06
6.88576700698176e-07
-4.42163103032841e-07
-3.96448063897919e-08
-5.26740452735874e-06
-4.59992974777893e-07
1.77034206556433e-07
-2.16030477838033e-05
-4.9986051409781e-07
1.42920889732288e-06
-1.86014278568641e-05
-5.55697122491137e-07
7.00047972412246e-07
-3.04198367776318e-06
-4.54825432652287e-07
7.16377185573373e-08
-1.99198666608372e-05
-5.95994409467019e-07
1.2172969363439e-06
7.87303091005625e-07
-4.64118216918749e-07
-4.66135959453749e-08
-5.39853602254312e-06
-5.10877117253007e-07
2.1343023934051e-07
-2.16056750472835e-05
-5.72907959131238e-07
1.63700495019592e-06
1.67907119673151e-06
-5.19351048659226e-07
-5.85499397115949e-08
-2.88079004399475e-07
-5.30003019154473e-07
-4.43758916798099e-08
-6.22272181075164e-06
-5.35898425678191e-07
3.36369943502296e-07
-2.35303285064036e-05
-5.63323568643081e-07
1.95689597804152e-06
-1.87535802719119e-05
-6.3255103391463e-07
7.84704949686396e-07
-3.1840430788976e-06
-4.91442970688909e-07
7.78028090248027e-08
-1.98886905744797e-05
-6.9472538725794e-07
1.36360188347928e-06
8.77062037008909e-07
-4.87212093256055e-07
-5.73710935296869e-08
-5.58855260581347e-06
-5.81510191754012e-07
2.47171310314244e-07
-2.15259994071488e-05
-7.06892435129369e-07
1.84451137778953e-06
1.81772729808309e-06
-5.33336556751457e-07
-6.94375373337982e-08
-2.23068615534452e-07
-5.68926157806568e-07
-5.35739511056274e-08
-6.3734359750772e-06
-5.99253141535681e-07
3.90493836433935e-07
-2.34589264208596e-05
-6.49210626111971e-07
2.21481417755834e-06
2.10721616097395e-06
-5.98702794992288e-07
-6.5005685680165e-08
1.16349404131832e-06
-6.10812023044254e-07
-9.84877467567213e-08
-5.52443605538875e-07
-6.20458382142694e-07
-3.41156502318207e-08
-7.31115847531867e-06
-6.0471913623009e-07
5.22400434345845e-07
-2.50351525256504e-05
-6.05764055278504e-07
2.46253750645371e-06
-1.89078356983851e-05
-7.17396968452084e-07
8.71655835406138e-07
-3.3818362075269e-06
-5.22084185807481e-07
8.73270257220309e-08
-1.98279378141585e-05
-7.94864967131717e-07
1.5188203949651e-06
9.60897099860689e-07
-5.04289684123427e-07
-7.09877874738394e-08
-5.83908810297068e-06
-6.47411319214409e-07
2.81024926459536e-07
-2.13872829614251e-05
-8.27696658658607e-07
2.05258214140192e-06
1.95911908299991e-06
-5.45083371707481e-07
-8.35203340570725e-08
-1.78943941773932e-07
-6.15042319879263e-07
-6.79637225034303e-08
-6.59205660026931e-06
-6.88641970374622e-07
4.47544424684571e-07
-2.32835806326679e-05
-8.03920009553629e-07
2.47308804019682e-06
2.25856057459192e-06
-6.08049276806565e-07
-7.6631355290087e-08
1.28338911366442e-06
-6.40506626959755e-07
-1.17750802440464e-07
-4.88411738467406e-07
-6.69763804629303e-07
-4.70931065213151e-08
-7.48505869774335e-06
-6.80475708703278e-07
5.95663657577791e-07
-2.48894221343427e-05
-7.00483441875898e-07
2.7695706849334e-06
2.31490849716843e-06
-6.75476683213227e-07
-6.74169001396522e-08
1.78523957319508e-06
-6.91381245369982e-07
-1.17570529147023e-07
1.16054000242389e-06
-7.13393716541127e-07
-1.33961883295509e-07
-9.23199468629563e-07
-6.9719423371855e-07
-8.34155077363822e-09
-8.18708165628306e-06
-6.44568764342959e-07
7.17375566644374e-07
-2.59450092502761e-05
-6.24084877731638e-07
2.92941891914224e-06
-1.90657124972634e-05
-8.06229091289959e-07
9.64109132799142e-07
-3.65275021384094e-06
-5.49932883759303e-07
1.03450719062027e-07
-1.97445961550139e-05
-8.98694997839503e-07
1.68700869117974e-06
1.03849396121622e-06
-5.14991243046666e-07
-8.46900686677384e-08
-6.16078152658605e-06
-7.11377038263952e-07
3.25532487018924e-07
-2.11992062751212e-05
-9.46309989903802e-07
2.27705325530728e-06
2.10487323166964e-06
-5.50988912543689e-07
-9.90547406404326e-08
-1.5286787461117e-07
-6.59367288964448e-07
-8.51060273469432e-08
-6.88064999847124e-06
-7.71581454614787e-07
5.1350355728705e-07
-2.30320904329464e-05
-9.4177107791842e-07
2.74286560514212e-06
2.41762132104339e-06
-6.13382705682529e-07
-9.07610529826253e-08
1.39935130184429e-06
-6.72616678713613e-07
-1.41906625131699e-07
-4.52474435553428e-07
-7.29298395391559e-07
-6.32442179160218e-08
-7.73243868757528e-06
-7.87663433481412e-07
6.78668794837807e-07
-2.46259758772176e-05
-8.67731892103233e-07
3.0773727125902e-06
2.46821751525232e-06
-6.82463000633006e-07
-7.88950148163492e-08
1.92198144457087e-06
-7.14956398886262e-07
-1.38921907277896e-07
1.28779570354804e-06
-7.5186952281684e-07
-1.62898837436751e-07
-8.68941305521628e-07
-7.57061495354533e-07
-2.47659812969508e-08
-8.37397683883787e-06
-7.2883795600304e-07
8.10912017486922e-07
-2.57357698655712e-05
-7.23345973765412e-07
3.28368580674576e-06
2.41370859769396e-06
-7.47749397107492e-07
-6.77142113734035e-08
2.1023496357028e-06
-7.675249617845e-07
-1.2581780357279e-07
1.89288284908261e-06
-8.02671163751865e-07
-1.70945274224967e-07
1.05163318135208e-06
-7.9734918467604e-07
-1.6168343491638e-07
-1.23561184421473e-06
-7.3611714928557e-07
2.54398868668803e-08
-8.82284498347414e-06
-6.55444844089423e-07
9.0617458479925e-07
-2.64390302597235e-05
-6.20309432041414e-07
3.34653522737371e-06
-1.92378445424626e-05
-9.04726872960939e-07
1.07686418367384e-06
-4.00927368327009e-06
-5.77591276255806e-07
1.27889609778529e-07
-1.9655083623615e-05
-1.00352834509105e-06
1.87813923216927e-06
1.10602759723824e-06
-5.19945224984547e-07
-9.75200223330219e-08
-6.5656697638106e-06
-7.79090330863318e-07
3.88738314992722e-07
-2.097367281615e-05
-1.06548675164338e-06
2.52697014209606e-06
2.25723861252487e-06
-5.49278679508195e-07
-1.1807782698609e-07
-1.45625173431604e-07
-7.0218063474324e-07
-1.01127620961915e-07
-7.24856863121164e-06
-8.52356350638456e-07
5.99504564918932e-07
-2.27165647721246e-05
-1.07407086726058e-06
3.03560893460071e-06
2.58623752645923e-06
-6.11955847475005e-07
-1.07648864366714e-07
1.51337681585036e-06
-7.03619876331926e-07
-1.68826924350857e-07
-4.4168186733853e-07
-7.8753074351734e-07
-7.99491239159055e-08
-8.05435448721628e-06
-8.87664086503083e-07
7.81311392307201e-07
-2.42753014011085e-05
-1.01448965798876e-06
3.40668086526465e-06
2.63209638772053e-06
-6.84662024818255e-07
-9.25989877866232e-08
2.06185059693612e-06
-7.38789282062732e-07
-1.64456460885109e-07
1.40737210687665e-06
-7.94657255886657e-07
-1.9612358982585e-07
-8.48230595557784e-07
-8.30254633797914e-07
-4.13628720578435e-08
-8.63577502786851e-06
-8.47682802873795e-07
9.20421612418458e-07
-2.5401041863009e-05
-8.9650434223892e-07
3.63914894199292e-06
2.56366474352164e-06
-7.53800718628438e-07
-7.86180503700616e-08
2.24249125110062e-06
-7.86945689321776e-07
-1.47046685510051e-07
2.0390172077642e-06
-8.33668049983665e-07
-2.03256058217238e-07
1.17692923771933e-06
-8.44895267742626e-07
-2.00358829107476e-07
-1.19266650081772e-06
-8.02965496085034e-07
6.4199833251981e-09
-9.01031806670532e-06
-7.44156220946695e-07
1.01919904396404e-06
-2.61785320732906e-05
-7.19550420766647e-07
3.74274855718223e-06
2.45823054762232e-06
-8.14916804815139e-07
-6.6908910976062e-08
2.27864994871683e-06
-8.37911445394571e-07
-1.28842934523257e-07
2.26563234719556e-06
-8.85630807890561e-07
-1.87302447170852e-07
1.8958529005758e-06
-8.91715074077022e-07
-2.20991478705273e-07
9.12189911968791e-07
-8.3711888443574e-07
-1.82370275198576e-07
-1.49152798515171e-06
-7.41482740107616e-07
6.23832463298511e-08
-9.31276835279243e-06
-6.4542339868679e-07
1.0826457544812e-06
-2.67818239899389e-05
-5.94906091722041e-07
3.70491832672092e-06
-1.94344967722019e-05
-1.01806444299764e-06
1.21471988335301e-06
-4.47033870572505e-06
-6.11244817120879e-07
1.6759033576927e-07
-1.95650849546938e-05
-1.11790917460408e-06
2.10478967714051e-06
1.1598781141194e-06
-5.21670464604254e-07
-1.09769792822863e-07
-7.06219736792516e-06
-8.56292015127472e-07
4.77183587452138e-07
-2.07290656118228e-05
-1.18293283771355e-06
2.81647061207556e-06
2.4156016082198e-06
-5.40454339155353e-07
-1.3785359073426e-07
-1.60704640777237e-07
-7.48414604415372e-07
-1.13115989928596e-07
-7.70611811453315e-06
-9.38113604106508e-07
7.18915996564755e-07
-2.23516076376925e-05
-1.20577015003923e-06
3.36778251462518e-06
2.76590025339684e-06
-6.02493964762381e-07
-1.26447091924162e-07
1.62510862950581e-06
-7.34736254035428e-07
-1.97252982029152e-07
-4.56131810427479e-07
-8.46063985069969e-07
-9.29684202002372e-08
-8.45817924948663e-06
-9.8548326059357e-07
9.14741307448598e-07
-2.3855793305505e-05
-1.15120756765519e-06
3.76730037267281e-06
2.80780262621374e-06
-6.80322409264488e-07
-1.07339682555592e-07
2.20513926458522e-06
-7.61960778183656e-07
-1.92595861120964e-07
1.52069498331947e-06
-8.37872316089477e-07
-2.3180793195374e-07
-8.58134253279505e-07
-9.03028762313151e-07
-5.46814267817938e-08
-8.97051633127088e-06
-9.58436019701265e-07
1.06000464441925e-06
-2.49740827646164e-05
-1.04462058432224e-06
4.02434379176751e-06
2.7252936271917e-06
-7.54806017475873e-07
-9.1484596049774e-08
2.38820791040681e-06
-8.05359046384507e-07
-1.71745463972045e-07
2.18587871034395e-06
-8.6633494395486e-07
-2.3963848402543e-07
1.29125711559055e-06
-8.98796017354484e-07
-2.41909831742336e-07
-1.18659704252466e-06
-8.85076782849686e-07
-1.0036780882906e-08
-9.2706778140228e-06
-8.68787049096449e-07
1.15306589560638e-06
-2.57880438232057e-05
-8.93369895823031e-07
4.14203695278049e-06
2.6024150945709e-06
-8.20988944213981e-07
-7.69962171006039e-08
2.4164084833415e-06
-8.54252848767455e-07
-1.49069202395593e-07
2.4155468084287e-06
-9.11256128227355e-07
-2.19372320845958e-07
2.04267797545225e-06
-9.3048191337307e-07
-2.64492139361122e-07
1.02943821445789e-06
-8.90581417266274e-07
-2.29989343254423e-07
-1.4591030923087e-06
-8.11781601591729e-07
4.16241623550312e-08
-9.49144084541399e-06
-7.35693275987199e-07
1.2140190025159e-06
-2.64830090622235e-05
-6.94259774611986e-07
4.13819730159395e-06
2.47591661268138e-06
-6.55382042072378e-08
2.38009691760955e-06
-9.0261494123912e-07
-1.2865494116386e-07
2.47896818914312e-06
-9.61950730927594e-07
-1.94107657321058e-07
2.32584002485179e-06
-9.78614613350647e-07
-2.47576961544556e-07
1.82327787786095e-06
-9.32637956099282e-07
-2.64887443926269e-07
7.52042736262275e-07
-8.40201738749968e-07
-1.95827345572376e-07
-1.73796050995341e-06
-7.26625040013104e-07
1.02773330251843e-07
-9.7589306842763e-06
-6.19189805143839e-07
1.24696490569796e-06
-2.71598258012133e-05
-5.50158153615585e-07
3.99767534884356e-06
-1.96665802864912e-05
-1.15580453213292e-06
1.38789916196628e-06
-5.05591068132147e-06
-6.62066491273425e-07
2.29585404360936e-07
-1.94840774646548e-05
-1.24463593256954e-06
2.37837585103862e-06
1.19452770864113e-06
-5.25288959853062e-07
-1.20602966505671e-07
-7.6599020626558e-06
-9.55061595513894e-07
6.02459458339737e-07
-2.04697376541354e-05
-1.30843338669732e-06
3.15390918452017e-06
2.57946936668269e-06
-5.26688376865846e-07
-1.58848868140934e-07
-2.03332938903099e-07
-8.04196505184615e-07
-1.19235518731749e-07
-8.25867619034283e-06
-1.03632863510218e-06
8.8314479802444e-07
-2.19537404069872e-05
-1.33521410522983e-06
3.75382926313603e-06
2.95706775440023e-06
-5.85910275540142e-07
-1.45710946802702e-07
1.73395720424587e-06
-7.69885543890021e-07
-2.25228917950945e-07
-4.99156751768759e-07
-9.11131175119056e-07
-9.7071865831468e-08
-8.95217505657045e-06
-1.09016223231098e-06
1.09730698908861e-06
-2.33799170810563e-05
-1.28802754036918e-06
4.17993810020585e-06
2.99589380039741e-06
-6.6841381175583e-07
-1.22171250210465e-07
2.35150559689615e-06
-7.85600415332249e-07
-2.21947675820856e-07
1.62836839836519e-06
-8.83220771641017e-07
-2.67768111119399e-07
-8.98717934614509e-07
-9.77594792050511e-07
-6.02715441973191e-08
-9.38330040072125e-06
-1.06563363858854e-06
1.241952748538e-06
-2.44836706835391e-05
-1.17619737329714e-06
4.45308452696528e-06
2.89970415264324e-06
-7.49368499135521e-07
-1.05364421875776e-07
2.53938605030284e-06
-8.22372019842732e-07
-1.9810597595045e-07
2.33349640909797e-06
-8.99654381316366e-07
-2.7843048367001e-07
1.39548883643622e-06
-9.54614864862579e-07
-2.84451200313246e-07
-1.21361557959036e-06
-9.67013710180644e-07
-1.90836775896958e-08
-9.59719823377655e-06
-9.84012336173446e-07
1.3259168743361e-06
-2.53011346819688e-05
-1.04035582841486e-06
4.57777996020516e-06
2.75848352506967e-06
-8.21942876853679e-07
-8.89314991375573e-08
2.5606383031027e-06
-8.68814277193017e-07
-1.72258693422787e-07
2.56938897659802e-06
-9.37014024652595e-07
-2.54907535117438e-07
2.18796858664824e-06
-9.72444565090807e-07
-3.1127871479666e-07
1.13322156845705e-06
-9.51636530265615e-07
-2.79130721538584e-07
-1.4652921054244e-06
-8.98185849713546e-07
2.55513716062044e-08
-9.73872494323197e-06
-8.62329574789738e-07
1.36930425664824e-06
-2.60502443076083e-05
-8.6688215996312e-07
4.57615042775361e-06
2.61360287701779e-06
-8.83972594455753e-07
-7.47024110803525e-08
2.5128979707239e-06
-9.16626385789474e-07
-1.47423543738903e-07
2.6265918427714e-06
-9.83312210551536e-07
-2.2463587341657e-07
2.47752501072338e-06
-1.01079228911915e-06
-2.90745342274511e-07
1.9634952787542e-06
-9.76467114507149e-07
-3.18821187477201e-07
8.5787423480962e-07
-8.96580779371017e-07
-2.51018448707951e-07
-1.71514099169443e-06
-7.98374084500084e-07
8.14895479978555e-08
-9.92326545618967e-06
-7.1001028763588e-07
1.39410326631857e-06
-2.68362663040687e-05
-6.47479558653958e-07
4.46212507161445e-06
2.4374597923808e-06
-1.26446535450317e-07
2.60791915594373e-06
-1.03219921178406e-06
-1.94953268137509e-07
2.57657201146975e-06
-1.05855884134846e-06
-2.59078096592627e-07
2.28805087830685e-06
-1.02083220246159e-06
-3.02335090957807e-07
1.69549346139465e-06
-9.34932090742597e-07
-3.0011221811315e-07
5.64049350632688e-07
-8.23165388125136e-07
-2.00307733262079e-07
-2.00807481987338e-06
-6.98576772081484e-07
1.49094543644091e-07
-1.02355950448324e-05
-5.77293310399207e-07
1.40000376178719e-06
-2.76726871282165e-05
-4.85173828382943e-07
4.21645606088259e-06
-1.99471750987979e-05
-1.32854688364975e-06
1.60915895142274e-06
-5.78379984225647e-06
-7.5145021045763e-07
3.23549113538397e-07
-1.94265663784333e-05
-1.38212889532892e-06
2.71255031367536e-06
1.20065187421713e-06
-5.40615608711192e-07
-1.27572102374112e-07
-8.35983101507532e-06
-1.09334243958823e-06
7.78236453793953e-07
-2.02014327251935e-05
-1.44424755517228e-06
3.55433555609005e-06
2.74778214467387e-06
-5.12370515984272e-07
-1.81230329661632e-07
-2.82285018919956e-07
-8.81107125291202e-07
-1.15600333306704e-07
-8.91094962082187e-06
-1.16203962159758e-06
1.10834401751093e-06
-2.15291441084553e-05
-1.47090554345462e-06
4.2002216281304e-06
3.15983777268708e-06
-5.63934851813275e-07
-1.65523242206093e-07
1.83805800843067e-06
-8.15608905840477e-07
-2.51536112197407e-07
-5.76335129674917e-07
-9.90559818719029e-07
-8.78222321769651e-08
-9.5389555836616e-06
-1.21003620088201e-06
1.34475380498487e-06
-2.28590271662212e-05
-1.42319957810222e-06
4.65614392042926e-06
3.19777175382766e-06
-6.48790233877547e-07
-1.38997538734211e-07
2.49992911846578e-06
-8.12995337688182e-07
-2.51023817622133e-07
1.72946148692554e-06
-9.3623676099571e-07
-3.01215851559004e-07
-9.72993065117331e-07
-1.06164812650667e-06
-5.13095198087377e-08
-9.87795844375946e-06
-1.18126295798853e-06
1.48520471582974e-06
-2.39281072110591e-05
-1.31286876757046e-06
4.93724401304598e-06
3.08753677045505e-06
-7.36623229424003e-07
-1.1962287461e-07
2.69548841706e-06
-8.39110518519473e-07
-2.24763171701141e-07
2.48155318829972e-06
-9.35450822086692e-07
-3.17773202109062e-07
1.49018444650603e-06
-1.01452670403674e-06
-3.25530744939755e-07
-1.27296058522699e-06
-1.05081722336156e-06
-1.57388436458938e-08
-9.98936978937111e-06
-1.09364101665497e-06
1.55157037242739e-06
-2.47497022422862e-05
-1.16574348167186e-06
5.06738668344525e-06
2.92749685206757e-06
-8.16646374001191e-07
-1.01735339069105e-07
2.71079620790192e-06
-8.81258061402618e-07
-1.96635824489491e-07
2.72651407090793e-06
-9.62723388722923e-07
-2.92161278403143e-07
2.33116511013833e-06
-1.01650458204944e-06
-3.59736491389315e-07
1.22438083447902e-06
-1.01516408836506e-06
-3.27457890098112e-07
-1.50482661552901e-06
-9.84018630035717e-07
2.0458562883501e-08
-1.00445546273329e-05
-9.78301980125602e-07
1.56969580850835e-06
-2.55181259446421e-05
-1.01029036663351e-06
5.05594572469016e-06
2.76273619287476e-06
-8.85509116681722e-07
-8.55670780819361e-08
2.65207206406324e-06
-9.2808369119587e-07
-1.68835792264155e-07
2.77922000030195e-06
-1.00386462881488e-06
-2.58036066245569e-07
2.6313484810806e-06
-1.04435259430916e-06
-3.36821356798771e-07
2.10021268144112e-06
-1.02439116059478e-06
-3.75239319419312e-07
9.48285783004469e-07
-9.61049680850657e-07
-3.06675376134658e-07
-1.73180830344951e-06
-8.86471208519749e-07
6.63639616942205e-08
-1.01510027873667e-05
-8.37001093912833e-07
1.5671654187734e-06
-2.63739405394744e-05
-8.18184426743316e-07
4.93200666902373e-06
2.61002374248816e-06
-9.4184140396804e-07
-7.20626931863921e-08
2.56424360544518e-06
-9.74672315128749e-07
-1.43439886917777e-07
2.75069399723001e-06
-1.05011622371998e-06
-2.23393863786201e-07
2.72654995672186e-06
-1.0852506081804e-06
-3.00154197925622e-07
2.43412447602353e-06
-1.05734067665827e-06
-3.55943891461461e-07
1.82450329846019e-06
-9.81351674518921e-07
-3.63057516067222e-07
6.56833957838234e-07
-8.80923657336724e-07
-2.61250711370972e-07
-1.99419670431831e-06
-7.70990890009439e-07
1.2859466760252e-07
-1.03819400630895e-05
-6.67762814081899e-07
1.56073260819063e-06
-2.73363053339923e-05
-5.78410550681102e-07
4.7041610760127e-06
2.68460203079202e-06
-1.91848396919873e-07
2.7328048126059e-06
-1.13244948915278e-06
-2.61312988697351e-07
2.56311508675345e-06
-1.10233439092702e-06
-3.19057655763552e-07
2.17838883496188e-06
-1.02307564871482e-06
-3.48330532934512e-07
1.5281738939424e-06
-9.16972889663049e-07
-3.24627962203927e-07
3.43389869179754e-07
-7.94318203683081e-07
-1.93785284436902e-07
-2.31711470861767e-06
-6.57392595274108e-07
2.03315735901288e-07
-1.07944890405067e-05
-5.17193164814032e-07
1.54206391354724e-06
-2.83621706166533e-05
-3.95351820487997e-07
4.35042619559318e-06
-2.03128336603886e-05
-1.53587202836431e-06
1.90154812121555e-06
-6.65594940022829e-06
-9.18422636045244e-07
4.62048324644183e-07
-1.94186699721528e-05
-1.53200991658578e-06
3.1333128608801e-06
1.16384683071113e-06
-5.84923296696714e-07
-1.29717697761914e-07
-9.13934618066418e-06
-1.29985668149245e-06
1.0208160781608e-06
-1.99383968690653e-05
-1.58876177624911e-06
4.0383010801903e-06
2.91766501822945e-06
-5.06306303021161e-07
-2.04190709157778e-07
-4.08444219859453e-07
-9.98066678939194e-07
-9.6681060902978e-08
-9.65588494419062e-06
-1.33590376687492e-06
1.41484049146245e-06
-2.10854233103265e-05
-1.61534488845012e-06
4.72597302550808e-06
3.37376005501984e-06
-5.40672548548277e-07
-1.85619175622696e-07
1.93340127050021e-06
-8.83560867740049e-07
-2.74115533378857e-07
-6.97206600267037e-07
-1.09891120160375e-06
-5.78517835945081e-08
-1.02176956089348e-05
-1.36185458514975e-06
1.67804401227954e-06
-2.2305778748732e-05
-1.56292886865816e-06
5.20991311010328e-06
3.41288155092366e-06
-6.23558475084832e-07
-1.55485545299833e-07
2.64834929603705e-06
-8.51477695884374e-07
-2.78072119060143e-07
1.82163202384745e-06
-1.0052303571175e-06
-3.29034743899995e-07
-1.08664148843127e-06
-1.16401283118323e-06
-2.01938533276269e-08
-1.04550106168882e-05
-1.31277708046403e-06
1.81138863881548e-06
-2.33178703415756e-05
-1.45150187778166e-06
5.49740837019329e-06
3.28899655001794e-06
-7.16692956785354e-07
-1.33556858143047e-07
2.85372095573618e-06
-8.59364239290786e-07
-2.50860465386622e-07
2.62841356877295e-06
-9.78745986339428e-07
-3.553744284259e-07
1.57416838207437e-06
-1.08524969704231e-06
-3.61596545013131e-07
-1.36786642849103e-06
-1.14478665329099e-06
7.12009523754663e-09
-1.04520756999252e-05
-1.21120957484029e-06
1.84625742473669e-06
-2.41406088191786e-05
-1.29416974061076e-06
5.62232585343011e-06
3.10974811516252e-06
-8.04110118348213e-07
-1.1476426850154e-07
2.86520727520128e-06
-8.92389940914303e-07
-2.20754200715713e-07
2.8856657219129e-06
-9.90125525888555e-07
-3.29239408399049e-07
2.47161563990314e-06
-1.06497985141823e-06
-4.07769117718216e-07
1.30358775703625e-06
-1.08323803653302e-06
-3.72314194735059e-07
-1.57514961311229e-06
-1.07093924057631e-06
3.1882623093422e-08
-1.04020301011104e-05
-1.08695308516131e-06
1.83025904322645e-06
-2.49219581808174e-05
-1.12765358150119e-06
5.598870489995e-06
2.92447097760814e-06
-8.810185031232e-07
-9.73626149453611e-08
2.79690597273205e-06
-9.36770141203596e-07
-1.91056574101227e-07
2.93569935643752e-06
-1.02339080229887e-06
-2.92446875112565e-07
2.78600198860829e-06
-1.0792158003314e-06
-3.84102316669155e-07
2.23265979739925e-06
-1.0749887515877e-06
-4.32357035280614e-07
1.02449610033327e-06
-1.02778174825272e-06
-3.59902552626314e-07
-1.78124436537904e-06
-9.73240893156176e-07
6.48364004714366e-08
-1.04292075926584e-05
-9.51692155699146e-07
1.78929774211819e-06
-2.58086311598589e-05
-9.57288082783122e-07
5.44791792327151e-06
2.75140492555293e-06
-9.44993768987225e-07
-8.18963728382289e-08
2.6970107271838e-06
-9.83509623735052e-07
-1.62908320529125e-07
2.89829869660235e-06
-1.066141913096e-06
-2.54162748230709e-07
2.87989683153575e-06
-1.11221815906183e-06
-3.43516421477465e-07
2.58069950489387e-06
-1.09595406982813e-06
-4.11832355644264e-07
1.9482196868748e-06
-1.03217726770224e-06
-4.27825920954264e-07
7.32442473591647e-07
-9.46882178506578e-07
-3.21870444537499e-07
-2.02043346398522e-06
-8.59735062963857e-07
1.15336218527353e-07
-1.05866562880266e-05
-7.94442481203917e-07
1.74814099185676e-06
-2.68554204335341e-05
-7.46995939792424e-07
5.19812191111898e-06
2.59636658364011e-06
-9.94357005855464e-07
-6.91480342916873e-08
2.5881413076035e-06
-1.02715857494097e-06
-1.38266503532657e-07
2.82134113680214e-06
-1.11249037044271e-06
-2.17804210180381e-07
2.87837671686462e-06
-1.15454470958032e-06
-2.99670931402709e-07
2.70833943117342e-06
-1.1326231503243e-06
-3.70094349340894e-07
2.31401939143075e-06
-1.0618864730145e-06
-4.11037765504692e-07
1.64367568176537e-06
-9.64764892186379e-07
-3.94713724637661e-07
4.22428676735871e-07
-8.52883764797911e-07
-2.58392947139104e-07
-2.31150096715574e-06
-7.29983275551834e-07
1.85206329101207e-07
-1.09202767557922e-05
-6.06401608781364e-07
1.71451164203266e-06
-2.80264461751645e-05
-4.83171679350077e-07
4.85161064557467e-06
2.82914403126285e-06
-2.57448652846617e-07
2.73821385900436e-06
-1.17798004258454e-06
-3.23156047241015e-07
2.46774986717771e-06
-1.10489882621666e-06
-3.70659111837215e-07
2.02451491949499e-06
-1.00475096623836e-06
-3.83509449766355e-07
1.32916174466617e-06
-8.87827658005458e-07
-3.36868372949006e-07
8.88652888846899e-08
-7.53747877266814e-07
-1.7475723206882e-07
-2.67558951469033e-06
-5.99773558897874e-07
2.66546404642268e-07
-1.14760824195332e-05
-4.3339556981594e-07
1.67264873260448e-06
-2.92335021691141e-05
-2.73757334025416e-07
4.38716840414289e-06
-2.07748062041849e-05
-1.84126063803222e-06
2.30325398098864e-06
-7.61843231966939e-06
-1.22735039941039e-06
6.53990587169845e-07
-1.94901121407982e-05
-1.71205789709141e-06
3.68509408916924e-06
1.06086797125917e-06
-6.88239180248448e-07
-1.2719838791567e-07
-9.9317437693793e-06
-1.62190693025256e-06
1.34437487377237e-06
-1.970694936003e-05
-1.7395276667571e-06
4.64142220901518e-06
3.08383693692577e-06
-5.23731439847556e-07
-2.27360634020504e-07
-5.96851136347319e-07
-1.18546810570673e-06
-5.56872555961119e-08
-1.04581404597698e-05
-1.59077784722108e-06
1.82510818483553e-06
-2.06349806556264e-05
-1.77026196842581e-06
5.35813638206811e-06
3.59675793480064e-06
-5.2423412384624e-07
-2.05068760531048e-07
2.01430831039525e-06
-9.93629847737386e-07
-2.8953034523839e-07
-8.73432488870907e-07
-1.25905170121608e-06
2.69884323345025e-09
-1.09724092064975e-05
-1.56801655889692e-06
2.12223571348088e-06
-2.17285188482789e-05
-1.71066005129807e-06
5.85938387533164e-06
3.63978757166866e-06
-5.96947948229724e-07
-1.70629886036339e-07
2.79254054651996e-06
-9.12700214256999e-07
-3.00669219782769e-07
1.89995216333102e-06
-1.10466761230637e-06
-3.46676066083997e-07
-1.24962204377868e-06
-1.30091558214881e-06
4.41941372551197e-08
-1.11107511702757e-05
-1.47516708399259e-06
2.24602890305353e-06
-2.26733085406542e-05
-1.59005063888597e-06
6.1554029604376e-06
3.50289350396184e-06
-6.91272527447019e-07
-1.46182561606839e-07
3.01034974546591e-06
-8.89878619641976e-07
-2.7371204918467e-07
2.77130682214404e-06
-1.03852684424395e-06
-3.87666740596889e-07
1.64471080761984e-06
-1.17632420841081e-06
-3.87262611630839e-07
-1.50379541520395e-06
-1.25800771616218e-06
6.09696373104297e-08
-1.09861624416038e-05
-1.34502210000278e-06
2.23900233630616e-06
-2.3477539816234e-05
-1.42966464789171e-06
6.26400862783069e-06
3.30474598788161e-06
-7.84263602181585e-07
-1.27427292612228e-07
3.02036365068552e-06
-9.0508892248806e-07
-2.42987375575441e-07
3.04369886991115e-06
-1.02389625034979e-06
-3.63742245296403e-07
2.60707581996361e-06
-1.12387368651328e-06
-4.52208948156305e-07
1.36924311431573e-06
-1.16247965723877e-06
-4.09554589280426e-07
-1.68028821245821e-06
-1.16634814663817e-06
6.73988695549459e-08
-1.08175598906109e-05
-1.20044024511013e-06
2.16805287799826e-06
-2.42769100046785e-05
-1.24210777430645e-06
6.21938822514897e-06
3.09884640397332e-06
-8.69323187774797e-07
-1.09162385814889e-07
2.94495865652386e-06
-9.42715472519213e-07
-2.12491276342659e-07
3.09368991602943e-06
-1.04311291323331e-06
-3.25756960048121e-07
2.93964233886152e-06
-1.11751982426045e-06
-4.30338395082727e-07
2.36004800774197e-06
-1.13047875801543e-06
-4.87914885454196e-07
1.08741950037063e-06
-1.09837732653294e-06
-4.07796236329718e-07
-1.85933506489781e-06
-1.05995051226294e-06
8.29745871494485e-08
-1.07456627846999e-05
-1.05706037203548e-06
2.07612788641738e-06
-2.51775750255421e-05
-1.06652411573837e-06
6.03434347546536e-06
2.9048503788392e-06
-9.41828865657958e-07
-9.26351067862632e-08
2.83459167800582e-06
-9.88677509717889e-07
-1.83036182211738e-07
3.04941588716349e-06
-1.08028896844616e-06
-2.85275179013608e-07
3.03479644711156e-06
-1.13931448634729e-06
-3.8724749890606e-07
2.72622774644635e-06
-1.13642933281871e-06
-4.68189347773127e-07
2.0659902346979e-06
-1.08551686920268e-06
-4.92389872491656e-07
7.92636944880501e-07
-1.01452817025884e-06
-3.7880649055793e-07
-2.07861954467142e-06
-9.46139304100181e-07
1.17470178950861e-07
-1.0834404489503e-05
-9.06847542087261e-07
1.98660419422724e-06
-2.62671788675904e-05
-8.81650794183302e-07
5.74131806297727e-06
2.72891499071117e-06
-9.99505102240912e-07
-7.80370029482324e-08
2.7132538464528e-06
-1.03479739807256e-06
-1.55720726910028e-07
2.96266754120789e-06
-1.12455851717002e-06
-2.45817750123733e-07
3.0270866188459e-06
-1.17551021199793e-06
-3.39579840035526e-07
2.85548786380439e-06
-1.16384082863761e-06
-4.22777386890614e-07
2.44858147819173e-06
-1.10305909670564e-06
-4.75511079694754e-07
1.75207614944601e-06
-1.0170007655871e-06
-4.66104388869493e-07
4.82483597363055e-07
-9.19622808558553e-07
-3.22034851558027e-07
-2.34681573883662e-06
-8.18905857924406e-07
1.75116119449732e-07
-1.10999500679059e-05
-7.32431755038768e-07
1.91325247586299e-06
-2.75395383038033e-05
-6.49357918059099e-07
5.36057697474814e-06
2.57203999844279e-06
-1.04170904166395e-06
-6.5879579702878e-08
2.59432323206203e-06
-1.07401526234468e-06
-1.32411254524327e-07
2.85816234224326e-06
-1.1686538946968e-06
-2.09788826308701e-07
2.968827046456e-06
-1.21948450849146e-06
-2.92546790716898e-07
2.87982160038443e-06
-1.20299984239779e-06
-3.70900846701147e-07
2.60347013371838e-06
-1.13722940228e-06
-4.30471082211261e-07
2.14723664682915e-06
-1.04492145821283e-06
-4.5360105195607e-07
1.43010351456536e-06
-9.36559643271021e-07
-4.11975978446068e-07
1.53983897408262e-07
-8.12769864264735e-07
-2.40720580313287e-07
-2.67753305378535e-06
-6.71989842508127e-07
2.52740986665519e-07
-1.15793543076369e-05
-5.20378120643815e-07
1.8549945811134e-06
-2.89181362557432e-05
-3.53045281789233e-07
4.8893025267285e-06
2.8489505856038e-06
-3.18969963035407e-07
2.65508916441852e-06
-1.18108892184421e-06
-3.77215772468845e-07
2.32510682317597e-06
-1.08650487048874e-06
-4.11903352400533e-07
1.84056107396418e-06
-9.75554513540619e-07
-4.06509851394257e-07
1.10117267682067e-06
-8.4782711251383e-07
-3.35640025475933e-07
-2.01450636466579e-07
-6.98059826027175e-07
-1.4223275917387e-07
-3.09743558088482e-06
-5.20367418120647e-07
3.39789555412354e-07
-1.23164761764688e-05
-3.17969165639418e-07
1.79036611913841e-06
-3.02102874980221e-05
-1.12774627477448e-07
4.30793849010803e-06
-2.12609610850436e-05
-2.35272549311238e-06
2.83890250830572e-06
-8.54809654268418e-06
-1.79342173686142e-06
8.81857554345177e-07
-1.96094577389872e-05
-1.98219987005834e-06
4.40485788571004e-06
8.5546777291942e-07
-9.01920844274181e-07
-1.20019638837094e-07
-1.06060005891323e-05
-2.13370028139548e-06
1.74993095795658e-06
-1.95143836554427e-05
-1.91851906847888e-06
5.41108511589345e-06
3.23530629524677e-06