/*--------------------------------*- C++ -*----------------------------------*\
  =========                 |
  \\      /  F ield         | OpenFOAM: The Open Source CFD Toolbox
   \\    /   O peration     | Website:  https://openfoam.org
    \\  /    A nd           | Version:  12
     \\/     M anipulation  |
\*---------------------------------------------------------------------------*/
/*   Windows 32 and 64 bit porting by blueCAPE: http://www.bluecape.com.pt   *\
|  Based on Windows porting (2.0.x v4) by Symscape: http://www.symscape.com   |
\*---------------------------------------------------------------------------*/
FoamFile
{
    format      ascii;
    class       volVectorField;
    location    "400";
    object      U;
}
// * * * * * * * * * * * * * * * * * * * * * * * * * * * * * * * * * * * * * //

dimensions      [0 1 -1 0 0 0 0];

internalField   nonuniform List<vector> 
10142
(
(-1.25473104117927e-05 0.000656658851234801 0.000101303360715444)
(-8.65766382457456e-06 0.000782737177096521 0.000101975621630384)
(-2.03930731171931e-05 0.00167854568729531 0.000144270495981069)
(-3.1828167691017e-05 0.000999619472074612 9.79707185370272e-05)
(-1.76723425595202e-06 0.000922763235691406 0.000111981385299614)
(-2.15606362149805e-05 0.00179793255739928 0.000148307935215288)
(-2.57593608432222e-05 0.00111087554163948 9.55235289325336e-05)
(-1.88500395940796e-05 0.00176507846422792 0.000201564719324342)
(-6.09139806504204e-05 0.00178005482579362 0.000148398229300863)
(-3.54586291965882e-05 0.00113625894012276 9.49475291355228e-05)
(7.11838302296558e-07 0.00104547699451275 0.000118368364948453)
(-2.40135526540219e-05 0.00190808037451119 0.000153796246136217)
(-1.71972520604764e-05 0.00127688305675249 0.000113972601195241)
(-2.17702358609586e-05 0.001888358941573 0.000200429270278784)
(-6.72862191939496e-05 0.00190480576523704 0.000151599180744136)
(-3.37570491950695e-05 0.00124450810540303 9.32925015991475e-05)
(-1.79688654282151e-05 0.00175790992844546 0.000261179590754106)
(-6.04902660791538e-05 0.00186661740504654 0.000207046021130332)
(-9.69232738170625e-05 0.00189630808763613 0.000149667228741584)
(-3.82713394887623e-05 0.00118940157436535 9.64663330286165e-05)
(-1.97533581874619e-07 0.00116443398630827 0.00011786558850078)
(-2.83771610804832e-05 0.00201165879494897 0.000148041794178615)
(-1.79145302486417e-05 0.00142713732036654 0.00012536556521213)
(-2.56324786553975e-05 0.00201071178889015 0.000195407701354229)
(-7.64474305372885e-05 0.00201895411629601 0.000161207129166473)
(-3.63453255694939e-05 0.00141834330162052 0.000116017039437576)
(-2.10830017373091e-05 0.00187719667551382 0.000255656062942147)
(-7.08392384937163e-05 0.00199559681384997 0.00020584714543452)
(-0.000112286604999383 0.00202438064835407 0.000153319531286212)
(-4.51013090670571e-05 0.00130064457090131 9.67170565760319e-05)
(-1.78973846687461e-05 0.00176104850739768 0.000320343585878106)
(-5.7734578450833e-05 0.00181918931046231 0.000266971002504258)
(-0.000104036365151814 0.00195814933165639 0.000209930830657607)
(-0.000131841223309762 0.00190077387370177 0.000153280450445038)
(-4.4083187315006e-05 0.00119596886612847 0.000101973937447026)
(-3.24075672198267e-06 0.00128712501305231 0.000109331095867648)
(-3.38379972449522e-05 0.00211653695252134 0.000129499888426624)
(-2.59842771822652e-05 0.00157325598485509 0.000124792491222804)
(-3.05495393697786e-05 0.00213663871781 0.000179638347379944)
(-9.06100057814159e-05 0.00211929151404128 0.000157738241964341)
(-4.98267451153736e-05 0.0015753956684105 0.000129968247246802)
(-2.49340441996625e-05 0.00200077051597962 0.000244271361956056)
(-8.40677248632666e-05 0.00212046750813247 0.000201659318724814)
(-0.000131954245899058 0.00214107374595485 0.000165523897406258)
(-6.23919107174338e-05 0.00147933285055896 0.000121508982988343)
(-2.10004474023267e-05 0.0018769802605385 0.000312381505366242)
(-6.8336210761679e-05 0.0019418147764591 0.000261200929441484)
(-0.000123793150157457 0.00209068854371652 0.000208831187258091)
(-0.000157785195973382 0.0020258618365431 0.000158301301676606)
(-5.99536041780019e-05 0.00130640341320103 0.000105117390360871)
(-1.8049612900023e-05 0.00176713811450719 0.000376907788613386)
(-5.6708251889332e-05 0.00179970409565387 0.000325542813793952)
(-0.000101476723375645 0.00188061310256581 0.00027047987119194)
(-0.000148924089053637 0.00197264569877971 0.000213508126809046)
(-0.000164905411720928 0.00186884301651207 0.000158258669604061)
(-4.66574404598646e-05 0.00116984879021329 0.000107877608695128)
(-7.79877815488934e-06 0.00141349280074597 8.97887583418772e-05)
(-4.00056152952314e-05 0.00222236370094868 9.68494394855367e-05)
(-4.00185945646995e-05 0.00172724683963384 0.000113255285420789)
(-3.61749417512296e-05 0.00227087237089638 0.000150100758161667)
(-0.000108051875493694 0.00221738587838618 0.000139662407282241)
(-7.17797992167377e-05 0.0017288494438302 0.000130027707855684)
(-2.9476990190945e-05 0.00213220852042811 0.000222244084293434)
(-0.000100450240614803 0.00224543965628561 0.000185902527052268)
(-0.000157753098926461 0.00224005813252275 0.000163425364050109)
(-9.10436575219102e-05 0.00163926399715607 0.000136722461912001)
(-2.47465121253985e-05 0.00200037238164988 0.000297582904818562)
(-8.14156551434276e-05 0.00206665909692639 0.000249830235192576)
(-0.000147694628047811 0.00221714591086366 0.0002051389824968)
(-0.000189532056531347 0.00213848646277608 0.000173227506821434)
(-9.08064640265588e-05 0.00148392044090574 0.000131364713769171)
(-2.11292199623445e-05 0.00188028055814534 0.000368389471672838)
(-6.69932422188605e-05 0.00191745700684792 0.0003173071977179)
(-0.000120974428189309 0.00200562583959961 0.000264505553609941)
(-0.000179384851591738 0.00210280314464858 0.000213479041399075)
(-0.000201116625371391 0.00198829157501451 0.000165219657059477)
(-6.87066665026055e-05 0.0012753711913096 0.000113695489301528)
(-1.80567995562041e-05 0.00177163628961913 0.000430586158946176)
(-5.63644536753782e-05 0.00179444161827408 0.00038112869293589)
(-0.000100302098742619 0.00184182037922435 0.000329035694196897)
(-0.00014801106340042 0.00188896356164757 0.000273931709221846)
(-0.00019222705916066 0.0019537795788419 0.000217386866805059)
(-0.000193328679243396 0.00181797535581367 0.000163607182559216)
(-4.24050789474109e-05 0.00112276086506145 0.000111250684313384)
(-1.28696408848215e-05 0.00153613267243775 5.56653180546948e-05)
(-4.67707954750357e-05 0.00233169750762373 4.74561964713847e-05)
(-5.91019154079199e-05 0.00188148125617669 8.8037346754977e-05)
(-4.25077105647326e-05 0.00241569355035456 0.000103727875543387)
(-0.000127951384721725 0.00231740256466684 0.000105936741402465)
(-0.000101743925380965 0.00189069884928921 0.000117106303669297)
(-3.44661069193745e-05 0.00227477117941815 0.000186100607951219)
(-0.000119386761032915 0.00237750620427634 0.000155459988990246)
(-0.000188560513137335 0.00233504200936856 0.000145437567108595)
(-0.000129117833871396 0.00179518042361093 0.000137466463373588)
(-2.90069136662318e-05 0.00213421551307589 0.000272308730990747)
(-9.68920837595832e-05 0.00219783284898668 0.00022747330498423)
(-0.000176264140379306 0.00234129184340675 0.000189244226186472)
(-0.000227779297211322 0.00223073377828626 0.000173617744711786)
(-0.000133239124438839 0.00164068571762487 0.000147305748424875)
(-2.48069260729317e-05 0.00200285426734329 0.000352687241805541)
(-7.94723192628391e-05 0.00204132771702267 0.000302378166913401)
(-0.000144147391844576 0.002131338990841 0.000252987301908175)
(-0.000215034302962004 0.00222531366891782 0.000211500660978695)
(-0.000244757808173021 0.00209381302900617 0.000182979925354956)
(-0.000110558595592673 0.00144657589677823 0.000141300438386664)
(-2.10859110558981e-05 0.00188206123870421 0.000422948312832574)
(-6.62759680847816e-05 0.00190868478796625 0.000372380423339037)
(-0.000118965695895251 0.00196105131390458 0.000320530976901095)
(-0.000177529736038514 0.00201180967514675 0.000268880557911426)
(-0.000233323421397288 0.00207850017632902 0.000219121318557678)
(-0.000238430145337523 0.00193036967084287 0.000172922865156206)
(-6.89177623188859e-05 0.00122089742609637 0.000117911351143077)
(-1.78589449716272e-05 0.00177236408625585 0.000481307963852928)
(-5.59130010304284e-05 0.00179262936689102 0.000433834659434856)
(-9.97717046030924e-05 0.00182521695976389 0.000384223132349645)
(-0.000147289430144009 0.00184333730539923 0.000332168128712013)
(-0.000193567060444211 0.0018685927422421 0.000277133839142348)
(-0.000230644739019528 0.00191452587307663 0.000221565416426685)
(-0.000214699824543462 0.00175593487519131 0.00016828461872955)
(-2.99134447195554e-05 0.0010621138392558 0.000110888226770192)
(-1.83075824416498e-05 0.00164755073789773 1.55225674829183e-06)
(-5.37709554345883e-05 0.00244284525646049 -2.19019005758741e-05)
(-8.16717836074521e-05 0.00203321089693003 4.5867773381094e-05)
(-4.96836128666677e-05 0.00257313342793458 3.70515529912079e-05)
(-0.00015011678386228 0.00242192279498652 5.41655917036886e-05)
(-0.00013856577935509 0.00205209449786011 8.82875614902811e-05)
(-4.00578200867602e-05 0.0024311567005842 0.000132396066477232)
(-0.000140890359198017 0.00251980496937724 0.000107565292785987)
(-0.000223540842711056 0.00243114549419022 0.000110701930241902)
(-0.000176024081450427 0.00195829899586159 0.000123937724005791)
(-3.37482223120761e-05 0.00228130005394667 0.000233196110176298)
(-0.00011443910587964 0.00233971456290747 0.000190696632217677)
(-0.00020934005679477 0.00247147174997685 0.000158106556044377)
(-0.000272047661901276 0.00231768908545026 0.000157671267810543)
(-0.0001856796797904 0.00179275006153941 0.000148718522417365)
(-2.90376097739854e-05 0.00213768273843659 0.000326923109495229)
(-9.3937556304304e-05 0.00217474789097637 0.000276990030509652)
(-0.000171212108780042 0.00226193120257305 0.000230209545577232)
(-0.000256504527107154 0.0023433287920273 0.000197356370595219)
(-0.00029507145552529 0.00217663027945824 0.00018639299420495)
(-0.000164384237900439 0.00159511145567489 0.000157527895676403)
(-2.46843115886846e-05 0.00200308755693766 0.000408316265597625)
(-7.81638221244382e-05 0.00203125803072945 0.000356578674775035)
(-0.000140972656114988 0.00208524199718785 0.000305309578288556)
(-0.000211729017882825 0.0021339734780896 0.000258713956075431)
(-0.000280692051895 0.00219382814164392 0.000219607787182646)
(-0.000292460374840108 0.00202714837533548 0.000193774269906612)
(-0.000117187426496316 0.00138248931309078 0.000145788956377094)
(-2.07790382854151e-05 0.00187990589591033 0.000475576640529187)
(-6.5395608963837e-05 0.00190387368490508 0.000425961989491305)
(-0.000117638039236874 0.00194045443131533 0.00037520605682401)
(-0.000175316971798271 0.00196032593218456 0.000324552269517094)
(-0.000233123406212283 0.0019863911583053 0.000273774667582275)
(-0.000281238770896015 0.0020319700263458 0.000225634170270309)
(-0.000266768216201406 0.00186056593709989 0.000180136851875286)
(-5.83736122159259e-05 0.00115072347392406 0.000120181637604584)
(-1.75042860162715e-05 0.00176774333287726 0.00052909040100783)
(-5.51269753651977e-05 0.00178909586213361 0.000483827150062136)
(-9.89072599757205e-05 0.0018163256792412 0.000436469089269122)
(-0.00014678697326144 0.00182216986505396 0.000386819025039559)
(-0.000193865929121835 0.00182027168067122 0.000334840455748335)
(-0.000234449917539179 0.00182850041759382 0.000280478525512652)
(-0.000261881478215801 0.00186173804638014 0.000225792446543843)
(-0.000227235025846418 0.00168791418163069 0.000171398657136211)
(-9.39954324113957e-06 0.000992958896038175 0.000108859105762037)
(-2.34121923007949e-05 0.00173489258703284 -7.89783452369414e-05)
(-6.09717878492323e-05 0.00255488276833289 -0.000116251750695888)
(-0.000106198599044248 0.00217412496997964 -1.98897012206331e-05)
(-5.77553607176543e-05 0.0027444302606172 -5.3986845627626e-05)
(-0.000173866651788589 0.00253101528189067 -1.83053100775784e-05)
(-0.000181169252609678 0.00221061948515203 4.03173126904972e-05)
(-4.63175385398567e-05 0.00260365473660613 5.73848095636188e-05)
(-0.000165310619769624 0.00267533196818718 3.87689888558422e-05)
(-0.000262374508097283 0.0025307606206091 5.70799599471064e-05)
(-0.000230059073238872 0.00212143626249163 9.43277631763292e-05)
(-3.90877065376762e-05 0.00244444551689492 0.000176898075393409)
(-0.000134378158168267 0.00249518801872513 0.000136218912765024)
(-0.000247010099389346 0.00261121595759486 0.000108986634889617)
(-0.000321517747503939 0.00240465624810596 0.000124830832168076)
(-0.000247029807470053 0.0019479559631743 0.000135045433903058)
(-3.38365101688603e-05 0.00228738743799098 0.00028809680567134)
(-0.000110361842877735 0.00232108323987343 0.000237882454717118)
(-0.000202355750204461 0.00240265923486141 0.000192753681244539)
(-0.000304153462952524 0.00246594326324046 0.000168081354628873)
(-0.000351871585613799 0.00225339788510393 0.000173558546368834)
(-0.000228055991480216 0.00173740567754733 0.000159239964136198)
(-2.88364537021316e-05 0.00213754418433513 0.0003843341237711)
(-9.19421363357872e-05 0.00216535535433606 0.000330880469855544)
(-0.000166476051048748 0.00221802294802195 0.000279503567608981)
(-0.000251130256922855 0.00225938293527557 0.000237528164289113)
(-0.000334765305266893 0.00230249151703173 0.000208363585135116)
(-0.00035334859881037 0.00209897394608675 0.000200579600222786)
(-0.000178108465302802 0.00151997627852981 0.00016362373834728)
(-2.42772187842895e-05 0.00199854380709067 0.00046340398422058)
(-7.67483657491185e-05 0.00202472772942686 0.000411257571662426)
(-0.000138566079555807 0.00206310120617088 0.000359158265076164)
(-0.000207662788527536 0.00208106148939065 0.000310543866734219)
(-0.000278297276942481 0.00210193642261474 0.000265906646824307)
(-0.000339121137131983 0.0021380209778622 0.000229182652415302)
(-0.000328914727541285 0.00194785692533546 0.000204292266162319)
(-0.00010961197885377 0.00130159083059658 0.000149230552669695)
(-2.02860870106482e-05 0.00187223076701098 0.000526106828759486)
(-6.41584762447183e-05 0.00189760538896953 0.000477837778953254)
(-0.000115936224533779 0.00192835115051114 0.000428350548954479)
(-0.000173440720921285 0.00193512651447779 0.000378632732189648)
(-0.000231292658964642 0.00193241436587966 0.000328851585050105)
(-0.000283021580980954 0.00193933365917223 0.000279414494951944)
(-0.00032025604280971 0.00197075963895856 0.000232591303284816)
(-0.000284085270824951 0.00178457591044574 0.000186048890547586)
(-3.68263127814807e-05 0.00106985887238533 0.00012022172004671)
(-5.4001384947971e-05 0.00178137976693241 0.000531157667502993)
(-9.7404715346915e-05 0.00180782904743305 0.000486139588045017)
(-0.000145628052331206 0.00181047897557358 0.000438461285682538)
(-0.000193853743341216 0.00179763426529192 0.000388923972016296)
(-0.000236238802890882 0.00177928351509459 0.000337524944489235)
(-0.000268433540527659 0.00177509184219953 0.000283995580676971)
(-0.00028447934744102 0.00180087278931584 0.000229377356856369)
(-0.000230112472645253 0.0016174092847999 0.000172011880777643)
(1.76444423270447e-05 0.000918871437474434 0.000104427017216308)
(-2.87074685578892e-05 0.001782415683857 -0.000198476388888786)
(-6.81376093823563e-05 0.00266679718690511 -0.000238761818681558)
(-0.000132156381626822 0.00229097481577863 -0.000123197594802664)
(-6.66041817065363e-05 0.00293036049484818 -0.000174633366520754)
(-0.000198699255038059 0.00264566916906223 -0.000115417212022995)
(-0.00022837269096075 0.00235854412951919 -3.20468212524095e-05)
(-5.32938970162649e-05 0.00279480139992273 -4.36849114652036e-05)
(-0.000192953135043701 0.00284487740401243 -5.4911082382906e-05)
(-0.000304808520057303 0.00263434008586209 -1.7605602647108e-05)
(-0.000291194652947612 0.00228102488929644 4.54585727532855e-05)
(-4.49706269033144e-05 0.00262660667035621 9.94096159403488e-05)
(-0.000157105112743916 0.00266727903494538 6.01573783922954e-05)
(-0.000289740869245823 0.00276346060641335 3.85144128018544e-05)
(-0.000375738663867574 0.00249423255248545 7.33676818705386e-05)
(-0.000315677322515629 0.00210519164901147 0.000106549744597084)
(-3.91669800546571e-05 0.00245515656755906 0.000232983015979253)
(-0.000129062853931867 0.00248332591529872 0.000181599939556786)
(-0.00023790424542149 0.00255660022333886 0.000137320836789394)
(-0.000358249368132074 0.00259646913631674 0.000121190561046261)
(-0.00041442986496631 0.00232834057995769 0.000144518827808371)
(-0.000300252900729766 0.00187802529221615 0.000148302794853263)
(-3.35694487074534e-05 0.00228824909661229 0.000348401888273756)
(-0.000107667956291423 0.00231413223236245 0.000292304165778535)
(-0.000195717444455375 0.00236333815052927 0.000239808017569983)
(-0.000296295616464126 0.00239369263120914 0.00020201857329707)
(-0.000396252382278783 0.00241409311133512 0.000182552386927971)
(-0.000420864772565354 0.00216398781242188 0.000191580553292555)
(-0.000248481657845302 0.00164939406544206 0.000167754724150309)
(-2.83265465435634e-05 0.00213134712798766 0.000442832224867775)
(-8.98826805329509e-05 0.00215834867094524 0.0003873505571361)
(-0.000162718497766815 0.00219653750362116 0.000333139994296485)
(-0.000244798896229693 0.00220906786099417 0.00028628393069266)
(-0.000329758236930443 0.00221888598977181 0.000247595633853106)
(-0.00040438917977734 0.00223518996212745 0.000221654325454394)
(-0.000398114517658974 0.00200808186216144 0.000214784976208517)
(-0.000173291375120251 0.0014263515475539 0.000168717852360221)
(-2.36277282580362e-05 0.00198778256777781 0.000517277661800724)
(-7.49881477561568e-05 0.00201609471860551 0.000465552125386647)
(-0.000135914456054696 0.00204916921892971 0.000413446887875379)
(-0.000204149597647048 0.00205440277692372 0.000363735568938631)
(-0.000273941576156836 0.00204687357691945 0.000317050723980601)
(-0.00033806179423779 0.00204610260251605 0.00027459875558958)
(-0.00038674729731143 0.00206626261995425 0.000239659365600675)
(-0.000351862189288728 0.00186222763372945 0.000213754070244574)
(-8.79353542093424e-05 0.00120910631857707 0.00015099210124694)
(-1.96692901105151e-05 0.0018583860729293 0.000574128226097736)
(-6.25331289280058e-05 0.00188666783327236 0.000527921381688102)
(-0.000113641863864429 0.00191725801679866 0.000479941702324622)
(-0.000171002005186527 0.00192025534320123 0.000431079549501677)
(-0.000229353207474781 0.00190589548952768 0.000382292828072622)
(-0.000282173282315527 0.00188470846754417 0.000333761460484845)
(-0.000324469484787737 0.00187770810140149 0.00028568767581185)
(-0.000348655408991355 0.00190092287028596 0.000239220996613684)
(-0.000289516427994048 0.00170630661870679 0.000189484740739923)
(-6.38203709003285e-06 0.00098238929471506 0.000117243239496454)
(-9.52767608053405e-05 0.00179653893200014 0.000533309783242993)
(-0.000143449093626751 0.0018001366686611 0.000487579932788337)
(-0.000192745486583148 0.00178548665204241 0.000439969571466211)
(-0.00023727412382893 0.00175695159740888 0.000390961091637037)
(-0.000272215603582777 0.00172587869026143 0.000340278104566928)
(-0.000294375245614598 0.00171359159271683 0.00028708683601765)
(-0.000297792582347725 0.00173653732495208 0.000231297407217771)
(-0.000223339778476659 0.00154737065358914 0.000169009807832151)
(4.77720803751833e-05 0.000844602249631645 9.51085568996881e-05)
(-3.39507466168275e-05 0.00177582247196943 -0.000384571264280403)
(-7.52779810374144e-05 0.00277652437877452 -0.000391340585486363)
(-0.000158700504821103 0.00236769572461495 -0.000277279751751851)
(-7.64362144260871e-05 0.00313117186023671 -0.000331401695638716)
(-0.000224715732442796 0.00276776299327843 -0.000241847045164491)
(-0.000279682870679659 0.00248350359262056 -0.000138940759635753)
(-6.09250422655753e-05 0.00300730385386389 -0.000177031581789052)
(-0.000224168572027131 0.00302972672465782 -0.000178817778406981)
(-0.000350549564342678 0.00274279088325284 -0.00011712673153147)
(-0.000358301315467668 0.00242929279331239 -2.64387024327311e-05)
(-5.13619646074782e-05 0.00283133978857767 -4.2742021231347e-06)
(-0.000183041052425147 0.00285841416682303 -4.21783510033281e-05)
(-0.000338290267153459 0.00292883377064259 -5.71877477518797e-05)
(-0.000434749490322799 0.00258639894865739 1.62679230370858e-06)
(-0.000391338839842415 0.00225618658268251 6.14950930806603e-05)
(-4.51853701025024e-05 0.00264464220348046 0.000157747342569244)
(-0.000150305794284292 0.00266464089522961 0.000104212431257973)
(-0.000278471407298888 0.0027267768103931 5.99941532342883e-05)
(-0.000419452099357534 0.00273766041490275 5.36073802722039e-05)
(-0.000482187471272544 0.00240594788352992 9.78768861590599e-05)
(-0.000379921167720185 0.00202370930051643 0.000124979319338239)
(-3.89650529821138e-05 0.00245858198920812 0.000297581726033731)
(-0.000125487708290319 0.00248073102299185 0.000237612145018809)
(-0.000229120973986429 0.00252422832146036 0.000182787986110683)
(-0.000347820996120257 0.0025397870961708 0.000149105110357752)
(-0.000465664307403618 0.00253162170892215 0.000140097709920037)
(-0.000494525548978413 0.00222644687893571 0.000167514544421536)
(-0.000326959272207158 0.00177677032777352 0.000161045118036051)
(-3.29580702916051e-05 0.00228123796079978 0.000411655637773558)
(-0.000104885039220977 0.00230791525272297 0.000351627038046205)
(-0.000190364792933988 0.00234429464032147 0.000294134826903826)
(-0.00028730378203326 0.00234847396689275 0.000248567659556361)
(-0.000388402391764211 0.0023430192371505 0.000215716167758033)
(-0.00047790703392498 0.00233335568218939 0.000200491218445959)
(-0.000473896979878172 0.00206009653646916 0.000210156700971844)
(-0.00024572081790711 0.00154119495908232 0.000175068419221764)
(-2.75353946007378e-05 0.00211761629889626 0.000501211800111321)
(-8.75404583759687e-05 0.00214809279890253 0.000445028967639256)
(-0.00015892723485697 0.00218215251214077 0.000389320322497335)
(-0.000239341897144386 0.00218327926203992 0.000339214265299811)
(-0.000322501722478715 0.00216694991010684 0.00029560064401903)
(-0.000400227823858642 0.0021522435985883 0.000260111781302939)
(-0.000461122747942341 0.0021506393933548 0.00023636615732542)
(-0.000426742173571758 0.00191072070205813 0.000228120023029188)
(-0.000150844739729368 0.00132033660779089 0.000172617405307107)
(-2.28313160483676e-05 0.0019700314312975 0.000569302205847569)
(-7.28120077036951e-05 0.00200263324242197 0.000518933760782218)
(-0.000132675028622322 0.00203580073934626 0.000467469506814238)
(-0.000200240197445509 0.0020377988039615 0.000417227160223912)
(-0.000269813332334688 0.00201915023755687 0.000369485492338153)
(-0.000334138537679175 0.00199079146282332 0.000324914019899029)
(-0.000387671632546698 0.00197429665068189 0.000284450564467797)
(-0.000421521746123877 0.00198524116782872 0.000250146699308185)
(-0.000360389581371019 0.00177471209801935 0.000220979578345294)
(-5.43791281494811e-05 0.00110979567919701 0.000150113779789627)
(-1.8969657182091e-05 0.00183909450615241 0.000619130982419424)
(-6.06161336837434e-05 0.00187072153388488 0.000575727253467325)
(-0.000110655940796186 0.00190265656118241 0.000529913099997948)
(-0.000167647671154551 0.00190755909029319 0.000482026841221348)
(-0.000226532974333324 0.00189077615316228 0.000434022850518733)
(-0.000280869132081071 0.00185877118613735 0.000386464182719793)
(-0.000325291396148789 0.00182335979218577 0.000339200988836376)
(-0.000356131937398983 0.00180731984029338 0.000291860075656474)
(-0.000365697742255869 0.00182755797525783 0.00024435032406104)
(-0.000283030017718753 0.00162910686329869 0.000189139992585999)
(2.8703224078729e-05 0.000893234930826154 0.000109562121768403)
(-0.000140293343480428 0.0017878234186591 0.000534264916612601)
(-0.000190139246758205 0.00177524212284072 0.000488474749553895)
(-0.000236696423322519 0.00174590824302186 0.000441327564354121)
(-0.000274836756851333 0.00170482846104478 0.000392933911009443)
(-0.000300739240197438 0.00166469333317396 0.00034256026454062)
(-0.000311752534708126 0.00164821545815119 0.000288767043474521)
(-0.000301653730123858 0.00167260446678658 0.000230245718033886)
(-0.00020768431723792 0.00148110895721691 0.000160326391978188)
(7.7183769875115e-05 0.00077651828174432 7.88110762611004e-05)
(-3.7584205860431e-05 0.00166503108708529 -0.000608756772840356)
(-8.35200904531626e-05 0.0028851027381028 -0.000577283097355002)
(-0.000179985821591036 0.00238350307224318 -0.000486525295262082)
(-8.78245198729279e-05 0.00334605736793786 -0.000532210299568255)
(-0.000252856872237938 0.0029024160956499 -0.000402191814734492)
(-0.000331833311948807 0.00256812455980862 -0.000296089381178494)
(-6.90862065198859e-05 0.00324432525225911 -0.00035090492443575)
(-0.000259936332017792 0.00323085398012858 -0.000339584077688743)
(-0.000400150242609955 0.00285730540164296 -0.000246218064116797)
(-0.000429060147758269 0.0025545139478663 -0.0001275680749153)
(-5.83749447611255e-05 0.00306285972586672 -0.000140663542871417)
(-0.000212810661987055 0.00307158548090135 -0.000177101106823543)
(-0.000393482904540529 0.00310848895452141 -0.000183435523112946)
(-0.000498553392336599 0.00268231808154811 -9.37184123690786e-05)
(-0.000472984138363792 0.00239479468859377 -3.22629959440595e-06)
(-5.2009678133801e-05 0.00286004640806795 5.75698354923613e-05)
(-0.0001745693723892 0.00286865203860955 7.64938408310932e-07)
(-0.000324981622253971 0.00291544114882287 -4.40067400390933e-05)
(-0.000488748579565297 0.00288946364608321 -3.81273206255903e-05)
(-0.000554998956522432 0.00248416350892657 3.2254312030911e-05)
(-0.000464449035087917 0.00216066867020646 8.72042477831548e-05)
(-4.5145533339652e-05 0.00265259054199049 0.000228509325190926)
(-0.000145845415264832 0.00266861178339349 0.000163071202908547)
(-0.000267330739280412 0.00270381345870227 0.000104401469064312)
(-0.000406547530235678 0.00270034266504372 7.51102557153776e-05)
(-0.000543713834088781 0.00265721842261063 7.83490877715127e-05)
(-0.000573386783940192 0.00229002379389487 0.000127594587929754)
(-0.000411479668820345 0.00190353901952251 0.000143098675174438)
(-3.82768391899065e-05 0.00245175075078957 0.000367430254514571)
(-0.000122027318846848 0.00247674779574566 0.000301236353008314)
(-0.000222037030671568 0.00250954068753596 0.000238871092209561)
(-0.000335869175702573 0.00250211594065356 0.000194142730510896)
(-0.000455075364912861 0.00247698262610182 0.00016750480716161)
(-0.000560397235980635 0.00243565166667909 0.000163975750524503)
(-0.000556009974278027 0.00211018475538656 0.000191621793115172)
(-0.000325329178219277 0.00165361959776975 0.000171731429988437)
(-3.20166129701705e-05 0.00226487971639618 0.000476087295870634)
(-0.00010189322144363 0.00229683041846152 0.000413998934631286)
(-0.000185273005525003 0.00233076129792374 0.000353304523872192)
(-0.00027959848805993 0.00232537263845888 0.000302145235504745)
(-0.000377863239378921 0.00229675120679879 0.000261476406817429)
(-0.000470608261506786 0.00226349368319915 0.000233083573174525)
(-0.000544247918371022 0.0022338807759282 0.000220558512884068)
(-0.000508126494048004 0.00194964430628982 0.000227952528534622)
(-0.000221033692452945 0.00141997673291097 0.00018138674895032)
(-2.65540330433708e-05 0.00209558067061181 0.000558395153137807)
(-8.48072226874113e-05 0.00213181570080407 0.000502830430769939)
(-0.000154620844964589 0.00216726541583946 0.000446789006903527)
(-0.000233724427064578 0.00216641382446931 0.000394485684432994)
(-0.000315857225879091 0.00214049521045463 0.00034763950876117)
(-0.000392885710783198 0.00210061647779865 0.000307207233299368)
(-0.000458593447153252 0.0020681244245449 0.000274411628493698)
(-0.000502561391746714 0.00205616547604298 0.000251419523599769)
(-0.000438283039181042 0.00181171741589081 0.000239405746966927)
(-0.00011333159357994 0.00120748798744266 0.000174211865569404)
(-2.19399543279752e-05 0.00194529354282701 0.000618668470736193)
(-7.0310926299737e-05 0.00198291483583334 0.000570744450506675)
(-0.000128772217873427 0.00201918715806429 0.000520788554718901)
(-0.000195506709770554 0.00202302240488063 0.000470444129863501)
(-0.000265030545938889 0.00200257164030433 0.000422065686945441)
(-0.000330173533025968 0.00196402283989363 0.000376443646131301)
(-0.000385013284984084 0.00191968222453686 0.000333837765266786)
(-0.000425515664326644 0.00189295306355818 0.000294563247451478)
(-0.00044256167527444 0.00190058185148523 0.000259384611740892)
(-0.000354453809248998 0.00168910815127319 0.000224522576919246)
(-1.35068214359628e-05 0.00100868867768403 0.000144748541305528)
(-1.81759724174657e-05 0.00181335805930672 0.000660673956887719)
(-5.8462055579039e-05 0.00185047358847281 0.000620587399821039)
(-0.000107169902945587 0.00188431584319785 0.00057777377761763)
(-0.000163261307823324 0.00189183512544013 0.000531409064698243)
(-0.000222395256917127 0.00187849031076462 0.000484198367052241)
(-0.000278222215616413 0.00184505334111089 0.000437357748710779)
(-0.000325297517093035 0.0017990217611649 0.000391002124409511)
(-0.000359393666453307 0.00175353867223345 0.000344488712835932)
(-0.000377417535826096 0.00173287971300966 0.000296815676151229)
(-0.000371190075611221 0.00175503235186887 0.000246548712661477)
(-0.000265537681237698 0.00155670989659811 0.000182864392534107)
(6.35461957535768e-05 0.000808530435127635 9.42009197233744e-05)
(-0.000186128009424306 0.00176345099827973 0.000534549868328982)
(-0.000234058323640759 0.00173710634364073 0.000489122806342042)
(-0.000275291194097797 0.00169577491235798 0.000442505707831064)
(-0.00030550139176262 0.00164531038100122 0.000394343409921755)
(-0.000321342324919322 0.00159945631994764 0.000343442284451374)
(-0.000320419033499036 0.00158249543461199 0.000287708682740473)
(-0.000296342566082605 0.00161274097060182 0.000224481521098143)
(-0.000184759223186519 0.0014226988622869 0.000143658258201971)
(0.000101591270650908 0.000727937631399327 5.46285416152135e-05)
(-2.18184726137819e-05 0.00143210504340963 -0.000813696850906601)
(-9.53629874209697e-05 0.0029879317520403 -0.000792889985065126)
(-0.000182061631943647 0.00229841127954653 -0.000730064132658749)
(-0.000100826396078454 0.00357162418121831 -0.000786441980847769)