/*--------------------------------*- C++ -*----------------------------------*\
  =========                 |
  \\      /  F ield         | OpenFOAM: The Open Source CFD Toolbox
   \\    /   O peration     | Website:  https://openfoam.org
    \\  /    A nd           | Version:  12
     \\/     M anipulation  |
\*---------------------------------------------------------------------------*/
/*   Windows 32 and 64 bit porting by blueCAPE: http://www.bluecape.com.pt   *\
|  Based on Windows porting (2.0.x v4) by Symscape: http://www.symscape.com   |
\*---------------------------------------------------------------------------*/
FoamFile
{
    format      ascii;
    class       volScalarField;
    location    "300";
    object      k;
}
// * * * * * * * * * * * * * * * * * * * * * * * * * * * * * * * * * * * * * //

dimensions      [0 2 -2 0 0 0 0];

internalField   nonuniform List<scalar> 
10142
(
0.000121451116017956
0.000117578388245762
0.000354909070157089
0.000124198379470299
0.000113280821562205
0.000346458376792661
0.000120314157571664
0.000519451184686927
0.000355475654754558
0.00012742991096585
0.000108400335484074
0.000337028238846392
0.0001159970805577
0.000507710896376857
0.000347025307129681
0.000123471057441829
0.000649191817424529
0.000519018442668484
0.000355380535795841
0.000128095248342363
0.000102945559340521
0.000326494915775926
0.000111072211318871
0.00049467798033578
0.000337588997442401
0.000119061272380184
0.000634778637066077
0.000507289018965855
0.000346928978347831
0.000124110106081359
0.000760012295424786
0.000648261752540712
0.000516307401397889
0.000352367701559018
0.000124837682534149
9.68960903455738e-05
0.000314771832790332
0.000105560268121937
0.000480258616330921
0.000327042939747112
0.000114021385856126
0.000618853378849491
0.000494261159143842
0.00033749052584661
0.000119667437021417
0.000743291428550648
0.000633868812606637
0.000504613958659106
0.00034395709024648
0.00012092744263028
0.000858450783088294
0.000758544329240865
0.000643883784014308
0.000510049126306764
0.000345040601922845
0.000118566571449158
9.01915171152439e-05
0.000301745849437351
9.94465982528286e-05
0.000464346978439933
0.000315304283752637
0.000108382760468582
0.000601338135925504
0.000479844634122572
0.0003269401757761
0.000114582300558822
0.000724885405893028
0.000617955736604209
0.000491626053093866
0.000334568601817476
0.000116570143101614
0.000839665850335853
0.00074185539349784
0.000629552555100838
0.000498441153733862
0.000336748447278832
0.000114818898370946
0.000947729265488779
0.000856360954524636
0.000752785212548877
0.000635123277440995
0.000499345294327127
0.000333724178310614
0.000110777027375446
8.27427159603701e-05
0.000287262001656616
9.26718361105251e-05
0.00044682157045469
0.000302262332690046
0.000102121606055139
0.000582134449404146
0.000463937393382967
0.000315199858954506
0.000108892837145184
0.00070473109541693
0.000600451682560683
0.00047725454703577
0.000324077366085053
0.000111579982110927
0.00081904918135765
0.000723472151848199
0.000613705881576559
0.000485554091399649
0.000327497901165456
0.000110642589008432
0.000927059857446017
0.000837621801055319
0.000736181453706487
0.000620913360930042
0.00048789623708502
0.000325629049844268
0.000107240164578143
0.00102972751912283
0.00094511134062519
0.000849300960538447
0.000741907414056723
0.000621504389085823
0.000484348608708465
0.000319485348037264
0.000102235541963539
7.44844937227234e-05
0.00027112941529828
8.5146686180103e-05
0.000427535690699487
0.000287763729180357
9.51923523989143e-05
0.000561134258772715
0.000446419911222333
0.000302163455059425
0.000102598371663118
0.000682744203419303
0.000581261405114674
0.000461401885250363
0.000312410654488457
0.000106000424679022
0.000796552168965314
0.000703339610330047
0.000596275881947385
0.000471299636878763
0.000317168798273659
0.000105860365835958
0.000904421073240054
0.000817040647332206
0.000717888355692896
0.00060520605896873
0.000475193241910845
0.000316604017200539
0.000103297977390022
0.00100732564286048
0.000924499602623857
0.000830670405777429
0.000725457555434744
0.000607492251343934
0.000473135550195485
0.000311646485917561
9.89340833844451e-05
0.00110567850813878
0.00102675636997534
0.000936947784229616
0.000836551177812429
0.000725715202822744
0.000603288877916735
0.000465736816812697
0.000303060358751753
9.30700594100718e-05
6.5833386412873e-05
0.0002532739669951
7.68147206964938e-05
0.000406314743158214
0.000271622492860989
8.75004464058775e-05
0.000538215117306794
0.00042714811570046
0.000287683932533966
9.56362670258493e-05
0.000658835116632808
0.00056027890568186
0.000443953504960887
0.000299471938952213
9.9846813125098e-05
0.000772107409051218
0.000681376656433788
0.000577170745591422
0.00045558560260175
0.000305692816866286
0.000100517934995342
0.000879783763180134
0.00079457797060276
0.000697853938175875
0.000587934564758693
0.000461152582271437
0.000306534770483579
9.8779073873748e-05
0.000982792956997675
0.000901907022951698
0.000810202862323294
0.000707337954967463
0.000592011460242229
0.000460702829820147
0.000302912838123678
9.52522088587082e-05
0.00108171252394059
0.00100441979840254
0.000916464972579889
0.000818104987385203
0.000709500622248651
0.000589553908934116
0.00045482760173262
0.000295523533628562
9.00244230170923e-05
0.00110249033492028
0.00101775787413243
0.000922629310728002
0.000818103026124016
0.000704627716078409
0.000581026070458761
0.000444038667483222
0.000284692771843584
8.32743382063229e-05
5.66355869610983e-05
0.000232927114408689
6.81124797725054e-05
0.000382969924534589
0.000253814620284306
7.89818705874152e-05
0.000513234338585052
0.000405950746696419
0.000271582369122643
8.79316297141892e-05
0.000632905350244075
0.000537383694485145
0.000424771059099572
0.000285121454619643
9.30529989643294e-05
0.000745644932385888
0.00065749551348582
0.00055628907818385
0.000438305146683191
0.000292985427485576
9.46261709685357e-05
0.000853101168965185
0.000770169537001203
0.000676000566171545
0.000569011358518807
0.0004456868864114
0.00029536202925504
9.373602245455e-05
0.000956151061836259
0.000877314546984424
0.000787861709770723
0.000687496954817755
0.000574997297255972
0.000446971437936045
0.000293176687248567
9.1027052402098e-05
0.00105534613254785
0.000979940656327967
0.000894006057864952
0.000797842321654967
0.000691646903391172
0.000574387557342974
0.000442739942227877
0.000287131558951983
8.66278663873408e-05
0.00115106987773212
0.00107858918674273
0.000995565004122782
0.000902357106194026
0.00079992702382922
0.000688731311629314
0.000567642465975443
0.000433493464257406
0.000277499593990358
8.05105892091563e-05
0.00109287380777084
0.00100218824191236
0.000902266756525876
0.000794490347929112
0.000679178900956109
0.000555119803049617
0.000419505434731013
0.000264413892261654
7.29220975692246e-05
4.69647460189845e-05
0.000209827766521476
5.87578479471736e-05
0.000357177087458299
0.000233445947411119
7.00576176122995e-05
0.000486018843877089
0.000382641213228316
0.000253821000992041
7.94098255386996e-05
0.000604839403104499
0.000512435587616795
0.000403692034976892
0.000269187301928348
8.55599161502956e-05
0.000717088256289555
0.00063159900667203
0.000533515014785562
0.000419329627911928
0.00027892403709498
8.81580569025499e-05
0.000824323765195623
0.000743746822966414
0.000652243764970744
0.000548340894196837
0.000428699475870753
0.000283012531059437
8.81860573392817e-05
0.000927380362709348
0.000850678529801409
0.000763585817588559
0.000665860315464282
0.000556367719113715
0.000431861761096463
0.000282388781675268
8.63173643191911e-05
0.00102677958006035
0.000953350465377422
0.000869554932091681
0.000775725983196878
0.000672103272775873
0.000557728578146363
0.000429400352462412
0.000277783883278981
8.27234104687232e-05
0.00112282443635069
0.00105228365659687
0.000971234660160865
0.00088012972627004
0.000779966240679997
0.000671234764166465
0.000552871881840981
0.000421816825630691
0.000269495279611945
7.74273538134001e-05
0.00121542687625952
0.00114778085233088
0.00106912198394629
0.000980226485407047
0.000882295353203118
0.00077667101121096
0.000663679987576137
0.000542157549298377
0.000409381406820933
0.000257607148124882
7.04673000507495e-05
0.0010763006136912
0.000980228328404028
0.000876468212607086
0.00076625870889887
0.000649718390969483
0.000525791831274688
0.000392243830473592
0.000242237891838383
6.21719688881721e-05
3.69911832103013e-05
0.000183833573661995
4.88215199721734e-05
0.000328729567180598
0.000210334258178558
6.05007585437682e-05
0.000456430561540175
0.000356904281013739
0.000233611540726002
7.03897233183661e-05
0.000574488696604301
0.000485262903786821
0.00038053979968331
0.000251614371833594
7.73032035023858e-05
0.000686346178719339
0.000603573351259118
0.000508714491769252
0.000398508477184398
0.000263354438439233
8.10638382495695e-05
0.000793396997741991
0.000715234422104903
0.000626489885532803
0.000525815289024601
0.000410075821144125
0.000269385277424189
8.21179162421162e-05
0.000896450901934378
0.00082195053244376
0.000737309018225734
0.00064234762837349
0.000536034450359688
0.000415288338378319
0.000270489167322323
8.11501896530462e-05
0.000996019128455936
0.000924632769934921
0.000843070579233346
0.000751697126102677
0.000650799168911007
0.00053950112399161
0.00041473795669906
0.000267441391040678
7.83735037389311e-05
0.00109238351711061
0.00102377422824235
0.000944800728324564
0.000855929766762933
0.000758183165552462
0.000652089486856603
0.000536657389552894
0.00040894111965364
0.000260585670650766
7.38729277790069e-05
0.00118556474491645
0.00111961730188758
0.00104297868167399
0.000956149018472476
0.000860401135773932
0.000757106934944611
0.000646627192364767
0.00052785924228804
0.000398178329510396
0.000250037042942691
6.77277236255737e-05
0.00127531401536063
0.00121202390795652
0.00113781788265032
0.00105279296977815
0.000958592897008394
0.000856888074255375
0.000748879804317781
0.000634693970338302
0.000513319311114241
0.00038259776484255
0.000235861471582693
6.00474222617042e-05
0.00105299069939814
0.00095254283974309
0.00084580473599024
0.000733738408436005
0.000616445018470331
0.00049317770305517
0.000362316931294762
0.000218208569451891
5.12299441859927e-05
2.74471335072155e-05
0.000154780463822773
3.85914776352281e-05
0.000297367270216572
0.000184293852397903
5.03607248549097e-05
0.000424289387246818
0.000328532149295975
0.000210748531968713
6.08517973175268e-05
0.00054177219626563
0.000455735987567687
0.000355023770767588
0.000231860123330962
6.84197794039865e-05
0.000653296888571943
0.000573271458849525
0.000481723886252461
0.000375684671506781
0.000246167065027072
7.32955614888604e-05
0.000760254479209422
0.000684541986224407
0.000598630006482073
0.000501310972849649
0.000389683455781199
0.000254351474754741
7.55086228498571e-05
0.000863328667893688
0.00079107659007101
0.000708958534890253
0.000616871738469272
0.00051390044222774
0.00039715315088866
0.000257397701733645
7.55241083963476e-05
0.000963046025731546
0.00089375838693255
0.000814506058841001
0.000725692607375503
0.0006276601764714
0.00051962591140927
0.000398679378843096
0.000256057541226718
7.36142305661989e-05
0.00105970175999518
0.000993070742484707
0.000916248716403555
0.000829717465758797
0.000734521241350492
0.000631229474416394
0.000518930113152116
0.000394804393935395
0.000250740434838883
6.9913514809576e-05
0.00115335849955024
0.00108924027048165
0.00101463801508211
0.000929987354289297
0.000836565243154347
0.000735761498341884
0.000627974965853764
0.000512172599741258
0.000385834105650402
0.000241614541620183
6.45555443273886e-05
0.00124385987234095
0.00118224589378743
0.00110983733711746
0.001026921202451
0.000934875246509093
0.000835425951421593
0.000729803588816296
0.000618168920454502
0.000499567974305091
0.000371930116930716
0.00022877341873828
5.76810395913598e-05
0.00133087758627119
0.00127180839223111
0.0012016523197394
0.00112065291491675
0.00102982921370021
0.0009313289004792
0.000826704029935001
0.000716882511348067
0.00060197161869753
0.000481262911332678
0.000353205754574795
0.000212306925350289
4.94584098016381e-05
0.0010236591062123
0.000919741127902281
0.000810610370605178
0.000697116709928223
0.00057950119144416
0.000457378921175598
0.000329777192815639
0.000192384735910993
4.03286554216784e-05
1.89006634553075e-05
0.000123340715431683
2.87041622533468e-05
0.000262920708503737
0.000155339928377064
3.99482274292224e-05
0.000389431626597526
0.000297326674161536
0.000185079278450858
5.07902716882947e-05
0.000506547588674079
0.000423685624687819
0.000326954685485989
0.000209561202131153
5.91948650462766e-05
0.000617858380005979
0.000540619239216792
0.000452427672163975
0.000350614306413279
0.000227213751674564
6.48517536045261e-05
0.000724807993539456
0.000651545400082939
0.000568523855960095
0.000474680358595155
0.000367390238429837
0.000237785808579029
6.832711373252e-05
0.000827971272076979
0.000757990883424425
0.000678447983757615
0.000589332478693514
0.000489857472214992
0.000377344722120415
0.000243014666277907
6.94213091438865e-05
0.000927843205879716
0.000860693477350523
0.000783808893943188
0.000697644263902247
0.000602607301220244
0.000498018717212374
0.000381143668974428
0.000243570495831313
6.84491163715728e-05
0.00102475519870909
0.00096015564279011
0.000885550095233439
0.000801447586809848
0.000708921349043722
0.000608587127848714
0.000499620492184081
0.000379345347665922
0.000239925674933087
6.55883693087625e-05
0.00111881898061542
0.00105661876110304
0.00098411094360005
0.000901727029107044
0.000810748791584541
0.000712581087950287
0.000607662548890777
0.000495036021076683
0.000372295241710667
0.000232317127216004
6.10177012853039e-05
0.00120993445325144
0.00115010673879374
0.00107964238931291
0.000998871185033316
0.000909103848832015
0.000812062508701382
0.000708995169639343
0.000600101101996226
0.000484490109155507
0.000360183596472018
0.000220887771546574
5.49201728581337e-05
0.00129784133819775
0.00124044127477546
0.00117206517621605
0.00109296473333742
0.00100434141996008
0.000908074998893959
0.000805769757931813
0.000698384076462672
0.000586057849633055
0.000468132744040934
0.000343135547199539
0.000205749905051106
4.74879170294226e-05
0.00138215834914205
0.0013272745821662
0.00126106931805341
0.00118376380091825
0.00109653095149596
0.00100094453547822
0.000899041485027691
0.000792076671257104
0.000680866750741032
0.000565655457064964
0.000446089819098653
0.000321258681580069
0.000187004913208071
3.89268152500856e-05
0.000988959002832746
0.000882176600973536
0.000771071454562646
0.000656536928514199
0.000539007740553014
0.000418475870400428
0.000294664213558803
0.000164798142401323
2.9703864472313e-05
1.24068331423284e-05
9.1149071050412e-05
1.99457193490437e-05
0.000225430811227888
0.000124247253292093
2.98859977736129e-05
0.000351742464244249
0.000263137765666652
0.000156692645603543
4.04989798895435e-05
0.000468689093497809
0.00038896307794749
0.000296173799270476
0.000184676407182213
4.95375633696273e-05
0.000579923999970603
0.000505477543413497
0.000420675844206033
0.000323124738498102
0.00020584778490077
5.60806502827424e-05
0.000686938561290894
0.000616177263725504
0.000536106395977641
0.000445825885974634
0.000343008876209106
0.000219749988685983
6.05532538369015e-05
0.000790317970124724
0.000722605232389078
0.00064566097908076
0.000559603810559763
0.000463781244280717
0.000355747919623024
0.00022723485164069
6.28303342090455e-05
0.000890392163363186
0.00082539573420598
0.000750915726646345
0.000667473407772217
0.000575553670466988
0.000474589513869025
0.000362042029006651
0.000229905280765684
6.28677464971732e-05
0.000987539758782663
0.000925011798788465
0.000852671396044933
0.000771070385880155
0.000681321579069473
0.000584093433551172
0.000478657659181896
0.00036249934502429
0.000228095411492992
6.09014719642179e-05
0.00108194345671335
0.0010217320891032
0.000951380300220644
0.000871339820881332
0.000782908768607892
0.00068751143299599
0.000585629815680657
0.000476389813173344
0.000357511953804323
0.000222121697148631
5.71519223922814e-05
0.0011735721964639
0.00111562997320845
0.00104720701622385
0.000968652233791804
0.000881263535709131
0.000786760176005298
0.000686404513060499
0.000580435365117026
0.000468031291740787
0.000347312565638805
0.000212188958153378
5.18291497611038e-05
0.00126221800351669
0.00120658586410428
0.00114011762207001
0.00106307870568651
0.000976705407298253
0.000882807103755281
0.000782982846164256
0.000678210334086069
0.000568665042508567
0.000453743722237686
0.000332052759240354
0.000198451224866445
4.51573481142626e-05
0.00134755619101294
0.00129432910239587
0.00122990131685301
0.00115448292192342
0.00106925156270872
0.000975950212597421
0.000876352093111573
0.000771765507423222
0.000663036572168347
0.00055043666832222
0.000433654972259616
0.000311848672240024
0.000181030090671519
3.73732927049603e-05
0.0014291672014173
0.00137846339886163
0.00131619615470686
0.0012425285728929
0.00115861766000327
0.00106620752607757
0.000966788944871991
0.00086208361625469
0.000753193229192231
0.000640976475098005
0.000525866448039937
0.000407880845469105
0.000286798742535611
0.000159992292997508
2.86637531354442e-05
0.000949269023189842
0.000840042361277102
0.000727332055583601
0.00061212738816928
0.00049506315578882
0.000376522427234352
0.000256985849494207
0.000135378897656602
1.96503261720945e-05
7.70352019716094e-06
6.23242893661975e-05
1.29895402189573e-05
0.000185382037402916
9.29835792140212e-05
2.09654759254863e-05
0.000311218865176408
0.000226023758497957
0.000126252201847548
3.05306251394119e-05
0.000428120923982641
0.000351476020985156
0.000262597394679035
0.000157278345792968
3.96781261789642e-05
0.000539388058580479
0.000467732562051026
0.000386352204533552
0.0002931074588703
0.000182104241012769
4.70172160542878e-05
0.000646598341868444
0.000578327079875722
0.000501257302213194
0.000414625884403274
0.000316379987329277
0.000199643153245106
5.22351236859539e-05
0.000750274254412134
0.000684805057261987
0.000610529070080369
0.000527626855794325
0.00043558676023152
0.000332264377439797
0.000210047396755211
5.57141265066883e-05
0.000850662970760466
0.000787804547873663
0.000715743465481169
0.000635081058456897
0.000546397097699905
0.000449244866208521
0.000341285640122019
0.000214980179124874
5.68475816831267e-05
0.000948059801971217
0.000887620261891592
0.000817571257997419
0.000738527393922429
0.000651653828283902
0.000557676509405838
0.00045596939185815
0.000344198935294291
0.000215196500554376
5.58524194749386e-05
0.00104274616866191
0.000984576277749148
0.000916428450834908
0.000838793203470061
0.000752999536741365
0.000660498140447057
0.000561818218034932
0.000456176271537246
0.00034143480456571
0.000210996584988141
5.29712232922073e-05
0.00113478696490579
0.00107881615496396
0.00101251225447582
0.000936246405788202
0.000851326524170019
0.000759478863624948
0.000661982795803061
0.000559119288054494
0.000450141454623022
0.000333277956699265
0.000202663591282167
4.84520272292783e-05
0.00122404857539705
0.0011702890678967
0.00110583581989473
0.00103096694698057
0.000946927945522902
0.000855509573082995
0.000758307589654757
0.000656315217612119
0.00054974372925824
0.000438048300807048
0.000319918957876329
0.000190401298743086
4.25327597171534e-05
0.00131025027584467
0.00125877911368409
0.00119624671078108
0.00112285998740529
0.00103980273008101
0.000948846696937885
0.000851696832547475
0.000749658425838517
0.000643595658691992
0.000533809508853501
0.000420034632629825
0.000301496077545089
0.000174368183752992
3.54857499919886e-05
0.0013930216230705
0.0013439561832495
0.00128345917009517
0.00121168115414545
0.00112976545588482
0.00103945218650455
0.000942394250801862
0.000840059234919137
0.000733601662941183
0.000623905850243665
0.000511426523083899
0.000396215911839247
0.000278114031512879
0.000154658783303284
2.75336527348621e-05
0.00147191321006645
0.00142538690871832
0.00136707138416746
0.00129705819727197
0.00121645664697051
0.00112700812445959
0.00103037299004365
0.00092774038898778
0.000820649578671549
0.000710198823121088
0.000597340388618957
0.000482703318087769
0.000366691360239823
0.000249836191386564
0.000131231941748525
1.89632965240694e-05
0.000904791752320151
0.000793483649224316
0.000679521038973743
0.000563990897687017
0.000447726782106418
0.000331525516585545
0.000216700742350695
0.000104112930318321
1.07304704123588e-05
4.69258798677797e-06
3.97220204812719e-05
8.10264767732791e-06
0.000144093716338818
6.46473590641337e-05
1.37893110366997e-05
0.000268061457914008
0.000186529167668443
9.55230556528233e-05
2.16154568725245e-05
0.000384881843979937
0.000311244610565075
0.000226336491481274
0.00012774736901834
3.00767098353548e-05
0.000496198749050658
0.000427325499736406
0.000349402725309944
0.000260532373342192
0.000156015160973833
3.7781731677675e-05
0.000603694396816445
0.000537896481175152
0.000463886042375468
0.000381001623986456
0.000287436541004785
0.000177280772582104
4.38113245119231e-05
0.000707774315475043
0.00064454686789206
0.000572966706364357
0.000493312061500274
0.000405189266015596
0.000306724797857468
0.000191399062078319
4.80783752057929e-05
0.000808602943825476
0.000747823592328145
0.000678181239136803
0.000600383812535365
0.000515067331988984
0.000421894496261821
0.000318815281164137
0.000198739530168651
5.0389409014262e-05
0.000906315667074794
0.000847950618949206
0.000780191771859486
0.00070374429834571
0.000619839480487865
0.000529260690593967
0.000431485083215717
0.000324379015618891
0.000201173282689218
5.04381688037742e-05
0.00100125357214511
0.000945154815638195
0.000879235831848899
0.000804048373585091
0.000720969993408804
0.000631484759937059
0.000536170385090689
0.000434340284085446
0.000324016049052703
0.000198909680449849
4.84898045536172e-05
0.00109360865044305
0.00103967946055925
0.000975553238217382
0.000901635388694133
0.000819262211575054
0.000730178194029092
0.000635683726855792
0.000536104759888699
0.000430775463410381
0.000318044405638132
0.000192294797514296
4.48106937362008e-05
0.00118335471363562
0.00113156797790793
0.00106922161293889
0.000996609560811098
0.000914989943312643
0.000826155625166798
0.000731707400295101
0.000632655623534106
0.000529249110976007
0.00042100559729046
0.000306705128114483
0.00018159725831443
3.96668976066143e-05
0.00127028091499581
0.00122067844842957
0.00116015421564288
0.00108891690380382
0.00100815321681642
0.000919638451649453
0.000825060042967377
0.000725721966992148
0.000622502065367472
0.000515730092324426
0.000405187767705197
0.0002901690142035
0.00016701608808462
3.33362285536039e-05
0.00135404996665927
0.001306727432294
0.00124811997228307
0.00117836695544833
0.00109860126000657
0.00101056422042026
0.00091593764202408
0.000816125394874599
0.000712279062915096
0.000605296795825813
0.000495655792779744
0.000383444455320936
0.000268559547558422
0.000148686641099657
2.60911646940552e-05
0.00143425312118228
0.0013893407037874
0.00133278284467563
0.00126465737569421
0.00118605839597341
0.00109870534225121
0.001004253782128
0.000904051203158944
0.000799392329822578
0.000691424699823599
0.000581121142005897
0.000469126458616345
0.000355872579730541
0.000241948621403147
0.00012661936611051
1.82199115394345e-05
0.00151041564861704
0.00146805512835633
0.00141370762029934
0.00134738582739463
0.00127014176072836
0.00118368077274299
0.0010896612878837
0.00098942873484007
0.000884002752763209
0.000774885987038711
0.000663222976112159
0.000550061495779726
0.000436226296089873
0.000322531853903325
0.000210345352930023
0.00010068876318501
1.0347815474295e-05
0.000855672706539424
0.000742624861530817
0.000627733636791263
0.000512174353710152
0.000396981980818759
0.000283433453257388
0.000173844922177559
7.15018250014285e-05
4.12077451682771e-06
2.69102167357181e-06
2.43037612211887e-05
4.89855518846402e-06
0.000104693947911662
4.24363975850802e-05
8.73135598229835e-06
0.000222798745479694
0.00014609199170098
6.73102679219055e-05
1.44306101424517e-05
0.000339190709726298
0.000268467872141948
0.000187938983691704
9.76822671399267e-05
2.14631819000551e-05
0.000450442635438533
0.000384308429388804
0.000309876428917872
0.000225523748063618
0.000127868485392788
2.87823863652289e-05
0.000558206919159747
0.000494848703943994
0.000423961991504951
0.000344939931552984
0.000256190651909328
0.000152751939037641
3.52933746689906e-05
0.00066278471496756
0.00060173958940455
0.000532893452336635
0.000456598507993728
0.000372544870350774
0.0002790870332154
0.000170587672907618
4.02163333048606e-05
0.000764131474141642
0.000705398840572321
0.000638200135774829
0.000563341685898773
0.000481525005423691
0.000392506086138894
0.000294515589825277
0.000181315298099236
4.35031936283241e-05
0.000862292297622165
0.000805949809369913
0.000740443463752418
0.000666620242553711
0.000585787948286834
0.000498766226196039
0.000405139211223935
0.00030299174576778
0.000185987242868331
4.46783316766806e-05
0.000957492494558961
0.000903466816366607
0.000839772237174957
0.000767053385471841
0.000686758331083921
0.000600410148731611
0.000508630380627546
0.00041083266411992
0.000305214194099089
0.000185833109330463
4.37269325917885e-05
0.00105008142630716
0.000998245097333016
0.000936331471526414
0.000864799662677211
0.000785036291376605
0.00069881605093395
0.000607462849925554
0.000511348414606788
0.000409894153072287
0.000301582154348723
0.000181069094225015
4.09338146954939e-05
0.00114017552573832
0.00109045227612256
0.00103028765324069
0.000959999770039269
0.000880872874029946
0.00079471760284858
0.000703147800096371
0.000607193418434562
0.000507143114922375
0.000402582303063159
0.00029238918785189
0.000172036718554751
3.6589415222764e-05
0.00122767042175886
0.00118005208059817
0.00112164185943753
0.00105265355105232
0.000974280941382465
0.000888305644860914
0.000796416526728837
0.000699923360202634
0.000599718412690735
0.000496160986417508
0.000389082238742456
0.000277848270207711
0.000158982337887964
3.09858161519579e-05
0.0013122874670152
0.00126683080658911
0.00121023417049971
0.00114262935814067
0.0010651413388603
0.000979509767993197
0.000887421739853098
0.000790266760442703
0.000689194403445866
0.000585111495872919
0.000478515784865123
0.000369531596380948
0.000258109606414239
0.000142079689495378
2.4411959849192e-05
0.00139363794043074
0.00135045045280603
0.00129577581740084
0.00122967559315567
0.00115322502475353
0.00106812897986069
0.000976046381559787
0.000878355768351577
0.000776290599744429
0.000670992797062879
0.000563443589893708
0.000454303272859632
0.000344031667716795
0.000233264870583591
0.000121399768094812
1.7198871576901e-05
0.00147127753311788
0.00143049900759918
0.0013778908365581
0.00131345016274471
0.00123821199401082
0.00115385807307501
0.0010620250297398
0.000964057355317738
0.000861126786705861
0.000754499770454014
0.000645365040107001
0.000534785789787026
0.000423597741578924
0.000312639790642185
0.00020333581980174
9.69019585024851e-05
9.93381553469257e-06
0.00154470858621741
0.00150648779655891
0.00145611568305189
0.00139352275584887
0.00131969825862931
0.0012363021378434
0.0011449564896262
0.00104699769836566
0.000943586964786882
0.00083572322232196
0.00072491823299994
0.000612361272512639
0.000499187197601797
0.00038642133232986
0.000275358684179789
0.000168368791158623
6.88868618161075e-05
3.97594333643298e-06
0.000802027836329574
0.00068754474421237
0.000571988097004377
0.000456610851513403
0.000342696472285346
0.000232203301521252
0.000128753794429663
3.92564368861819e-05
8.84547981266059e-07
1.27515648523285e-06
1.40471035588863e-05
2.87551989115704e-06
7.05033891366199e-05
2.76042148829093e-05
5.3475584162811e-06
0.000176363988189777
0.000107661904006751
4.59018542066453e-05
9.26745093643779e-06
0.000291437052285126
0.000223671763147556
0.000148767260550159
7.07751644226837e-05
1.45610792221591e-05
0.000402436199132954
0.000338885892643788
0.000267989621118208
0.000188620307665118
9.9575544433858e-05
2.07457822537446e-05
0.000510308389028804
0.000449274947752789
0.000381554852445229
0.000306525544129999
0.000222800615070616
0.000126635888196905
2.70707946382691e-05
0.0006153467525553
0.000556373846249163
0.000490293406802258
0.000417486535843018
0.00033767649909405
0.000249406357322777
0.000147916996099101
3.24993841135505e-05
0.000717268013656355
0.000660490403730474
0.000595725409935568
0.000523895232198402
0.000445734767323294
0.000361060141103354
0.000268337992012549
0.000162315882577101
3.63227942320567e-05
0.000815959657386364
0.000761535134135354
0.000698272096317977
0.000627139290387179
0.00054949797666488
0.00046619886581051
0.000376916839236934
0.000280028651634189
0.000169671023379664
3.86223264346599e-05
0.000911477078744722
0.000859496023618914
0.000797986789741463
0.000727732707271463
0.00065028032528258
0.000567200638117932
0.000479139731092951
0.000385616971816429
0.000285005974215148
0.000171758042041493
3.872347881645e-05
0.00100425177207621
0.000954538137984681
0.000894843992860101
0.000825711035498264
0.00074860585928057
0.000665345590511505
0.000577276811120978
0.00048481328467178
0.000387467495192532
0.000283871261266493
0.000168984503098417
3.68579485821763e-05
0.00109456614461017
0.00104698466734894
0.000989056030165852
0.000921136810527534
0.000844558661068164
0.000761167215338431
0.000672596187320331
0.000579895689068308
0.000483395332505964
0.00038275390565367
0.000276957627815158
0.000161723514932848
3.33388988249337e-05
0.00118246020215861
0.00113693888652171
0.00108073735088022
0.00101407942153682
0.000938177027692736
0.000854830393821205
0.000765742288877817
0.000672234180197845
0.00057521442089004
0.000475073595923388
0.000371695886401185
0.00026452455817151
0.000150278720548694
2.84740541075437e-05
0.00126775140072841
0.00122429212740019
0.00116982767850466
0.0011044837128114
0.00102938192174025
0.000946264724314531
0.000856826593749788
0.000762460103445804
0.000664318803586969
0.000563318139722115
0.000459976157742527
0.000354453699223385
0.000246754996225348
0.000134860494582718
2.25672904683927e-05
0.00135009412820868
0.00130876528223291
0.00125610602009951
0.0011921628343201
0.00111799314701734
0.00103529037592404
0.000945715281647479