/*--------------------------------*- C++ -*----------------------------------*\
  =========                 |
  \\      /  F ield         | OpenFOAM: The Open Source CFD Toolbox
   \\    /   O peration     | Website:  https://openfoam.org
    \\  /    A nd           | Version:  12
     \\/     M anipulation  |
\*---------------------------------------------------------------------------*/
/*   Windows 32 and 64 bit porting by blueCAPE: http://www.bluecape.com.pt   *\
|  Based on Windows porting (2.0.x v4) by Symscape: http://www.symscape.com   |
\*---------------------------------------------------------------------------*/
FoamFile
{
    format      ascii;
    class       volScalarField;
    location    "300";
    object      nut;
}
// * * * * * * * * * * * * * * * * * * * * * * * * * * * * * * * * * * * * * //

dimensions      [0 2 -1 0 0 0 0];

internalField   nonuniform List<scalar> 
10142
(
4.92334817448149e-05
4.76634829030594e-05
0.000441017924142091
5.21474342626811e-05
4.59214085059495e-05
0.00043298266446965
5.05164932948944e-05
0.00108119264924732
0.000451081302352114
5.57194105841771e-05
4.39430233084325e-05
0.000423829982731628
4.87038931042889e-05
0.00106457423941789
0.000442913168934693
5.39883181663749e-05
0.00179764817537351
0.00109232030057066
0.000463823916579285
5.78019245868243e-05
4.17318462967908e-05
0.000413381041179202
4.66361686482188e-05
0.00104554414734717
0.000433598187240745
5.20598424550692e-05
0.00177131666221567
0.00107558038625398
0.000455468094152044
5.6003607550019e-05
0.00250386194446283
0.00180533865558935
0.00110542387543503
0.000471379721874141
5.70760191572467e-05
3.92796324695438e-05
0.000401499504002981
4.4322172150961e-05
0.00102381766946314
0.000422954743509881
4.98567697711517e-05
0.00174114192230333
0.00105640614322855
0.000445932587151984
5.39985462097822e-05
0.00246740992366729
0.00177893329978604
0.00108853053811253
0.000462891201267767
5.52882287717139e-05
0.00316078077968776
0.00250616793891873
0.00181150676000297
0.00111171216192213
0.000469026381802777
5.42342598317634e-05
3.65620768538817e-05
0.00038798443201149
4.17548619182862e-05
0.000999029768051742
0.00041084795705135
4.73912435578181e-05
0.00170669136435296
0.00103450648965518
0.000435031380925548
5.17046844537663e-05
0.00242564416919085
0.0017486652985085
0.00106918027894642
0.000453206850652258
5.32960189566193e-05
0.00311427088297573
0.00246971285067558
0.00178504266741372
0.00109473133099311
0.00046054851630056
5.25200212538206e-05
0.00375461479157286
0.00315762386920379
0.00250256614787912
0.00180917200377092
0.00110506940615673
0.000458199992938417
5.0538534341769e-05
3.35427859804623e-05
0.00037253959372476
3.89099271499616e-05
0.000970684563049543
0.00039707364880621
4.46529679176461e-05
0.00166735011902616
0.00100952240865151
0.000422631722969109
4.91369884200254e-05
0.00237797209980082
0.00171410724408668
0.00104707847325072
0.000442136834894911
5.10146632409536e-05
0.00306101117202091
0.00242793631773553
0.00175470995176007
0.00107529383498366
0.00045088267649733
5.06097358586333e-05
0.00369836111608112
0.00311119288150844
0.0024661783811542
0.00178274161483642
0.00108816026404479
0.000449866828744851
4.89250124454509e-05
0.00428421199093825
0.00374744228485966
0.00314422487427261
0.0024878989968735
0.00179301434352642
0.00108591043095977
0.00044270860904837
4.65795651905074e-05
3.01940986691455e-05
0.000354777490822261
3.57489977786167e-05
0.000938064738479141
0.000381328255486284
4.16221676433336e-05
0.00162229823010673
0.00098095622952504
0.000408533571480693
4.62962454078645e-05
0.00232352840285329
0.00167465037579489
0.00102187470292009
0.000429554027288935
4.84635790262055e-05
0.00300023824919624
0.00238025433421412
0.00172008978070986
0.00105310511884338
0.000439844075232048
4.8422316177298e-05
0.00363397788910684
0.00305801603898899
0.00242448464254333
0.0017524706450919
0.00106882328374913
0.000440374337310129
4.71265482678074e-05
0.00421865184649538
0.00369133691768013
0.00309799863935782
0.00245170932727344
0.00176678797674315
0.00106923877938619
0.000434595401638312
4.50754888100332e-05
0.00475397021223622
0.00427466026039918
0.00372616733959734
0.00311677004059026
0.0024583511461573
0.0017624996979872
0.00105784909909077
0.000424757540426414
4.23983845237963e-05
2.66844171294985e-05
0.000334504837729589
3.22469410710076e-05
0.000900105801678095
0.000363221282405922
3.82564393559194e-05
0.00157039878103378
0.000948089140752909
0.000392433336175211
4.31534824604486e-05
0.00226118229847578
0.00162948080877827
0.000993082320274717
0.000415270205146847
4.56496907033052e-05
0.00293083935492342
0.00232581157634429
0.00168058364708614
0.00102783019272833
0.000427313980932034
4.59785049955455e-05
0.0035605318400234
0.00299734222421784
0.00237691648014871
0.00171795115957162
0.001046782585212
0.000429545370997411
4.50650165576657e-05
0.00414361210931356
0.00362711484819421
0.00304506385747802
0.00241027547605376
0.00173678747074518
0.00105019871328942
0.000425361505972021
4.33980293375084e-05
0.00467954752412438
0.00420929584771559
0.00367039090046227
0.00307092305209479
0.00242255112801932
0.00173666128630292
0.00104153293845832
0.00041690209391148
4.10110344193648e-05
0.00474303227092286
0.00424780923359547
0.00368762726077574
0.00307264932834189
0.00241311296833954
0.00171976813246165
0.0010234154338454
0.000404680858882728
3.79414675115434e-05
2.29437115478074e-05
0.000307896599191183
2.85850898630917e-05
0.000854985788910167
0.000342656363860146
3.45262185283191e-05
0.00151003353337878
0.000909842997136691
0.000373943585119122
3.96740304759104e-05
0.00218943737301483
0.00157746893321759
0.000959996697454615
0.000398992647506707
4.25424166170931e-05
0.00285137859566528
0.00226348959144426
0.00163540228602758
0.000999007708557643
0.000413120105112348
4.32831273301546e-05
0.00347666248267486
0.00292807278464774
0.00232263978625199
0.00167860915903607
0.00102171765332358
0.000417275886781526
4.27641198108988e-05
0.0040580402057172
0.00355385946165387
0.00298469179146049
0.00236304894685544
0.0017026249001091
0.00102853059572564
0.000414839432027231
4.14730882767711e-05
0.00459434514184644
0.00413447384698344
0.00360655343087237
0.00301846392940134
0.00238161601787226
0.0017071490573504
0.00102292458099342
0.00040796815144755
3.94637649415475e-05
0.0050865507700616
0.00466881652960299
0.00418287405485444
0.00363240436493914
0.00302740640464832
0.00237790706221775
0.00169446911736294
0.00100753249133911
0.000397111806549354
3.66823403683381e-05
0.00471219758628938
0.00420039642843529
0.00362978521471747
0.00301106863519228
0.00235296968296561
0.0016664684234535
0.000983257773318839
0.000382159757999414
3.32248529045634e-05
1.90102763201111e-05
0.000274862108429772
2.46420987541042e-05
0.000799788784392848
0.000315248919576212
3.06134137078633e-05
0.00143873092917666
0.000864271158995723
0.0003529188669666
3.58226031855158e-05
0.00210630484765985
0.00151699974119034
0.00092157558059434
0.00038034068573976
3.91138564082234e-05
0.00276000569233426
0.00219180611502752
0.00158344845844912
0.000965975914855487
0.000397002450028961
4.03235240414882e-05
0.00338061623000873
0.00284878877033502
0.00226056728223382
0.00163369530045811
0.000993206828763896
0.00040341336440678
4.02318185388245e-05
0.00396032709566698
0.00347022827870771
0.00291581348069113
0.00230923169505782
0.00166376464137828
0.00100394197157843
0.000402940711336719
3.93271492001142e-05
0.00449723145917983
0.00404915778336308
0.00353376791966032
0.00295869215088169
0.00233502700689881
0.0016736021180512
0.00100178335109172
0.000397798488747395
3.76851578230233e-05
0.00499196803658511
0.00458388608677992
0.00410855190496535
0.00356924832501095
0.002975705240312
0.00233771486674398
0.00166561999877283
0.00098944278781321
0.000388509157977774
3.5277598058008e-05
0.00544585202939431
0.00507481999574728
0.00463847079685236
0.00413617298618667
0.00357538896848356
0.00296666563564873
0.00231854061273032
0.00164182626617336
0.000967867921090731
0.000374909888182515
3.21064769086092e-05
0.00465761116693129
0.00413040846889667
0.00355190663469927
0.00293191659796461
0.00227839459485091
0.00160292988668279
0.000937041060585162
0.000356885452754677
2.83226697133222e-05
1.49333850139612e-05
0.000235529400332199
2.04505121365688e-05
0.000733614345981921
0.000281447822035768
2.64175804774212e-05
0.00135460751335784
0.000808630791850198
0.000325260169489078
3.17410321094712e-05
0.0020091170975508
0.00144555219624016
0.000875936318931037
0.000359087890443736
3.53330006724858e-05
0.00265437260008769
0.00210878922555147
0.00152316187676273
0.00092776778420706
0.000378600775402837
3.70760719208243e-05
0.00327015262904299
0.00275766190579783
0.00218926316044383
0.00158218116540494
0.000960658508786515
0.000387735267257757
3.74625752369574e-05
0.00384838475250701
0.00337448952123913
0.00283705024721089
0.00224778820672481
0.00161951417899062
0.000976058094227375
0.000389535407737112
3.69726706541122e-05
0.00438636181421668
0.00395176132516146
0.00345072963444195
0.00289058537366943
0.00228203575922586
0.00163552951412723
0.000977847744557759
0.000386319947875795
3.57034020294031e-05
0.00488396291809181
0.00448708080440193
0.00402384242313584
0.00349730909544457
0.00291688517383604
0.00229205621722299
0.00163289063623768
0.000968925260893199
0.000378725060532923
3.36582040128562e-05
0.00534217612314324
0.00498056732607108
0.00455414778414324
0.00406271806072392
0.0035132573400338
0.00291600596766082
0.00227930398841708
0.00161377348341765
0.000950362928086685
0.000366673433985939
3.08583051052154e-05
0.0057622820061056
0.00543326758018898
0.00504133784519139
0.00458472917487623
0.0040672333983272
0.00349862042124021
0.00288857335544453
0.00224489830108629
0.00157904045801124
0.000922199364237911
0.00034999153438258
2.73548935700576e-05
0.00457695240023347
0.00403715193823082
0.00345344957383299
0.00283468158588779
0.00218896580119429
0.00152854003709295
0.000884090816232035
0.000328641407208086
2.33409168955559e-05
1.10804493673178e-05
0.000190309108385423
1.6134544492522e-05
0.000655168046524231
0.000240973812468462
2.19625091793038e-05
0.00125605601785803
0.000741985332210833
0.000291128204147875
2.74193964113027e-05
0.00189601917866776
0.00136140395482184
0.000820342790648292
0.000332139003034783
3.12603931101631e-05
0.00253157656752338
0.00201176420577815
0.00145211122639298
0.000882712872813208
0.000357575655975555
3.35172932042937e-05
0.00314247288123337
0.00265236652689999
0.00210682470975662
0.00152262091999631
0.000923230117254446
0.000369933038309287
3.44451207068629e-05
0.00371953890413785
0.00326443139925108
0.00274663343663036
0.00217737215506712
0.00156894600716221
0.000944369935158506
0.000374439884840649
3.44086404828099e-05
0.00425931628964141
0.00384022356125796
0.00335575756149621
0.00281283352422501
0.00222168713695096
0.00159231097614059
0.000950791974452662
0.00037342541659933
3.35350759629279e-05
0.00476066767699197
0.00437658680897438
0.0039272049268395
0.00341534032782533
0.00284998803504283
0.00224024392331974
0.00159583871369619
0.000945748840148627
0.000367700119442228
3.18540916103207e-05
0.00522384894422435
0.00487291814376281
0.004458068504977
0.00397907770304304
0.0034425908630449
0.00285847958212754
0.00223482320260348
0.00158201148478938
0.000930540315891543
0.000357310588163756
2.94130582672923e-05
0.00564991118705057
0.00532994473034756
0.00494780957808927
0.00450145124847853
0.00399506658254249
0.0034378548834144
0.00283921237484396
0.00220679542432752
0.00155189125435464
0.000905339041512029
0.00034216127008523
2.62769099178872e-05
0.00604008574531574
0.0057488613073233
0.00539707538068052
0.00498161518921384
0.00450533547343103
0.00397537226288482
0.0034015418088104
0.00279259641151731
0.00215653716289498
0.00150548676288203
0.000869851238872026
0.00032214323859367
2.25338208001236e-05
0.00446953264748868
0.00391998263173057
0.00333327723780527
0.00271813383274862
0.00208345157751056
0.00144206395692419
0.000823518658273161
0.000297206394619939
1.83986971254624e-05
7.57201274240472e-06
0.00014191176828044
1.19833551840724e-05
0.000564029505206904
0.000194677546606613
1.73933895668916e-05
0.00114178136829399
0.000663200579960397
0.000250381269912601
2.2857406903087e-05
0.00176520633294068
0.00126299535761954
0.000753865871974712
0.000298499338633056
2.70250095310509e-05
0.00238914162949445
0.00189899371277614
0.001368579237208
0.000828164311030275
0.000332686388735926
2.96443957235207e-05
0.00299425810030741
0.00252998742349642
0.00201067598526417
0.00145280558449672
0.00087962666973174
0.000349662884853573
3.11637956813817e-05
0.00357043583712213
0.00313729065525995
0.00264232279968158
0.00209621094566829
0.00151078820399291
0.000908172976468379
0.000357405948837634
3.16262189346157e-05
0.00411298723855487
0.00371190711273366
0.00324671453101503
0.00272377275735167
0.00215275378936296
0.00154313784704455
0.00092018945488102
0.000358964618714869
3.11814610652485e-05
0.00461940743373096
0.00425001956556057
0.0038166409757913
0.00332174633152823
0.00277380041529803
0.00218141622314844
0.00155391958841368
0.000919634406903115
0.00035534789709769
2.98832765938081e-05
0.0050888582462034
0.00475004969796693
0.00434847470089394
0.00388378183786697
0.00336222270175845
0.00279320596812229
0.00218447761784562
0.00154614649668835
0.000908197329167758
0.00034677455931546
2.7801034390719e-05
0.00552179035404959
0.00521201367749062
0.00484100084237158
0.00440665065906859
0.00391301587755885
0.00336887361093313
0.00278328039754654
0.0021636942746525
0.00152121395295903
0.000886273957655191
0.000333259578800997
2.50192415442503e-05
0.00591942244585188
0.00563687762039598
0.00529455930783529
0.00488930962632608
0.00442360917942074
0.00390491199529595
0.00334245727194874
0.00274476165554551
0.00211971986764627
0.00147933346922611
0.000853694710647818
0.000314763372096844
2.1636065160982e-05
0.00628303747054521
0.00602586035091448
0.0057101801237682
0.00533207681646012
0.00489295857673509
0.00439960809485721
0.00385992781396147
0.00328299695648704
0.00267748670208796
0.00205221082772143
0.00141992350640906
0.00080993771509593
0.00029115655772873
1.77591593313526e-05
0.00433476457702173
0.00377746609437653
0.00318952345346225
0.00258033564850699
0.00195987942451457
0.00134165686414899
0.000754020359093237
0.000262105729315304
1.35870234581262e-05
5.00911970386311e-06
9.48948927027819e-05
8.30685507515862e-06
0.00046146388778254
0.000145712593830582
1.29928903315345e-05
0.00101122657938318
0.000571780397176088
0.000203855014787248
1.81970410861074e-05
0.00161552203893008
0.00114902231546843
0.000675525003727071
0.000258579538183409
2.25871888403368e-05
0.00222506076208998
0.00176868767672749
0.00127111432010164
0.000763032471708371
0.000300796658719898
2.56148860743908e-05
0.00282194862394431
0.00238820525072701
0.00189911786830356
0.0013709464125668
0.000827388556519514
0.000326890352347134
2.76072482103039e-05
0.00339708049692685
0.00298978121668837
0.00252133494436133
0.0020019416616202
0.00144318510111719
0.000866466584852076
0.000338134641097208
2.86187796700676e-05
0.00394345145736156
0.00356350758075917
0.00312094504151919
0.00262131840902212
0.00207365516662055
0.00148693965048146
0.000885469723000174
0.000342738401431659
2.86371579258616e-05
0.00445671365614184
0.0041043170731568
0.00368960699757794
0.00321451673134708
0.00268679993086464
0.00211448664472665
0.00150644378144317
0.000890228692922838
0.000341544941310849
2.7747287238739e-05
0.00493433803288356
0.00460932983545251
0.00422305872337275
0.00377493595376662
0.003270674292623
0.00271908547779427
0.00212750379246917
0.00150570666332382
0.000883097021647459
0.000334996088348108
2.60395371644509e-05
0.0053758030013091
0.00507749686589036
0.00471916208026114
0.0042986515903381
0.00381970705048135
0.00329060517479085
0.00271998149983354
0.00211504150953547
0.00148666091455283
0.000864827282390452
0.000323250671443584
2.36110225771468e-05
0.00578199553034258
0.00550919390053342
0.00517757343727474
0.00478398406163345
0.00433071252286352
0.0038249544218025
0.00327552993815333
0.00269068295977962
0.00207816610553752
0.00144983932360093
0.000835446995514259
0.000306364501914388
2.05742577461259e-05
0.00615444178061027
0.0059056227049107
0.00559909434924904
0.00523094922252847
0.0048024647501337
0.004319939560314
0.00379156105620219
0.00322587978133255
0.00263138146187477
0.00201681285320199
0.00139485092020963
0.000794547191990164
0.000284280461770962
1.70504263936541e-05
0.00649452026828726
0.00626806682958958
0.00598489200425802
0.00564042547810207
0.00523513173172912
0.00477464323274186
0.00426693464620468
0.00371944514423563
0.00314110408637735
0.00254129402326126
0.00192993966175034
0.0013205058812523
0.00074117225278433
0.000256582653684844
1.31112647138292e-05
0.00417112575978784
0.00360733586074937
0.00301966519461282
0.00241861176920079
0.00181544644943806
0.00122459484668981
0.000673348260051349
0.000222025270349331
8.98416089986076e-06
3.06417634452778e-06
5.78262780178561e-05
5.4108251768929e-06
0.000351825749377748
9.94615525653884e-05
9.10796674300246e-06
0.000865116714520204
0.000469131026801491
0.000154203869798063
1.37003177034055e-05
0.00144684770815423
0.001018958530182
0.000584964544031989
0.000212865544800004
1.80615819460176e-05
0.00203822782259182
0.00161970089475491
0.00115856955212113
0.000686615060190116
0.000262789087771918
2.1446227948269e-05
0.00262322096550274
0.00222498242233708
0.00177050068352022
0.00127571889019226
0.000765048919820482
0.000298112678051739
2.37955628018644e-05
0.0031951234643006
0.00281840585007716
0.00238136914876878
0.00189281364860962
0.00136420035327196
0.000817488274236059
0.000316498038058493
2.53673255580791e-05
0.0037459995091136
0.00339108856037467
0.0029753137272464
0.00250294638445933
0.00198235856548993
0.00142227452659489
0.000845868543575698
0.000324493385288589
2.58906075010404e-05
0.00426818945402153
0.00393561864538551
0.00354293777192026
0.00309117788806618
0.00258710883213215
0.00203808949932888
0.00145252412325339
0.000857077540808058
0.000326131817518409
2.5445359849425e-05
0.00475658493129207
0.00444734334088233
0.00407887340044198
0.00365015281116874
0.00316610486213576
0.00263475802185171
0.00206295877636193
0.00146011257893784
0.000854948522924678
0.000321875366020038
2.41342487774984e-05
0.00520898173532458
0.00492357272473256
0.00457975281168251
0.00417527075859151
0.00371338678283642
0.00320170819786866
0.00264833627022323
0.00206017016565421
0.00144782753637833
0.000840799799907857
0.000312080559344894
2.20724166293962e-05
0.00562564468784785
0.00536372626800553
0.00504420876000517
0.00466398158972758
0.00422508096591945
0.00373423972828578
0.00319979205753044
0.00262965066751508
0.00203138785091473
0.0014166996572994
0.000814954510166261
0.000296920344392584
1.93784285168875e-05
0.00600812551854897
0.0057686753023207
0.00547246135787116
0.00511564426450988
0.0046993552027658
0.00422955385868721
0.00371414899441237
0.00316133284282755
0.00257938210829981
0.00197695114696917
0.00136662812617257
0.000777175832922712
0.00027642615969956
1.61892970247235e-05
0.00635828966401512
0.00613993733962901
0.00586564926626705
0.00553089977447818
0.00513608007018218
0.00468655688111461
0.00418979280953185
0.00365352762628534
0.00308621844235096
0.00249710505173879
0.00189608615110953
0.00129659982657584
0.000726626140014472
0.000250294084670286
1.25943456298028e-05
0.00667756840880293
0.00647888340220713
0.00622503492514511
0.00591085615265249
0.00553605222577091
0.00510545616993848
0.00462615195218419
0.00410576760973759
0.00355164341547777
0.00297333135352171
0.00238134049271647
0.00178692561289138
0.00120452391753212
0.000661340988344603
0.000217255815351419
8.67005228846329e-06
0.00397614966463709
0.00340668494102564
0.0028205123928106
0.00222944302845948
0.00164627730333297
0.00108672590704935
0.000577494619563256
0.000175123896424969
4.84203286560454e-06
1.90316106110199e-06
3.25201621839249e-05
3.35184046473352e-06
0.000245369415871347
6.18604540089512e-05
5.98012433645019e-06
0.000706333272235452
0.000360217595240141
0.000106659931797523
9.69576334222541e-06
0.00126046085266536
0.000873600478430105
0.000483512818956379
0.000162737798984908
1.36726358163702e-05
0.00182906331937025
0.00145196529643989
0.0010304921761804
0.000598564916383805
0.000218728240413835
1.7202505418624e-05
0.00239670168749447
0.00203920932011878
0.00162377999902839
0.00116616896248992
0.000692088767311149
0.000262660424115007
1.9929845521423e-05
0.00296108338192472
0.00262090437140249
0.00222060279357925
0.00176738481960006
0.0012726333638209
0.000759175500579553
0.000291713043310736
2.18725652905301e-05
0.00351551061244364
0.00319034517538806
0.00280646125374715
0.00236625714531038
0.00187689593840055
0.00134709245654821
0.000800277487144927
0.000303992170950893
2.29401951726509e-05
0.00404853451776295
0.00373929465187718
0.00337289189270063
0.00294883713053698
0.0024725074213283
0.00195053521406437
0.00139100483280366
0.000819594831797762
0.000308912636360937
2.29749566152957e-05
0.00455092107785281
0.00425976642952398
0.0039122315348446
0.00350649538253887
0.00304627658054157
0.00253856835295781
0.00198967853653515
0.00140864141336795
0.000823393070960328
0.000307288948158421
2.20911375535082e-05
0.00501754520135749
0.0047465948512921
0.00441949095531915
0.00403374963894398
0.00359187393043798
0.00310053408726172
0.00256715103715043
0.00199827380420047
0.00140423190441907
0.000813954751120715
0.000299673498250131
2.04131822628906e-05
0.00544739839067573
0.00519755166651506
0.00489174103619498
0.00452690458483418
0.00410469771176239
0.00363117878315241
0.00311404693983033
0.00256080466285233
0.00197880955432366
0.00137957157528983
0.000792052806028809
0.000286393925299661
1.80725696631221e-05
0.00584193172628741
0.00561288932105053
0.00532826514726218
0.00498434745932234
0.0045820928220854
0.00412701909851008
0.00362655568128085
0.00308849438415332
0.00252086393042998
0.00193220005724101
0.00133499009255196
0.000757690421831066
0.000267580007588406
1.52086411949621e-05
0.00620340691702523
0.00599414426177566
0.00572986069436816
0.00540614478821175
0.00502329991878021
0.00458637875206962
0.00410246489765274
0.00357906646816565
0.00302434666822443
0.00244738900491208
0.00185804966869338
0.00126973443731444
0.000710193116624464
0.000243037353525533
1.19345295634507e-05
0.00653393613818652
0.00634316107718034
0.00609800117725602
0.00579334997478083
0.00542887042037321
0.00500917439249409
0.00454102705102863
0.00403158532673741
0.00348850898840817
0.00292092814853889
0.00233925016491367
0.00175474771284345
0.00118188691473597
0.00064775948416514
0.000211699880641156
8.33017872864583e-06
0.00683490131108346
0.0066613535305396
0.00643403082362249
0.00614719217946425
0.00579986565145498
0.00539621001616222
0.00494263506711176
0.00444595008093129
0.00391362500736689
0.00335360969496552
0.00277649204521555
0.0021941219679973
0.00161931921090533
0.00106786027403122
0.00056656562425673
0.000171144653901403
4.66936394863333e-06
0.00374673842565602
0.00317204088369968
0.00258815901652631
0.00200834236035625
0.00144709180185923
0.000921965149008037
0.000461432932067627
0.000121042162473833
1.80182963203435e-06
1.07799850936893e-06
1.84953030987154e-05
2.0166433695292e-06
0.000155075715476004
3.66000853521845e-05
3.7582600687007e-06
0.000541512633924389
0.000254721402488701
6.71660709414745e-05
6.46292195590776e-06
0.0010591331058384
0.000715855787467153
0.000375794393090056
0.000113600024451959
9.75399453083097e-06
0.001599697605469
0.00126677772434446
0.000887648669611846
0.000499575647936297
0.000169428693300974
1.30851719139957e-05
0.00214308413680577
0.0018313591795428
0.00145890464434831
0.00104192561548783
0.000608108676988738
0.000220840570796432
1.60239759901495e-05
0.00269322394777973
0.00239589281330795
0.00203799727406866
0.00162473136748686
0.00116767718526033
0.000690759345521111
0.000259260018513596
1.82690952936951e-05
0.00324732555543752
0.00295793135213038
0.00261231814171658
0.00220978833656624
0.00175613939343751
0.00126030680091928
0.000746636972802935
0.000281313911258205
1.97886564545534e-05
0.00379197134679724
0.00351031393383497
0.00317541984203339
0.00278437793642896
0.00234057020687177
0.00184976310311664
0.00132026984212953
0.000777012041555707
0.000289673808192148
2.03432411408515e-05
0.00431172915140499
0.00404139401640306
0.00371875238498002
0.00334053578381973
0.00290859640721425
0.00242856999647897
0.00190623976834447
0.00135038988590576
0.000787990245021154
0.000291093976614521
1.99179862779615e-05
0.00479677810811212
0.00454196366848159
0.00423425509880436
0.00387068108848417
0.00345252011522918
0.00298510071572464
0.00247498881135773
0.00192837444124561
0.00135529145948201
0.000784011209614044
0.00028593890617327
1.86459565019941e-05
0.00524355300217362
0.00500694522656204
0.00471666655093277
0.00436968728183409
0.00396704976551285
0.00351382089765533
0.00301684177273684
0.00248311158167468
0.00191975003592883
0.00133805942552695
0.000766554332193346
0.000274733294482973
1.66700832232119e-05
0.00565296268846395
0.00543533554872767
0.00516368041174475
0.00483448681374292
0.0044484676602029
0.00401051031889901
0.00352736414071175
0.00300631153061735
0.00245508173098987
0.00188207017840953
0.00129965181043526
0.000735961054130845
0.000257724537041459
1.41362120215378e-05
0.00602774284314373
0.00582856036037202
0.00557546386145789
0.00526423966997514
0.00489510379001736
0.00447271329592411
0.00400366224558035
0.00349505214610578
0.00295473203798065
0.0023916037964884
0.00181546408411752
0.00123968078741659
0.000691759781237879
0.00023481331179853
1.11664210500047e-05
0.00637071164132756
0.00618884678401906
0.00595347816514105
0.00565963744908155
0.00530694621331277
0.00489974561533694
0.00444442670927776
0.00394780782577416
0.00341737159358025
0.00286200703580805
0.00229201422238999
0.00171867418685996
0.0011564741279082
0.000632341166398117
0.000205102005458794
7.8633578417664e-06
0.0066840484038559
0.00651827324907887
0.00629950875913569
0.00602207563171838
0.0056849739318383
0.00529216324150616
0.00484976742623198
0.0043642986459483
0.00384281142297673
0.00329358129172676
0.00272682358108637
0.00215432902211984
0.00158897822503358
0.00104663431167882
0.000554121804218494
0.000166505509977988
4.48255139502284e-06
0.00696895658979303
0.00681819784514158
0.0066149297238931
0.0063528579448798
0.00603037040723994
0.00565101122651327
0.00522057561454914
0.00474519526717579
0.00423148864496652
0.00368740374586096
0.0031218792557264
0.00254670512366597
0.00197519617666568
0.00142190052312886
0.000904538162737937
0.000451714919823292
0.000118008828500375
1.73850161081813e-06
0.00347934181648705
0.00289941320834816
0.00231802316024227
0.00174985593810932
0.00121134267324201
0.000723947481771348
0.000323166149588018
6.27036376278579e-05
3.71396900510923e-07
4.35843908275184e-07
1.00347888211922e-05
1.17118864666293e-06
9.02933155841851e-05
2.26929132909263e-05
2.26433491689384e-06
0.000380618077983628
0.000165993572513463
4.22629833050064e-05
4.11363058052547e-06
0.000846720060182623
0.000552101799877145
0.000270980079161674
7.47808689982785e-05
6.60881800737105e-06
0.00135303786414127
0.00106677641107448
0.000732794388064999
0.00039386705170984
0.000121865692444816
9.42786141244112e-06
0.00186472479408837
0.00160357163200377
0.00127707027997219
0.000903595473105183
0.000513520626053159
0.000174739529086659
1.22700563345995e-05
0.00239175421914572
0.00214414550494207
0.00183398156999288
0.00146478901844646
0.00104901047752467
0.000611996744683262
0.000220778192343844
1.47337551678771e-05
0.00293888249625127
0.00269212912598251
0.00239162345024185
0.00203254814646698
0.00161921679572942
0.00116110451884749
0.000683429870205122
0.000253422987888411
1.64979411508973e-05
0.00349323022988169
0.00324410508109853
0.00294737478047905
0.00259590832829243
0.0021900764596531
0.00173479065420535
0.00123892238424394
0.000727995470072795
0.000268295030243984
1.75710608968612e-05
0.00403292559321125
0.00378656150384229
0.00349372968252658
0.0031486282587332
0.00275025475810615
0.00230255218922623
0.00181088249710797
0.00128420919606954
0.000748218385120006
0.000273141455339044
1.76318775367178e-05
0.00454109230027387
0.00430416396533523
0.00401913437978568
0.00368207513595706
0.00329227385381466
0.00285312863980308
0.00237016965060345
0.00184930092374916
0.00130030072970446
0.000750640717792777
0.00027077951930007
1.67865643228866e-05
0.0050095900040067
0.00478726839815242
0.00451460307320786
0.00418853224300525
0.00380907886489173
0.00337982530577764
0.00290644404524119
0.00239533796454392
0.00185339664828402
0.00129169855534386
0.000738243923903194
0.000261878369128223
1.51881920804631e-05
0.00543771289512567
0.00523236244799321
0.00497512412905184
0.00466278987965817
0.0042956927799246
0.00387778588693583
0.00341485588799164
0.0029135198272785
0.00238115240297064
0.00182599512540009
0.00126029656618947
0.000711847462745855
0.000246831957161523
1.2990006924415e-05
0.0058285166603998
0.00564032654989527
0.00539962261742226
0.00510251208094024
0.0047491196893936
0.00434356473539974
0.00389175959654
0.00340023811800088
0.00287646100231307
0.00232911463363402
0.00176792282200556
0.00120621095083313
0.000671234618143259
0.000225632465178995
1.03225512117302e-05
0.00618579369310718
0.00601383883877986
0.00578940172712638
0.00550774839042178
0.0051684879254214
0.00477563426570947
0.00433510714921112
0.00385329224184376
0.00333734707000238
0.00279591436991951
0.00223917125352073
0.00167839605156517
0.00112808960116443
0.000614990224455014
0.000197501259296835
7.30279466577281e-06
0.00651262402498293
0.0063556647581009
0.0061465801850762
0.00587982931639992
0.00555439573098398
0.00517400588849003
0.00474443834786514
0.0042718599558567
0.0037630412257596
0.0032261229644257
0.00267112721472806
0.00210978623210119
0.00155503398095382
0.00102279454316857
0.000539797456421547
0.000160671979722807
4.19280342682583e-06
0.00681103423885744
0.00666794243515295
0.00647315842170315
0.00622043862361632
0.00590814167511998
0.00553961993719706
0.0051203979611244