/*--------------------------------*- C++ -*----------------------------------*\
  =========                 |
  \\      /  F ield         | OpenFOAM: The Open Source CFD Toolbox
   \\    /   O peration     | Website:  https://openfoam.org
    \\  /    A nd           | Version:  12
     \\/     M anipulation  |
\*---------------------------------------------------------------------------*/
/*   Windows 32 and 64 bit porting by blueCAPE: http://www.bluecape.com.pt   *\
|  Based on Windows porting (2.0.x v4) by Symscape: http://www.symscape.com   |
\*---------------------------------------------------------------------------*/
FoamFile
{
    format      ascii;
    class       volScalarField;
    location    "300";
    object      p;
}
// * * * * * * * * * * * * * * * * * * * * * * * * * * * * * * * * * * * * * //

dimensions      [0 2 -2 0 0 0 0];

internalField   nonuniform List<scalar> 
10142
(
83333.3316979062
83333.3316834841
83333.3316959643
83333.3316981853
83333.3316679816
83333.3316816149
83333.3316837667
83333.3316928388
83333.3316962564
83333.3316988698
83333.331651364
83333.3316663007
83333.3316682686
83333.3316784872
83333.3316819161
83333.3316845518
83333.3316893575
83333.3316930428
83333.3316968753
83333.3316999797
83333.3316333644
83333.3316498515
83333.3316517352
83333.3316630676
83333.3316666049
83333.3316691854
83333.3316746539
83333.3316787108
83333.3316826315
83333.3316858729
83333.3316858671
83333.3316894952
83333.3316935626
83333.3316979467
83333.3317015324
83333.3316139941
83333.3316320949
83333.3316338501
83333.3316464722
83333.3316502214
83333.3316528439
83333.3316587092
83333.3316633007
83333.331667442
83333.3316707579
83333.3316703945
83333.3316748023
83333.3316793218
83333.3316839144
83333.3316877404
83333.3316831012
83333.3316860443
83333.3316899817
83333.3316946159
83333.331699507
83333.3317035048
83333.3315933532
83333.3316130577
83333.3316146072
83333.331628572
83333.3316325581
83333.3316351927
83333.3316413702
83333.331646742
83333.3316512358
83333.3316547327
83333.3316533935
83333.3316588467
83333.3316640136
83333.3316689708
83333.3316729992
83333.3316665643
83333.331670581
83333.3316753742
83333.3316805766
83333.3316857948
83333.3316901252
83333.3316816385
83333.3316833646
83333.3316866136
83333.3316910731
83333.3316962644
83333.3317015597
83333.3317058142
83333.3315715822
83333.331592833
83333.3315941139
83333.3316093241
83333.3316136311
83333.3316162084
83333.3316225157
83333.3316289009
83333.3316337719
83333.3316374597
83333.3316346585
83333.3316415184
83333.3316475839
83333.3316530707
83333.3316574244
83333.3316481409
83333.3316535736
83333.3316594997
83333.3316655004
83333.3316712196
83333.3316758721
83333.3316639155
83333.3316668545
83333.3316712476
83333.3316766724
83333.331682543
83333.3316882634
83333.3316929266
83333.3316819856
83333.3316820028
83333.3316840764
83333.3316878375
83333.331692851
83333.3316984653
83333.331703984
83333.3317083437
83333.3315490474
83333.3315715689
83333.3315725193
83333.331588809
83333.3315935419
83333.3315960191
83333.3316020812
83333.3316097123
83333.3316151021
83333.3316189236
83333.3316140465
83333.3316226629
83333.3316298997
83333.3316359715
83333.3316406882
83333.3316275308
83333.3316348367
83333.3316422942
83333.3316493478
83333.3316557698
83333.3316608855
83333.3316439097
83333.3316484509
83333.331654338
83333.3316610304
83333.3316678326
83333.331674183
83333.3316792605
83333.3316631305
83333.331664337
83333.3316676962
83333.3316727071
83333.3316787958
83333.3316851704
83333.3316911817
83333.3316960011
83333.3316845279
83333.3316824331
83333.3316828705
83333.3316854897
83333.3316898189
83333.3316952574
83333.3317010788
83333.3317066399
83333.3317109659
83333.3315264502
83333.3315496233
83333.3315501994
83333.3315670989
83333.3315724537
83333.3315747849
83333.3315799476
83333.3315892556
83333.3315953071
83333.3315992401
83333.3315913104
83333.3316022525
83333.3316109045
83333.3316177136
83333.3316227867
83333.3316044855
83333.3316142258
83333.3316235712
83333.3316319883
83333.331639203
83333.3316448395
83333.3316211958
83333.3316278726
83333.3316357136
83333.3316441138
83333.3316521336
83333.3316593056
83333.3316649696
83333.3316416045
83333.3316443909
83333.3316494352
83333.3316560736
83333.3316635727
83333.3316709681
83333.3316776876
83333.3316829855
83333.3316647337
83333.3316636698
83333.3316653793
83333.3316693949
83333.3316750817
83333.3316816697
83333.3316882966
83333.3316943856
83333.331699194
83333.3316850245
83333.331683434
83333.3316844905
83333.3316877241
83333.3316925031
83333.3316981457
83333.3317039632
83333.3317094019
83333.3317135523
83333.3315047307
83333.331527637
83333.3315278753
83333.3315443513
83333.3315507226
83333.3315528776
83333.3315560764
83333.3315676196
83333.3315745765
83333.3315786061
83333.3315662011
83333.3315801473
83333.331590653
83333.3315984329
83333.3316038198
83333.3315785795
83333.3315915009
83333.3316033199
83333.3316134091
83333.3316215583
83333.3316277399
83333.3315953766
83333.331604869
83333.3316152826
83333.3316257628
83333.3316353135
83333.3316434243
83333.3316497403
83333.3316168197
83333.3316217629
83333.3316290373
83333.3316377906
83333.3316471217
83333.3316558694
83333.3316635003
83333.3316694617
83333.3316419542
83333.3316422392
83333.3316456343
83333.3316514779
83333.3316589265
83333.3316670079
83333.3316747065
83333.3316815447
83333.3316868605
83333.3316691703
83333.3316653627
83333.331664894
83333.3316673455
83333.3316720906
83333.3316782988
83333.3316851184
83333.3316917474
83333.3316977233
83333.3317023479
83333.331686117
83333.3316852425
83333.3316869955
83333.3316907344
83333.3316957419
83333.3317013611
83333.3317069886
83333.3317121433
83333.3317159811
83333.3314849792
83333.33150644
83333.3315065077
83333.3315210343
83333.3315290069
83333.3315310177
83333.3315305269
83333.331544982
83333.3315532614
83333.3315573597
83333.3315384469
83333.3315563134
83333.331569294
83333.3315782937
83333.3315840153
83333.3315493561
83333.3315664106
83333.3315814492
83333.3315936404
83333.331602993
83333.3316097004
83333.3315658115
83333.3315790107
83333.3315927711
83333.3316059151
83333.3316173631
83333.3316265885
83333.3316335909
83333.3315882293
83333.3315960568
83333.3316062725
83333.331617799
83333.3316293749
83333.331639764
83333.3316484299
83333.3316551307
83333.3316153925
83333.331617593
83333.3316232671
83333.3316315099
83333.331641234
83333.3316512261
83333.3316603328
83333.3316681228
83333.3316741378
83333.3316455281
83333.3316427039
83333.3316437221
83333.3316480259
83333.3316547427
83333.331662793
83333.3316711304
83333.3316788393
83333.3316855661
83333.3316906931
83333.3316768134
83333.3316698477
83333.3316667283
83333.3316671122
83333.3316703904
83333.3316757188
83333.3316821747
83333.3316889532
83333.3316953698
83333.3317010379
83333.3317053123
83333.3316880739
83333.3316880022
83333.3316903491
83333.3316943716
83333.3316993702
83333.3317047596
83333.3317100286
83333.3317147397
83333.3317181449
83333.3314682288
83333.3314869773
83333.3314872657
83333.331497794
83333.3315080827
83333.3315101281
83333.3315036146
83333.3315218231
83333.3315319616
83333.3315361945
83333.3315079026
83333.3315308619
83333.3315469901
83333.3315576209
83333.3315636826
83333.3315162931
83333.3315387638
83333.3315578514
83333.3315728264
83333.3315836581
83333.3315909465
83333.3315317283
83333.3315498872
83333.3315679462
83333.3315845499
83333.3315983346
83333.3316089169
83333.3316166382
83333.3315549518
83333.3315666506
83333.3315807382
83333.3315957974
83333.3316102683
83333.3316226621
83333.3316325398
83333.3316400218
83333.3315843628
83333.3315891881
83333.3315979092
83333.3316092847
83333.3316219283
83333.3316342895
83333.331645081
83333.3316539447
83333.3316607459
83333.3316177099
83333.3316163215
83333.3316194162
83333.3316262014
83333.3316354883
83333.3316458947
83333.3316561573
83333.3316652678
83333.3316729453
83333.3316787723
83333.3316528076
83333.3316463528
83333.3316443788
83333.331646447
83333.3316517461
83333.3316591357
83333.331667445
83333.3316757111
83333.3316831712
83333.3316895645
83333.3316942994
83333.3316878782
83333.3316775041
83333.3316712991
83333.3316691544
83333.3316704919
83333.3316744582
83333.3316800913
83333.3316865061
83333.3316930002
83333.3316990026
83333.3317041755
83333.3317079545
83333.3316910453
83333.331691681
83333.3316943997
83333.3316984604
83333.3317032284
83333.3317082021
83333.3317129519
83333.3317170844
83333.3317199627
83333.3314555096
83333.3314700783
83333.3314712328
83333.3314753492
83333.3314888396
83333.3314913268
83333.3314757025
83333.3314987638
83333.3315114192
83333.3315159793
83333.331474623
83333.3315040621
83333.3315241828
83333.3315369713
83333.3315434352
83333.3314788436
83333.331508456
83333.3315327201
83333.3315511534
83333.3315638559
83333.3315717805
83333.3314922049
83333.3315169554
83333.3315406505
83333.3315616165
83333.3315783899
83333.3315905988
83333.3315991114
83333.3315158622
83333.3315327851
83333.3315520425
83333.3315716701
83333.3315897546
83333.3316046184
83333.3316159373
83333.3316242525
83333.3315477693
83333.3315561693
83333.3315689731
83333.3315844946
83333.3316008274
83333.3316161595
83333.3316289775
83333.3316390819
83333.3316467308
83333.3315848749
83333.3315855344
83333.3315914691
83333.3316015488
83333.3316141703
83333.3316275596
83333.3316401897
83333.3316509516
83333.3316597081
83333.3316663284
83333.3316244021
83333.3316187417
83333.3316184045
83333.331622797
83333.3316307795
83333.3316408338
83333.3316514925
83333.3316616301
83333.3316704327
83333.3316777439
83333.3316831515
83333.3316641068
83333.3316536662
83333.3316481581
83333.331647384
83333.3316506093
83333.3316567091
83333.3316644163
83333.3316726311
83333.3316805365
83333.3316875092
83333.3316933533
83333.3316975177
83333.3317024674
83333.3316885683
83333.3316789905
83333.3316738673
83333.3316728183
83333.3316749821
83333.331679354
83333.3316849892
83333.3316910975
83333.3316970882
83333.3317024837
83333.3317070063
83333.3317101701
83333.3316949979
83333.3316961209
83333.3316989592
83333.331702824
83333.3317071605
83333.331711551
83333.3317156419
83333.3317190907
83333.3317213832
83333.3314473961
83333.3314562508
83333.3314591251
83333.3314544763
83333.3314721231
83333.3314756729
83333.3314475459
83333.3314765001
83333.3314925282
83333.3314976848
83333.3314387984
83333.3314764752
83333.3315014499
83333.3315170491
83333.3315240673
83333.3314364203
83333.3314755156
83333.3315063098
83333.3315290335
83333.3315440946
83333.3315526921
83333.3314461091
83333.3314797228
83333.3315107937
83333.3315372565
83333.3315576952
83333.3315718958
83333.3315813061
83333.331469532
83333.331493566
83333.3315196823
83333.3315452076
83333.3315678948
83333.3315857931
83333.3315988039
83333.3316080399
83333.3315041388
83333.3315174396
83333.3315357445
83333.3315567021
83333.3315778199
83333.3315968241
83333.3316120919
83333.3316236504
83333.3316322234
83333.3315457684
83333.3315492805
83333.3315590768
83333.331573549
83333.3315905065
83333.3316076698
83333.3316232162
83333.3316359391
83333.3316459212
83333.3316534188
83333.3315906297
83333.3315861892
83333.3315881702
83333.3315957142
83333.3316072288
83333.3316207065
83333.3316343088
83333.3316467227
83333.3316570945
83333.3316654379
83333.3316716212
83333.3316358919
83333.3316254858
83333.3316210079
83333.3316221664
83333.3316279664
83333.3316368735
83333.3316472379
83333.3316577145
83333.3316673815
83333.3316756005
83333.3316822959
83333.3316870798
83333.3316795843
83333.3316649687
83333.3316555341
83333.3316513639
83333.3316519274
83333.3316561265
83333.3316626612
83333.3316703093
83333.3316781106
83333.3316853985
83333.3316916625
83333.3316967679
83333.3317002244
83333.3317205372
83333.3317031334
83333.3316900484
83333.331681624
83333.3316777342
83333.3316776698
83333.3316803776
83333.3316848405
83333.3316901937
83333.3316957578
83333.331701048
83333.331705673
83333.3317094204
83333.331711895
83333.331699764
83333.3317011189
83333.3317038322
83333.3317072866
83333.3317110135
83333.3317146775
83333.3317179985
83333.3317207082
83333.3317223958
83333.3314441405
83333.3314457725
83333.3314509936
83333.3314361311
83333.3314583665
83333.3314639334
83333.3314200227
83333.3314558021
83333.3314761689
83333.3314823588
83333.331400895
83333.3314486682
83333.3314795118
83333.3314987113
83333.3315064478
83333.3313886031
83333.3314401338
83333.3314790998
83333.3315070201
83333.3315250609
83333.3315344087
83333.3313920936
83333.3314377322
83333.3314784007
83333.3315117497
83333.3315366479
83333.3315532743
83333.3315636131
83333.3314141114
83333.3314479042
83333.3314832093
83333.3315164325
83333.3315447916
83333.3315663736
83333.3315814131
83333.3315917177
83333.3314515329
83333.3314716173
83333.3314973971
83333.3315255918
83333.3315527835
83333.3315763627
83333.3315945782
83333.331607834
83333.3316174247
83333.3314986407
83333.3315061276
83333.3315212074
83333.3315415578
83333.3315641781
83333.3315861265
83333.331605251
83333.3316203135
83333.3316317091
83333.3316401853
83333.3315501458
83333.3315474784
83333.3315526794
83333.3315644806
83333.3315806548
83333.3315985348
83333.3316158223
83333.331631003
83333.3316432144
83333.3316527267
83333.3316597797
83333.3316022045
83333.331592021
83333.3315890801
83333.3315929379
83333.3316021936
83333.331614759
83333.3316285009
83333.3316417811
83333.3316535691
83333.3316632324
83333.3316708778
83333.3316763912
83333.3316523866
83333.3316369845
83333.3316278487
83333.3316250492
83333.3316278522
83333.3316347965
83333.3316441496
83333.3316543527
83333.3316642638
83333.3316731612
83333.3316805453
83333.3316864019
83333.3316904098
83333.331699201
83333.3316804171
83333.3316668357
83333.3316588417
83333.3316561863
83333.3316579245
83333.3316627274
83333.3316692998
83333.3316765427
83333.3316836505
83333.3316900928
83333.3316954551
83333.3316996757
83333.3317023293
83333.331741921
83333.3317211537
83333.3317045586
83333.3316926693
83333.3316855888
83333.3316828458
83333.3316834907
83333.3316864205
83333.3316906741
83333.3316954891
83333.3317003006
83333.3317047225
83333.331708445
83333.3317113472
83333.3317130595
83333.3317051266
83333.3317064613
83333.3317088221
83333.3317116753
83333.3317146412
83333.3317174678
83333.3317199549
83333.3317219224
83333.3317230988
83333.3314447757
83333.3314387473
83333.3314471636
83333.3314214738
83333.3314475979
83333.3314562149
83333.3313941971
83333.3314375957
83333.3314628299
83333.3314711053
83333.3313616888
83333.3314214476
83333.331459183
83333.3314829158
83333.3314916717
83333.3313350814
83333.3314026625
83333.3314517427
83333.3314858424
83333.3315075701
83333.3315178261
83333.3313284506
83333.3313905049
83333.3314436835
83333.331485575
83333.3315157973
83333.3315354212
83333.3315467149
83333.3313470566
83333.3313945439
83333.3314422324
83333.331485372
83333.3315207511
83333.3315467284
83333.3315641853
83333.3315756522
83333.3313873231
83333.3314169347
83333.3314529581
83333.3314906854
83333.3315257154
83333.3315549094
83333.3315766559
83333.3315919085
83333.3316026486
83333.3314411358
83333.3314542043
83333.3314765875
83333.3315048796
83333.3315349074
83333.3315629015
83333.331586395
83333.331604229
83333.3316172636
83333.3316268329
83333.3315010476
83333.3315009116
83333.3315105893
83333.3315281796
83333.3315505319
83333.3315740857
83333.3315959781
83333.3316145089
83333.3316288883
83333.3316397419
83333.3316477716
83333.3315616893
83333.331551964
83333.3315512356
83333.3315588092
83333.3315726862
83333.3315900207
83333.3316080532
83333.3316247996
83333.3316391332
83333.3316504722
83333.3316591941
83333.3316655301
83333.3316198648
83333.331603612
83333.3315950534
83333.3315942376
83333.3316001245
83333.3316107128
83333.3316236979
83333.3316371124
83333.3316496107
83333.3316604265
83333.3316690957
83333.3316757946
83333.3316804611
83333.3316738442
83333.3316534442
83333.3316393567
83333.3316320406
83333.3316311205
83333.3316353278
83333.3316429252
83333.3316522197
83333.3316618398
83333.3316708572
83333.331678725
83333.331685053
83333.3316899053
83333.3316930214
83333.3317227531
83333.3316999721
83333.3316822172
83333.3316701377
83333.3316638081
83333.3316625364
83333.3316650849
83333.3316700802
83333.3316763197
83333.3316828524
83333.3316890253
83333.331694428
83333.3316987348
83333.3317019864
83333.3317037429
83333.331766346
83333.3317424625
83333.3317224722
83333.3317070802
83333.3316966129
83333.3316908259
83333.3316889718
83333.3316900036
83333.3316928424
83333.3316966126
83333.3317006654
83333.3317045487
83333.3317079712
83333.3317107126
83333.3317127416
83333.3317137828
83333.3317108552
83333.331711931
83333.3317137343
83333.3317158225
83333.3317179084
83333.3317198359
83333.3317214664
83333.3317227951
83333.3317235712
83333.3314495125
83333.3314344482
83333.331446891
83333.331411854
83333.3314400654
83333.3314530539
83333.331371458
83333.3314228786
83333.3314525972
83333.3314645499
83333.3313226415
83333.3313960042
83333.331441378
83333.3314704104
83333.3314811891
83333.3312759315
83333.3313639381
83333.3314251538
83333.3314663689
83333.3314926156
83333.3315041731
83333.3312532974
83333.3313377625
83333.3314071337
83333.3314594436
83333.3314958603
83333.331519137
83333.3315316229
83333.3312650254
83333.331331925
83333.3313964303
83333.3314523381
83333.3314962785
83333.3315274199
83333.3315477776
83333.3315604655
83333.3313078129
83333.3313509982
83333.3314013131
83333.3314517965
83333.3314967693
83333.3315327691
83333.331558656
83333.3315762731
83333.3315883558
83333.3313699792
83333.3313910018
83333.3314236204
83333.3314627061
83333.3315024345
83333.3315380451
83333.3315668258
83333.3315879327
83333.3316028766
83333.331613661
83333.3314407556
83333.3314442161
83333.3314601744
83333.3314857128
83333.331516306
83333.3315471797
83333.3315748008
83333.3315973568
83333.3316142717
83333.3316266738
83333.3316358047
83333.3315124346
83333.3315034709
83333.3315058856
83333.3315185883
83333.3315386834
83333.3315622595
83333.3315857409
83333.3316067555
83333.3316241312
83333.331637424
83333.3316473728
83333.3316546485
83333.3315807355
83333.3315635313
83333.3315559231
83333.331557914
83333.3315679963
83333.3315833978
83333.3316010558
83333.3316184964
83333.3316341528
83333.3316472443
83333.331657393
83333.3316650445
83333.3316704547
83333.3316435384
83333.3316212286
83333.3316066664
83333.3316004295
83333.3316019601
83333.331609521
83333.3316207837
83333.3316335448
83333.3316461193
83333.3316574543
83333.3316670048
83333.3316744346
83333.3316799995
83333.3316836772
83333.331700001
83333.3316748238
83333.3316557361
83333.3316435556
83333.3316383206
83333.3316390788
83333.3316442012
83333.3316519222
83333.3316607002
83333.3316693763
83333.3316772243
83333.331683844
83333.3316889432
83333.3316926944
83333.3316948133
83333.3317499
83333.3317234308
83333.3317016384
83333.3316853995
83333.331675092
83333.3316703395
83333.3316701063
83333.3316730488
83333.3316778462
83333.3316834229
83333.3316889846
83333.3316940224
83333.331698236
83333.3317013963
83333.3317036532
83333.3317045791
83333.3317934543
83333.3317667893
83333.3317436233
83333.3317248049
83333.3317108724
83333.3317018183
83333.331697097
83333.3316958185
83333.3316969179
83333.331699376
83333.3317024206
83333.3317055218
83333.3317083393
83333.3317106868
83333.3317124108
83333.3317136709
83333.3317142189
83333.3317167152
83333.3317173132
83333.3317183797
83333.33171957
83333.3317206988
83333.3317217065
83333.3317225149
83333.3317233167
83333.3317238777
83333.3314571838
83333.3314314478
83333.3314503659
83333.3314067382
83333.3314343775
83333.3314525596
83333.331353528
83333.3314127807
83333.3314455269
83333.3314618282
83333.3312861343
83333.3313737759
83333.3314270125
83333.3314613098
83333.3314755347
83333.3312124386
83333.3313254875
83333.3314004799
83333.331449528
83333.3314810739
83333.3314948251
83333.3311647937
83333.3312797195
83333.3313696568
83333.3314343279
83333.3314777357
83333.3315053289
83333.3315195303
83333.3311636645
83333.3312583869
83333.3313457146
83333.3314179223
83333.3314720975
83333.3315091199
83333.3315329383
83333.3315471294
83333.3312077324
83333.3312707526
83333.3313412117
83333.3314087933
83333.3314663379
83333.3315104663
83333.3315411265
83333.3315614525
83333.331575045
83333.3312804617
83333.3313130408
83333.3313602295
83333.3314141768
83333.3314666504
83333.3315117587
83333.3315468253
83333.3315717269
83333.3315888835
83333.3316010828
83333.3313656684
83333.3313742675
83333.3313991668
83333.3314357647
83333.3314774114
83333.3315177075
83333.3315524067
83333.3315797541
83333.3315996183
83333.3316137665
83333.3316241475
83333.3314518687
83333.3314440523
83333.3314509344
83333.3314707811
83333.3314993117
83333.3315310859
83333.3315614745
83333.3315877106
83333.3316086885
83333.3316242454
83333.3316355956
83333.3316439372
83333.3315332189
83333.3315148899
83333.3315087342
83333.3315146697
83333.3315304756
83333.3315522638
83333.3315759437
83333.3315984183
83333.3316179079
83333.3316336855
83333.3316455432
83333.3316542793
83333.3316605476
83333.3316071408
83333.3315825183
83333.3315675259
83333.3315629151
83333.3315678528
83333.3315799136
83333.3315959508
83333.33161311
83333.3316293392
83333.331643469
83333.3316549957
83333.3316636846
83333.331670056
83333.3316743712
83333.331672856
83333.331644801
83333.3316241826
83333.3316120662
83333.3316084526
83333.3316120222
83333.3316205923
83333.3316318438
83333.3316438167
83333.3316551285
83333.3316649908
83333.3316730368
83333.3316790374
83333.3316833543
83333.3316859131
83333.3317304173
83333.3317008622
83333.3316769469
83333.3316597896
83333.3316498379
83333.3316465389
83333.3316485066
83333.3316540021
83333.3316613583
83333.3316692252
83333.3316766582
83333.3316831141
83333.3316883213
83333.331692088
83333.331694719
83333.3316959089
83333.3317801992
83333.3317504555
83333.3317248986
83333.3317045853
83333.3316901726
83333.3316816026
83333.331678117
83333.3316785138
83333.331681448
83333.3316856949
83333.3316903252
83333.3316947007
83333.3316984497
83333.3317013884
83333.3317033692
83333.331704731
83333.3317050876
83333.3318228274
83333.3317937791
83333.3317677452
83333.3317456799
83333.3317283125
83333.3317158753
83333.3317080469
83333.3317040993
83333.3317030788
83333.3317039442
83333.3317057613
83333.3317078726
83333.3317098703
83333.3317115323
83333.3317127734
83333.3317135098
83333.3317141226
83333.3317143996
83333.3317224749
83333.3317223991
83333.3317225776
83333.3317227733
83333.3317229045
83333.3317230027
83333.3317230509
83333.331723404
83333.3317239972
83333.3314660651
83333.3314348558
83333.331456883
83333.3314008695
83333.3314299949
83333.3314545435
83333.3313406941
83333.3314067164
83333.331438796
83333.3314606819
83333.3312554763
83333.3313564183
83333.3314171025
83333.331454335
83333.3314721079
83333.331147897
83333.3312896764
83333.3313790969
83333.3314361954
83333.3314725614
83333.3314889846
83333.3310624651
83333.3312177231
83333.3313327787
83333.3314113681
83333.331462334
83333.3314945681
83333.3315108759
83333.3310374842
83333.3311724403
83333.3312905396
83333.3313831434
83333.3314491922
83333.3314926909
83333.3315203342
83333.3315363913
83333.3310798389
83333.3311723153
83333.3312714228
83333.3313618542
83333.3314350961
83333.331488699
83333.3315247028
83333.3315480868
83333.3315633295
83333.3311656354
83333.3312154631
83333.3312838271
83333.3313584446
83333.3314276553
83333.3314844993
83333.3315268979
83333.3315560765
83333.3315756756
83333.3315895091
83333.3312705912
83333.3312866358
83333.3313245193
83333.3313766635
83333.3314332712
83333.3314856775
83333.3315290185
83333.3315619692
83333.33158522
83333.3316013201
83333.3316131094
83333.3313764433
83333.3313702681
83333.3313835577
83333.3314134825
83333.3314535781
83333.3314961489
83333.3315352573
83333.331567822
83333.331593013
83333.3316111528
83333.3316240765
83333.3316336109
83333.3314749737
83333.3314552054
83333.3314511894
83333.3314626884
83333.3314863656
83333.3315166741
83333.3315481186
83333.3315768588
83333.3316009619
83333.3316198802
83333.3316336989
83333.3316436667
83333.3316509062
83333.3315631077
83333.3315355881
83333.3315202041
83333.3315179698
83333.3315276263
83333.3315457343
83333.3315680037
83333.3315907377
83333.3316114663
83333.3316289428
83333.3316427766
83333.3316529115
83333.3316602077
83333.33166526
83333.331640358
83333.3316087875
83333.3315863794
83333.3315745616
83333.3315732844
83333.3315806957
83333.3315938226
83333.3316096055
83333.3316255752
83333.3316401061
83333.3316523719
83333.3316620796
83333.3316691056
83333.3316740727
83333.331677129
83333.3317072263
83333.3316739655
83333.3316475367
83333.3316294003
83333.3316201123
83333.3316188858
83333.3316238495
83333.3316327179
83333.3316433484
83333.3316540662
83333.331663779
83333.3316719283
83333.3316782947
83333.3316827503
83333.3316857996
83333.3316873153
83333.3317645341
83333.3317311244
83333.3317027338
83333.3316807035
83333.3316658518
83333.3316580518
83333.3316562616
83333.3316589014
83333.3316642608
83333.3316708258
83333.3316774538
83333.3316834051
83333.3316883034
83333.3316920058
83333.3316944116
83333.3316960346
83333.3316965874
83333.3318131429
83333.3317806078
83333.3317516662
83333.3317274996
83333.3317090061
83333.3316964426
83333.3316893496
83333.3316867455
83333.3316873677
83333.3316899235
83333.3316933127
83333.3316967598
83333.3316997811
83333.3317021434
83333.3317037756
83333.3317046169
83333.3317052196
83333.3317052533
83333.3318540069
83333.3318230168
83333.3317944891
83333.3317694457
83333.331748774
83333.3317329381
83333.3317218577
83333.3317149959
83333.3317115162
83333.3317104469
83333.331710802
83333.33171175
83333.3317127563
83333.3317135416
83333.3317139966
83333.3317141319
83333.3317139519
83333.3317140239
83333.331714357
83333.3317279094
83333.3317269887
83333.3317261602
83333.3317252978
83333.3317244157
83333.331723654
83333.3317231216
83333.3317235584
83333.3317236819
83333.3314380337
83333.3314651563
83333.3314022519
83333.3314328057
83333.3314595238
83333.3313264113
83333.331399813
83333.3314330298
83333.3314606621
83333.3312324782
83333.3313439629
83333.3314105094
83333.3314466316
83333.331469629
83333.331089333
83333.3312596132
83333.3313625999
83333.3314270088
83333.3314646591
83333.3314846289
83333.3309489797
83333.331155025
83333.3312987684
83333.3313918791
83333.3314503864
83333.3314857891
83333.3315044613
83333.330881467
83333.3310738918
83333.3312324567
83333.3313495795
83333.3314286832
83333.3314789574
83333.3315100739
83333.3315280337
83333.3309138271
83333.3310510098
83333.3311911148
83333.3313117757
83333.3314041386
83333.3314684069
83333.3315101194
83333.3315365962
83333.3315535693
83333.3310154456
83333.3310917003
83333.3311913581
83333.3312948693
83333.3313858946
83333.3314569819
83333.3315077028
83333.3315415623
83333.3315636874
83333.3315792482
83333.3311478669
83333.3311749094
83333.3312320928
83333.3313065225
83333.3313834601
83333.3314513613
83333.3315050987
83333.3315444266
83333.3315714022
83333.3315896814
83333.33160297
83333.3312811276
83333.3312772238
83333.3312998539
83333.3313442891
83333.3314003423
83333.3314571611
83333.3315072044
83333.3315473333
83333.3315773768
83333.3315984125
83333.331613047
83333.3316238821
83333.3314028637
83333.331381087
83333.3313801744
83333.3313995998
83333.3314342209
83333.3314759628
83333.3315174106
83333.3315538938
83333.3315834825
83333.3316060165
83333.331622045
83333.3316334017
83333.3316417044
83333.3315094774
83333.3314781758
83333.331462408
83333.3314636002
83333.3314798193
83333.331506098
83333.3315365198
83333.3315663014
83333.33159253
83333.3316139751
83333.3316304778
83333.3316422615
83333.3316506153
83333.3316564951
83333.3316012522
83333.3315652857
83333.3315407125
83333.3315295067
83333.3315315446
83333.3315441859
83333.3315633312
83333.3315849263
83333.3316058784
83333.3316243149
83333.331639425
83333.3316510578
83333.331659261
83333.3316649909
83333.3316686185
83333.3316795611
83333.3316418012
83333.3316123556
83333.3315931755
83333.33158498
83333.331586655
83333.3315956424
83333.3316088996
83333.3316236707
83333.3316379074
83333.3316503738
83333.3316605268
83333.3316682373
83333.3316734816
83333.3316770184
83333.3316789009
83333.331745925
83333.3317081381
83333.3316763756
83333.331652371
83333.3316371714
83333.3316305647
83333.3316311303
83333.3316367752
83333.3316452977
83333.3316547964
83333.3316638884
83333.331671746
83333.3316780112
83333.3316826022
83333.3316854845
83333.3316873946
83333.3316881618
83333.3318017276
83333.3317650572
83333.3317326712
83333.3317060514
83333.3316863229
83333.331673775
83333.3316677615
83333.3316669676
83333.3316697622
83333.3316745328
83333.3316799482
83333.3316850741
83333.3316893644
83333.3316926037
83333.331694772
83333.3316958749
83333.3316966493
83333.3316967885
83333.3318481856
83333.3318133843
83333.3317815112
83333.3317538211
83333.3317314048
83333.3317148129
83333.3317038998
83333.3316979369
83333.3316958207
83333.3316962884
83333.3316981366
83333.3317004065
83333.3317024808
83333.3317040313
83333.3317049536
83333.3317052894
83333.3317050799
83333.331705021
83333.3317051211
83333.3318865101
83333.3318540479
83333.3318234468
83333.3317957633
83333.3317720079
83333.3317528538
83333.3317384669
83333.3317285275
83333.3317223492
83333.3317190336
83333.3317176277
83333.3317172248
83333.3317171092
83333.3317168779
83333.3317163771
83333.331715597
83333.3317146823
83333.33171384
83333.3317139776
83333.3317141276
83333.3317328049
83333.3317308971
83333.3317289743
83333.3317270139
83333.331725159
83333.3317237515
83333.3317231814
83333.3317233873
83333.3313902853
83333.3314365597
83333.3314668629
83333.3313272706
83333.3314006292
83333.331435914
83333.331465124
83333.331210377
83333.3313304946
83333.3314033198
83333.331440872
83333.3314691644
83333.3310462806
83333.331236922
83333.3313511049
83333.3314206924
83333.3314572957
83333.3314820489
83333.3308374199
83333.3310981867
83333.3312706476
83333.3313772842
83333.3314420671
83333.3314780358
83333.3315004088
83333.3306938762
83333.3309654145
83333.3311747795
83333.3313194211
83333.3314118172