/*--------------------------------*- C++ -*----------------------------------*\
  =========                 |
  \\      /  F ield         | OpenFOAM: The Open Source CFD Toolbox
   \\    /   O peration     | Website:  https://openfoam.org
    \\  /    A nd           | Version:  12
     \\/     M anipulation  |
\*---------------------------------------------------------------------------*/
/*   Windows 32 and 64 bit porting by blueCAPE: http://www.bluecape.com.pt   *\
|  Based on Windows porting (2.0.x v4) by Symscape: http://www.symscape.com   |
\*---------------------------------------------------------------------------*/
FoamFile
{
    format      ascii;
    class       volScalarField;
    location    "400";
    object      k;
}
// * * * * * * * * * * * * * * * * * * * * * * * * * * * * * * * * * * * * * //

dimensions      [0 2 -2 0 0 0 0];

internalField   nonuniform List<scalar> 
10140
(
5.64657617581351e-05
5.66818916070995e-05
5.78735562549815e-05
0.000219415990887099
5.68762697760671e-05
5.81167994185961e-05
0.000219809403450822
5.97264604731582e-05
0.0002198906788347
0.000336507003430787
5.69584692255686e-05
5.83552818878886e-05
0.000220029264802105
5.99912810985128e-05
0.000220291494660974
0.00033696758108342
6.02936547528021e-05
0.000220116499173599
0.000336321064767509
0.000427855197237077
5.69241146555373e-05
5.84551819808322e-05
0.000220027455646595
6.02590634620571e-05
0.000220520869872907
0.000337141684429318
6.05673006606685e-05
0.000220520471648314
0.000336788977666922
0.000428359507940049
5.87985301949076e-05
0.000218557757812794
0.000334788004954545
0.000427324862331516
0.000505518976721344
5.67863084349124e-05
5.84232896847539e-05
0.000219791008858611
6.0370354120786e-05
0.000220522984386837
0.000337014107183021
6.08496356449715e-05
0.000220756871931079
0.000336966143294034
0.000428488192734941
5.9071447578199e-05
0.000218960084023457
0.000335258237395022
0.000427836862673058
0.000506055079870525
5.57410877471045e-05
0.000214224832665946
0.000331027153199348
0.000424655866492164
0.000504614922529579
0.000574465242917665
5.65553041316041e-05
5.82835345060275e-05
0.000219319344714392
6.03395512248509e-05
0.000220287400111361
0.000336572384299918
6.09700959093758e-05
0.000220762316860698
0.000336839400884066
0.000428240575788824
5.93588052948689e-05
0.000219199035085436
0.000335437599234661
0.000427967461495824
0.000506139102700836
5.60074838005448e-05
0.000214620186532761
0.000331493219081999
0.000425170338661985
0.000505159729638071
0.000575025527100433
5.19385117048434e-05
0.000207322925996919
0.000324385967203068
0.000419193290477372
0.000501005609693779
0.000573128817879031
0.000637132592679334
5.6236276711659e-05
5.80497935698858e-05
0.000218613454835454
6.01962778202605e-05
0.000219815435582639
0.000335809069976481
6.09440394023854e-05
0.000220527447813336
0.000336397843775858
0.000427607190212257
5.94852665149889e-05
0.000219207533112671
0.000335312271395991
0.000427720090243512
0.000505778141709448
5.62951066791377e-05
0.00021485923418947
0.000331672311291053
0.00042530255422915
0.00050524597866586
0.000575065417910811
5.21958741932938e-05
0.000207707404715067
0.000324842369738934
0.000419702781046135
0.000501553301153303
0.000573698809543288
0.000637711631387888
4.77930103262849e-05
0.00019856214965553
0.000314933554541764
0.000410569715015153
0.000494103738480976
0.000568631833654321
0.000635428505950597
0.000694942390396531
5.58302257650892e-05
5.77285673415952e-05
0.00021767187423878
5.99572923372263e-05
0.000219108761279389
0.000334717861126742
6.08023578643025e-05
0.000220055053232871
0.000335634561347248
0.000426578783342983
5.94655711104746e-05
0.000218975566667906
0.000334872126825482
0.000427086716431418
0.000504965292377493
5.64261748531416e-05
0.000214871290196026
0.000331548784617255
0.000425056693194165
0.000504885637447707
0.000574596842848616
5.24814928195505e-05
0.000207944804038492
0.000325018952780528
0.000419834342223597
0.000501641680657918
0.000573741414333599
0.000637707690248903
4.80401707040055e-05
0.000198933242254916
0.000315376031386816
0.000411067966595678
0.000494645936445754
0.00056920523195129
0.000636018360220522
0.00069553674450029
4.33688334852303e-05
0.000188423246500594
0.000303110067545129
0.000398918211840016
0.000483727837314653
0.000560455217870829
0.000630176671901866
0.000692991697009683
0.000748831540309371
5.53353307573003e-05
5.73208708841625e-05
0.00021648957239655
5.9629616425729e-05
0.00021816621388273
0.000333291002992894
6.05626197161665e-05
0.000219347433702754
0.00033454341519958
0.000425145591390419
5.93305249391398e-05
0.00021850627882592
0.000334110739977909
0.000426058445227022
0.00050369120290812
5.64142648490965e-05
0.000214645311234028
0.000331112343618401
0.000424425653049054
0.000504073344056678
0.000573614913865576
5.26160897725191e-05
0.000207961235787722
0.00032489805420803
0.00041959089507098
0.00050128382739482
0.000573274081895819
0.000637136160709575
4.83227016905149e-05
0.000199168155015888
0.000315548472309866
0.000411196369861433
0.000494734085367018
0.000569250753080986
0.00063601771474286
0.000695489265645162
4.35928604169565e-05
0.000188780476307163
0.00030353532057001
0.000399400462732624
0.000484257624369695
0.000561022898939761
0.000630770613065427
0.000693597949304637
0.000749439942700793
3.86586156571105e-05
0.000177041232741012
0.00028926083285114
0.000384583378369282
0.000470112501824066
0.000548539210039246
0.000620928859901782
0.000687167155257332
0.000746727840478586
0.000799416949913991
5.47464306743668e-05
5.68244720237239e-05
0.000215057407609421
5.92150774289384e-05
0.000216982663714709
0.000331518095398749
6.02336900772354e-05
0.000218403900055286
0.000333116630201759
0.000423295968737709
5.90985549759396e-05
0.000217802138686735
0.000333022162187033
0.000424625616616005
0.000501944500118656
5.62898400248035e-05
0.000214184384747785
0.000330356657614956
0.000423400986890501
0.000502800179442421
0.000572110767808322
5.26119025742309e-05
0.000207744406319202
0.000324468688773877
0.000418965362240376
0.000500475454334058
0.000572293607782945
0.000635993706275461
4.84600064554026e-05
0.000199189686707904
0.000315431262937894
0.000410956207274266
0.000494379972383792
0.000568787126748482
0.000635448016812684
0.00069481808157665
4.38721378307896e-05
0.000189013204411606
0.000303702580623421
0.000399523775820393
0.000484342735800362
0.000561068926657511
0.00063077374997354
0.000693554285233037
0.000749348957530231
3.8854589903524e-05
0.0001773948967304
0.000289666444730604
0.00038504588334147
0.000470624756975115
0.000549093749128207
0.00062151714627356
0.00068777826144771
0.00074734916946575
0.00080004226470447
3.36904778957066e-05
0.000164413597869313
0.000273544482000922
0.000367823213534785
0.000453587233868102
0.00053319226298796
0.000607701256795967
0.000677061374082441
0.000740476605928467
0.000797209210602438
0.000847071027158743
5.40573531116755e-05
5.62362478519306e-05
0.000213362731286981
5.87123373517686e-05
0.000215548982773869
0.000329385427887275
5.98181421156472e-05
0.00021721926141344
0.000331343714511014
0.000421015775091096
5.87795126053584e-05
0.000216862529899194
0.000331598674817035
0.000422776585431608
0.000499711238991622
5.60721553520921e-05
0.000213491147626664
0.000329275858029239
0.000421973283188853
0.000501054889240995
0.000570072308216502
5.2499136941367e-05
0.000207297229765304
0.000323724304638654
0.000417949393985186
0.00049920808615736
0.000570791588123687
0.000634272111938928
4.84630312130594e-05
0.000198984325905717
0.000315012491082209
0.000410339866875433
0.000493579391490472
0.000567812342146922
0.000634307842050135
0.000693521555840493
4.40118421390509e-05
0.000189040855919681
0.000303590212977862
0.000399287901306169
0.000483993272131699
0.000560610613851821
0.000630208949043379
0.000692885409897053
0.000748579766081814
3.91165757292371e-05
0.000177629893273338
0.000289828204325497
0.000385162830476303
0.000470704643473788
0.000549137274379228
0.000621521656132011
0.000687739216087277
0.000747262463988457
0.00079990672680772
3.38678097080432e-05
0.000164768190240748
0.000273929401324794
0.000368262885155688
0.000454077957954289
0.000533728265324522
0.000608276042490149
0.000677667078218657
0.000741103542257031
0.000797848393172335
0.000847728323478662
2.8547409550574e-05
0.000150547718558184
0.000256023735086301
0.000348777495121866
0.00043437067568051
0.00051474872962213
0.000590849249891059
0.000662733718605052
0.000729677538922877
0.000790618722191382
0.000844778885866234
0.000891985696792275
5.32589136180187e-05
5.55419165946609e-05
0.000211389363411118
5.8111349742727e-05
0.000213852471732474
0.000326876064455948
5.93141642198728e-05
0.000215784512843099
0.000329211018124846
0.000418288147622719
5.83759990791884e-05
0.000215682907376489
0.000329829843454936
0.000420497186497907
0.000496974748835988
5.577153880249e-05
0.000212565322220401
0.000327862355284289
0.000420130873336094
0.000498823556549255
0.000567484153932646
5.22976228024247e-05
0.000206622488070404
0.000322659057995831
0.000416533581972032
0.000497470680535659
0.000568756115958567
0.000631959190389172
4.83616838684078e-05
0.000198554755870121
0.000314285229572422
0.000409338799979465
0.000492324016082284
0.000566318503220341
0.000632589531324244
0.000691592506285409
4.40220060455252e-05
0.00018884891729575
0.000303185238756613
0.000398684470893943
0.000483204513196082
0.000559646057258312
0.000629076132997003
0.000691591770848249
0.000747133376393992
3.92593971250793e-05
0.000177666068197599
0.000289722105203311
0.000384932459166164
0.000470360782687746
0.000548685282741648
0.000620963731539126
0.000687076278688055
0.00074649595085727
0.000799038554587309
3.40927110422504e-05
0.000165026824412478
0.000274086648073178
0.00036837279329751
0.000454151194522702
0.000533766938549461
0.000608278817008192
0.000677630309810292
0.000741022229287976
0.000797717556811924
0.000847541496595243
2.8702518853277e-05
0.00015089259065743
0.000256387007238134
0.000349191820528383
0.000434836487933586
0.000515262030330487
0.000591404910433764
0.000663325823890553
0.000730299377691881
0.00079126422090981
0.000845450507326282
0.000892723447120785
2.33563169152461e-05
0.000135506031318192
0.000236733350771674
0.000327529674739332
0.000412585679070603
0.000493411928484891
0.000570722255348848
0.000644575138387947
0.000714412936180193
0.000779232828034751
0.00083789454515638
0.000889615876590248
5.23390606484987e-05
5.4742965345828e-05
0.000209119427013629
5.74047043150604e-05
0.000211876606403021
0.000323971779696909
5.87107614170395e-05
0.000214086383261791
0.000326701838811152
0.000415093757903157
5.78850035346788e-05
0.000214254518875792
0.000327702114241337
0.000417770557121754
0.000493715831241474
5.53910360409594e-05
0.000211402878455607
0.000326105929635488
0.000417859726048311
0.000496089530010299
0.000564327957427879
5.20183215709247e-05
0.000205720237847813
0.000321265551625594
0.000414706408323632
0.000495249464003234
0.000566171882760322
0.000629038767948129
4.81761802240751e-05
0.00019790395461268
0.000313243608975157
0.000407943603632065
0.000490602954719551
0.000564293970248382
0.000630281058931967
0.000689018958869642
4.39321080705423e-05
0.000188439880199575
0.000302480235050536
0.000397704570823632
0.000481967972549929
0.000558167567005718
0.000627368225200162
0.000689666795604373
0.000745004213654143
3.92769516762591e-05
0.00017748996550725
0.000289334029797912
0.000384345541540295
0.000469587761292382
0.000547735351980481
0.000619843448739549
0.000685791378234637
0.000745052866854216
0.000797443997339562
3.42394542753323e-05
0.000165077427324135
0.000273989038544841
0.000368149490359208
0.000453814192096497
0.000533322245689984
0.00060772896629246
0.000676975699323915
0.000740262564542009
0.000796852392130783
0.000846568047525015
2.88851438832518e-05
0.000151205588430205
0.000256543213053903
0.000349294670027294
0.000434902267680324
0.000515294356197057
0.00059140352569321
0.000663288198677116
0.000730221227685554
0.000791139484021651
0.000845268940310677
0.000892456704771869
2.3494438212884e-05
0.000135824845662601
0.000237074537527847
0.00032791666698975
0.000413023620346866
0.000493899024462284
0.000571254491569549
0.000645147825599032
0.000715021177509716
0.000779873538171028
0.000838572626679706
0.000890364873807895
0.000935151271389742
1.82638557619275e-05
0.000119330752093845
0.000215691197596873
0.000304140962578389
0.000388318707675012
0.000469294818368439
0.000547524420993123
0.000622959406490776
0.000695105643982725
0.000763145736925431
0.000825986950865318
0.000882461635917891
5.12822406459618e-05
0.000206529035906818
5.38204314894946e-05
5.65901782387501e-05
0.000209603698402605
0.000320649642154034
5.80033188794452e-05
0.000212108890928957
0.000323796907062256
0.000411411350377541
5.73019143821648e-05
0.000212564076023268
0.000325198827317909
0.000414577362175508
0.000489913182585701
5.49279539940273e-05
0.00020999531574237
0.000323993216613161
0.000415143065995244
0.000492833606100794
0.000560582787599475
5.16644958104682e-05
0.000204587058152473
0.000319533793658575
0.000412454343745654
0.000492527919921178
0.00056302051117786
0.000625491160396343
4.79181740555843e-05
0.000197032310142378
0.000311880466200487
0.000406143012435733
0.000488402634903283
0.000561723633291431
0.000627366297654083
0.00068578422875838
4.37625606902302e-05
0.000187816887608812
0.000301469279997859
0.00039633873008955
0.000480272801068581
0.000556163712904741
0.000625073491086907
0.000687098685569704
0.0007421807656408
3.91988309313481e-05
0.000177104408966976
0.00028865601230573
0.000383392693490953
0.000468376762356542
0.000546279670479623
0.000618153975007843
0.000683878583005559
0.000742928297713064
0.000795119761950493
3.42646889897018e-05
0.000164920698718227
0.000273621350411368
0.000367582787875482
0.000453060797457406
0.000532391103679836
0.000606626044020963
0.000675705366627631
0.000738829360619324
0.000795261491092783
0.000844824145653538
2.90331158827185e-05
0.000151279988660344
0.000256457716625084
0.000349080545795876
0.000434573804471042
0.00051485830760668
0.000590862865925333
0.000662643395947376
0.000729471250459629
0.00079028202878278
0.000844298938866889
0.000891362843654483
2.36570831372409e-05
0.000136191603563568
0.000237235551325599
0.000328013307109397
0.000413081608726881
0.000493924189131533
0.00057124744314498
0.000645106922090977
0.000714943099601277
0.000779752810428264
0.000838397904335422
0.00089010600006326
0.000934720753132811
1.83858765559936e-05
0.000119626117986117
0.000216017442776641
0.00030449936420701
0.000388726556873927
0.000469752680865385
0.000548029642525989
0.000623508271577854
0.000695694316143239
0.000763772864031397
0.000826660051633143
0.000883213723461707
0.000932701672890531
0.00097470515364299
1.34062021045092e-05
0.000102081766007174
0.000192936492459117
0.000278657013291603
0.000361642983119213
0.000442483135446162
0.000521366617945825
0.000598102580016864
0.000672158013308421
0.000742809469081851
0.000809157148771532
0.000870074280271089
5.00665974529075e-05
0.000203594847447286
5.27569720141233e-05
0.000316886639883872
0.000207010036963226
5.56503589375844e-05
5.71866278612022e-05
0.000209834071559625
0.000320474331656594
0.000407217725965758
5.66163880427494e-05
0.000210595912963183
0.000322300681605089
0.00041089622055068
0.000485544019409914
5.43765506705854e-05
0.000208330194007437
0.000321507733130659
0.000411961646496726
0.000489034474573984
0.000556225633524322
5.12344881431007e-05
0.000203214900427343
0.000317450771946013
0.000409760652054896
0.00048928697291245
0.000559281024442959
0.000621293942088129
4.7591338843888e-05
0.000195937028125806
0.000310186130428841
0.000403923366902356
0.000485706785599708
0.000558589255884251
0.000623825579765496
0.000681867604974193
4.35256950232013e-05
0.000186980835441725
0.000300145504177444
0.000394575855434456
0.000478105616883783
0.000553619627913576
0.00062217601704873
0.000683870817222657
0.000738646011765131
3.90457064439368e-05
0.000176512880218997
0.000287682069871221
0.000382064329339649
0.000466716877267659
0.000544306886279043
0.000615883821243972
0.000681326400220858
0.00074011093984299
0.000792054782406815
3.41986209673374e-05
0.000164561995417031
0.000272975139347317
0.000366662755974905
0.00045188178085685
0.000530965390419654
0.000604963113721248
0.000673813656618344
0.000736718381572978
0.000792942249998763
0.00084230820319591
2.90665957559773e-05
0.000151147591340722
0.000256114700955297
0.000348538138715135
0.000433844143746851
0.000513950128913187
0.000589781803857615
0.000661392991785199
0.000728054449760276
0.000788702061048032
0.000842559076673527
0.000889466433707649
2.37574731712339e-05
0.000136303205803859
0.000237167560676665
0.000327811248927157
0.000412763822553551
0.000493498625122354
0.000570717478155689
0.000644473277741259
0.000714204647534766
0.000778906374185297
0.000837436589672404
0.000889016841767458
0.000933492879291974
1.85385940166285e-05
0.000120001471244664
0.000216194715656107
0.000304591691714685
0.000388777273980348
0.000469770441974026
0.000548016157071304
0.00062346262987181
0.00069561394890461
0.000763653156121842
0.000826490160689907
0.000882964001429153
0.000932292136571701
0.000974265335254984
1.3507731843371e-05
0.00010234950275225
0.000193235677870734
0.00027898710590898
0.000362019025983076
0.000442909249389725
0.000521841711018075
0.000598623953320966
0.000672722635263128
0.000743416882848701
0.000809816269914335
0.000870818820470459
0.000925283594174209
0.000972182973109445
0.00101156871839088
8.90698904572124e-06
8.38098507591434e-05
0.000168493448047533
0.000251102622381884
0.000332617256397155
0.000413054501778781
0.000492333999120006
0.000570118994547149
0.000645802327492901
0.000718654265202241
0.000787882951344097
0.000852560263617747
4.86686871922807e-05
0.000200288743558709
5.15277434488576e-05
0.000312658701507658
0.000204071828344197
5.45625106075074e-05
0.000402489478681602
0.000316710621861097
0.00020723875367581
5.62428905502272e-05
5.58231313893101e-05
0.000208331810174926
0.000318986073553501
0.000406704124263636
0.000480584655895163
5.37309486525476e-05
0.000206391554909074
0.000318630354025897
0.00040829415350478
0.000484669306166802
0.00055123253604852
5.07219541672168e-05
0.000201591599240659
0.000315000355111363
0.000406606289011729
0.000485505442038608
0.000554930525396295
0.000616422882477078
4.71951392766698e-05
0.000194610731605922
0.000308147967407357
0.000401268446398428
0.00048249655803826
0.000554870009663494
0.000619636508078333
0.000677245347325969
4.32256458919528e-05
0.000185929598204724
0.000298499587602822
0.000392402576446479
0.000475450385055388
0.000550517329089323
0.000618656303879353
0.000679962499490688
0.000734378174652426
3.88302878611173e-05
0.000175716822680467
0.0002864055995089
0.000380349523951392
0.000464594877862953
0.000541802347185406
0.000613017352664194
0.000678118443605772
0.000736583783666761
0.000788231426346974
3.40623049205392e-05
0.000164005818898446
0.000272044391430431
0.000365379652639685
0.000450266113759111
0.000529033723179708
0.000602728796942425
0.000671289329440772
0.000733918660523699
0.000789883816712897
0.000839008608083942
2.90131665278638e-05
0.000150819631832156
0.000255505520061515
0.000347656881141557
0.000432703576001401
0.000512561321934356
0.000588153120000468
0.000659531225170709
0.000725966859547483
0.000786397655658613
0.000840048515015083
0.000886761937874623
2.37969400934232e-05
0.000136202381665754
0.000236854554354326
0.000327297803057893
0.000412062404272514
0.00049261788063423
0.000569662799763643
0.000643247757209311
0.000712810227995667
0.000777344568294924
0.000835708762899594
0.000887125083762831
0.000931445613790469
1.86329352874392e-05
0.000120187235553532
0.000216152706887169
0.000304405607052499
0.000388473042718092
0.00046935774687173
0.000547498927509093
0.000622841875795704
0.000694888675374743
0.000762819979282807
0.000825541295593217
0.00088188543188694
0.000931072075765696
0.000972948875445258
1.36475081943328e-05
0.000102739452063202
0.000193436391388995
0.000279078819009512
0.000362063709580955
0.00044291997355771
0.000521821607263829
0.000598572870151496
0.000672638608188984
0.000743295953225908
0.000809648375187811
0.000870575580376607
0.00092489195574717
0.00097176401203936
0.00101111091575806
8.98240757913936e-06
8.40427430047656e-05
0.0001687669243353
0.000251407165491968
0.000332960591301121
0.00041344687756506
0.000492776325195957
0.000570609682829734
0.000646339172551981
0.000719237403209327
0.000788521842650474
0.000853288898637379
0.00091243289991636
0.000964523316896127
0.00100897763472549
0.00104573403133001
4.98598112359842e-06
6.45881969025838e-05
0.000142348672454302
0.000221471554772137
0.000301273069231697
0.000381071538064082
0.000460504036960243
0.000539093682305443
0.000616158409121067
0.000690928025380445
0.000762619218723845
0.000830419926143931
4.7094063773121e-05
0.000196588450489947
5.00875059621792e-05
0.000307942834257411
0.000200760493262566
5.32975534945621e-05
0.000397203302491034
0.000312481768906845
0.000204297334403807
5.5146455022953e-05
0.000475011336233638
0.000401977475412386
0.000315231507664128
0.000205748715495394
5.49038718110695e-05
5.29811333570797e-05
0.000204161095669213
0.000315339653962306
0.000404117781908098
0.000479714438510832
0.00054557922460023
5.01215622904238e-05
0.000199701962559756
0.000312163618793197
0.000402970129105004
0.000481160546587673
0.000549945018281803
0.000610852818918094
4.67233072341948e-05
0.000193041627974344
0.000305750176629907
0.000398159798882583
0.000478750978759558
0.00055054314491609
0.000614774856821338
0.000671892047936104
4.28631265210734e-05
0.00018465662030795
0.000296519385013099
0.000389803001520673
0.000472288579265774
0.000546836260170698
0.000614492149024509
0.000675350066675653
0.00072935243272519
3.85571243923039e-05
0.000174714916448975
0.000284817720318599
0.000378235196606521
0.0004619950015095
0.000538748357374228
0.000609535329156696
0.000674234240597292
0.000732325174866587
0.000783626979357788
3.38685634082064e-05
0.000163254373394731
0.000270822881797322
0.000363722722493927
0.000448200690829126
0.000526581610081848
0.000599907706717189
0.000668116304953705
0.000730413430124439
0.000786068632708799
0.000834906590064019
2.88943373933667e-05
0.000150302966216134
0.000254624327732297
0.000346426860077148
0.000431140911796078
0.00051068040577745
0.000585965425268733
0.000657046998291001
0.000723197798856697
0.000783358310004468
0.000836755888532215
0.00088323454115252
2.3757607447029e-05
0.000135910305084466
0.000236288217640298
0.000326461670739769
0.000410967022684969
0.000491273033604696
0.000568075840803682
0.000641424305366347
0.000710755734109232
0.000775065704898845
0.000833214258300564
0.000884426413780675
0.000928558519646371
1.86542788802259e-05
0.000120132161753607
0.00021587657797904
0.000303926607277306
0.000387804843077234
0.00046850936656216
0.000546475481671726
0.000621646181376611
0.000693522126084336
0.000761282958154366
0.000823833444169585
0.000880007129902354
0.000929030427643691
0.000970768447729618
1.37415553835424e-05
0.000102965029276753
0.000193437529768291
0.000278914135610876
0.000361776777787911
0.000442523173759479
0.000521319720313334
0.000597967281578177
0.000671928524537624
0.000742478044817761
0.000808714619957031
0.000869511571120949
0.00092368621034062
0.000970456205344208
0.00100971799906791
9.10211079853079e-06
8.44415917630546e-05
0.000168977044976688
0.000251503805534923
0.00033300162626129
0.000413451607512835
0.000492750003644371
0.000570553050402946
0.000646250884426076
0.00071911401759209
0.000788353920821343
0.00085304919269231
0.00091205219877022
0.000964122189873394
0.00100854085490654
0.00104524248293196
5.0321330525075e-06
6.4782500583671e-05
0.000142598038438059
0.000221747171899614
0.000301584192425951
0.000381428769286571
0.000460911475287164
0.000539550945257959
0.000616664216758526
0.000691483099026266
0.000763233219954269
0.000831126581877218
0.000894261283838834
0.000951250849791735
0.00100109147702035
0.00104307780973872
0.00107715893513263
2.03449038724989e-06
4.47339635613165e-05
0.000114555528170548
0.0001897429255315
0.000267587942913267
0.000346559861549205
0.000425934352944333
0.000505100489845434
0.000583310515467079
0.000659755257987496
0.00073362671721295
0.000804128831852841
0.000192499808310474
4.84458677170547e-05
0.000302722687002059
0.000197049381139246
5.17997252331451e-05
0.000391337804240558
0.000307764730380114
0.000200982017411416
5.38652329552558e-05
0.000468801015324198
0.000396693008605848
0.00031101286229441
0.000202820279335154
5.38326858171754e-05
0.000539241464242533
0.000474146096487833
0.000399408889457245
0.000311612321553266
0.000201616004989433
5.21097103885701e-05
4.94231521637175e-05
0.00019752736496403
0.000308919357640031
0.000398829528798933
0.000476228746775282
0.000544300127078665
0.000604558499824302
4.61699918000335e-05
0.000191214894257637
0.000302974292480145
0.000394576420366203
0.000474447543153789
0.000545584787536783
0.000609215465029867
0.000665781300844137
4.24329508929506e-05
0.000183150578126267
0.000294189549141328
0.000386758570948192
0.000468599555805136
0.000542553878580814
0.000609659484412895
0.000670008039466156
0.000723541956510356
3.82282181488899e-05
0.000173501599436089
0.000282906867257804
0.000375705879596681
0.000458899061210504
0.000535124705669911
0.000605415859279684
0.000669650336556698
0.000727310261830965
0.000778215263879164
3.36225188464743e-05
0.000162307205130585
0.000269302224844383
0.000361679200317167
0.000445670033177416
0.000523591653912833
0.000596480881213835
0.000664274433419878
0.000726181297486704
0.000781474031548324
0.000829978125425684
2.87227154122535e-05
0.000149601147024969
0.000253465386312572
0.000344837518807652
0.000429143156655002
0.000508293009004645
0.000583203490462207
0.000653924455118332
0.00071973082169488
0.0007795667391161
0.000832662521157961
0.000878863352199715
2.36566902849571e-05
0.000135437921645674
0.000235463290239454
0.00032529277204609
0.000409466293504813
0.000489452462818889
0.000565945133500247
0.00063899184660631
0.000708030615706708
0.000772059564451784
0.000829942085270295
0.000880906420002948
0.000924811473624517
1.8611071852898e-05
0.000119883270102792
0.000215359764754955
0.000303142526511814
0.000386761698153215
0.000467215876383299
0.000544937868672359
0.000619869137743419
0.000691509845703545
0.000759040214144707
0.000821366604620681
0.000877325820202244
0.000926149678236014
0.00096770974378201
1.37715845571092e-05
0.000102967138001982
0.000193207798029997
0.000278476124148091
0.000361147708807028
0.000441712638396441
0.000520332833207469
0.000596806673701383
0.000670595264446204
0.000740971860411687
0.000807034017843203
0.000867655332433721
0.000921659870208153
0.000968281958630194
0.00100741583253368
9.19214458160744e-06
8.47046504998744e-05
0.000169014783078515
0.000251368454415337
0.000332736772749631
0.000413074496485527
0.000492266672170122
0.000569965467377156
0.000645558536115808
0.000718313714599353
0.00078743769067362
0.000852002608934831
0.00091086422536412
0.000962830080441011
0.00100715699115989
0.00104377328900153
5.12469575669406e-06
6.51814187087136e-05
0.00014282902290904
0.000221858381788593
0.000301625673059642
0.00038142955443938
0.000460879990108549
0.000539489213533373
0.000616571653421811
0.000691356793350646
0.00076306425623389
0.000830888654551706
0.000893887242200979
0.000950860601316415
0.00100067251235138
0.00104260784225543
0.00107662437938517
2.05865760531171e-06
4.48939897649663e-05
0.000114785622503366
0.000189994763304266
0.000267869828593962
0.000346882011024983
0.000426305381353821
0.000505522069929555
0.00058378244834321
0.000660278931518336
0.000734211934427531
0.00080480873225315
0.00087128907912669
0.000932483810085797
0.000987424828459659
0.00103497988528048
0.00107444199590908
0.00110579674047859
4.34326767750121e-07
2.51283328052412e-05
8.54008023032694e-05
0.000155913546544108
0.000231467730094489
0.000309469319886607
0.000388633188586721
0.000468185539727322
0.000547325775846937
0.000625217849066158
0.000701032597953993
0.000773957451675395
0.00029699541221059
0.000192941965594998
5.00878768627007e-05
0.000384876460660443
0.00030254241216422
0.000197262276228917
5.23427141906473e-05
0.000461932420283537
0.000390829282386448
0.000306307217229459
0.000199518288196668
5.25763419262919e-05
0.000532196178829873
0.000467941231260621
0.000394144303771235
0.000307424255360116
0.000198729480522808
5.10903632881516e-05
0.000597515363393197
0.000537971714503824
0.000470686366545143
0.000394161203255496
0.000305244551864084
0.000195045092538025
4.86092650975296e-05
4.5525065750942e-05
0.000189112198535481
0.000299799372659597
0.000390495899426256
0.000469562778722765
0.000539970629702077
0.000602933084948024
0.000658886888069672
4.1928116355212e-05
0.000181396957819959
0.000291491953642221
0.000383249364626605
0.000464361138936177
0.000537646567141489
0.000604133284029438
0.000663910066577115
0.000716919190688398
3.78400849993526e-05
0.000172066276056258
0.000280658216213176
0.000372743608434083
0.000455286746352495
0.000530909097351663
0.00060063514526672
0.000664341401388413
0.000721512244207373
0.000771968144180633
3.33272458489081e-05
0.000161159831348806
0.000267471458547412
0.000359234093836694
0.000442656320422913
0.000520044000209872
0.000592426784563835
0.000659740583322964
0.000721197615978272
0.000776073866495119
0.00082419562670995
2.85042508094005e-05
0.000148714558314714
0.000252021147760985
0.000342876458873182
0.000426695131070045
0.000505382019635199
0.000579848732240255
0.000650143800925945
0.000715544892248512
0.00077500053941916
0.000827744436596906
0.000873622691245974
2.35071374406771e-05
0.000134790541279977
0.000234374806342176
0.000323780831689717
0.000407547347142039
0.000487141900198433
0.000563255566346702
0.000635934662813467
0.000704618705347614
0.000768309207832605
0.000825873874125557
0.000876544355777586
0.000920181144954823
1.85148122514088e-05
0.000119460680910921
0.00021459831332383
0.00030204317090188