/*--------------------------------*- C++ -*----------------------------------*\
  =========                 |
  \\      /  F ield         | OpenFOAM: The Open Source CFD Toolbox
   \\    /   O peration     | Website:  https://openfoam.org
    \\  /    A nd           | Version:  12
     \\/     M anipulation  |
\*---------------------------------------------------------------------------*/
/*   Windows 32 and 64 bit porting by blueCAPE: http://www.bluecape.com.pt   *\
|  Based on Windows porting (2.0.x v4) by Symscape: http://www.symscape.com   |
\*---------------------------------------------------------------------------*/
FoamFile
{
    format      ascii;
    class       volScalarField;
    location    "400";
    object      nut;
}
// * * * * * * * * * * * * * * * * * * * * * * * * * * * * * * * * * * * * * //

dimensions      [0 2 -1 0 0 0 0];

internalField   nonuniform List<scalar> 
10140
(
2.28899154257894e-05
2.29775294885125e-05
2.42994860814467e-05
0.000304823652808261
2.30563257761948e-05
2.44016164489714e-05
0.00030531496837752
2.61156997569746e-05
0.000312248806784366
0.000817803737090243
2.3089647419584e-05
2.45017480827906e-05
0.000305641925636772
2.62314923873564e-05
0.000312763512567768
0.000818745146657034
2.72070015277355e-05
0.000321715102665262
0.000826766602293515
0.00141153373310906
2.30757207394627e-05
2.45436934512084e-05
0.000305722392191547
2.63485805757775e-05
0.000313118995892881
0.000819255597319787
2.73304793793791e-05
0.000322254981120142
0.000827733916840288
0.00141290191491777
2.68827973004656e-05
0.000327427593842126
0.000837477571418157
0.00141793622873148
0.00200837028083045
2.30198566710816e-05
2.45303033724118e-05
0.000305541351887828
2.63972434146874e-05
0.00031321228272029
0.000819271575068943
2.74578787342489e-05
0.000322639986758753
0.000828262695019522
0.00141352682387444
2.70075718821524e-05
0.000327982466038391
0.000838466903359161
0.00141932629980703
0.00201009973321255
2.54968887647955e-05
0.000325917695048101
0.000842859283239836
0.00142343713530177
0.00201035914721842
0.0025723665278601
2.2926211213322e-05
2.44716244930227e-05
0.000305103050302796
2.63837763214343e-05
0.000313033084535341
0.000818767704537129
2.75122358907387e-05
0.000322746485993417
0.000828285217041508
0.00141337035689308
2.71389481554554e-05
0.000328388447513172
0.000839017286853535
0.00141996109821676
0.00201077064025705
2.5618737686844e-05
0.000326474756367811
0.000843858248075029
0.0014248396434341
0.00201210810636803
0.0025743785101097
2.36953840578634e-05
0.00031827206396065
0.000838077054277043
0.00142217532796545
0.00200790925416811
0.0025697162211972
0.00308942307864741
2.27968829915971e-05
2.43734828382373e-05
0.000304412834204956
2.63211308522351e-05
0.000312589991580998
0.000817736799785005
2.75004806991417e-05
0.000322567456917863
0.000827780242775898
0.00141240877036223
2.71967659609546e-05
0.000328506560775186
0.000839049646317622
0.00141980617681732
0.00201035824506606
2.5750292537277e-05
0.000326892098839929
0.000844424263025076
0.00142548534533244
0.00201278571165492
0.00257502782904624
2.38127700705011e-05
0.000318822078065324
0.000839071556677522
0.00142357622496395
0.00200966277387503
0.00257174676146427
0.00309164288807955
2.17751041055989e-05
0.000307291577100621
0.000823527895783863
0.00140977593583888
0.00199654564289013
0.00255901665769296
0.00308326521984672
0.00355664086322641
2.26322813151891e-05
2.42386079441054e-05
0.000303471791652926
2.6216633612472e-05
0.000311890003458817
0.000816174168642024
2.74365506292035e-05
0.000322115645519585
0.000826742959416377
0.00141062602681893
2.71877647884454e-05
0.00032832977499277
0.000838544154903978
0.00141884104146075
0.00200884177871614
2.58102424383766e-05
0.000327019747481873
0.000844465853231567
0.00142533442178319
0.00201237358060734
0.0025742934084022
2.39430391041619e-05
0.000319244202105577
0.000839644465103983
0.0014242271630156
0.00201034502211261
0.00257240198012719
0.003092210599219
2.18876658709216e-05
0.000307830631438898
0.000824506407299056
0.00141116067109828
0.00199828643620588
0.0025610462699231
0.00308550440916784
0.00355900557833617
1.97569333093326e-05
0.000294567188060345
0.000802117122394837
0.00138585910371488
0.00197304890300691
0.00253684705862482
0.00306576410908911
0.00354833478266581
0.00397632711290812
2.24316875554567e-05
2.40674295223178e-05
0.000302275564933695
2.6073354424184e-05
0.000310934877692863
0.000814070301989322
2.73283715415931e-05
0.00032139997064132
0.000825169599510976
0.00140800468066389
2.71260251141318e-05
0.00032787321493247
0.000837498447499277
0.00141705104730574
0.00200619963848319
2.58047999966374e-05
0.000326849242068067
0.000843961971747549
0.00142436734697019
0.00201085442707972
0.00257215620982489
2.40044613546837e-05
0.000319380164330028
0.000839693911323149
0.00142408002543929
0.00200993445430682
0.00257166879899715
0.00309110527816173
2.20163528644178e-05
0.000308255059077771
0.00082507940431377
0.00141180880683113
0.00199896606454861
0.00256170348763179
0.00308607879526447
0.00355944489918439
1.98589450904782e-05
0.000295101479916055
0.000803072440319378
0.00138721490882942
0.00197476079849382
0.00253885464231912
0.0030679990053388
0.00355072018344615
0.00397878509132925
1.76137464726808e-05
0.000280221587107933
0.000775849873417959
0.00135224563705708
0.00193679312708363
0.00250095899134214
0.00303399532924166
0.00352589357328103
0.00396670980875715
0.0043524621787178
2.21929493070165e-05
2.38590139594895e-05
0.000300813310011868
2.58920968461705e-05
0.000309720011414352
0.00081140735008309
2.71799433128813e-05
0.000320422685740727
0.000823050430855729
0.00140451933637935
2.70199688692087e-05
0.000327147033522961
0.000835909903451527
0.00141441916378119
0.00200240276822016
2.57478919706378e-05
0.000326396675547704
0.000842911556374709
0.00142257055733734
0.00200820787093077
0.00256859099102257
2.40025605920812e-05
0.000319219541373854
0.000839196271169024
0.00142311383477594
0.00200841488697192
0.00256953192526296
0.00308830775394662
2.20789051853304e-05
0.000308399003630416
0.00082513616420656
0.00141166459642409
0.00199855649054628
0.00256097269978688
0.00308497608844443
0.00355793600949213
1.9986154307614e-05
0.000295531020363901
0.000803642130912626
0.0013878532553756
0.00197542883675132
0.00253950457786499
0.00306857488312532
0.00355116711114767
0.00397906119600509
1.77029935269528e-05
0.000280841150160252
0.000776781729544118
0.00135356218821968
0.00193846179092297
0.00250292567057966
0.00303620090223806
0.00352827257870887
0.00396918991485272
0.00435497285636294
1.5350183799053e-05
0.000263936447658367
0.000745206945024585
0.00131034372602018
0.00188852726988445
0.00245073392509949
0.00298617183496914
0.00348625122040585
0.00394062981825401
0.00434186242012161
0.00468909230690448
2.19135924962177e-05
2.36120288937318e-05
0.000299068886221148
2.56722811684295e-05
0.000308234630244105
0.00080815724563874
2.69924318535171e-05
0.000319179290973743
0.00082036701321355
0.00140013357800583
2.68741007129946e-05
0.000326154184726946
0.000833768942256386
0.00141091995525471
0.00199740989706054
2.56483199252925e-05
0.000325672989073705
0.000841312953047085
0.00141992758541544
0.00200440519123301
0.0025635585621292
2.3951145188435e-05
0.000318778839801282
0.000838150643298669
0.00142131529134798
0.00200576668165329
0.00256596721815657
0.00308378921492511
2.2080318981213e-05
0.000308250190331817
0.000824649918788617
0.0014107042904617
0.00199704018423192
0.00255883993945238
0.00308218182599556
0.00355445981956705
2.0049758863978e-05
0.000295684094466427
0.000803706757518879
0.00138771176105814
0.00197501901465473
0.00253877517779605
0.00306747678837906
0.00354966210644486
0.00397713077784941
1.78223435573577e-05
0.000281300800253338
0.000777350714775826
0.00135418611259619
0.00193911020029119
0.00250355743036202
0.00303676701497644
0.0035287212980717
0.00396947455861507
0.00435506016046413
1.5430939157348e-05
0.00026467586797211
0.000746139206943326
0.00131161348409557
0.0018901397107536
0.00245264308595905
0.00298832593368313
0.00348859517386981
0.003943101973085
0.00434439656894998
0.00469162854988156
1.30049511318855e-05
0.000245532098349426
0.000709908092609853
0.00126048298220385
0.00182876136732581
0.00238619635855938
0.00292172780988729
0.00342761740109665
0.00389444907466633
0.00431279918443709
0.0046775866579767
0.00498988424610095
2.1589946318899e-05
2.33203580898418e-05
0.000297019833673521
2.54094926798012e-05
0.000306462313712705
0.000804282302831979
2.6765025226085e-05
0.000317659212624852
0.000817091382359993
0.00139479836966933
2.66896133918914e-05
0.00032489088855372
0.000831057098471882
0.001406516631429
0.00199116536818591
2.55108116677472e-05
0.000324681787947407
0.000839157042102778
0.00141641306512168
0.00199940512772612
0.00255700282268153
2.38591878928093e-05
0.000318069569566892
0.000836556004089176
0.00141866828129643
0.00200196157920302
0.00256093633565283
0.00307750288903486
2.20341964575152e-05
0.000307825376882864
0.000823619317917273
0.00140891396544603
0.00199439737248332
0.00255528182005165
0.0030776688615045
0.00354898497420424
2.00544453140582e-05
0.000295548422944779
0.000803236192682196
0.00138676330673882
0.0019735111671395
0.00253665119830739
0.00306469199472046
0.00354619135481419
0.00397297498743883
1.78874350719822e-05
0.000281469053387853
0.000777426105249578
0.00135404817621639
0.00193869940555395
0.00250282725030452
0.00303567244538179
0.00352722330214728
0.00396754898356221
0.0043527020986994
1.55333483220459e-05
0.000265315042064084
0.00074672850022486
0.00131222212788901
0.00189076217864947
0.00245324680761391
0.00298886921645398
0.00348903288069789
0.00394338894990615
0.00434449327528944
0.00469150381163703
1.30755760720637e-05
0.000246309668294185
0.000710852082784816
0.00126170347688974
0.00183030562254803
0.00238803239965715
0.00292381108458328
0.00342990089614283
0.00389688143665633
0.00431532445334565
0.00468014566526401
0.0049923875054884
1.06414273141335e-05
0.000224972550380213
0.000669447062073395
0.00120224113421572
0.00175727816740324
0.00230707540808646
0.00284034466463627
0.00334946752601273
0.00382608638240402
0.00426090332472002
0.00464582621049076
0.00497748059319858
2.12170818984735e-05
2.29850418120179e-05
0.000294643460849778
2.51003563834107e-05
0.000304379969725198
0.000799737179406566
2.64927705298301e-05
0.000315844509526607
0.000813185877125086
0.00138845212925181
2.64651492854394e-05
0.000323346757868763
0.00082774647309433
0.00140116004361955
0.0019835984334461
2.53367638099794e-05
0.000323420410136129
0.000836425946533446
0.00141199038498411
0.00199315210280078
0.00254885058766254
2.37317620319669e-05
0.000317095866859284
0.000834403999391047
0.00141514775727858
0.00199695872943357
0.00255438360366591
0.00306938020387273
2.1949633229527e-05
0.000307136533045769
0.000822043815510797
0.00140627777327172
0.00199060012359053
0.00255026072839651
0.00307139102147931
0.00354145782649148
2.00135422904033e-05
0.0002951412268118
0.000802228307986355
0.00138499277016777
0.00197088458113012
0.00253310911628324
0.00306019437533184
0.00354072542682361
0.00396656018439921
1.78954686291759e-05
0.000281348951657215
0.000776975275247867
0.00135311739276668
0.001937206103848
0.00250071734569857
0.00303290327120602
0.00352376676523506
0.00396340007514798
0.00434787969383168
1.56002233642693e-05
0.000265519829744531
0.000746824687833074
0.00131209072172818
0.0018903507440052
0.00245251405355995
0.00298777524305894
0.00348754120441102
0.00394147261837376
0.00434214094398684
0.00468872086982875
1.31587327961048e-05
0.000247343712688482
0.000711531546204324
0.00126230433739921
0.00183089806215234
0.00238859984263608
0.00292431966566926
0.00343031265034064
0.0038971568600048
0.00431542402953881
0.0046800320680943
0.00499204387045108
1.07043389582444e-05
0.000225741354282026
0.000670396004397077
0.00120340928608779
0.00175874339787673
0.00230882316395134
0.00284233891679576
0.0033516684698981
0.00382845064713555
0.00426338530643728
0.00464837318876509
0.00497999283054438
0.00526035852933326
8.33232500131453e-06
0.00020211219280339
0.000623030691521288
0.00113471500815055
0.00167320387446233
0.00221252093090983
0.0027412511131495
0.00325141783418154
0.00373502846620176
0.00418367599304402
0.00458872316677021
0.00494317499376831
2.07886176127333e-05
0.000291902301516171
2.25978449041083e-05
2.47443486970923e-05
0.000301964881129209
0.000794462389936183
2.61734618154895e-05
0.000313712787661472
0.000808603254031706
0.00138102072442983
2.61985641346073e-05
0.000321503471095848
0.000823799000937357
0.00139478832723315
0.00197462298145507
2.51249560220184e-05
0.000321878627891109
0.000833092023306067
0.00140661051146387
0.00198557527212714
0.00253901058208004
2.35703227044914e-05
0.000315856298358824
0.000831677678316739
0.0014107180335781
0.00199070287365752
0.0025462355507415
0.00305933075363939
2.18320553366041e-05
0.000306188528154292
0.000819916037116678
0.00140277146100518
0.00198560826255948
0.00254372175524507
0.00306328002008841
0.00353179837049858
1.9936257312002e-05
0.000294475049940581
0.000800682933206199
0.00138238442378178
0.00196711143860312
0.00252811182684178
0.00305393858716839
0.00353321138463429
0.00395782633894659
1.78599192557187e-05
0.000280961091657959
0.000775995774726671
0.00135137705979342
0.00193460810910871
0.00249720326272967
0.00302843331888492
0.0035183234614882
0.00395699637017884
0.00434055597399969
1.56117365063021e-05
0.000265420457986629
0.00074639976064679
0.00131118377439695
0.00188887846329099
0.0024504241889969
0.00298502762028992
0.00348410711373754
0.00393734194688276
0.00433732669938384
0.0046832566301433
1.32261679101873e-05
0.000247619519501241
0.000711674312384128
0.00126218752833804
0.00183048807006987
0.00238786396908255
0.00292322363567766
0.00342882424769413
0.00389525000166363
0.00431308312436991
0.00467725635449878
0.00498885641419624
1.07784229690843e-05
0.000227202848786487
0.000671268287627947
0.0012040253555966
0.00175930544349336
0.00230934778294024
0.00284280277650228
0.00335204074234058
0.00382869828615987
0.00426347323122048
0.00464826364995206
0.00497967021107295
0.00525990942064253
8.38798315070088e-06
0.000202835376601788
0.000624080804442179
0.00113582820606484
0.00167458044030581
0.00221416579569597
0.00274313857343942
0.00325351565894914
0.00373730014070048
0.00418608383212818
0.00459122216314729
0.00494566127836573
0.0052470495246372
0.00549883274823778
6.13221360695137e-06
0.000176811519025924
0.000569931832784031
0.00105651430506293
0.00157506255194165
0.002101097441316
0.00262308249132146
0.00313246592764475
0.00362096426374162
0.0040805821959658
0.00450333976325938
0.00488124055071011
2.02958115416604e-05
0.000288762512285241
2.21510521150297e-05
0.000788395023670288
0.000299179596540387
2.43337023333927e-05
2.58049795339994e-05
0.000311240418330025
0.000803287311789133
0.0013724153500501
2.58850644818465e-05
0.0003193389037636
0.000819167248338688
0.00138732669409988
0.00196413781321732
2.48727072601413e-05
0.000320039590962682
0.000829117318926422
0.00140021152934057
0.00197658845039054
0.00252737211002787
2.33741853810296e-05
0.000314341404101272
0.000828350204523922
0.00140533046483598
0.00198312355090375
0.002536400651008
0.00304724304509872
2.16831544440677e-05
0.000304981044380891
0.000817220209373456
0.00139835997630458
0.00197936734434013
0.00253559194254001
0.00305324562550438
0.00351990072732446
1.98283051938969e-05
0.000293555812364801
0.000798593946411811
0.00137891495996617
0.0019621524228026
0.00252160540409392
0.00304585724401668
0.00352356960774719
0.0039466834215025
1.77901072544936e-05
0.000280319372651586
0.000774488061820287
0.00134881147042354
0.00193087752872831
0.00249224812215925
0.00302221793581595
0.00351084136612259
0.00394827877504964
0.00433066465077321
1.55816712385182e-05
0.00026505450373278
0.000745454180135852
0.00130948294128512
0.0018863212697293
0.00244695130442245
0.00298059930589689
0.00347870242836805
0.00393096679252741
0.00433001590022473
0.00467506665637482
1.32414321168521e-05
0.000247549793403578
0.000711286299216694
0.00126131275868651
0.00182904409886026
0.00238580096607772
0.00292050394481818
0.00342542016895731
0.00389114848923893
0.00430829101556174
0.00467180186195546
0.00498278791884125
1.08241736055899e-05
0.000227623867372585
0.000671501483480908
0.00120394047289633
0.00175890227242742
0.00230860999978459
0.00284170356938769
0.00335055280375558
0.00382679851328288
0.00426114527733402
0.00464550212847489
0.00497649493891725
0.00525638048466921
8.45765833368538e-06
0.00020439841025781
0.000625278869845573
0.00113649518980712
0.00167511767420752
0.00221464337408009
0.00274354948539653
0.00325383714957381
0.00373750542168783
0.00418614326976087
0.00459110134616617
0.0049453500540562
0.00524664583555012
0.00549817125217981
6.17864911731362e-06
0.000177437304809998
0.00057093737271264
0.00105758938680116
0.00157634275838604
0.00210262600726293
0.00262484597778886
0.00313444071789341
0.00362312081271178
0.00408288928640913
0.00450575880442902
0.00488366971757692
0.00521029508335292
0.0054846878514167
0.00571040911879383
4.07228938906701e-06
0.000148684926876897
0.000508971491884129
0.000965613262263641
0.00146069061092878
0.00197073968094878
0.00248391613540607
0.0029909201035919
0.0034828379567718
0.00395142920977365
0.00438909754889255
0.00478833620800218
1.97291421973765e-05
0.000285174024916376
2.16350253975606e-05
0.000781461540882705
0.000295987856624166
2.38576255297298e-05
0.00136253886633929
0.000797171809421249
0.00030839062908009
2.53793280479053e-05
2.55224267410649e-05
0.00031682780538809
0.000813795509694584
0.00137868769425554
0.00195202615374039
2.45773709045377e-05
0.000317880323443511
0.000824454580439129
0.0013927187354925
0.00196609031846281
0.00251380863699249
2.31403222618101e-05
0.00031253456590479
0.000824384427736399
0.00139892362715311
0.00197413492382938
0.00252476925236662
0.0030329854240357
2.15027036966949e-05
0.000303505807630441
0.000813930564553254
0.00139299594058608
0.00197180781353073
0.00252578033183295
0.0030411766370926
0.00350563449308669
1.96916630997929e-05
0.000292384500762495
0.000795946910963592
0.00137455069083802
0.00195595433754742
0.00251351803644333
0.00303586097837197
0.00351169443352156
0.00393301036125101
1.7691913615278e-05
0.000279430819444245
0.000772447422230853
0.00134539844312878
0.00192597601623835
0.00248579909388759
0.00301419101647709
0.00350124198311167
0.00393715727048894
0.00431810547881445
1.55195219834423e-05
0.000264439491130468
0.000743990285369448
0.00130697265819609
0.00188265103707609
0.0024420585149589
0.00297444607721247
0.00347127591153232
0.00392228917197046
0.00432014323243738
0.004664077531347
1.3217122085027e-05
0.000247209352650342
0.000710381583647477
0.00125966096803233
0.00182653978592437
0.00238238308654985
0.00291613225954922
0.00342007143296208
0.00388482221481287
0.00430101433693093
0.00466362682326962
0.00497378383937388
1.08421632054414e-05
0.000227603292997394
0.000671168698213722
0.00120311058547811
0.00175749595224077
0.00230658206129392
0.00283901946878687
0.00334718663608367
0.00382273637462918
0.00425638932562027
0.00464007405578111
0.00497043890385418
0.00524975773801586
8.50070649045953e-06
0.000205329904187434
0.000625686362211719
0.00113647084783704
0.0016747320461685
0.00221390759328448
0.00274244809930618
0.0032523487142336
0.00373561061864608
0.00418382722045726
0.00458835691287577
0.0049421954269556
0.00524313748583246
0.00549428976658645
6.24258941748583e-06
0.000179035441061061
0.000572465727726081
0.00105835303965121
0.00157686696651177
0.00210305584018231
0.00262519793148272
0.00313470229022034
0.00362327181475978
0.00408290534720942
0.0045056096776483
0.00488335043958819
0.00520991218632585
0.0054840674133486
0.00570951644754879
4.10677090221202e-06
0.000149144222008457
0.000509880540174955
0.000966664395010202
0.00146187189428534
0.00197214103653987
0.00248554003350784
0.00299275283063206
0.00348485786177983
0.00395361142782881
0.00439140908259019
0.00479067991786082
0.00514381729437885
0.00544569590257582
0.0056954873837951
0.00589745084845312
2.24988053680903e-06
0.000116995383383487
0.000437929780048898
0.000859027723671242
0.00132702893173931
0.00181863224896454
0.00232123028827435
0.00282452975546266
0.00331879900571219
0.00379520292159729
0.0042459281689704
0.00466383615818286
1.90908533627505e-05
0.000281090407018088
2.10303291383879e-05
0.000773578917599142
0.000292339335119579
2.33045935929354e-05
0.00135128122818952
0.000790182624443825
0.000305119882257819
2.48843832592636e-05
0.00193815680297397
0.00136877279130891
0.000807616651834206
0.000313933350769831
2.51021980178363e-05
2.42344232296928e-05
0.000315374659955329
0.00081904786557557
0.00138404508842063
0.00195396433099655
0.00249817669369882
2.28663650691793e-05
0.000310414340091883
0.000819733372726149
0.00139142336853318
0.0019636359999682
0.00251121471703991
0.00301640644448552
2.12876761241349e-05
0.000301746434304997
0.000810010850947086
0.00138661926456301
0.0019628447654051
0.00251417827136251
0.00302694171746524
0.00348884803680784
1.95265591267269e-05
0.000290953996920674
0.000792717461337056
0.00136924570025563
0.00194844908749468
0.00250376008512099
0.00302383966525314
0.00349745620630992
0.00391666063382819
1.75674969292348e-05
0.000278297972456608
0.000769861009098292
0.00134110583834673
0.00191985195801135
0.00247778596281714
0.0030042646559393
0.00348942090695541
0.00392351183912337
0.00430274515073012
1.54312101527456e-05
0.000263584109436283
0.000742005382295466
0.00130363210261287
0.00187783047518971
0.00243569411524874
0.00296650325421528
0.00346175068586761
0.00391122027633306
0.00430760892115715
0.00465018011862919
1.31629547384011e-05
0.000246623642750405
0.000708967709670826
0.00125721751144949
0.0018229467025579
0.00237757322929644
0.00291006454294761
0.00341272746990676
0.00387621426225328
0.00429118896862085
0.00465265897825976
0.00496176431281224
1.08242557026687e-05
0.000227295170486659
0.000670314319224592
0.00120151908817654
0.00175505746405436
0.00230323387200564
0.00283472054192711
0.00334191211821424
0.00381648095629958
0.00424917195272672
0.00463193900443261
0.00496145226575982
0.00523999666190049
8.51044156990957e-06
0.00020544134743552
0.000625443278597604
0.00113570500176144
0.00167337632957806
0.00221192527420806
0.00273980927215454
0.00324902992704159
0.00373159838800631
0.00417912098040636
0.00458297263788233
0.00493617150153218
0.0052365308846805
0.00548714091979529
6.28561538128884e-06
0.000180105594574282
0.000573278505503766
0.0010584341966346
0.00157651641363627
0.00210233014633662
0.00262409829733703
0.00313321501327871
0.00362138202924952
0.00408060057663006
0.00450288299966402
0.00488021955781518
0.00520643233217079
0.00548020866001461
0.00570527968061515
4.16150100863585e-06
0.000150697938870874
0.00051148862049549
0.00096755012130481
0.00146240076052894
0.00197252728389628
0.00248583047966942
0.00299294796327744
0.00348494530354925
0.00395357227592907
0.00439121714652846
0.00479033377902568
0.0051434270793832
0.00544509182734514
0.0056946350716047
0.00589634009123936
2.27070656606666e-06
0.0001172354181646
0.000438684858786498
0.000859977962554311
0.00132811223270493
0.00181989973942424
0.00232270236994261
0.00282620348449662
0.00332066203946671
0.00379723763276718
0.00424810727757423
0.00466606841488609
0.0050439236975805
0.00537510075468237
0.00565444391608963
0.00588182225424777
0.00606209508797941
8.89590947029087e-07
8.15003320534961e-05
0.000353482745459695
0.000732564542305748
0.00116981571958786
0.00164105633577192
0.00213181643427143
0.0026305097474115
0.0031264343021872
0.00361001419206
0.0040729054691331
0.00450779165912042
0.000276511603921895
2.03410810788778e-05
0.000764667734623899
0.00028817487340235
2.26496785553844e-05
0.00133852354620243
0.00078223679577816
0.000301379610210657
2.43061991710624e-05
0.00192238342641398
0.00135747199486607
0.00080055438772561
0.000310609424802469
2.46124119148026e-05
0.00248031196272033
0.00194007928596652
0.00137409202150138
0.000812829903268878
0.000312485721257014
2.38358610747136e-05
2.25477842290256e-05
0.000307953084084892
0.000814341176780502
0.00138274336855277
0.0019515109080545
0.00249559297700851
0.00299733428640128
2.10355247689285e-05
0.000299682176760219
0.000805415376174664
0.0013791566537644
0.00195237815220227
0.00250065987626463
0.0030103897759258
0.00346936593910868
1.9330537606159e-05
0.000289248362501641
0.000788870490007438
0.00136294078723657
0.00193955328456896
0.00249222430160175
0.00300966309356621
0.00348070304581525
0.00389746195027974
1.74176808741756e-05
0.000276915095006179
0.000766706072128592
0.00133588954941969
0.0019124391297071
0.00246812105505703
0.00299233060685446
0.00347524986896489
0.00390719593168758
0.00428442071493438
1.53191445672665e-05
0.000262492418048253
0.00073948853463165
0.00129943091738425
0.00187180978878281
0.00242778982047315
0.00295668476784177
0.00345002434538947
0.00389764175521188
0.00429228018115328
0.00463322957236068
1.30847391871388e-05
0.000245804301792322
0.000707045209502597
0.00125396348805026
0.00181822875229029
0.00237132082531277
0.002902237455295
0.00340331302836073
0.00386523768100144
0.00427871660843235
0.0046387897779397
0.0049466129610615
1.07782508104046e-05
0.000226742694975224
0.00066895741795773
0.00119915426097771
0.00175155827372579
0.00229852791503114
0.00282876273049657
0.00333467919411159
0.00380797624112238
0.00423943018956394
0.00462102600675065
0.00494945701064553
0.00522701760016548
8.49072981387223e-06
0.000205189550595174
0.000624655142835355
0.00113418818034115
0.00167101874867
0.00220866325218889
0.0027356010152088
0.00324384932216231
0.00372543671311351
0.00417199034672123
0.00457490790619939
0.00492723141394345
0.00522679017487169
0.0054766734284769
6.29935291177292e-06
0.000180488062373673
0.000573206957353472
0.00105776190316174
0.00157522947708853
0.00210040776693788
0.00262151746402187
0.00312995571858802
0.00361743204023067
0.00407595799517618
0.00449755985574061
0.00487424837545969
0.00519986430775927
0.00547307851242976
0.00569762910559399
4.20267300630142e-06
0.000151833515512495
0.000512516991016509
0.000967807056509829
0.00146211062512268
0.00197182569751096
0.00248474093113516
0.00299146704509596
0.00348306372472127
0.00395128060761507
0.0043885096587192
0.00478722800569648
0.00513997779134948
0.00544126471099587
0.00569042257205205
0.00589176337921131
2.31247615790512e-06
0.000118659163881547
0.000440322688775234
0.000860996373629689
0.00132866398302372
0.0018202537026901
0.00232293430211347
0.00282632972361213
0.00332067981340045
0.00379713454723894
0.0042478614499818
0.00466568105414704
0.00504350471624332
0.00537448826157604
0.00565360722536632
0.00588075297685819
0.00606078341469
9.00158101940806e-07
8.15580800406175e-05
0.000354069462266293
0.000733402825833718
0.00117081008810779
0.00164219119386173
0.00213313045289158
0.00263201181902821
0.00312812287314949
0.00361188050979988
0.0040749289896031
0.00450988813800585
0.00490994912803817
0.00526891633404236
0.0055801074258157
0.00583892577333892
0.00604583406371933
0.00620623576999973
1.82361546924034e-07
4.368177126103e-05
0.000252331134551427
0.000580795901279774
0.000983624487343939
0.00143332019533442
0.00191174739808768
0.0024055287065091
0.00290287981514101
0.00339342019043652
0.00386817848636527
0.00431938560971187
0.000754685190808437
0.000283488437759027
2.19011972544759e-05
0.00132414479059007
0.000773248035563586
0.000297098048119774
2.36191628679458e-05
0.00190454537877283
0.00134466599933145
0.000792523182438403
0.000306803622337062
2.40379654817861e-05
0.00246003119994773
0.00192428920361108
0.00136274943241245
0.000805723057179869
0.000309165634469005
2.33695808675204e-05
0.00297557486031593
0.00247774104051007
0.00193762927277728
0.00137278519768676
0.000808140942726082
0.000305113536773453
2.21765290974967e-05
2.07417333628091e-05
0.00029728545781579
0.000800088581472863
0.00137052285309669
0.00194029339214195
0.00248508181998371
0.00299134945925883
0.00344698996103069
1.91005032410559e-05
0.000287247166659386
0.000784361401626192
0.00135556502472452
0.00192916864875408
0.00247878649206178
0.00299318137201465
0.00346126041891984
0.00387521742015604
1.7240792062885e-05
0.000275267202029406
0.000762948836456774
0.00132969245277298
0.00190365619051798
0.00245669900205886
0.00297826063578469
0.0034585781693484
0.00388803783030729
0.00426294187728972
1.51846487127953e-05
0.000261160276844958
0.000736418706309688
0.00129432706122113
0.00186452493029682
0.00241826035418925
0.00294488489433929
0.00343597086105992
0.0038814084946248
0.00427399451792837
0.00461304848358197
1.29852483186032e-05
0.000244757024098098
0.000704605989316508
0.00124987071073385
0.00181233819712881
0.00236355971291308
0.00289256739663466
0.00339172823556771
0.00385177652063822
0.00426346621036222
0.00462187490485988
0.00492817494905432
1.07101079894622e-05
0.000225962879867214
0.000667104190096876
0.00119600034717143
0.00174696382904187
0.00229241480331287
0.00282108400521729
0.00332541412598884
0.00379713737233575
0.00422706786916762
0.00460722817184062
0.00493433758198263
0.00521069964714095
8.4468033439479e-06
0.000204683282370034
0.000623365194780769
0.00113191528980874
0.00166763138470669
0.00220408344706329
0.00272977902594209
0.00323675722498069
0.00371707035668023
0.00416237336849826
0.0045640929477865
0.00491529910111245
0.00521383868892389
0.0054628039521302
6.2865052959561e-06
0.000180417145199179
0.000572524111492825
0.00105633988763331
0.00157297165115524
0.00209725156906099
0.00261742066718878
0.00312489122044544
0.00361138854479594
0.00406894254140055
0.00448959878695679
0.00486539044816018
0.00519017720291808
0.00546263421784258
0.00568650233099844
4.2202636255213e-06
0.000152319409340989
0.000512719698297647
0.000967276714055395
0.00146091752848512
0.00196998306484077
0.00248223541584416
0.00298828324135231
0.00347919151627281
0.0039467175969271
0.00438326555790738
0.00478133051219169
0.00513347199768006
0.00543417850794427
0.00568279287501842
0.00588364114899599