/*--------------------------------*- C++ -*----------------------------------*\
  =========                 |
  \\      /  F ield         | OpenFOAM: The Open Source CFD Toolbox
   \\    /   O peration     | Website:  https://openfoam.org
    \\  /    A nd           | Version:  12
     \\/     M anipulation  |
\*---------------------------------------------------------------------------*/
/*   Windows 32 and 64 bit porting by blueCAPE: http://www.bluecape.com.pt   *\
|  Based on Windows porting (2.0.x v4) by Symscape: http://www.symscape.com   |
\*---------------------------------------------------------------------------*/
FoamFile
{
    format      ascii;
    class       volScalarField;
    location    "400";
    object      omega;
}
// * * * * * * * * * * * * * * * * * * * * * * * * * * * * * * * * * * * * * //

dimensions      [0 0 -1 0 0 0 0];

internalField   nonuniform List<scalar> 
10140
(
2.46684012185195
2.46684012027653
2.38167819932494
0.719812878251659
2.46684013438042
2.38167826054187
0.719943095547904
2.28699445272215
0.704216234160192
0.411476480442709
2.46684014660432
2.38167830681746
0.719892286844148
2.28699458698845
0.704338856065387
0.41156589747038
2.21610803716599
0.684196972259105
0.406790820812704
0.303113689174596
2.46684016062775
2.38167829536488
0.719696892561075
2.28699467467533
0.704271771324753
0.411521978650234
2.21610824383735
0.684304307358714
0.406880726783008
0.303177101975249
2.18721770423383
0.667499508053601
0.399757577253831
0.301371002216237
0.251706063143055
2.46684022608401
2.38167823682361
0.719349467758139
2.28699463699289
0.704068762794247
0.411358232652781
2.21610839766264
0.684220434512183
0.406834866909093
0.303134107890834
2.18721800819257
0.667596919640902
0.399846715537456
0.301436577854738
0.251756204684305
2.18619174524809
0.657297335863675
0.392743082720671
0.298331310853525
0.251007350217884
0.223321691017163
2.46684040399754
2.381678197238
0.718836945408219
2.28699449577394
0.70371922647841
0.411071885755669
2.21610835816873
0.684011527441391
0.406670786769801
0.302992470232782
2.1872183459305
0.667499227653689
0.399798197832862
0.301393793135095
0.25171399092844
2.1861921725092
0.657386772933116
0.392830454449175
0.298398729022764
0.251059934622456
0.22336479458723
2.19192529557702
0.651401582083409
0.387059836022949
0.294755001183338
0.249516061870709
0.22303194926793
0.206230281984648
2.46684060853353
2.38167823429883
0.718147956561731
2.28699436047023
0.703206889225308
0.410656668581835
2.21610814985818
0.683663038796533
0.406385446755498
0.302750307973939
2.18721838472963
0.667285099559051
0.399633410093899
0.301252450670628
0.251586075740858
2.18619289849398
0.657278762478384
0.3927792293685
0.298356314655738
0.251018265749932
0.223323962337063
2.19192786218321
0.651483755376906
0.387145014216922
0.294822836800863
0.249570877101041
0.223077488864666
0.206269499574712
2.19484646753061
0.64616853975959
0.382420020201015
0.291230474700112
0.247479310197852
0.222207163812276
0.206089473542657
0.195392905025028
2.46684039437156
2.38167833213517
0.71727218221233
2.2869943267126
0.702519346081961
0.410105923449716
2.21610794614919
0.683155432819519
0.405972083008947
0.302403879719242
2.187218095095
0.666937887898618
0.399349425867536
0.301010968777528
0.251371361213036
2.18619313583986
0.657059067076482
0.392613606990144
0.298215412957186
0.250890611123672
0.223205653626427
2.19193113251976
0.651365953295284
0.387091163329799
0.29478046278422
0.249530142905897
0.223037230870593
0.206230355206068
2.19485124577986
0.646242517598194
0.382502826654719
0.291297777081437
0.247535051774125
0.222254958309825
0.206131081300919
0.195430079889184
2.19511969829569
0.639661354481864
0.377887541709807
0.287849039466344
0.245167687723025
0.220925899322698
0.205552889745683
0.195300539395285
0.188322418917318
2.46683762068715
2.38167814435724
0.716199380667895
2.28699443330622
0.701646002216039
0.409413047225085
2.21610788714548
0.682474964963652
0.405423824869266
0.301948990105599
2.18721779875631
0.666435283135053
0.398938936514504
0.300665558969871
0.251067338088517
2.18619267951884
0.656710445084428
0.392330880658975
0.29797485455691
0.250676198768263
0.223009361435567
2.19192961654408
0.651140111421657
0.386924389741104
0.294639969366572
0.249403071986097
0.222919095226949
0.20611920441884
2.19485497839257
0.646114797310234
0.382446187191295
0.291254997044808
0.247494989605406
0.222215707567014
0.206092506684799
0.195392620294397
2.19512467647932
0.639713756640135
0.377967547297845
0.287915347644044
0.245223434017449
0.220974800836685
0.205596746272664
0.195340075666415
0.1883589903697
2.19479800717415
0.631790129262313
0.372830933872321
0.284403489891273
0.242727266660611
0.219331549193005
0.204657157483819
0.194891632709687
0.188248668664913
0.183670050901968
2.46683890081514
2.38167730318641
0.714919853782188
2.28699428172024
0.700576829775532
0.408571718465208
2.21610800963992
0.681611851390604
0.404734166599508
0.301381374947038
2.18721773004287
0.665762230338087
0.398394804047616
0.300212007507624
0.250671097785592
2.18619217794586
0.656208842778123
0.391923274887572
0.29763092221098
0.250372576823624
0.222733307797113
2.19192874745157
0.650788499429309
0.386642195540124
0.294400456240621
0.249189277365208
0.222722902236125
0.205935987261214
2.19485549888589
0.645883042302604
0.3822778307641
0.29111462334273
0.247368525594521
0.222098082808854
0.20598150474907
0.195286840382447
2.19512654388323
0.63957145405198
0.377907738956558
0.28787177194196
0.245183590919369
0.220936371427695
0.205559184311351
0.195303195689062
0.18832305426279
2.19480337290798
0.631655641024032
0.372905841774375
0.284468557627127
0.24278258110573
0.219380765310957
0.204702246750347
0.194933425948455
0.18828758147076
0.18370774998874
2.19479312669761
0.622928736549965
0.367071836658604
0.280707425258523
0.240180399352059
0.217564321253811
0.203505119725385
0.19420900310323
0.187908187289856
0.183609965831232
0.180647121386685
2.46684121378116
2.38167791954801
0.713423365375456
2.28699339051997
0.699301641101018
0.407575913802442
2.21610792389026
0.680555623614407
0.403896925612685
0.300696863288385
2.18721784342113
0.664908009936314
0.397710514281867
0.299646045728572
0.250179614973879
2.18619213716208
0.655538392157992
0.391383321553128
0.297179438953847
0.249976846713697
0.222375379536101
2.19192596129878
0.650285413845308
0.386236420895161
0.294058184365836
0.248886418706427
0.222446952589578
0.205679463715983
2.19485195183521
0.645528639224907
0.381995418789286
0.290875890610027
0.247155463063608
0.221902250856863
0.205798320105677
0.195113066695172
2.19513074634149
0.639333868332729
0.377737539391947
0.2877311503087
0.245057525289856
0.220819322149863
0.205448644772435
0.195197567858369
0.18822105882236
2.1948053915215
0.631458897782607
0.372840982604715
0.284423852005013
0.242742595755055
0.219342791069834
0.20466557133519
0.194897572801541
0.188252236650982
0.183672945340546
2.19479899199238
0.622528194592001
0.367129080975369
0.280770889916266
0.240235129377419
0.217613507803081
0.203550769222969
0.194252140028887
0.187949372680617
0.183649991548808
0.180689565353605
2.19511855608449
0.613148828891339
0.360643494209334
0.276701470821968
0.237521791219643
0.215719350914146
0.202225973238025
0.193351136096174
0.187363481954221
0.183319159640996
0.180601439938185
0.178758795354675
2.46683863087691
2.38169226993365
0.711701170917336
2.28699370251188
0.697810015011999
0.406419565996885
2.21610716667906
0.679295623319243
0.402905997091771
0.299891480172783
2.18721785969832
0.663862591950855
0.396879882334698
0.29896353665629
0.249589891817356
2.18619225169542
0.654688159641504
0.39070440791717
0.296616067502881
0.249485984422055
0.221933331046356
2.19192803365224
0.649614134265523
0.385699291402654
0.293608863653024
0.248491622268647
0.222089127340052
0.205348041309999
2.19484672207836
0.645023999907834
0.381590405585884
0.290534986534737
0.246853522209201
0.221626631855775
0.205541778466383
0.194870508416418
2.19512458989159
0.638977922514698
0.377454653461525
0.287492803535095
0.244845086889709
0.22062396975656
0.205265695241385
0.195023816159657
0.188053883741068
2.19480305404842
0.63120995384449
0.372668351688938
0.284282690917083
0.242616664213269
0.219226190171491
0.20455557795236
0.19479239612354
0.188150405691283
0.183572993618393
2.19480760589549
0.622003272519385
0.367049935807516
0.280724418121281
0.240194774176777
0.217575719203163
0.20351469835467
0.194217232390985
0.187915074749502
0.183615788140167
0.180654547160968
2.19512461210797
0.612613348482968
0.360675608114867
0.276762192483756
0.237575890374109
0.215768442004582
0.20227192979469
0.193395040841125
0.18740610654003
0.183361466667088
0.180646195181746
0.178816938016003
2.19484813698115
0.602322510409297
0.353625199337599
0.272432597270093
0.234786778054773
0.213869007816324
0.200934155088511
0.192441077091218
0.186721590883505
0.182879724943291
0.180354259327292
0.178728145681945
2.46683596259598
2.38167786656821
0.709737207167299
2.287007540379
0.696092474791651
0.405097809679559
2.21610500687094
0.677822082716167
0.401755426405294
0.298961519204004
2.18721621066109
0.662615330637555
0.395896720666537
0.298160484253138
0.248899083058733
2.18619222472061
0.653647301871352
0.389880217115489
0.295936665356977
0.248896975455708
0.221404879579624
2.19192833220119
0.648763542348864
0.385023983418171
0.293048133094694
0.248001852368631
0.221647164485312
0.204939996405285
2.19485126335814
0.644351724134324
0.38105463852984
0.29008750005554
0.246459823299232
0.221269129060065
0.205210295440793
0.194558001994408
2.19511905654044
0.638473595285743
0.377050064226456
0.287152813639204
0.244543986575593
0.220348805117681
0.205009273351184
0.194781213583984
0.187821230239819
2.19479872196384
0.630853480923921
0.372385118311018
0.284044491331558
0.242404646753698
0.21903129233003
0.204372969828699
0.194618833743637
0.187983260011014
0.183409858021346
2.19480538680966
0.621714120120381
0.366871962066259
0.280582344088456
0.240068777466648
0.217459404530563
0.203405181733234
0.194112602445437
0.187813702191198
0.1835160125869
0.18055415773896
2.19513112172946
0.611317695471975
0.360550722483686
0.276711930458041
0.237534943463247
0.215730716798664
0.202236278282477
0.193360858407834
0.187372808926314
0.183328330798167
0.180611783853624
0.178775813661114
2.19485185442383
0.601683489029264
0.353633577725543
0.272489726297349
0.234840182396986
0.213918082672482
0.200980427841989
0.192485572899949
0.186765154735558
0.182923541297921
0.180401313024199
0.17878838466331
0.177773295522552
2.19192791436318
0.590418373274134
0.34619674525216
0.268032907288414
0.232080927854531
0.21210864575887
0.199735229788583
0.191596232247275
0.186104510386662
0.182410334403112
0.18000365697517
0.178521221083692
2.46684226923058
0.707527946282318
2.38166213273328
2.2869940498939
0.694132700527239
0.403605817236724
2.21611184979431
0.676124465662026
0.400439777415934
0.297903820775316
2.18721583701112
0.661156395290976
0.394755063975415
0.297233174440101
0.248104669694815
2.18619105028048
0.652405278095725
0.388904475795383
0.295137184467079
0.248206961991838
0.220787889406993
2.19192993062515
0.647721952088652
0.384203883294415
0.292371922615548
0.247414079940647
0.221118784950552
0.204453591574646
2.19485400328955
0.643499974770742
0.380380980590705
0.289528995795726
0.24597129459651
0.220827467522018
0.204802138080728
0.194174229901343
2.19512419033057
0.637802379681097
0.376515181597135
0.286706594252045
0.244151292928088
0.219991737311527
0.204677819558407
0.194468603989519
0.187522317070217
2.19479328938157
0.630352081570719
0.371981422717673
0.283705195905547
0.242104207126645
0.218756590075286
0.204116752762266
0.194376267700039
0.187750563359624
0.183183851726214
2.19480318386555
0.621356394187726
0.366588207603741
0.280344216465417
0.239857040176125
0.217264874412529
0.203222924939651
0.193939320626333
0.187646734925897
0.18335291441287
0.18039245174307
2.19512681827939
0.610937251493964
0.360358259617302
0.276567893406078
0.237408706222518
0.215614588717336
0.202127151242864
0.193256739943145
0.187271997984232
0.183229028051304
0.180511580908925
0.178670775354053
2.19485570431745
0.599427358816059
0.353413911692321
0.272430564343776
0.234798118913704
0.213880383362039
0.200945154502709
0.192451993182078
0.186732682015107
0.182891452142424
0.180367975543743
0.178747981760718
0.177706625415354
2.19193055418302
0.589769496772596
0.346136976556622
0.268085756790607
0.232133701981458
0.212157861790892
0.199781975228052
0.191641392554183
0.18614890160062
0.182455224180998
0.180052287225079
0.178583545000389
0.17775736030527
0.17725673761497
2.18619294169925
0.577347938468912
0.338525559305315
0.263751292297936
0.229605473556208
0.210596199274327
0.198761045323882
0.190936659434495
0.185629562831936
0.182035168858066
0.179679347175415
0.178248597099873
2.4668438288431
0.705059828701637
2.3816914763307
0.401938914338449
0.691925650535737
2.28696637178866
2.21610824321158
0.674186446238247
0.39895355864991
0.296716096880506
2.18722221389308
0.659474653671019
0.393449179344916
0.296178414426948
0.247204659541979
2.18619348918741
0.650951319431379
0.387771097999691
0.294213865451271
0.247413402864598
0.22008062497698
2.1919261487796
0.646478312357074
0.383232563005717
0.291576011698231
0.246725410874917
0.220501845487499
0.203887229503218
2.1948531043604
0.6424564140488
0.379562481288432
0.288855068613875
0.245384863496185
0.220299349636159
0.20431555671596
0.193717851097605
2.19512936670949
0.636951569568531
0.375842448500941
0.286149521101821
0.243663851659848
0.219550460597346
0.204269592171774
0.194084662246787
0.187156134120311
2.19479882191684
0.629684914564886
0.371448036519865
0.283259994237502
0.24171231490536
0.21839995843089
0.203785376939633
0.194063567438628
0.187451540787842
0.182894508413483
2.19479800618548
0.620860966704936
0.366186341992971
0.280005752205573
0.239557167757377
0.216990583122771
0.202966937731071
0.193696836821552
0.18741404353083
0.183126867953905
0.180170308812037
2.19512477951573
0.610574500033242
0.360072591356454
0.276329670269958
0.237197202635624
0.21542037086108
0.201945217332803
0.193083755907972
0.187105285694886
0.183066106305077
0.180349916706626
0.178507784837548
2.19485330122245
0.59880893588699
0.353189928110424
0.272281941098415
0.23467126572297
0.213764397264328
0.200836387124876
0.192348342344845
0.186632414812473
0.18279272906476
0.180268260892463
0.17864317208788
0.177592334119382
2.19192988002277
0.587095912797485
0.345757271006937
0.268009662026267
0.232089530166455
0.212120130704636
0.199747137782025
0.191608430665767
0.186117174537897
0.18242403733245
0.180020020986919
0.178544287417013
0.177692980580983
0.17719807015264
2.18619500588245
0.576820657087005
0.338453370030117
0.263795296540199
0.22965755642747
0.210645758142351
0.19880850740723
0.190982700646924
0.185674911226496
0.182081078055029
0.179729165511103
0.178312390237259
0.177587560660532
0.1772540205471
0.177144701429824
2.18721907869173
0.563674156617997
0.331046926466938
0.260044711682228
0.22771232587417
0.209593639267426
0.198208784951397
0.190616591149484
0.185424167161508
0.181871982781493
0.179509100120797
0.178049373849932
2.46684253706441
0.702338663619317
2.38168167136367
0.40009480332774
0.689460137560033
2.28700507263454
0.295396695554793
0.39729280202599
0.672000813688761
2.21609060902104
2.18721879214926
0.657555323844558
0.391973253419911
0.294993656618693
0.24619785701861
2.18619594672053
0.649274395701158
0.386474114627619
0.293163395522499
0.246514263162509
0.219281821192249
2.19192946378825
0.645021771134498
0.382103718257141
0.290656531292703
0.245933262300449
0.219794551472823
0.203239645529474
2.19484674775684
0.641209251069378
0.378592451036031
0.288061461420771
0.244697558619721
0.219682607656077
0.20374893734246
0.193187666501324
2.19512418391961
0.635907846414047
0.375024494085229
0.285476977358503
0.243078468616786
0.219022629281911
0.203782817555473
0.193628036938514
0.186721647592821
2.19480428773884
0.628838375916971
0.370776820876366
0.28270400184712
0.241225681911844
0.217959025135081
0.203377075080223
0.193679399160839
0.187085181785305
0.18254103106425
2.19480374182143
0.620201688474472
0.365655838228238
0.279561818182171
0.239165997782792
0.216634335311417
0.202635644182623
0.193384031275246
0.187114878160551
0.1828374139964
0.179887363030527
2.1951198105926
0.610088696949416
0.359673626038577
0.275992421742351
0.236897974703803
0.215146474480997
0.201689452895866
0.192841359631924
0.186872608167077
0.182840045174032
0.180127730380051
0.178287188690181
2.19485167696793
0.598420083787249
0.352898689978692
0.272042991731991
0.234459944984308
0.213570498488091
0.200654770432787
0.192175646937314
0.186465965251086
0.182630043641895
0.180106772618936
0.178480231006348
0.177426399516582
2.19192784839133
0.585337221235049
0.345464948481692
0.267851663447285
0.231961312024125
0.212004217472965
0.199638756207495
0.191505256822522
0.186017426951901
0.182325879891244
0.179920897887563
0.178440016167103
0.177579183891621
0.177083648074452
2.18619346582451
0.57384980009719
0.337900387779288
0.263691611923262
0.229609546823018
0.210607804650263
0.198774195654307
0.190950468253054
0.185643982173493
0.182050743286012
0.179697850704726
0.178274238383355
0.17752544048145
0.177197678072669
0.177092215259691
2.18721905677796
0.563499825021717
0.330993068057453
0.260076989273319
0.227763179935745
0.209643666403521
0.198257247339727
0.190663818605168
0.185470741759859
0.181919092540743
0.179560097413056
0.178114362317572
0.177384391337823
0.177116631951466
0.177153870553072
0.177319668820012
2.2161092742595
0.552057654197147
0.325049080787353
0.257816539174812
0.227028259916553
0.209537435774082
0.198387914928764
0.190861392507136
0.185657042821984
0.182052986270798
0.179611898358793
0.178055124146446
2.46683911286069
0.699378013555962
2.3816796034234
0.39807552565307
0.686737873233674
2.28699776642828
0.293945697020609
0.395455125486703
0.669564149317483
2.21610696348779
0.245084058990875
0.293677283742607
0.390323189780937
0.655389798474276
2.18721371618764
2.18619328609255
0.647360494017278
0.385007601162243
0.291983104661168
0.245508288406764
0.218390967290805
2.19193396671431
0.643340003237751
0.380811162726057
0.289610005278127
0.245035508920934
0.218995617758265
0.202510115980833
2.19485240952263
0.639747834697601
0.377464297265174
0.287144286148412
0.243906694608501
0.218975381016929
0.203100989118532
0.192582778283132
2.19511928563004
0.634659163518194
0.37405431250747
0.284684480986794
0.24239205545424
0.218406013986869
0.203215850392341
0.193097504825714
0.186217929229246
2.19479898289547
0.627798021332034
0.369959923872746
0.282032324214467
0.240640951288791
0.217431354224678
0.202890024336462
0.193222388062544
0.186650430760574
0.182122564062344
2.1948092905844
0.619363487973067
0.3649877591986
0.279007184438706
0.238680060181602
0.216193653704366
0.202227220167295
0.192999544329189
0.186748221403995
0.182483750752758
0.179542849688614
2.19512548417959
0.609442649293149
0.359147989758968
0.275550457197927
0.236507689002161
0.214790610646541
0.201358223029379
0.192528411390832
0.186573225814482
0.182550411024251
0.179844663544455
0.178008161103468
2.19484905933732
0.597946295090519
0.352503610416129
0.271707435988568
0.234161576530716
0.213297068776128
0.20039923950228
0.191933325197401
0.186233271500029
0.182403939760894
0.179884548890477
0.1782595833652
0.1772059372476
2.1919284360264
0.584751624992685
0.345157723116136
0.267610521047214
0.231749927510341
0.211810666492746
0.199457490426692
0.191332857910192
0.185851223516812
0.182163417073497
0.179759625305172
0.178277259943096
0.177413338735684
0.176916988632002
2.18619093755697
0.57169256468758
0.337423308062647
0.263515801452479
0.229478598927787
0.210491760549879
0.198666231688948
0.190847828522448
0.185544777963365
0.181953129416781
0.179599296721095
0.178170584503419
0.177412506570597
0.177083805663272
0.176979579546053
2.18721821276561
0.560336739810415
0.330363253854986
0.259938787662755
0.22770887109006
0.209605013268134
0.198223494190119
0.19063246585088
0.185440753910226
0.181889685429641
0.179529705435903
0.178077192956231
0.1773238318914
0.177062613532354
0.177103684823537
0.177269707438509
2.21610890975852
0.552584718832285
0.325058035585084
0.257852156165699
0.227077339549627
0.209587792680954
0.198437596332479
0.190910154989799
0.185705202585916
0.182101613304185
0.179664299906779
0.178121387853141
0.17729476840972
0.176973584906865
0.177045080272485
0.177339226629201
0.177687568324117
2.28699538146645
0.548880752190722
0.324076718430972
0.259011888473722
0.22874367170202
0.211180965573732
0.199798794163016
0.192016201552748
0.186573731953685
0.182756970717342
0.180123678973845
0.178386423477643
0.696172621980988
2.38167615227496
0.395887878218051
0.683784046862844
2.28699604307766
0.292365274672109
0.393441898976324
0.666873307291541
2.21611090142735
0.243864469950566
0.292229239428978
0.388496855507848
0.6529752903156
2.18721700268632
0.217408726139074
0.244395216173663
0.290671136435854
0.383367196876105
0.645200696461926
2.18618954965512
2.19192944467223
0.641420317484397
0.379348811589442
0.288433514034033
0.244030789072065
0.21810452749836
0.201698723618232
2.19485809397211
0.638058947398237
0.376171478025571
0.286099783725952
0.243010065759349
0.218176327262767
0.202370958705011
0.191902875778848
2.19512523435617
0.633194865969996
0.372925027451025
0.283767698912558
0.241601795389331
0.217698655065724
0.202567352377803
0.19249215766099
0.18564439261772
2.19479380894899
0.626551612985264
0.368989991787042
0.28124022660398
0.239954858736228
0.216814610682678
0.202322516734238
0.192691277406236
0.186146350105567
0.18163838606384
2.19480393953053
0.618331022044032
0.364173631141593
0.278336612957637
0.238095791489168
0.215665973016886
0.201739761946024
0.192541955336518
0.186312992084422
0.182065009404477
0.179135981168919
2.19513090795769
0.608618913233529
0.358485402214779
0.274998053845912
0.236022643528457
0.21435016450699
0.200949611961688
0.192143493610197
0.186206096777057
0.182196394493563
0.179499947403908
0.177669722518804
2.19485431366289
0.597319890109239
0.351985468609204
0.271268495331758
0.233772578193373
0.212941709177484
0.200068081850364
0.191620185754194
0.18593356966377
0.182113994081642
0.179601258261233
0.177980416459472
0.176929091188681
2.19192840437474
0.584256214583336
0.344765855568597
0.267277098956041
0.231452638374672
0.211537850290336
0.199202246834509
0.191090607540988
0.185618465418949
0.181937193297016
0.179537298118648
0.178056548697819
0.177192817628029
0.176696630978622
2.18619035161078
0.570492788541351
0.337064642275187
0.26326919443374
0.229266728473449
0.210298516959114
0.198485358327229
0.190675756259777
0.185378814857692
0.181790848013795
0.179438193982704
0.17800802618145
0.177246907930433
0.176917242541132
0.176813164539718
2.18721384409991
0.557878477712676
0.32977400952756
0.259729925220673
0.22757291208503
0.209488342203346
0.198115894499001
0.1905304182814
0.18534215482017
0.18179263533321
0.179431686816302
0.177974102741922
0.177211704474111
0.176949685703637
0.176991599201515
0.177158046211499
2.21610749982241
0.549316349252064
0.324373525484962
0.257676325456875
0.22701426162935
0.209547467957723
0.198404229378862
0.190879786256463
0.185676333783723
0.182073293624362
0.179634921058256
0.178085180900478
0.177235333858634
0.176921142076805
0.176997175867049
0.177291555411063
0.177637824307609
2.28699558541227
0.550454225290838
0.324189558084611
0.2590592190428
0.228790161030198
0.211231196660643
0.199849653253011
0.192066793270025
0.186623886597984
0.182807523595214
0.180177847589693
0.17845425598716
0.177453789521201
0.176978291353962
0.176954447846552
0.177255187933077
0.177716090879295
0.178175109915079
2.38167955402928
0.575259017201508
0.338447344023113
0.268448083398238
0.235321235972395
0.2159108068762
0.203286892910366
0.194628955564098
0.188545792695985
0.184244158983958
0.181230674961102
0.179182300819635
0.393535497751641
0.680599064710369
2.28699263701049
0.290660404659321
0.391261792141134
0.663963555053014
2.21611216634959
0.242542091898686
0.290651568925489
0.386496223728151
0.650312687564921
2.18722095953295
0.21633716630959
0.243176145447625
0.289227274212463
0.381550773085903
0.642792918637699
2.18619082549136
0.200806698349964
0.21712184837245
0.24291869097874
0.287125184566155
0.377712024878247
0.639254143230118
2.19192394282371
2.19485348474157
0.636130000858174
0.37470772562171
0.284924763234653
0.242006070125508
0.217284849681777
0.201558892787275
0.1911484789682
2.19513150130458
0.631501295311496
0.371629650614984
0.282722966170132
0.240705310671556
0.216899103195568
0.201836510703261
0.191811648423814
0.185001023932105
2.19479968561379
0.625088186270286
0.367859812876295
0.280323173720925
0.239164376750516
0.216106693130387
0.201673130299581
0.192085119624049
0.185572331262618
0.181088123273084
2.19479860741361
0.617091669896188
0.36320568211494
0.277545069248398
0.237409708623443
0.215048805356701
0.201171456888725
0.192009947115631
0.185808223220264
0.181580454359424
0.178666153118333
2.19512558481951
0.607600778211412
0.357676703834797
0.274329541390617
0.235439021119808
0.213822403924933
0.200461615143307
0.191685110295142
0.18577009554281
0.181777103694535
0.179092782395849
0.177271038523829
2.19485531460617
0.596516301080893
0.351331635779623
0.270719680354162
0.233288944148065
0.212501637790178
0.19965926760955
0.191234727080606
0.18556576606397
0.181759373545118
0.179256126096228
0.177641748505052
0.176594547233156
2.19193125464139
0.583636726593798
0.344257772362959
0.26684255758478
0.23106547196386
0.211183236168442
0.198871227025366
0.190777242903616
0.185318333394947
0.181646760620318
0.179253595737215
0.177777104923986
0.176915808897893
0.176420959939902
2.18619245123398
0.569645227451233
0.336664772745778
0.262937821266602
0.228970846520695
0.210026467399615
0.198230478823309
0.190433589220669
0.185145946682696
0.181564403060809
0.179215631781464
0.177787144317935
0.177026300641387
0.176696810412955
0.17659286025716
2.18721386158079
0.556451221022098
0.329305281048013
0.259470375629207
0.227359534768837
0.209295184541284
0.197935382314743
0.190358686750679
0.185176432277491
0.181630498373008
0.179270673505136
0.177811650972172
0.177046321195229
0.176783377027197
0.176825269749879
0.176991618590829
2.21610229245698
0.546471968051588
0.323713669731142
0.257428240719237
0.226870063461963
0.209429141507992
0.198296702603128
0.190778298531606
0.185578390130056
0.181976856133536
0.179537440286665
0.177982591635867
0.177123821321887
0.176809059053453
0.176886026036824
0.177180434075491
0.177525911661537
2.28700593835545
0.547126377785766
0.323460075860046
0.258866946218192
0.228716023674454
0.211187759419098
0.199816049200892
0.192037313921459
0.186596266831116
0.18278047977585
0.180149649618201
0.178419104511607
0.177395352899033
0.176926950297475
0.176908066789998
0.177209767286837
0.177668632715186
0.178124223022166
2.38168145625283
0.577601856984218
0.338628534160188
0.26850303767859
0.235367287324736
0.215959648812211
0.20333833715587
0.194681426669276
0.188598316966244
0.184297108130466
0.18128707191366
0.179252128615482
0.177983667335267
0.177268720670416
0.177040827058027
0.177209775459067
0.177653240173279
0.178211290421567
0.178725192034923
3.68516517047986
0.825877601118543
0.406881234664222
0.299336725093264
0.252425134591552
0.22651137662968
0.210376509096536
0.19961170406805
0.192156454389681
0.186905759553358
0.183204055704706
0.180634720598214
0.288838443314914
0.388918694523911
0.660841780908535
2.21610428102563
0.241122423762109
0.288949389402136
0.384331504443959
0.647439939833335
2.18722160490384
0.215180210792578
0.241853964259559
0.287653507874702
0.379560533935194
0.640140734402396
2.18619347792412
0.199836822607015
0.21604955718146
0.241700123077301
0.285684292388297
0.375898705252062
0.636838550443189
2.19192630107263
0.19032131072752
0.200665965099261
0.216301377683878
0.240894098513679
0.283617060196971
0.373068153559903
0.63395321046041
2.19484951396594
2.19512709796093
0.629566064492019
0.370161610593122
0.281546691818816
0.239700732949698
0.216006602147551
0.201023291866164
0.191056462871308
0.18428870175413
2.19480800854518
0.623394187512217
0.366562049840757
0.279276914464092
0.23826692355193
0.215305981809942
0.200940945411739
0.191403508597603
0.184928339201234
0.180472017425171
2.19480421378859
0.615634928629162
0.362076330615852
0.276627729437676
0.236618557633068
0.214339871128507
0.200520754574709
0.191402494578863
0.185233266410254
0.181029697351835
0.178133157535602
2.19512025608535
0.606374688890075
0.356713472183652
0.2735395234668
0.234753089591959
0.213204641045124
0.199892264024086
0.191151847478619
0.185264197405785
0.181291773616153
0.178622551533792
0.176811558401265
2.19485207565669
0.595518002685401
0.350531834051462
0.270054763571555
0.232706544614012
0.211973924398608
0.199170655203145
0.19077534708479
0.185128662607133
0.181339143203677
0.178848331118545
0.177242733910727
0.176201392321176
2.19193118340958
0.582844532632199
0.3436162502435
0.266299124567245
0.230584019266747
0.210743838933638
0.198462269045246
0.190391162375191
0.184949654997226
0.181291235618208
0.178907721230422
0.177437945479599
0.176581002180495
0.176088707612279
2.18619365611158
0.568822552464406
0.336163560834331
0.262509111276603
0.228586264547232
0.209672900023113
0.197899703101429
0.19011998429482
0.18484528013298
0.181273291288902
0.178931264511165
0.177507176805067
0.176748954419018
0.176420948573389
0.176317609525024
2.18721698531951
0.555549085963977
0.328847046087136
0.259138939426733
0.227065115397259
0.209023972280809
0.197680894630046
0.190116595870831
0.184943402965942
0.18140372403384
0.179047710064611
0.177590405325584
0.176825475163784
0.176562819438413
0.176604868977243
0.176770937325206
2.21610342175294
0.544748863087409
0.323201990481056
0.257143286646986
0.226653346740911
0.209235438132412
0.198116310012894
0.190606817688216