/*--------------------------------*- C++ -*----------------------------------*\
  =========                 |
  \\      /  F ield         | OpenFOAM: The Open Source CFD Toolbox
   \\    /   O peration     | Website:  https://openfoam.org
    \\  /    A nd           | Version:  12
     \\/     M anipulation  |
\*---------------------------------------------------------------------------*/
/*   Windows 32 and 64 bit porting by blueCAPE: http://www.bluecape.com.pt   *\
|  Based on Windows porting (2.0.x v4) by Symscape: http://www.symscape.com   |
\*---------------------------------------------------------------------------*/
FoamFile
{
    format      ascii;
    class       volScalarField;
    location    "400";
    object      p;
}
// * * * * * * * * * * * * * * * * * * * * * * * * * * * * * * * * * * * * * //

dimensions      [0 2 -2 0 0 0 0];

internalField   nonuniform List<scalar> 
10140
(
83333.3368387367
83333.3369253772
83333.3368385069
83333.3368380539
83333.3370132386
83333.3369250499
83333.3369246692
83333.3368379389
83333.3368377256
83333.3368362139
83333.3371025281
83333.3370128308
83333.3370126353
83333.3369243612
83333.3369242459
83333.3369228137
83333.3368369655
83333.3368370939
83333.3368357696
83333.3368327611
83333.3371930817
83333.337102106
83333.3371019686
83333.3370120581
83333.3370121678
83333.3370108872
83333.3369232644
83333.3369234945
83333.3369222826
83333.336919385
83333.3368355498
83333.3368360748
83333.3368350275
83333.3368321781
83333.3368273778
83333.3372848042
83333.3371926537
83333.3371925415
83333.3371013007
83333.3371015071
83333.3371003035
83333.33701086
83333.3370113564
83333.3370103259
83333.3370075572
83333.3369217172
83333.336922349
83333.3369214306
83333.3369187138
83333.3369140054
83333.3368336834
83333.3368346313
83333.3368339409
83333.3368313332
83333.3368267607
83333.3368199578
83333.3373776604
83333.3372843619
83333.3372842751
83333.337191818
83333.3371920818
83333.3371909379
83333.3371000358
83333.3371006746
83333.3370997608
83333.3370970628
83333.3370091879
83333.3370101233
83333.3370094356
83333.3370068717
83333.3370022084
83333.3369197057
83333.3369207701
83333.3369202136
83333.3369177573
83333.3369132926
83333.3369065616
83333.3368313892
83333.3368327549
83333.3368324634
83333.3368301723
83333.3368258317
83333.3368193646
83333.3368105989
83333.3374716618
83333.3373771956
83333.3373771415
83333.3372834856
83333.3372838054
83333.337282717
83333.3371904875
83333.3371912237
83333.3371904033
83333.3371877755
83333.3370982609
83333.3370993826
83333.3370988588
83333.3370963911
83333.3370917652
83333.3370070277
83333.3370084274
83333.3370081429
83333.3370058842
83333.3370014831
83333.3369947573
83333.3369172498
83333.3369187455
83333.3369185925
83333.3369164594
83333.3369122515
83333.3369058792
83333.33689716
83333.3368287101
83333.336830461
83333.3368305729
83333.3368286416
83333.3368246195
83333.3368184165
83333.3368100402
83333.3367994334
83333.3375668438
83333.3374711675
83333.3374711599
83333.3373762674
83333.3373766538
83333.3373756285
83333.3372820787
83333.3372829105
83333.3372821793
83333.337279632
83333.3371886089
83333.337189871
83333.3371894821
83333.3371871101
83333.3371825516
83333.3370959635
83333.3370975886
83333.3370975167
83333.3370953981
83333.3370910414
83333.3370843251
83333.3370044004
83333.3370062585
83333.3370064092
83333.3370045142
83333.3370004134
83333.336994061
83333.3369853193
83333.3369143917
83333.3369162878
83333.3369165463
83333.3369147762
83333.3369109006
83333.3369048192
83333.3368965223
83333.3368859233
83333.3368256956
83333.3368277843
83333.3368282725
83333.3368267059
83333.3368230354
83333.3368171852
83333.336809133
83333.3367989143
83333.3367865908
83333.3376632512
83333.3375663122
83333.3375663679
83333.337470175
83333.3374706464
83333.3374697042
83333.3373747698
83333.3373757107
83333.3373750763
83333.3373726333
83333.3372800846
83333.337281485
83333.3372812266
83333.3372789628
83333.3372745062
83333.3371861711
83333.3371879768
83333.3371880861
83333.3371860998
83333.3371818136
83333.3371751506
83333.3370931703
83333.3370952854
83333.3370956912
83333.337093982
83333.3370899681
83333.3370836231
83333.3370748651
83333.3370013504
83333.3370036333
83333.3370042197
83333.3370027193
83333.3369989906
83333.336992972
83333.3369846665
83333.3369740132
83333.3369111813
83333.3369134306
83333.3369140773
83333.3369126761
83333.3369091571
83333.336903448
83333.3368955018
83333.33688534
83333.3368729791
83333.3368223973
83333.336824768
83333.3368255878
83333.3368243575
83333.3368210361
83333.3368155599
83333.3368079058
83333.3367980709
83333.3367861394
83333.3367722485
83333.337760938
83333.3376626724
83333.3376628108
83333.3375652413
83333.3375658212
83333.3375649852
83333.3374685692
83333.3374696429
83333.3374691284
83333.3374668163
83333.3373726425
83333.337374197
83333.3373740792
83333.3373719501
83333.3373676281
83333.3372774927
83333.3372794769
83333.3372797639
83333.337277922
83333.3372737418
83333.3372671751
83333.3371832064
83333.3371855343
83333.3371861643
83333.3371846318
83333.3371807256
83333.3371744222
83333.33716569
83333.3370899314
83333.3370924959
83333.3370933683
83333.3370920961
83333.3370884963
83333.3370825261
83333.3370742002
83333.3370634961
83333.3369979294
83333.337000588
83333.3370015829
83333.3370004749
83333.3369971329
83333.3369915267
83333.3369836154
83333.3369734196
83333.3369609642
83333.3369076689
83333.3369102164
83333.3369112089
83333.3369101513
83333.3369069844
83333.3369016574
83333.336894132
83333.33688438
83333.3368724654
83333.3368584819
83333.3368188726
83333.3368214617
83333.3368225562
83333.3368216128
83333.3368186084
83333.3368134945
83333.3368062499
83333.3367968561
83333.3367853479
83333.3367718478
83333.3367565542
83333.3378599668
83333.3377603036
83333.3377605461
83333.3376615078
83333.3376622259
83333.337661524
83333.3375635068
83333.3375647444
83333.3375643827
83333.3375622298
83333.3374662873
83333.3374680263
83333.3374680752
83333.3374661136
83333.3374619539
83333.3373698758
83333.3373720565
83333.3373725334
83333.3373708641
83333.3373668335
83333.3373604018
83333.337274341
83333.3372768806
83333.3372777321
83333.3372763875
83333.3372726248
83333.3372664094
83333.3372577456
83333.3371797723
83333.3371825732
83333.3371837036
83333.3371826495
83333.3371791958
83333.337173306
83333.3371649952
83333.3371542738
83333.3370863042
83333.3370892632
83333.3370905652
83333.337089717
83333.3370865434
83333.3370810258
83333.3370731378
83333.3370628952
83333.3370503482
83333.3369941909
83333.3369971681
83333.3369985258
83333.3369977783
83333.33699481
83333.3369896159
83333.3369821666
83333.3369724245
83333.3369604404
83333.3369463139
83333.3369039078
83333.3369066937
83333.3369079771
83333.3369072163
83333.3369043703
83333.3368994088
83333.3368923045
83333.3368830178
83333.3368715558
83333.3368580149
83333.3368425535
83333.3368151812
83333.3368179184
83333.336819222
83333.3368185015
83333.3368157642
83333.3368109771
83333.3368041217
83333.3367951782
83333.3367841453
83333.3367710937
83333.3367561892
83333.3367396803
83333.33796041
83333.3378592653
83333.3378596433
83333.3377590286
83333.3377599146
83333.3377593858
83333.3376596237
83333.3376610623
83333.3376608916
83333.3376589425
83333.337561043
83333.3375630053
83333.3375632633
83333.3375615077
83333.3375575502
83333.3374633201
83333.3374657323
83333.3374664281
83333.3374649704
83333.3374611345
83333.3374548765
83333.3373665138
83333.3373692852
83333.337370372
83333.3373692455
83333.3373656701
83333.3373595936
83333.3373510321
83333.3372706951
83333.3372737314
83333.3372751182
83333.3372742932
83333.3372710208
83333.3372652593
83333.3372570092
83333.337246307
83333.3371759332
83333.3371791445
83333.3371807253
83333.3371801286
83333.3371771403
83333.3371717393
83333.3371639076
83333.3371536494
83333.337141039
83333.3370823477
83333.3370856387
83333.337087317
83333.3370868496
83333.3370840792
83333.3370790114
83333.3370716265
83333.3370618827
83333.3370498176
83333.3370355537
83333.3369901898
83333.3369934231
83333.3369950869
83333.3369946491
83333.3369920158
83333.3369872075
83333.3369802107
83333.3369709765
83333.336959491
83333.3369458357
83333.3369301772
83333.336899965
83333.3369029156
83333.3369044245
83333.3369038992
83333.3369013251
83333.336896692
83333.3368899827
83333.3368811604
83333.3368701986
83333.3368571387
83333.336842107
83333.3368253327
83333.3368113944
83333.3368141974
83333.3368156324
83333.3368150621
83333.3368125285
83333.3368080184
83333.3368015149
83333.3367929983
83333.3367824538
83333.3367699065
83333.3367554676
83333.3367393532
83333.338062347
83333.3379596292
83333.3379601761
83333.3378578618
83333.3378589658
83333.3378586508
83333.3377569703
83333.3377586554
83333.3377587196
83333.337757033
83333.3376569491
83333.3376591801
83333.3376596948
83333.3376581964
83333.3376544975
83333.3375578441
83333.3375605356
83333.3375614963
83333.3375602977
83333.337556707
83333.3375506666
83333.3374597179
83333.3374627603
83333.337464114
83333.3374632489
83333.3374599117
83333.3374540277
83333.337445611
83333.3373626304
83333.3373659246
83333.3373675825
83333.3373670174
83333.337363975
83333.3373583957
83333.337350261
83333.3373396098
83333.3372666274
83333.3372700885
83333.3372719489
83333.3372716135
83333.337268845
83333.3372636085
83333.3372558809
83333.3372456501
83333.337233004
83333.3371717546
83333.3371753064
83333.3371772753
83333.3371770801
83333.337174526
83333.3371696121
83333.3371623205
83333.3371526047
83333.3371404872
83333.3371261094
83333.3370781241
83333.3370816772
83333.3370836681
83333.3370835212
83333.3370811045
83333.3370764504
83333.3370695563
83333.3370603636
83333.3370488444
83333.3370350689
83333.3370192213
83333.3369859942
83333.336989408
83333.3369913101
83333.3369911186
83333.3369887656
83333.3369842978
83333.3369777173
83333.3369689807
83333.3369580405
83333.336944915
83333.3369297177
83333.3369126698
83333.3368959236
83333.3368989431
83333.3369005988
83333.336900237
83333.3368978728
83333.3368935178
83333.336887163
83333.3368787756
83333.3368683178
83333.3368557853
83333.3368412463
83333.336824903
83333.3368070365
83333.3368076131
83333.3368103662
83333.3368118402
83333.3368113347
83333.3368089331
83333.336804642
83333.3367984442
83333.3367903173
83333.3367802392
83333.3367682136
83333.336754305
83333.3367386782
83333.3381658723
83333.3380622301
83333.3380614712
83333.3379580745
83333.3379594433
83333.3379594086
83333.3378555998
83333.3378575935
83333.3378579484
83333.3378565957
83333.3377540525
83333.3377566084
83333.3377574341
83333.3377562587
83333.3377528923
83333.3376534809
83333.337656506
83333.3376577895
83333.3376569096
83333.3376536305
83333.3376478735
83333.3375539667
83333.3375573316
83333.3375590037
83333.3375584543
83333.3375554143
83333.3375497865
83333.3375415687
83333.337455564
83333.3374591582
83333.3374611209
83333.3374608623
83333.337458106
83333.3374527656
83333.3374448058
83333.3374342492
83333.3373583069
83333.3373620417
83333.3373641987
83333.3373641544
83333.337361656
83333.3373566415
83333.3373490736
83333.3373389213
83333.3373262666
83333.3372622103
83333.3372660179
83333.3372682779
83333.3372683653
83333.3372660609
83333.3372613489
83333.3372541993
83333.3372445543
83333.3372324224
83333.3372179497
83333.337167305
83333.3371711202
83333.3371734049
83333.3371735399
83333.3371713585
83333.3371668877
83333.3371601249
83333.3371510004
83333.3371394726
83333.3371256033
83333.3371095866
83333.3370737046
83333.3370774378
83333.3370796677
83333.3370797703
83333.337077642
83333.3370733457
83333.3370668964
83333.3370582417
83333.3370473152
83333.3370341179
83333.3370187576
83333.3370014634
83333.3369816899
83333.3369851871
83333.3369872452
83333.3369872248
83333.336985087
83333.3369809033
83333.33697469
83333.3369664109
83333.3369560103
83333.3369434596
83333.3369288069
83333.3369122092
83333.3368939562
83333.3368918977
83333.3368948475
83333.3368965532
83333.3368962711
83333.3368940454
83333.3368899094
83333.3368838611
83333.3368758672
83333.3368658853
83333.3368538904
83333.3368398985
83333.3368240602
83333.336806632
83333.3367876859
83333.3368039884
83333.3368065123
83333.3368079068
83333.3368073637
83333.336805016
83333.336800879
83333.3367949356
83333.3367871559
83333.3367775085
83333.336765985
83333.3367526279
83333.336737559
83333.3382711205
83333.338165908
83333.3381648853
83333.3380617586
83333.3380614337
83333.3380597397
83333.3379555745
83333.3379579416
83333.3379586665
83333.3379577403
83333.3378523967
83333.3378553525
83333.3378565614
83333.3378557913
83333.3378528499
83333.3377502711
83333.3377536922
83333.3377553699
83333.3377548843
83333.3377520006
83333.3377466129
83333.3376492838
83333.3376530347
83333.3376550894
83333.3376549244
83333.3376522559
83333.3376469609
83333.337639016
83333.3375495037
83333.3375534518
83333.3375557741
83333.3375558827
83333.3375534774
83333.3375484453
83333.3375407272
83333.3375303226
83333.3374509492
83333.3374550022
83333.3374574901
83333.3374577858
83333.3374556168
83333.3374508887
83333.3374435418
83333.3374335243
83333.3374209013
83333.3373536245
83333.3373577112
83333.3373602804
83333.3373606798
83333.3373586751
83333.3373542244
83333.3373472763
83333.3373377533
83333.3373256509
83333.3373111051
83333.3372575192
83333.3372615885
83333.3372641666
83333.3372645926
83333.3372626792
83333.3372584395
83333.3372518568
83333.3372428449
83333.3372313462
83333.3372174136
83333.337201239
83333.3371626602
83333.3371666511
83333.3371691706
83333.3371695542
83333.3371676687
83333.3371635737
83333.3371572857
83333.3371487394
83333.3371378505
83333.3371246041
83333.3371091021
83333.3370915766
83333.337069171
83333.3370729894
83333.3370753701
83333.3370756407
83333.3370737268
83333.3370697217
83333.337063657
83333.3370554901
83333.3370451469
83333.3370325776
83333.3370178141
83333.3370010042
83333.3369824138
83333.3369773918
83333.336980834
83333.3369829479
83333.3369830142
83333.3369810162
83333.3369770519
83333.3369711507
83333.3369632786
83333.3369533785
83333.3369414031
83333.3369273467
83333.336911297
83333.3368935019
83333.3368741782
83333.3368880537
83333.3368907249
83333.3368923478
83333.3368920448
83333.336889881
83333.3368858991
83333.3368801035
83333.3368724574
83333.3368629115
83333.3368514294
83333.3368380018
83333.3368227327
83333.3368058261
83333.3367873068
83333.3367672773
83333.3368007244
83333.3368027712
83333.3368039003
83333.3368032029
83333.3368008189
83333.3367967689
83333.3367910241
83333.3367835447
83333.3367742882
83333.3367632335
83333.3367504098
83333.3367359202
83333.3383783696
83333.3382713481
83333.3382700267
83333.3381657858
83333.3381650405
83333.3381629525
83333.3380605778
83333.3380609732
83333.3380597829
83333.3380569633
83333.3379520363
83333.3379554754
83333.3379571646
83333.337956904
83333.3379545059
83333.3378482496
83333.3378521521
83333.337854311
83333.3378543175
83333.3378519322
83333.3378470239
83333.3377457017
83333.3377499094
83333.3377524268
83333.3377527344
83333.3377505303
83333.3377456664
83333.3377380883
83333.3376444617
83333.3376488335
83333.3376515856
83333.3376521366
83333.3376501654
83333.3376455274
83333.3376381346
83333.3376279557
83333.3375445555
83333.3375489824
83333.3375518575
83333.3375525573
83333.3375507883
83333.3375464232
83333.3375393715
83333.3375295552
83333.3375170167
83333.3374459635
83333.337450376
83333.3374532902
83333.3374540503
83333.3374524062
83333.337448285
83333.3374416069
83333.3374322679
83333.3374202441
83333.3374056573
83333.3373486659
83333.3373530105
83333.3373558999
83333.3373566458
83333.3373550491
83333.3373511001
83333.3373447596
83333.337335917
83333.3373244947
83333.337310532
83333.3372942138
83333.3372526354
83333.3372568728
83333.3372596789
83333.3372603506
83333.3372587386
83333.3372548919
83333.337248814
83333.3372404218
83333.3372296102
83333.3372163468
83333.3372007242
83333.3371829714
83333.3371579052
83333.3371619721
83333.3371646329
83333.3371651758
83333.3371634999
83333.3371597025
83333.3371538174
83333.3371457909
83333.3371355301
83333.3371229642
83333.3371081082
83333.3370910998
83333.3370721991
83333.3370646367
83333.3370684074
83333.3370708347
83333.3370711834
83333.3370694019
83333.3370656138
83333.3370598683
83333.337052127
83333.3370423173
83333.3370303713
83333.3370162632
83333.3370000607
83333.3369819542
83333.3369622137
83333.3369732732
83333.3369764367
83333.3369784782
83333.3369785319
83333.3369765951
83333.3369727803
83333.3369671313
83333.3369596126
83333.3369501634
83333.3369387276
83333.3369252745
83333.3369098341
83333.3368925989
83333.3368737377
83333.3368533595
83333.3368846041
83333.3368867172
83333.3368880554
83333.3368876122
83333.3368854238
83333.3368815279
83333.3368759272
83333.3368685787
83333.3368594249
83333.336848418
83333.3368355339
83333.3368208548
83333.336804538
83333.3367865442
83333.3367669213
83333.3367459264
83333.3367980772
83333.3367993451
83333.3367999293
83333.3367989165
83333.3367963951
83333.3367923607
83333.3367867559
83333.3367795255
83333.3367706152
83333.336759991
83333.3367476682
83333.3367337389
83333.3384876847
83333.3383787987
83333.338377224
83333.3382716351
83333.3382704055
83333.3382678806
83333.3381652154
83333.3381649572
83333.3381632171
83333.3381598562
83333.338058001
83333.3380597108
83333.3380593386
83333.3380570549
83333.3380530326
83333.3379474585
83333.3379519426
83333.3379546974
83333.3379553182
83333.3379535589
83333.3379492681
83333.3378432453
83333.3378479997
83333.3378510851
83333.337851976
83333.3378503523
83333.3378460415
83333.3378389485
83333.3377404608
83333.3377453343
83333.3377486027
83333.3377496925
83333.3377482606
83333.3377441241
83333.3377371614
83333.3377273035
83333.3376391278
83333.3376440014
83333.337647338
83333.3376485214
83333.3376472414
83333.3376433342
83333.3376366703
83333.3376271389
83333.337614753
83333.3375392225
83333.3375440171
83333.337547334
83333.3375485194
83333.337547309
83333.3375435994
83333.3375372742
83333.3375281947
83333.3375163103
83333.3375017262
83333.3374406994
83333.3374453664
83333.3374486022
83333.3374497173
83333.3374484982
83333.3374449094
83333.3374388841
83333.33743028
83333.3374189913
83333.337405038
83333.3373885968
83333.3373435188
83333.3373480206
83333.3373511302
83333.3373521171
83333.3373508253
83333.3373472855
83333.3373414804
83333.3373333023
83333.3373226201
83333.337309379
83333.3372936576
83333.337275682
83333.3372476494
83333.3372519492
83333.3372548827
83333.3372557008
83333.3372542911
83333.3372507465
83333.3372450892
83333.3372372496
83333.3372271126
83333.337214584
83333.3371996588
83333.3371824632
83333.3371632542
83333.3371531557
83333.3371571632
83333.3371598563
83333.3371604594
83333.3371589031
83333.337155318
83333.3371497582
83333.3371421775
83333.3371324856
83333.3371205935
83333.3371064519
83333.3370901064
83333.3370717256
83333.3370515783
83333.3370602683
83333.3370637782
83333.3370661249
83333.3370664488
83333.3370647146
83333.3370610662
83333.3370555702
83333.3370481901
83333.337038852
83333.337027482
83333.3370140302
83333.3369985024
83333.3369810112
83333.3369617609
83333.3369409351
83333.336969536
83333.3369721337
83333.3369739052
83333.3369738312
83333.3369718705
83333.3369681346
83333.3369626741
83333.3369554516
83333.3369464009
83333.3369354571
83333.336922576
83333.3369077595
83333.3368911512
83333.3368728588
83333.3368529349
83333.3368315822
83333.3368817978
83333.3368830295
83333.3368837905
83333.3368830416
83333.3368807284
83333.3368768485
83333.3368713815
83333.3368642756
83333.336855465
83333.3368448906
83333.3368325146
83333.3368184057
83333.3368027008
83333.336785305
83333.3367661975
83333.3367455873
83333.3367237567
83333.3367960903
83333.3367964931
83333.3367962016
83333.3367946281
83333.3367918265
83333.3367877231
83333.3367821928
83333.3367751543
83333.336766539
83333.3367563005
83333.3367444404
83333.3367310381
83333.3384882665
83333.3384864641
83333.3383795232
83333.338377784
83333.3383748638
83333.3382717779
83333.3382707605
83333.3382683867
83333.3382644201
83333.3381634672
83333.3381643219
83333.338163179
83333.3381601848
83333.3381554663
83333.3380535218
83333.3380570211
83333.3380580002
83333.3380566187
83333.3380531334
83333.3380479487
83333.3379419423
83333.3379473558
83333.3379511399
83333.3379527548
83333.3379518557
83333.3379482461
83333.3379417893
83333.3378375181
83333.3378429872
83333.3378468836
83333.3378486373
83333.3378478741
83333.3378443717
83333.3378379699
83333.3378285537
83333.337734678
83333.3377400817
83333.3377439699
83333.3377457398
83333.3377450613
83333.3377417307
83333.3377355704
83333.3377264286
83333.3377142853
83333.3376333966
83333.3376386447
83333.3376424399
83333.3376441323
83333.3376434481
83333.3376402517
83333.3376343821
83333.3376256559
83333.3376139886
83333.3375994643
83333.3375336074
83333.3375386532
83333.3375422926
83333.3375438417
83333.3375430734
83333.3375399296
83333.3375343084
83333.3375260271
83333.3375149429
83333.3375010501
83333.3374845159
83333.3374352535
83333.3374400638
83333.3374435114
83333.3374448617
83333.3374439499
83333.3374407859
83333.3374353287
83333.3374274387
83333.3374169509
83333.337403781
83333.3373879892
83333.3373697985
83333.3373382792
83333.3373428264
83333.337346047
83333.3373471645
83333.3373460653
83333.3373428295
83333.3373374622
83333.3373298707
83333.3373199134
83333.3373074668
83333.3372925014
83333.33727513
83333.3372556093
83333.3372426766
83333.3372469027
83333.3372498487
83333.3372507047
83333.3372493965
83333.3372460565
83333.3372407291
83333.3372333553
83333.3372238243
83333.3372120219
83333.3371978719
83333.3371813963
83333.3371627489
83333.3371422017
83333.3371485606
83333.3371523153
83333.3371549077
83333.3371554647
83333.3371539325
83333.3371504729
83333.3371451575
83333.3371379455
83333.3371287483
83333.3371174721
83333.3371040432
83333.3370884385
83333.3370707338
83333.3370511107
83333.337029812
83333.3370562623
83333.3370592338
83333.3370613093
83333.3370614929
83333.3370597166
83333.3370561315
83333.3370508131
83333.3370437267
83333.3370347965
83333.3370239421
83333.3370111026
83333.3369962563
83333.3369794546
83333.336960831
83333.336940493
83333.3369186635
83333.3369664011
83333.3369681191
83333.3369693416
83333.3369689799
83333.3369669001
83333.3369631719
83333.336957834
83333.3369508462
83333.3369421373
83333.3369316338
83333.3369192795
83333.3369050604
83333.3368890966
83333.3368714428
83333.3368520847
83333.3368311727
83333.3368089497
83333.3368796195
83333.336879933
83333.3368797687
83333.3368784612
83333.3368758826
83333.3368719339
83333.3368665326
83333.3368596083
83333.3368510848
83333.3368408933
83333.3368289833
83333.3368154093
83333.3368002962
83333.3367835229
83333.3367650097
83333.3367448962
83333.336723434
83333.3367008831
83333.3367944515
83333.336794409
83333.3367930234
83333.3367905973
83333.3367872787
83333.3367829661
83333.3367774242
83333.3367705077
83333.3367621263
83333.3367522193
83333.3367407756
83333.3367278603
83333.3384893381
83333.3384871511
83333.3384838155
83333.3383804103
83333.3383785866
83333.3383755473
83333.3383709791
83333.3382710355
83333.3382708631
83333.3382688117
83333.3382649992
83333.3382594916
83333.3381599614
83333.3381624584
83333.3381624727
83333.3381601658
83333.3381558048
83333.3381497853
83333.3380468284
83333.3380524546
83333.3380551809
83333.3380551793
83333.3380526684
83333.3380480349
83333.3380418291
83333.3379356431
83333.3379418268
83333.3379464946
83333.3379490688
83333.3379491352
83333.337946431
83333.3379407513
83333.3379319331
83333.3378312141
83333.3378372433
83333.337841799
83333.3378442881
83333.3378443525
83333.3378417445
83333.3378362313
83333.337827611
83333.3378158242
83333.3377284825
83333.3377342714
83333.3377386362
83333.3377409412
83333.3377409008
83333.3377383442
83333.3377330578
83333.3377248023
83333.3377134503
83333.3376990618
83333.3376273804
83333.3376328727
83333.3376369922
83333.3376390551
83333.3376388306
83333.337636237
83333.3376311303
83333.3376232766
83333.3376124865
83333.3375987214
83333.3375821359
83333.3375278168
83333.3375329912
83333.3375368323
83333.3375386098
83333.33753815
83333.3375354465
83333.3375304291
83333.3375229186
83333.3375127062
83333.3374996701
83333.3374838472
83333.337465456
83333.337429728
83333.3374345609
83333.3374381024
83333.3374395644
83333.3374388333
83333.3374359732
83333.3374309706
83333.337423704
83333.3374139971
83333.33740169
83333.3373867229
83333.3373691924
83333.3373493561
83333.3373330645
83333.337337518
83333.3373407282
83333.3373418582
83333.3373408379
83333.3373377953
83333.3373327602
83333.3373256546
83333.3373163424
83333.3373046789
83333.3372905556
83333.3372739685
83333.3372550588
83333.3372341043
83333.3372378651
83333.3372418285
83333.3372446482
83333.3372454298
83333.3372441182
83333.3372408838
83333.3372357925
83333.3372287938
83333.3372197812
83333.3372086372
83333.3371952592
83333.337179592
83333.3371616824
83333.3371417009
83333.3371199209
83333.3371443215
83333.337147553
83333.3371498594
83333.3371502501
83333.337148648
83333.3371452279
83333.3371400746
83333.337133152
83333.3371243726
83333.3371136388
83333.3371008674
83333.3370860072
83333.3370690638
83333.337050128
83333.337029353
83333.3370069963
83333.3370528285
83333.337054965
83333.3370564988
83333.3370563856
83333.3370544715
83333.3370508731
83333.3370456594
83333.3370387963
83333.3370302064
83333.3370198039
83333.3370075182
83333.3369933135
83333.3369772132
83333.336959293
83333.3369395835
83333.336918234
83333.3368954959
83333.3369638937
83333.3369646508
83333.3369649938
83333.3369641025
83333.3369617732
83333.3369579697
83333.3369526833
83333.3369458634
83333.3369374328
83333.3369273115
83333.3369154328
83333.3369017681
83333.3368864232
83333.3368694279
83333.3368507096
83333.3368303516
83333.3368085558
83333.3367855694
83333.3368777418
83333.3368776571
83333.3368763207
83333.3368741424
83333.336871054
83333.3368669005
83333.3368614763
83333.3368546593
83333.3368463565
83333.336836488
83333.3368249922
83333.3368119099
83333.3367973525
83333.3367811831
83333.3367632921
83333.3367437586
83333.3367227752
83333.3367005773
83333.3366774116
83333.3367933646
83333.3367929352
83333.3367906883
83333.3367872568
83333.3367830818
83333.3367782995
83333.3367725932
83333.3367656958
83333.3367574674
83333.3367478238
83333.3367367378
83333.3367242605
83333.3384909997
83333.3384882744
83333.3384846211
83333.3384793841
83333.3383808312
83333.3383794508
83333.3383764241
83333.3383717327
83333.3383654103
83333.3382687517
83333.3382700067
83333.3382688536
83333.3382654506
83333.3382600777
83333.3382531054
83333.338154291
83333.3381588449
83333.338160466
83333.3381593518
83333.3381557506
83333.3381501017
83333.3381429551
83333.3380376994
83333.3380457194
83333.3380504762
83333.3380521789
83333.3380510822
83333.3380474992
83333.3380418941
83333.3380348549
83333.3379287283
83333.3379355049
83333.3379408755
83333.3379442513
83333.337945235
83333.337943531
83333.3379388422
83333.3379309082
83333.3379196243
83333.3378244772
83333.337830906
83333.3378359564
83333.3378390093
83333.3378397601
83333.3378380012
83333.3378334555
83333.3378258172
83333.3378149055
83333.3378007506
83333.3377220009
83333.3377280269
83333.3377327183
83333.3377353985
83333.3377358367
83333.3377339244
83333.3377294693
83333.3377221738
83333.3377117905
83333.33769824
83333.3376816606
83333.3376211949
83333.3376267977
83333.3376311051
83333.3376333883
83333.3376334711
83333.3376313338
83333.3376268707
83333.3376198534
83333.3376100182
83333.3375971963
83333.3375813954
83333.3375628281
83333.3375219621
83333.3375271333
83333.3375310481
83333.3375329165
83333.3375326226
83333.3375302207
83333.3375256749
83333.3375188285
83333.3375094612
83333.3374973673
83333.3374824499
83333.3374647856
83333.3374446334
83333.3374242441
83333.337428955
83333.3374324606
83333.3374339069
83333.3374332279
83333.3374305457
83333.3374258756
83333.3374191151
83333.337410096
83333.3373986357
83333.3373845869
83333.3373679153
83333.3373487494
83333.3373273741
83333.3373280286
83333.3373321957
83333.3373352506
83333.3373362721
83333.3373352168
83333.337332255
83333.337327444
83333.3373207183
83333.3373119491
83333.3373009894
83333.3372877022
83333.3372719973
83333.3372538943
83333.3372335569
83333.3372112772
83333.3372334187
83333.3372368516
83333.3372393581
83333.3372399388
83333.3372385229
83333.3372352981
83333.3372303487
83333.3372236326
83333.3372150475
83333.3372044744
83333.3371918023
83333.3371769458
83333.337159871
83333.3371406407
83333.3371194276
83333.3370965171
83333.3371406565
83333.3371430715
83333.3371448219
83333.337144888
83333.3371431172
83333.3371396534
83333.3371345807
83333.3371278663
83333.3371194249
83333.3371091562
83333.3370969698
83333.3370828019
83333.3370666281
83333.3370484696
83333.3370283864
83333.3370065485
83333.3369832315
83333.3370500646
83333.3370512295
83333.3370518997
83333.3370512504
83333.3370490708
83333.3370453742
83333.3370401886
83333.3370334743
83333.3370251517
83333.3370151316
83333.3370033357
83333.3369897159
83333.3369742802
83333.3369570776
83333.3369380766
83333.3369173493
83333.3368950807
83333.3368715354
83333.3369618749
83333.336962006
83333.3369611881
83333.3369594669
83333.3369566525
83333.3369526489
83333.3369473239
83333.3369405927
83333.3369323671
83333.33692256
83333.3369110961
83333.3368979344
83333.3368831657
83333.3368668045
83333.3368487488
83333.3368290222
83333.3368077658
83333.3367851922
83333.3367615467
83333.3368768211
83333.3368760806
83333.3368738001
83333.3368705313
83333.3368665816
83333.3368619627
83333.3368563636
83333.3368495466
83333.3368413775
83333.3368317573
83333.3368206107
83333.3368079656
83333.3367939185
83333.3367783167
83333.3367610318
83333.3367421107
83333.3367216903
83333.3366999526
83333.3366771236
83333.336653441
83333.3367920773
83333.3367892258
83333.3367849972
83333.3367797446
83333.3367740974
83333.3367679401
83333.3367608863
83333.3367526887
83333.3367432152
83333.3367324111
83333.3367203087
83333.3384928044
83333.3384899122
83333.3384857913
83333.3384802586
83333.3384730204
83333.3383800451