/*--------------------------------*- C++ -*----------------------------------*\
  =========                 |
  \\      /  F ield         | OpenFOAM: The Open Source CFD Toolbox
   \\    /   O peration     | Website:  https://openfoam.org
    \\  /    A nd           | Version:  12
     \\/     M anipulation  |
\*---------------------------------------------------------------------------*/
/*   Windows 32 and 64 bit porting by blueCAPE: http://www.bluecape.com.pt   *\
|  Based on Windows porting (2.0.x v4) by Symscape: http://www.symscape.com   |
\*---------------------------------------------------------------------------*/
FoamFile
{
    format      ascii;
    class       volVectorField;
    location    "400";
    object      U;
}
// * * * * * * * * * * * * * * * * * * * * * * * * * * * * * * * * * * * * * //

dimensions      [0 1 -1 0 0 0 0];

internalField   nonuniform List<vector> 
10140
(
(1.57503508009535e-06 -0.000393246951300027 3.57260699087376e-05)
(5.98416810789113e-06 -0.000362456516649449 3.72249375022059e-05)
(1.26557821980441e-05 -0.000159453306168664 3.55604279605347e-05)
(2.628265873139e-06 0.000741804254701408 6.66792170804268e-05)
(1.12184498477457e-05 -0.000330764301824363 4.46681151078164e-05)
(2.16963194148383e-05 -0.00013928770130541 3.77099072393413e-05)
(4.19439987348745e-06 0.000782951357352617 7.46416365914044e-05)
(3.4357590363257e-05 -3.09321450956868e-05 3.3021750916422e-05)
(1.00745985088083e-05 0.000869920736928565 6.91238562486261e-05)
(2.86933492470929e-06 0.000757636104162674 0.000107998845272023)
(1.25964491146941e-05 -0.000311301777511486 5.14471486087526e-05)
(3.11678307209278e-05 -9.32196823486254e-05 5.02372391866415e-05)
(4.92342951873687e-06 0.000814413627756349 8.49064936595656e-05)
(4.30378334449935e-05 -1.2630202444997e-05 3.63301868501089e-05)
(1.36003384657217e-05 0.000919151718996237 7.73725663752041e-05)
(3.10841774451704e-06 0.000794191384519689 0.000115511725283822)
(5.85867008935156e-05 8.47004982421941e-06 3.24201801121303e-05)
(2.08628241166934e-05 0.000994033897064917 7.02285509714109e-05)
(9.14814256130225e-06 0.000863076192116518 0.000112108549975958)
(2.10659743907744e-06 0.000753892483930468 0.000148598183548451)
(1.20073379247911e-05 -0.000291038124348835 5.63111241183472e-05)
(3.42640984022027e-05 -6.2948567231155e-05 5.92963132467971e-05)
(4.80521866286731e-06 0.000840869104613686 9.23197039643575e-05)
(5.13310719513412e-05 3.89800965379912e-05 5.24425501160396e-05)
(1.56006691019992e-05 0.000955945280442578 9.06205234551505e-05)
(3.04763847021967e-06 0.000825619393246089 0.000124566365002811)
(6.57185998073263e-05 2.6064548530528e-05 3.59605398877474e-05)
(2.42860272252246e-05 0.00104875698929197 7.93207104566799e-05)
(1.04663580441335e-05 0.000905289994779309 0.000120588385717104)
(2.306398090112e-06 0.000787282959318824 0.000156181056668062)
(8.32143666698072e-05 1.61702726876249e-05 3.20742734817384e-05)
(3.36915050137492e-05 0.00102881455216337 7.01721369287395e-05)
(1.68415012455244e-05 0.000956857164926933 0.000115354980664267)
(7.63967765149871e-06 0.000817413933785643 0.000153817450819754)
(1.38112000541259e-06 0.000774236796582583 0.000187177883814054)
(1.11992457179118e-05 -0.000264907254106387 6.02222327625684e-05)
(3.38114877003333e-05 -3.52193944797696e-05 6.39923480269568e-05)
(4.38488746286534e-06 0.000868433501673603 9.81776044031159e-05)
(5.44203627268251e-05 7.21929288369774e-05 6.26360987446699e-05)
(1.53468017610693e-05 0.000983094457235842 9.93793981273139e-05)
(2.92703742362851e-06 0.000855696168335899 0.000133014785826952)
(7.21210320105731e-05 7.989634701909e-05 5.36211522643333e-05)
(2.63933707642804e-05 0.00108970115823749 9.44594244829591e-05)
(1.06316165440921e-05 0.000939593899998034 0.000130828484395088)
(2.22972157329858e-06 0.000818335457365748 0.000165111222864896)
(8.90498790864785e-05 3.27964232112897e-05 3.57348655807163e-05)
(3.61130592334483e-05 0.00108572455464537 7.97854703983846e-05)
(1.80566229319005e-05 0.00100352444524229 0.000124560607606892)
(8.21336795636688e-06 0.000853983716683077 0.000161891736303322)
(1.46499461585843e-06 0.000805639029986189 0.000194803691543726)
(0.00010726396528303 9.33395978048234e-06 3.12421963265562e-05)
(4.73051383680658e-05 0.00103736625704018 6.92745282735871e-05)
(2.55433182137336e-05 0.00099560104027202 0.000116498537294258)
(1.32415564374103e-05 0.000880455933598201 0.00015810127222026)
(5.55406602631047e-06 0.000815702267322892 0.000192365234866055)
(8.4191564499883e-07 0.000803259717503929 0.000222519091119798)
(1.0494739331046e-05 -0.000232120005333624 6.38169376610881e-05)
(3.24117502785292e-05 -3.72631133944458e-06 6.73514462008461e-05)
(3.88431581718461e-06 0.000899272631035651 0.00010337543100331)
(5.47223868694807e-05 0.000102131366112688 6.74069303935218e-05)
(1.41831963365957e-05 0.00101003624098941 0.000105738554913404)
(2.70202723533592e-06 0.000887047087888341 0.000140620374450992)
(7.5180616741134e-05 0.00011368340725644 6.45858715048174e-05)
(2.62602466734686e-05 0.00111846915395638 0.000104031346870689)
(9.88035577050654e-06 0.000970316198119064 0.000139692819378147)
(1.99424056503069e-06 0.00084937227485169 0.000174112206357548)
(9.40020948805717e-05 8.78939233724266e-05 5.40492415019541e-05)
(3.76918850147196e-05 0.00112836090758173 9.61202350418975e-05)
(1.81888136752522e-05 0.00104062660033614 0.000135621132851597)
(7.93649568350868e-06 0.00088657242408511 0.000171310459935088)
(1.32174606613429e-06 0.000836234525983877 0.000203711963373968)
(0.000112350408026267 2.46886378931781e-05 3.47665129176959e-05)
(4.87544886056779e-05 0.0010954407507913 7.91565032247207e-05)
(2.62016222018015e-05 0.00104444573906584 0.000126118137569811)
(1.36118317289954e-05 0.000919945149770842 0.000166561045182385)
(5.77994593107427e-06 0.000849019486653688 0.000200288584282974)
(8.35203553488094e-07 0.000833155739956062 0.000230478490376593)
(0.000129918982473523 -1.92998669825686e-06 2.9605068337219e-05)
(6.0840851966236e-05 0.00103434704081952 6.7541227746188e-05)
(3.48577250939716e-05 0.0010125761067952 0.000116018400383211)
(1.95280295338139e-05 0.000908498522393126 0.000159690969078406)
(9.51378205611914e-06 0.00085987844088578 0.000196814549107177)
(3.61420101832943e-06 0.000833345044115174 0.000227069183778919)
(4.4621846574673e-07 0.000834994540773823 0.000254484650458319)
(9.88632084140556e-06 -0.000193045023066871 6.74974736219011e-05)
(3.08468014266253e-05 3.34763739578661e-05 7.04475848129513e-05)
(3.28466071508569e-06 0.000934050673664413 0.000108519702915511)
(5.36226977373782e-05 0.000135272589098574 7.07850519227901e-05)
(1.26732458095864e-05 0.00103996409831262 0.000111142737801724)
(2.37859781107652e-06 0.000921073927453546 0.000147714927418441)
(7.60184152171512e-05 0.000144298167607454 6.97377424680195e-05)
(2.49221055979915e-05 0.0011462740143925 0.000110648746178057)
(8.80254031255046e-06 0.00100186769927564 0.000147531006976553)
(1.69181944992483e-06 0.000881698695260798 0.000182879232852604)
(9.67932529313607e-05 0.000121667335897483 6.55036641476836e-05)
(3.74936534095354e-05 0.00115742166335301 0.000106366765566404)
(1.72714339600994e-05 0.00107257009620151 0.00014484186776755)
(7.11220297805298e-06 0.000918028092779787 0.000180539040450878)
(1.06590718065028e-06 0.000867401357551375 0.000213207047539087)
(0.00011642362992153 8.07059639811305e-05 5.35022580698059e-05)
(4.95960832001664e-05 0.00113882744649163 9.6314390020235e-05)
(2.60751321403161e-05 0.00108297001160387 0.000137773661800539)
(1.31198506913069e-05 0.000954277901403656 0.000176354470106147)
(5.31347362625382e-06 0.000880471341130915 0.000209442510022823)
(6.51675850194787e-07 0.000863026936624221 0.000239692862879719)
(0.000134852477016248 1.20053680861729e-05 3.29821334366168e-05)
(6.16152931078393e-05 0.00109340094782595 7.75790269511023e-05)
(3.48554307939218e-05 0.00106269592446177 0.000125884712490491)
(1.94317076848542e-05 0.000949582864772882 0.000168407420290819)
(9.44905976005203e-06 0.000895159094354018 0.000205002046537202)
(3.60486833186632e-06 0.000864565782250866 0.000235260798448025)
(3.76997371720326e-07 0.000863551503401925 0.000262983126890085)
(0.000150508516231223 -1.26647998054167e-05 2.74948665154048e-05)
(7.37436820530763e-05 0.00102517674380852 6.50566235165359e-05)
(4.41192867285139e-05 0.00101760446056058 0.000114232767467461)
(2.6260967414341e-05 0.00091935687628012 0.000159215744586224)
(1.37450299094756e-05 0.000878719435752438 0.000198351598260773)
(6.1097883263883e-06 0.000866280318442169 0.000231280807934444)
(1.97532173294596e-06 0.000858396971444384 0.000258417098990013)
(1.15004521439187e-07 0.000867176919550798 0.000283285765672765)
(9.43460203207382e-06 -0.000148139085331475 7.14372313383152e-05)
(2.92691019158973e-05 7.67955360615044e-05 7.39350624941507e-05)
(2.61191939057068e-06 0.000972700996751584 0.000113924505102659)
(5.19906367161225e-05 0.000173678190721946 7.40403906915564e-05)
(1.08758198753198e-05 0.00107379254661961 0.000116401363349342)
(1.8691484841268e-06 0.000958389389826489 0.000154659142490943)
(7.54055952231248e-05 0.000178230295794207 7.32830073380586e-05)
(2.28603393200707e-05 0.00117669689136195 0.000116127280180803)
(7.50048704105621e-06 0.00103600048431479 0.000154838266427256)
(1.32598530111486e-06 0.000916275453154702 0.000191501846249825)
(9.78838881673925e-05 0.000152290016871765 7.09369771192241e-05)
(3.59943136373757e-05 0.00118517726760001 0.000113318541219504)
(1.57296323047107e-05 0.00110486912981242 0.000152845623943849)
(6.06740984284987e-06 0.000950562023693168 0.000189493913725357)
(7.62784277224238e-07 0.000899892270851132 0.00022297418216664)
(0.000118975825686286 0.000114333961708379 6.53677577964831e-05)
(4.90957122789573e-05 0.00116755069008892 0.000107111792371677)
(2.49319041771538e-05 0.00111536329169451 0.000147339584935833)
(1.19445885316253e-05 0.000986551326490274 0.00018579815685059)
(4.45843679112245e-06 0.000911868564369647 0.000219078841774562)
(3.81417805511764e-07 0.000893808859526166 0.000249751371769983)
(0.000138606904205446 6.88531612528798e-05 5.21275631661882e-05)
(6.18321530144269e-05 0.00113723498235576 9.54294186425945e-05)
(3.42892436007216e-05 0.00110193716663811 0.000137999753517148)
(1.86457701983139e-05 0.000984881055636057 0.00017849282410138)
(8.656742387747e-06 0.000927738453860877 0.000214369632693043)
(3.03318546090732e-06 0.000894997656528889 0.000244628821949616)
(1.68606670447739e-07 0.00089248803045484 0.000272686107921041)
(0.000155758632577683 -3.0432899274669e-07 3.06660841941271e-05)
(7.41676614635471e-05 0.00108527963547285 7.52618372884094e-05)
(4.35738503171063e-05 0.00106871628822971 0.000124291767132182)
(2.56228790880715e-05 0.000961400918305415 0.000168097004962766)
(1.32082995499845e-05 0.00091513908976777 0.000206716095880628)
(5.76583402197242e-06 0.000898948479191207 0.000239679877552091)
(1.79943324778537e-06 0.000887991963385412 0.00026710945991183)
(4.91343675828632e-09 0.000894445045544025 0.000292412028129067)
(0.00016832734688073 -2.09024616872637e-05 2.49525544282217e-05)
(8.5543184501956e-05 0.00101284040919338 6.18455114005122e-05)
(5.28489365156894e-05 0.00101535218857753 0.000111468284547078)
(3.29485876245895e-05 0.00091921694348724 0.000157173270488367)
(1.82959058695466e-05 0.000883736191092055 0.000197682346761562)
(8.61493492030931e-06 0.000878933551331204 0.000232540984525725)
(3.19869708336995e-06 0.00088406318440639 0.000262287842291117)
(6.18000376730754e-07 0.000886197504967884 0.00028682339274704)
(-1.90955311470402e-07 0.000898740765334517 0.00030930134845475)
(9.23880370024841e-06 -9.76519699497531e-05 7.6083667257983e-05)
(2.79594943195136e-05 0.000126170428490467 7.79028947403428e-05)
(1.9169832769113e-06 0.00101504302313101 0.000119849828348025)
(5.0176070990121e-05 0.000217874385900236 7.76258399765222e-05)
(8.84889793679883e-06 0.00111149747279114 0.000121983764700287)
(1.23732068564468e-06 0.000999210007898088 0.000161856953664622)
(7.39875762870971e-05 0.000217468896577793 7.66131365070229e-05)
(2.02255275774604e-05 0.00121086825873634 0.000121425420752527)
(5.94087608169912e-06 0.00107341676568071 0.000162061557536034)
(8.78422221806219e-07 0.0009536725164318 0.000200215370055685)
(9.75828066682044e-05 0.000186363500793736 7.4653651308537e-05)
(3.35056296882022e-05 0.00121527639226275 0.000118969702609402)
(1.36702111874932e-05 0.00113953546637757 0.000160267962789718)
(4.83098642923842e-06 0.000985301116528674 0.00019832486792801)
(4.06047508099471e-07 0.00093439146250422 0.000232948747908742)
(0.000120227604342107 0.000144639100304657 7.10632838647254e-05)
(4.73351312108993e-05 0.00119473922743786 0.000114393509980828)
(2.29521000018202e-05 0.00114778905084648 0.000155542081387393)
(1.03338024632996e-05 0.00101963742786107 0.00019490518545628)
(3.42618625752115e-06 0.000944481990473921 0.000228971648273475)
(7.06163791236288e-08 0.00092598099723277 0.000260394166242484)
(0.000141111056511147 0.000102367073707079 6.4437179398613e-05)
(6.09974253463151e-05 0.0011653812334552 0.000106707205845044)
(3.28142761163388e-05 0.00113432258471526 0.000147880180652604)
(1.71393762470235e-05 0.00101748703537976 0.00018811489255161)
(7.33367585613237e-06 0.000959675593429651 0.00022413090618787)
(2.15391767991729e-06 0.00092591225701359 0.000254771887807481)
(-1.08143362194477e-07 0.000922538928962459 0.000283358910255827)
(0.000159664856181521 5.74703456589108e-05 5.02469136350297e-05)
(7.40123436653892e-05 0.00112954965398095 9.38088085023429e-05)
(4.25631485287284e-05 0.00110834426373215 0.000136807932111258)
(2.44421058117474e-05 0.000997184964974993 0.000178427875873067)
(1.20514970691411e-05 0.000948362908024818 0.000216246744113202)
(4.79397500541446e-06 0.000930192659796704 0.000249191733738521)
(1.15849629240681e-06 0.000917358853043217 0.000276927836471566)
(-2.21491599154353e-07 0.000922308912675202 0.000302698855402651)
(0.000174366698223117 -1.04211911667049e-05 2.79039744052325e-05)
(8.5926299826433e-05 0.00107419420027544 7.22676002934945e-05)
(5.19503536479661e-05 0.00106742469973134 0.000121729228512535)
(3.18397084724885e-05 0.000961976676735266 0.000166177755754997)
(1.72446674498128e-05 0.000920846693808945 0.000206144534659183)
(7.77927377396762e-06 0.00091245943938231 0.00024106479496867)
(2.66037358614902e-06 0.000914825039316 0.000271152912535878)
(3.26494283340568e-07 0.000914344954078537 0.000296110271826038)
(-3.21230753875324e-07 0.000924716027379288 0.000319063612280638)
(0.000182404654885649 -2.48100645452512e-05 2.16707272349497e-05)
(9.57729212230757e-05 0.000999050120269216 5.774535058073e-05)
(6.06714335053287e-05 0.00100917970636565 0.000107810234314214)
(3.91893180256497e-05 0.00091210038091759 0.000153977772374984)
(2.27739692966127e-05 0.00087923097542153 0.000195361106094842)
(1.12943347627713e-05 0.000880002441269884 0.000231615353121455)
(4.30703359282361e-06 0.000892588517166522 0.000263263858914081)
(7.95602168456253e-07 0.000906874075775751 0.00029040084478253)
(-4.95538726919401e-07 0.000914718875755217 0.000312618890506751)
(-4.49584515271403e-07 0.000929105126938638 0.000332894024160474)
(9.17428990293513e-06 -4.16023316980882e-05 8.1390147961567e-05)
(2.70318837517552e-05 0.000181577813391994 8.26134493760668e-05)
(1.15517029993893e-06 0.00106105280083297 0.0001264485540985)
(4.85060158124149e-05 0.000267960553705014 8.17063371364127e-05)
(6.66342057117849e-06 0.00115287742215994 0.000128146610063005)
(5.75613501711452e-07 0.00104366666995 0.000169582306673618)
(7.21063447906122e-05 0.000262622788686018 8.03933088980098e-05)
(1.70795741499127e-05 0.0012488374373808 0.000127073163253088)
(4.08062852892932e-06 0.00111430123165792 0.000169543031595156)
(3.36629280634796e-07 0.000994195266974801 0.000209217853458954)
(9.63383412105157e-05 0.000225789900258939 7.80823548207862e-05)
(3.01585688164637e-05 0.00124902221721216 0.000124380024523872)
(1.10910903531413e-05 0.00117738148851056 0.000167607199289199)
(3.3727792107757e-06 0.00102282240021982 0.000207270627825215)
(-2.47578086769468e-08 0.00097140171812205 0.000243199693747867)
(0.000120145902197132 0.000178384898891098 7.48948019399415e-05)
(4.44270772171092e-05 0.00122406897070504 0.000120243252313408)
(2.01795163987884e-05 0.00118237727977138 0.000163098816841996)
(8.30191200432599e-06 0.00105479916716127 0.000203869719677899)
(2.22166503545612e-06 0.000979072116197288 0.000239092485975177)
(-2.94556719913137e-07 0.000960044977688272 0.000271502854166735)
(0.000142515273548844 0.000132209756074139 7.04122782213988e-05)
(5.89626802538166e-05 0.00119172250800856 0.000114300196969625)
(3.03776737052577e-05 0.00116648377388679 0.000156286423708605)
(1.49905034871426e-05 0.00105068660775827 0.000197340502101904)
(5.64542700335262e-06 0.000992670915263888 0.000234125039024621)
(1.11742514213383e-06 0.000958144027266797 0.000265495607744152)
(-4.25537363049173e-07 0.000954039009444755 0.000294805653316531)
(0.00016240447569327 9.09490561004653e-05 6.30538465264167e-05)
(7.29547085431577e-05 0.00115708317878067 0.000105565045499417)
(4.07417021232837e-05 0.00114049189232154 0.000146982546315082)
(2.25528899211647e-05 0.0010298008309526 0.000188217406083157)
(1.0310827932695e-05 0.000980516993972419 0.000226099701199956)
(3.37755334475454e-06 0.000961498935029825 0.000259407655722594)
(2.62838823453039e-07 0.000947495875474422 0.000287654047455534)
(-5.07498349531476e-07 0.000951397473064311 0.000314014590789581)
(0.000178884379971699 4.84412625086517e-05 4.80279804001056e-05)
(8.57054620308941e-05 0.00111905935584689 9.15929114810785e-05)
(5.0617212044177e-05 0.00110734032881824 0.000134642903999712)
(3.02683188862212e-05 0.000998005110700265 0.000176733943895701)
(1.56657374226233e-05 0.000954391180190963 0.000215801683415149)
(6.37994567742791e-06 0.000944169315920837 0.000250674233277945)
(1.56977323859157e-06 0.000944838597668526 0.000281078378764469)
(-3.61563497994535e-07 0.000942565786291598 0.000306489758138055)
(-5.56681097287388e-07 0.000951401442371464 0.000329971782339008)
(0.000189875627056863 -1.65120889067619e-05 2.45743631046558e-05)
(9.64361022281234e-05 0.00106196680945009 6.84468742740563e-05)
(5.96266341818065e-05 0.00106233250616092 0.000118317150017077)
(3.77446927803305e-05 0.000955529307175361 0.000163095688470811)
(2.12640610770926e-05 0.000916844144682847 0.00020387364938372)
(9.93995149701962e-06 0.000914050495156679 0.000240188532033808)
(3.26070153637248e-06 0.000924040372646965 0.000272217088674755)
(1.25183257357483e-07 0.000936020116662509 0.000299838306638676)
(-8.55738977868144e-07 0.000941472179503627 0.000322511892857541)
(-5.89620657193909e-07 0.00095376227422469 0.000343260094263393)
(0.000191728165303406 -2.08473181898244e-05 1.76107872003932e-05)
(0.000103961681497734 0.000984967979715844 5.23067316508566e-05)
(6.72355591741026e-05 0.00100173873408103 0.000103097243579644)
(4.46857201199732e-05 0.000901066055270556 0.000149751780131906)
(2.68687339244262e-05 0.000868446312708705 0.000191797316493202)
(1.38712090311582e-05 0.000872841114307446 0.000229036558855734)
(5.44219522291951e-06 0.000891128522701161 0.000262126415756837)
(7.93451130657863e-07 0.00091258913922025 0.000291170967383498)
(-1.12025632836155e-06 0.000931860388867764 0.000315994330799167)
(-1.36286853787995e-06 0.000942870777749377 0.000336085628636447)
(-6.57400638308063e-07 0.00095782529286592 0.000354329513220295)
(9.21798450166627e-06 2.02263193596524e-05 8.72451114913702e-05)
(2.62358800060918e-05 0.0002432999114762 8.80590332400731e-05)
(2.85469977359286e-07 0.00111086718894951 0.000133641859935502)
(4.68780680531359e-05 0.000324028734625105 8.66346352421694e-05)
(4.17302192698009e-06 0.00119787103450797 0.000135025822860226)
(-2.01507260605782e-07 0.00109188690373825 0.000177778688182516)
(7.00634741906732e-05 0.000313748170711029 8.48198733477172e-05)
(1.34771425978901e-05 0.00129038866795117 0.000133366763987698)
(1.89815213371602e-06 0.00115876510555215 0.00017748447494211)
(-3.12751036796264e-07 0.00103808433324391 0.000218602589574185)
(9.42856578934147e-05 0.000271286774817934 8.19634892197582e-05)
(2.59675506299979e-05 0.00128641052052858 0.000130151292539625)
(7.95238091295472e-06 0.0012186261461932 0.000175202081943348)
(1.63053798325748e-06 0.00106342403010415 0.000216493310806363)
(-5.49292376882502e-07 0.00101126391100712 0.000253781551453153)
(0.000119095816229269 0.000217440589676289 7.84389632987301e-05)
(4.04014311791463e-05 0.00125698989864415 0.00012579745514302)
(1.66020449353183e-05 0.00121997611926514 0.000170548744536482)
(5.81225596127318e-06 0.00109265720597687 0.000212930089010428)
(8.02736375768472e-07 0.00101613425318817 0.000249498151960937)
(-7.30361422582063e-07 0.000996416921862705 0.000283035479393687)
(0.000142716548805982 0.000165315640947872 7.43136354747283e-05)
(5.56746111862571e-05 0.00122001160743611 0.000120344031389854)
(2.69296813385702e-05 0.0012006271990205 0.00016398162327219)
(1.21701871832099e-05 0.00108581018672835 0.000206396585235427)
(3.58595948989878e-06 0.00102756175934413 0.000244342985931558)
(-8.8228973593346e-08 0.000992242982485977 0.00027670070432449)
(-7.94160408004048e-07 0.00098736983229694 0.000306896971399436)
(0.000164093167040485 0.000120275943621661 6.93260244301489e-05)
(7.07275385277492e-05 0.00118247203668419 0.000113441849718585)
(3.78876404323239e-05 0.0011721490516067 0.000155591347461253)
(1.98709834459394e-05 0.00106281290357567 0.000197557505480085)
(8.02642294224339e-06 0.00101357506783974 0.000236155057591886)
(1.63429686157824e-06 0.000994008945678903 0.000270184977810571)
(-7.78744273909994e-07 0.000979023111248973 0.000299151564719821)
(-8.3203770063715e-07 0.000981972225326287 0.000326224005899187)
(0.0001821679078809 8.19715954869377e-05 6.13605935064781e-05)
(8.46406663576841e-05 0.00114603405942521 0.000103873170468953)
(4.85224953096726e-05 0.00113914853903589 0.000145114363223508)
(2.80062321632448e-05 0.00103044792521036 0.000186698047831998)
(1.34740526318185e-05 0.000986532816661047 0.000225736922989585)
(4.47105927587894e-06 0.000975625743103163 0.000260933460046426)
(9.02487284966228e-08 0.000975291032482726 0.000291847151555303)
(-1.27312866516956e-06 0.000971715854012819 0.00031784135389445)
(-8.47632830196615e-07 0.000979361655272388 0.000341945963928726)
(0.000195543496474022 4.35781795540971e-05 4.54600141357663e-05)
(9.6492628432383e-05 0.00110770094015572 8.86975671965189e-05)
(5.81671307217968e-05 0.00110257701965884 0.000131670698061348)
(3.58741975143995e-05 0.000991728081861241 0.000173873089157563)
(1.92786530479002e-05 0.000950540157351686 0.000213635825938892)
(8.07644213858147e-06 0.000945989081154111 0.000249854875940621)
(1.69597420149195e-06 0.000954423921986762 0.000282200752652322)
(-1.03927095395212e-06 0.000964791605031059 0.000310303696160519)
(-1.56914322561691e-06 0.000968459767995634 0.000333491852831219)
(-8.29209154155336e-07 0.000979170212684729 0.000354788721433432)
(0.00020093519531846 -1.53118136136275e-05 2.04434966319834e-05)
(0.000105218163630964 0.00104991996909142 6.35165195805799e-05)
(6.62554617907275e-05 0.0010562247239296 0.000113912259765727)
(4.30621698665966e-05 0.000945251717772544 0.000158994381835201)
(2.50093001494785e-05 0.000906527825209122 0.000200334915476412)
(1.20459554026742e-05 0.00090727110087612 0.000237607078045393)
(3.86146060364411e-06 0.000923003605031903 0.000271093359069208)
(-4.00595982607814e-07 0.000942322787263793 0.000300669593682763)
(-1.88031883311441e-06 0.000959500297062363 0.000326018993648699)
(-1.75677376003671e-06 0.000968247748462217 0.000346551686083423)
(-7.92513192453121e-07 0.000981199915726746 0.000365265139951324)
(0.000194724637304697 -2.71949729668472e-06 1.21695195154666e-05)
(0.000109517162653027 0.000971986608653013 4.51145133534177e-05)
(7.21810180516595e-05 0.000995133006630677 9.70110352160847e-05)
(4.9171003512742e-05 0.000888394748717795 0.000144357819857298)
(3.03522271578717e-05 0.0008539099809197 0.000187114666871302)
(1.61292095626944e-05 0.000860064554298882 0.000225168461128832)
(6.45072944748608e-06 0.000882455461813683 0.00025935286508604)
(6.94376864626515e-07 0.000909513612587192 0.000289902562596551)
(-2.00153124362262e-06 0.000935620727482218 0.000316641239341197)
(-2.6092529344919e-06 0.000957443540950827 0.000339345296990745)
(-2.02509789480504e-06 0.000969758170575324 0.000357435006270467)
(-8.22015442721309e-07 0.000984480753098948 0.000373735443041847)
(9.34611020035396e-06 8.80516632192504e-05 9.33344554907682e-05)
(2.53900887582853e-05 0.000311790966694696 9.44262029023766e-05)
(-7.67488372481772e-07 0.0011646294352745 0.000141112693666882)
(4.49138258993388e-05 0.000386395882483823 9.25583410626542e-05)
(1.23313694388181e-06 0.0012464583844636 0.00014252120907503)
(-1.11706639745699e-06 0.00114413449730158 0.000186287333141986)
(6.75863192198776e-05 0.000370863714837236 9.01753993347969e-05)
(9.26438807346933e-06 0.00133534467558487 0.000140440149927515)
(-6.91941836284513e-07 0.00120696094623845 0.000185891893744491)
(-1.07766745301981e-06 0.00108561367951756 0.000228284358378703)
(9.1612391048859e-05 0.000322865282568468 8.68220948846953e-05)
(2.09065732859075e-05 0.00132720566296222 0.000136638713833393)
(4.19244993276047e-06 0.00126335705634716 0.00018324179877394)
(-4.68401718943812e-07 0.00110735071307526 0.000226056933829766)
(-1.17853859306175e-06 0.0010542890808384 0.000264682188533204)
(0.00011687594604477 0.000262597556741957 8.24179050324858e-05)
(3.52193809579597e-05 0.00129333310670512 0.000131702466169667)
(1.21637270720241e-05 0.00126082342054203 0.000178243785880994)
(2.79151861540333e-06 0.00113351513798066 0.000222246079908142)
(-8.97934882155135e-07 0.0010560061835099 0.00026022502248524)
(-1.2538316643522e-06 0.00103544262320971 0.000294960768094931)
(0.000141836468542887 0.000203546604640771 7.78937065311763e-05)
(5.10507438967117e-05 0.00125181968195497 0.000126048254673343)
(2.24073423312999e-05 0.00123760756482554 0.000171533996787888)
(8.61997643450895e-06 0.00112349293253425 0.000215537335319883)
(1.10537536684671e-06 0.00106485873127564 0.000254839728231079)
(-1.50486849037844e-06 0.0010286248761018 0.000288343626261646)
(-1.24000289692587e-06 0.00102288416284693 0.000319537967557167)
(0.000164745415445682 0.000152566729466351 7.33513740186686e-05)
(6.71749626565384e-05 0.00120959047924065 0.00011964638625907)
(3.38509359335119e-05 0.0012055918569431 0.000163424671221286)
(1.62984387485363e-05 0.00109759137349622 0.000206692105002553)
(5.14645378132897e-06 0.00104840627255898 0.000246420995225007)
(-4.52963144203912e-07 0.00102832109099653 0.000281440580934333)
(-1.98092245664775e-06 0.00101235803314126 0.00031130217583)
(-1.20775626635057e-06 0.00101433633046222 0.000339196875720146)
(0.000184342195946541 0.00011075034769008 6.79775897504226e-05)
(8.24033420991421e-05 0.00117045461946874 0.000112035538728225)
(4.53512657087788e-05 0.00117017081774478 0.000153925430666767)
(2.48429578943303e-05 0.00106306708917184 0.000196158836935162)
(1.05859366167623e-05 0.00101942171191179 0.000235846000367099)
(2.07516777250642e-06 0.00100816549799685 0.00027173359294)
(-1.68588741275882e-06 0.00100704264548775 0.000303367020627164)
(-2.32032363079372e-06 0.001002300659758 0.000330075756431693)
(-1.17521749807815e-06 0.0010088179187807 0.000354884857657339)
(0.000199614366160384 7.72971141844089e-05 5.93410688180111e-05)
(9.57106796753768e-05 0.00113421244932728 0.000101567691457697)
(5.59622532461617e-05 0.00113403164432657 0.000142459033482448)
(3.33166659448914e-05 0.00102392061288576 0.000184021556795424)
(1.66615247496213e-05 0.000982533568613249 0.00022365605310315)
(5.65405489458622e-06 0.000977421129357714 0.000260140554661125)
(-3.30329599583971e-07 0.000984993084002803 0.000292980073482041)
(-2.55371991849287e-06 0.00099421310373861 0.000321677338823078)
(-2.48467142493332e-06 0.000996462415532395 0.000345483446069702)
(-1.1215302324331e-06 0.0010058670717022 0.000367412115271375)
(0.00020825933187067 4.64134386411576e-05 4.24070677760965e-05)
(0.000105933848778221 0.00109694739588857 8.48881535258158e-05)
(6.49126747865864e-05 0.001096938413321 0.000127783446204461)
(4.10378303661993e-05 0.000981654874651613 0.00017000850309793)
(2.2699747694952e-05 0.000940328822677374 0.000210192805277877)
(9.73988927780758e-06 0.00093931476142942 0.000247302466880316)
(1.79233715157188e-06 0.000953569373842908 0.00028108944906628)
(-2.0753118745865e-06 0.000971407746529426 0.000311166667469678)
(-3.0894595231975e-06 0.000986976353381547 0.000337070691348484)
(-2.4809907964987e-06 0.000993924920345061 0.000358137518189205)
(-1.03180865085715e-06 0.00100525767593115 0.000377386394925913)
(0.000205317479582005 2.28043361380145e-07 1.55534598228395e-05)
(0.000111648896785703 0.0010395834129301 5.69989877626477e-05)
(7.14713209426149e-05 0.00105136302760429 0.000108223373657892)
(4.75328812049656e-05 0.000933533726820178 0.000153748853866887)
(2.82720931234582e-05 0.000892536501506518 0.000195664847291036)
(1.39261489250599e-05 0.000894856859966696 0.000233702518408832)
(4.37670622643011e-06 0.000914646028561546 0.000268281298364552)
(-1.05203877971777e-06 0.00093961168813412 0.000299388390361779)
(-3.29483782186881e-06 0.00096378028320137 0.000326702495306871)
(-3.41812349423369e-06 0.000983637493273819 0.000349914922170441)
(-2.40855423063872e-06 0.000993946785300942 0.0003684630219182)
(-9.44205490929586e-07 0.00100670602999585 0.000385289257195712)
(0.000188353717243546 4.00276112624701e-05 5.70015009509643e-06)
(0.000111556816225614 0.00096212342984451 3.57996213549859e-05)
(7.50877504221625e-05 0.000991342058854726 8.91094299508886e-05)
(5.23878734675698e-05 0.000875864435245915 0.000137500187411569)
(3.3032570995608e-05 0.000837480459539558 0.000181198521021028)
(1.79017710403579e-05 0.000843743196525665 0.000220120630432288)
(7.19968100680554e-06 0.000868715456737094 0.000255259419103118)
(4.53942027224709e-07 0.000900005728160263 0.000287017100398563)