/*--------------------------------*- C++ -*----------------------------------*\
  =========                 |
  \\      /  F ield         | OpenFOAM: The Open Source CFD Toolbox
   \\    /   O peration     | Website:  https://openfoam.org
    \\  /    A nd           | Version:  12
     \\/     M anipulation  |
\*---------------------------------------------------------------------------*/
/*   Windows 32 and 64 bit porting by blueCAPE: http://www.bluecape.com.pt   *\
|  Based on Windows porting (2.0.x v4) by Symscape: http://www.symscape.com   |
\*---------------------------------------------------------------------------*/
FoamFile
{
    format      ascii;
    class       volScalarField;
    location    "400";
    object      k;
}
// * * * * * * * * * * * * * * * * * * * * * * * * * * * * * * * * * * * * * //

dimensions      [0 2 -2 0 0 0 0];

internalField   nonuniform List<scalar> 
10107
(
3.31857812158842e-05
1.74132177143854e-05
0.000176550546553122
2.76547577345566e-05
8.03300090114031e-06
7.04300847198004e-05
1.18721920182872e-05
0.000190720397674438
0.000177039290409637
0.000127944657040588
2.44607929230502e-06
2.47756727192409e-05
5.25089612620584e-06
0.000111210698477388
7.59872328281065e-05
1.53310237996142e-05
4.24653537135995e-05
0.000204348459853111
0.000294165196262153
0.00019268510082371
0.000179770420532804
0.00021604281085093
0.00017590336298601
0.000158771006486485
0.000170253064951448
1.48049985475632e-06
5.03520400310886e-06
4.19347939426117e-05
1.48033293922778e-05
5.43064417826255e-06
0.000133184371805788
0.000114471645097707
5.08939604420328e-05
8.54416985889193e-05
0.000118512712647543
1.43257633187621e-05
6.71311572432082e-05
6.60655497528727e-05
0.00011072106546693
0.000214679639382343
0.000294374292453062
0.000202668625896955
0.000377781412639195
0.000297194738569412
0.000193383742828359
0.000157426857284286
0.000185033922448412
0.000217877080166803
0.000191183624711267
0.000162625493377745
0.000174932328550332
1.26901660254637e-06
2.74833044914861e-06
6.89339054900543e-06
5.80534138879343e-05
3.76955251040941e-05
2.20271672618012e-05
5.08286851257329e-06
0.000142015938931736
0.000127274825458208
9.10084482578165e-05
0.000129571119943954
3.55813490828022e-05
1.51799060075898e-05
0.000176463543596048
0.000121688022327078
0.000145232398098709
0.00021827244885701
0.000296731808018274
0.000209756317591202
0.000375744302365261
0.0002935133410928
0.000185510402975452
0.000446037838283926
0.0003772156050902
0.000288230394832764
0.000156242721760122
0.00018556712809609
0.000194557117231683
0.000178998215832803
1.14020235434673e-06
3.47321618004061e-06
4.95920327372233e-06
8.12266652165149e-06
6.82591745626858e-05
5.21907163642198e-05
3.07573153678252e-05
4.75926444929676e-06
0.000144059987008429
0.000133401380982656
0.000100305939149574
4.19326305723273e-05
3.48876284905746e-05
0.000169886517066779
1.50993444074615e-05
0.000150790598629481
0.00021791129141041
0.000296609038655441
0.0002126768653797
0.000373704455470218
0.000294686229709207
0.000193193600722415
0.00044436932649098
0.00037490881907318
0.000287968513537852
0.000170395150191789
0.000506121963783131
0.000444984236315888
0.000373230693410269
0.00028463457014263
8.73491636453509e-07
4.10137429748723e-06
6.32353419572021e-06
8.85736378016551e-06
7.20562712084722e-05
5.98280510176971e-05
3.43989059901694e-05
4.25044082466954e-06
0.000142050040229423
0.000134791538994903
0.000104281796397315
4.15229150969906e-05
4.09693398704473e-05
0.000178106963927991
3.25913941472093e-05
1.49306157640324e-05
0.000214741136079474
0.000294386347184829
0.000212142101629658
0.000371315148371756
0.000294458142577519
0.000196098624587476
0.000441990321666619
0.000372756731268861
0.00028998821261036
0.000173056447230561
0.000504956795379809
0.000443341151659608
0.000371452895715746
0.000284042004521619
0.000176313876965465
0.000504756969403831
0.00044110778211355
0.000366989955543185
0.000280150022802371
5.85846101940695e-07
3.72468786035282e-06
6.83123104151087e-06
8.7342174955513e-06
7.13551465482862e-05
6.27691531333267e-05
3.61756318571248e-05
3.93103543184976e-06
0.000137282473460132
0.000132629599120274
0.000104628469767738
3.84066455125222e-05
4.00310420401315e-05
0.000175873687515175
3.88890712500591e-05
2.91001869453225e-05
1.47309547649825e-05
0.000209254382563961
0.000290310486805694
0.00020884676269699
0.000367887779178304
0.00029224145983845
0.000195358925420797
0.000438899762669912
0.000370412342683224
0.000289781479280414
0.000174374963290229
0.000502839432990188
0.000440993445216109
0.000369686508110907
0.000284091528639486
0.0001753935024065
0.000503630087039081
0.000439662714294767
0.000365825526129529
0.000278934357641352
0.000174084262446573
0.000500366863118894
0.0004340796147271
0.000358597917792132
0.000272609695466775
4.02899519422061e-07
3.30988638917814e-06
6.87933807761046e-06
8.33758593476702e-06
6.76974778305511e-05
6.20650060441259e-05
3.66974388172551e-05
3.80328151122341e-06
0.000130003299046615
0.00012790106034196
0.000102362464628287
3.43662791540277e-05
3.70945756211574e-05
0.00016835788851574
3.85437487971302e-05
3.67271162163585e-05
2.65922065865201e-05
1.40161310326191e-05
0.000201593385739079
0.000284499427942834
0.000203321820502597
0.000363199454479861
0.000288176596346559
0.000191613260201366
0.000434897050831094
0.000367036371060276
0.000287522321451384
0.000173201938206373
0.000499629967564452
0.000437947711538157
0.000367476297369167
0.000283116320619734
0.000174014293653326
0.000558213444492994
0.000501545959526693
0.000437503246246353
0.000364298837131469
0.000277731493813215
0.000172451388016207
0.00049934578997276
0.000432934137390095
0.000357517294904476
0.000271296977297662
0.000166829437084603
0.000492508414013463
0.000423895632469574
0.000347565186778528
0.00026169367090183
3.05020624471919e-07
3.06695623132788e-06
6.50248488424043e-06
7.66962656303464e-06
6.18193019755224e-05
5.87329359245099e-05
3.58967713766517e-05
3.62811535014104e-06
0.000118899257507124
0.000120802571585842
9.78522617246243e-05
3.01489208086098e-05
3.33484891962728e-05
0.000158225726477756
3.59980330781937e-05
3.71660249802755e-05
3.47463228433474e-05
2.45623417285054e-05
1.32653428001204e-05
0.000191090148403686
0.000276990870494055
0.000195664567655341
0.000357227623885041
0.000282373951432487
0.000185985055573962
0.000429823156720393
0.000362391725758182
0.000283448857368318
0.000169930471842543
0.000495369623887555
0.000433990306714418
0.00036416806898056
0.000280600007374865
0.000171605807330712
0.000554978127223412
0.000498374185928336
0.00043458391396217
0.000362066394368259
0.000275909851212723
0.000170440359871927
0.000609385302436182
0.000556657513434205
0.000497366206495198
0.000431025160859289
0.000355919321046635
0.000269716533817602
0.000165157748105994
0.000491652744704973
0.000422940752923646
0.000346511760563783
0.000260476466356571
0.000156905477491478
0.000481151205213831
0.000410806887950904
0.00033387710765238
0.000248208450762125
2.7284802302007e-07
2.79611128603075e-06
5.9934787277567e-06
6.85022265367561e-06
5.22845747255585e-05
5.34045918018355e-05
3.33704048340482e-05
3.36140605503318e-06
0.00010036111083078
0.000110566990082104
9.11858707962725e-05
2.57905947272532e-05
2.92536502527439e-05
0.000146711940212695
3.2349962410132e-05
3.47336969770215e-05
3.55561215790582e-05
3.27156403163316e-05
2.27118649358004e-05
1.20358254063024e-05
0.00017617056953572
0.000267817578853327
0.000185311937652058
0.000350089476267159
0.000274916500995798
0.000178302710564829
0.000423655835669601
0.000356464839310141
0.000277696082888759
0.000165158438115198
0.000490015586393021
0.000428957823804269
0.00035959625670785
0.000276569129807469
0.000168128401651457
0.000550571337266192
0.000494149526356223
0.000430717170989341
0.000358767132539413
0.000273051057748911
0.000167795862565446
0.000606216512354538
0.000553461894707997
0.000494289388137764
0.00042825375932111
0.000353573693770452
0.000267549674014901
0.000163101856740544
0.000657303427007969
0.000607650944854996
0.000551875382708807
0.000489835737443454
0.000421202977915752
0.000344877020394214
0.000258855345512943
0.000155360914745289
0.000480453895109066
0.000409964464319203
0.000332902898989891
0.000247121740379809
0.000145551429078255
0.000466620500751129
0.000395052706411782
0.000317780740009356
0.00023283985948938
2.46162662509597e-07
2.55137496022816e-06
5.33395828999826e-06
5.58170473552085e-06
3.78162723880793e-05
4.55128435735651e-05
2.96610161266249e-05
3.01711959802913e-06
6.57180435493072e-05
9.54461831213559e-05
8.26779144327013e-05
2.15153503465535e-05
2.50729520386834e-05
0.000134213858808525
2.84161745234906e-05
3.12845413807038e-05
3.33954582346763e-05
3.38759779817562e-05
3.07411232017907e-05
2.05259925192096e-05
1.10692697722981e-05
0.000152324204445297
0.00025741866530543
0.000170587349115117
0.0003421366645253
0.00026574656108414
0.0001683167268281
0.000416515185545338
0.000349361941345653
0.000270408557374785
0.000158626703492297
0.00048356712971636
0.000422829532735347
0.000353767872201276
0.000271060780121179
0.000163556091344479
0.000544976601006246
0.000488828849344424
0.000425768027360932
0.000354282741273426
0.000269054101346041
0.000164435233183735
0.000601724361239134
0.000549086836044555
0.000490147154038992
0.000424494528439992
0.00035026058418989
0.000264576007406573
0.00016055308281937
0.00065422535121988
0.000604519237137107
0.000548758859039493
0.000486898454982305
0.000418551320521992
0.000342490329231482
0.00025665524646644
0.000153450793343371
0.000702523420652631
0.000655441200656891
0.000602399558916842
0.000543462621017567
0.000478799869363466
0.000408334897354642
0.000331312295112425
0.000245587459897472
0.000144163322306001
0.000466052871984384
0.000394312674351687
0.000316913839586201
0.000231884931888724
0.000133209825829201
0.000449258294720154
0.000376844820965227
0.000299589841215395
0.000215951771470321
2.29730252672415e-07
2.26670508920246e-06
4.45953108409214e-06
3.99106454218901e-06
1.90761556514555e-05
3.43041763043942e-05
2.4877859985683e-05
2.64947685182766e-06
1.48284767606515e-05
6.62860143231387e-05
7.30869853286796e-05
1.73834167818101e-05
2.0964334577905e-05
0.000120874995543475
2.44082707715954e-05
2.75384481847664e-05
3.01619771286363e-05
3.20748040084776e-05
3.23107744190651e-05
2.86571798200458e-05
1.85554684509974e-05
1.21980196749001e-05
0.000136203143537626
0.000247216436664896
0.000155026333915135
0.000334250978620326
0.000254748472046564
0.000157251637912718
0.00040867861944928
0.000341465724120458
0.000261635902349464
0.000150401362769063
0.000476093298909481
0.000415720741116984
0.000346787625541062
0.000264192753036483
0.000158112280092692
0.000538194296726763
0.00048240990090327
0.000419723667231208
0.000348615073105523
0.000263918069400242
0.000160197554438404
0.00059591545611175
0.000543519867160902
0.000484902288447327
0.000419658773871679
0.000345885975213351
0.000260710481854482
0.000157346457912867
0.000649679481910344
0.000600055671538989
0.000544456889823002
0.00048287701675839
0.000414903973562367
0.000339219540271804
0.000253757521056129
0.000151092352124188
0.000699547131250224
0.000652397412064856
0.000599335268545973
0.000540463493926104
0.000476013583370823
0.000405786895943891
0.000328982205901001
0.000243493402039189
0.000142430475389078
0.000745372232058445
0.000700558973633386
0.000649811722829061
0.000593256192084465
0.000531373195960115
0.000464537696763817
0.000392786575933373
0.000315421968605604
0.000230480933725867
0.000131983749822798
0.000448805385626581
0.000376214108891806
0.0002988416709842
0.000215131113894087
0.000120027743505514
0.000429292933716466
0.000356366990028614
0.00027953734443135
0.000197699371060029
2.18020566476842e-07
1.90033015847661e-06
3.23977193642882e-06
2.01906266693928e-06
5.04261534893855e-06
1.80890453283704e-05
1.87373730777794e-05
2.52974634409547e-06
1.67177792888507e-05
1.48318022515742e-05
6.3368177655219e-05
6.43124219674202e-05
1.3554904308615e-05
1.70395867342672e-05
0.00010652179484471
2.04624565741855e-05
2.37001625900266e-05
2.66188838638137e-05
2.91087201642936e-05
3.08008575545794e-05
3.06921054804404e-05
2.66493483560094e-05
1.7217966637062e-05
7.17432615580576e-06
0.000139778819536004
0.000240946401490139
0.000139058110516299
0.000327187993443321
0.000247792666579682
0.000139484594357491
0.000155251939877699
0.000400477688490015
0.000333812326920765
0.000252195762743323
0.000154774600913404
0.000140437572995688
0.000467711025053871
0.000407908662314164
0.000339042878746073
0.000255982615807983
0.000152294374715871
0.000530252116789823
0.000474958354507082
0.00041268854519288
0.00034184535599561
0.000257733274393267
0.000155598973331557
0.000588790813318568
0.000536761179221035
0.000478552654959031
0.000413740909049961
0.000340448354340916
0.000255935509695829
0.000153565363302482
0.00064368040065716
0.000594271405581658
0.000538958050047935
0.000477746642450113
0.00041020850455372
0.000335002363808236
0.000250097742843703
0.000148095212053208
0.0006949694820985
0.000647877531940983
0.000594937246999977
0.000536274542250465
0.000472135423027827
0.00040226651223477
0.000325830821158257
0.000240763917424604
0.000140268118757683
0.000742509346157803
0.000697614553601015
0.000646826852750601
0.000590291112688269
0.000528515046078516
0.000461897648014197
0.000390358379757933
0.000313214255156786
0.000228544318585227
0.00013042151246921
0.00078603069679638
0.00074331882508511
0.000694606636243819
0.000640045851048181
0.000580239220463708
0.000515906917964525
0.000447417054031942
0.000374806262585263
0.000297478458487366
0.000213875654207956
0.000118967398393879
0.00042895056863336
0.000355851180509553
0.000278914176975773
0.000197017809016503
0.000105843798421317
0.000406878903898401
0.000333774232944917
0.000257761216577992
0.0001780631918902
2.23486963867733e-07
1.38680999608905e-06
1.72684664571199e-06
5.52747959922039e-07
4.8814899714633e-06
1.04804291649065e-05
1.70671856245845e-06
1.98490883059355e-05
1.31885788050338e-05
5.25094433340782e-06
9.37568422764021e-05
3.83000570897433e-05
4.54005599117004e-05
9.52001860350766e-05
4.6783185280762e-05
9.98751500791207e-06
1.33474047049521e-05
9.10872946449307e-05
1.67271681431718e-05
1.99806186021773e-05
2.30141200195302e-05
2.57599263782187e-05
2.80415464740799e-05
2.94776929473116e-05
2.90749940646528e-05
2.48082085370048e-05
1.60183011918134e-05
0.000132606692107751
0.000234850306995396
0.000139710188881493
0.000319893433747096
0.000246565616662594
0.000139487812486795
8.97216050284279e-05
0.000172650650744618
0.00039186919435246
0.000327235307282622
0.000249566267578835
0.000133711568358609
0.000116583519640063
0.000177045725309522
0.00014402426697126
0.000458489791790493
0.000399741153874105
0.000331635276014505
0.000246462012496613
0.000114566391452485
0.000146499279756977
0.000146793139036636
0.000131566364841482
0.000521184028511328
0.00046658751764086
0.000404918082511964
0.000334267256954498
0.000250786028967075
0.000151122241506792
0.000580359084751178
0.000528836110061041
0.000471155586598109
0.000406822850742222
0.000334014960769306
0.000250386066336922
0.000149540218794949
0.000636229900580252
0.000587168271764743
0.000532261577556049
0.000471506972638307
0.000404464179891017
0.000329838733089138
0.00024567397979679
0.000144739026116095
0.000688803721168059
0.000641901399051208
0.000589216376892326
0.00053088507013359
0.000467152584482157
0.000397742693873516
0.000321819303680449
0.000237348643741622
0.000137559041974902
0.000737922870091765
0.000693060827622237
0.000642366832627251
0.000585996441337929
0.00052446919559169
0.000458177243030845
0.000386993630529718
0.000310236573924419
0.000226017454733517
0.00012838319387015
0.000783306121931794
0.000740485899401959
0.000691714592879001
0.000637146572198827
0.00057739946515429
0.000513199163114935
0.000444925460577111
0.000372522865939376
0.000295430007276851
0.000212113026758554
0.000117545117273134
0.000824577801585592
0.000783896633839687
0.000737077924912868
0.00068429271131302
0.000626201661381403
0.000563687288899847
0.000497420549884762
0.000427690080263162
0.000354576385503576
0.000277697168264249
0.000195922515770094
0.000104977124010907
0.000406645219464233
0.000333376002450185
0.000257266389201241
0.000177529341290671
9.06923522906859e-05
0.000382143410931024
0.000309184531393206
0.0002343148250059
0.000157033493740524
1.82185547820823e-07
8.06643922080669e-07
5.07807638193791e-07
2.16472591359928e-06
2.14978863919465e-05
1.38516551629404e-05
1.72874285975241e-05
1.07212970261943e-05
8.68166247033278e-05
8.7769143123076e-05
6.81385561088505e-06
9.89626645138097e-06
7.48470484522366e-05
1.31566903868779e-05
1.63839648585582e-05
1.9460714125324e-05
2.2307539205809e-05
2.48531977347681e-05
2.691620095371e-05
2.81450362647007e-05
2.7788066526968e-05
2.33880480708253e-05
2.17605636357948e-05
0.000128465562717706
0.000224358488011608
0.000130934304390158
0.000310049244455061
0.000238742384494081
0.000135807185572806
9.62329367475837e-05
0.000170851131029004
0.000139177579497534
0.000382136666179609
0.000320106048338045
0.000244546259480839
0.000151480433326335
0.000120187001259402
0.000448303941472056
0.000391151499042341
0.000325188939793577
0.000240705263079733
0.000135302179178448
0.000133721097117293
0.000111940402054315
0.000139434550269621
0.000510984496628618
0.000457364697555722
0.000396731975691828
0.000326679857918246
0.000243733856200799
0.000112195634630767
0.000147016126057472
0.000142396444808803
0.000130541302827101
0.000570625301624136
0.000519777334038132
0.000462811331604492
0.000399099734281815
0.000326798219125126
0.000244398890299079
0.000145589976127951
0.000627331215703229
0.000578754264110442
0.000524389126578646
0.000464202359627672
0.000397728656522436
0.000323793903341516
0.000240630147432132
0.000141130507515818
0.000681053235603695
0.000634472274979373
0.000582174285212855
0.000524293600298925
0.000461066363432949
0.000392216994434865
0.000316952306857573
0.000233255490457359
0.000134535981379826
0.000731612878568512
0.000686917048568763
0.000636451511013308
0.000580380733413599
0.000519226510395631
0.000453371758199996
0.000382674498989961
0.000306464439343385
0.000222857240325841
0.000125988827974558
0.000778747973036444
0.000735921721141263
0.000687216384237059
0.000632781856887752
0.000573240658731177
0.000509317007355951
0.000441379583100196
0.000369343194224473
0.000292657779959688
0.000209789587089677
0.000115766155520502
0.00082205434582853
0.000781200320709605
0.000734292164966775
0.000681475680632797
0.000623413424304454
0.000560989522800722
0.000494869511307439
0.000425357578479781
0.000352459552561868
0.000275828837296797
0.000194328194381195
0.000103802250943928
0.000822373130987369
0.000777391253321648
0.000726268064885241
0.000669701020835895
0.000608658441960041
0.000543965430323128
0.000476157680125597
0.00040551784098856
0.000332245473786289
0.000256207598797501
0.000176616402254452
9.01240256431422e-05
0.000382015619829179
0.000308903935241617
0.000233943299645324
0.000156700446798284
7.4803116368456e-05
0.000355194852811939
0.000282673771275386
0.000209213633761524
0.000134671597154693
2.29308672830589e-07
2.10658144684521e-05
1.9900302922145e-05
2.07091569085539e-05
8.58841624454958e-05
9.19727949387563e-05
4.19273480717618e-06
6.81164914938898e-06
5.81726871899185e-05
9.81162338547984e-06
1.29278926374422e-05
1.59859670319005e-05
1.88846665759861e-05
2.15424723106919e-05
2.3883525653969e-05
2.57596733322236e-05
2.69009064138878e-05
2.70515316753152e-05
2.47802126644262e-05
2.14437591135721e-05
0.000123143228648143
0.000216021119900154
0.000128413813202465
0.00029762463766268
0.000224809155897814
0.000132975528768552
0.000370485241001033
0.000309851377043299
0.000232755733233186
0.000135471664858675
0.000120584397662127
0.000149888288755928
0.000436829227810895
0.000381362948350374
0.000317436065503512
0.000235014590758628
0.000170447146086792
0.000499567768408914
0.000447163904138518
0.000388033252002104
0.000319446753047326
0.000237706453457915
0.000135166770859942
0.000136109364627764
0.000134175229954997
0.000559572608450893
0.000509579982845794
0.000453579073326041
0.000390805783800819
0.000319257564261475
0.000238304954711965
0.000142008982083204
0.000143068463967441
0.000139759519579165
0.000132598433270471
0.000616983812216507
0.000569034325114886
0.00051536904335467
0.000455909452535791
0.000390130703156666
0.000317023016295662
0.000235195930929748
0.000137448154949949
0.00067172311948856
0.000625593666471078
0.000573817823613096
0.000516516869758057
0.000453907350302812
0.000385729535226704
0.000311283719218915
0.000228632245975809
0.00013125835921709
0.000723589128896349
0.000679188492554903
0.000629084736076969
0.000573444716477002
0.000512785407484745
0.000447483024784194
0.00037740411509316
0.00030190455619599
0.00021910585721236
0.000123294012779303
0.000772310224155144
0.000729633068103405
0.000681131929287958
0.000626968923995026
0.00056776969696352
0.000504253669860486
0.000436780102795017
0.000365257950151452
0.000289145407772627
0.000206899985494182
0.00011366490005864
0.000817594448830805
0.000776662596881878
0.000729780106061398
0.000677066339091632
0.000619176713700731
0.000556991519946186
0.000491168795657855
0.000422005824631165
0.000349489296168893
0.00027327945243137
0.00019224237279064
0.000102308703769861
0.000819873306738962
0.000774737729132845
0.000723548767425032
0.000666982784590049
0.00060600085392854
0.0005414208474682
0.000473771975192228
0.000403357561890603
0.00033031196331434
0.000254531279241497
0.000175259151712267
8.92642756741727e-05
0.000815626203420588
0.000766124659131598
0.000710991274168376
0.000651246738643897
0.000587800964206711
0.000521314029148211
0.000452271158059884
0.000381026450332889
0.000307925358876551
0.000233054844839544
0.00015602044406101
7.45828358373385e-05
0.000355168752333346
0.000282508201644535
0.000208999001331453
0.000134579707826495
5.84723527948342e-05
0.000326113966500565
0.000254266867033108
0.000182497784727117
0.000111063726228559
2.01193751236676e-05
2.06656880209916e-05
2.30061658670826e-05
0.000135607719334053
2.24265044704119e-06
4.23779043965556e-06
4.16668587367861e-05
6.80986340211244e-06
9.68697875289761e-06
1.26436473258682e-05
1.55309659782218e-05
1.82497973848329e-05
2.07186730656835e-05
2.2868230051728e-05
2.4603596058624e-05
2.60117048115352e-05
2.64338638940517e-05
2.53118992917153e-05
2.29123088064087e-05
0.000116131027245515
0.000206380871652118
0.000123193129142997
0.000284776524481694
0.000215637539976422
0.000128984701162352
0.000357025062722741
0.000297019600844835
0.000222256934363725
0.000132177661242836
0.000423790465632278
0.000369622611767366
0.000306711559330956
0.000227325685830168
0.000486793794709583
0.000435668524691197
0.000378067333134596
0.000311055457011863
0.000231464070719065
0.000547153021110283
0.000498164223141727
0.000443343802844776
0.000381854209641669
0.000311553510374266
0.000232231059465525
0.000605176247917423
0.000557993382367585
0.000505198004729135
0.000446672616647514
0.000381809047638681
0.000309759767473197
0.000229522391807594
0.000133797764632848
0.00013808601758342
0.000139190582379244
0.000136478231005027
0.000660816013236673
0.000615265516589338
0.00056415171878102
0.000507576441684829
0.000445726858527721
0.000378359037458319
0.000304914500922687
0.000223585453809572
0.000127811464433697
0.000713863989287947
0.000669880862713982
0.000620270198750501
0.000565193790274715
0.000505156984872466
0.000440530967359345
0.000371210345258197
0.000296594518588117
0.00021485503592542
0.000120347913765812
0.000764034166971086
0.000721631824559207
0.00067346762966832
0.000619711214950147
0.000560986569512677
0.000498006973735725
0.000431129212200594
0.000360271091998065
0.000284898883206885
0.000203500421510945
0.000111281866358563
0.000811021644458619
0.000770245848101463
0.00072354971816889
0.000671082370862467
0.000613506491896212
0.000551699786997527
0.000486313584388033
0.000417639579982417
0.000345661790092004
0.000270038042795788
0.00018965973154916
0.000100525362953462
0.000854583347971045
0.000815427713147018
0.000770248525948028
0.000719120346742898
0.000662694290094932
0.000601919164109557
0.000537603859402976
0.000470270266482638
0.000400219490025049
0.000327570118000408
0.000252213474265042
0.000173443781549928
8.80985658340244e-05
0.000813162333773847
0.000763530413650684
0.000708360252603187
0.000648647672875148
0.000585288298794514
0.00051893233280454
0.000450060650559466
0.000379050734281238
0.000306187860402942
0.000231596861437587
0.000154930970722015
7.40705256967569e-05
0.00080393719758875
0.000750212890467591
0.000691692975511039
0.000629337079482224
0.000563872609583635
0.00049588037438455
0.000425880296365691
0.000354321599523203
0.000281683359680522
0.000208304269304707
0.000134169995798711
5.85921577161688e-05
0.000326184211387329
0.000254221983321657
0.00018244675248011
0.000111236561999403
4.22152735909041e-05
0.00029493496560267
0.00022400370495593
0.000154176501185599
8.64209007105085e-05
1.85918255060211e-05
2.00924535072435e-05
2.23573785245003e-05
9.80547628278763e-07
2.29066261503851e-06
2.63300746244391e-05
4.28082905239127e-06
6.76966520386621e-06
9.50811195995504e-06
1.2305067666304e-05
1.50232907955589e-05
1.75607629966253e-05
1.98441982633449e-05
2.18192461500796e-05
2.3450648109316e-05
2.48627878167161e-05
2.51946337027121e-05
2.43438989776479e-05
2.26684021055674e-05
0.000108283199672678
0.000195659326371044
0.000116197333558725
0.000271704670664093
0.000206003147352862
0.000123333750764841
0.000342486916681242
0.000284075605940755
0.000214153893725015
0.000128314096503873
0.00040923347129593
0.000356116354045561
0.000294171537193893
0.000219941270844027
0.000131997379289096
0.000472558498723166
0.000422628189229818
0.00036626711270383
0.000300690662916588
0.000224154032764531
0.000533303724994372
0.000485398425958789
0.000431826863719159
0.000371704156305034
0.000302997025815717
0.000225674448392847
0.000591884931497149
0.000545587316578107
0.00049380861100783
0.000436405116806961
0.000372722630752032
0.000302025286123321
0.000223511209610412
0.000648328930373455
0.000603477807295034
0.000553164154794946
0.000497471112978825
0.000436554872609304
0.000370180647470017
0.000297960995103902
0.00021817607386703
0.000124226373635131
0.000129948442974466
0.000133720300338515
0.000134454330194207
0.000702446544971093
0.00065899734785053
0.000610008778234976
0.000555632379211085
0.000496356779034314
0.000432547784679393
0.000364140626264652
0.000290604596512608
0.000210151854142994
0.000117189097246907
0.00075394621823332
0.000711931031683727
0.000664229843275422
0.000611012454163139
0.000552895325870045
0.000490584309498429
0.000424440082288958
0.000354401541648737
0.000279948951578323
0.000199617180152005
0.000108650512322188
0.000802502463746659
0.000761992816972693
0.000715614386638344
0.000663530171490243
0.000606405650987097
0.000545114063273993
0.000480302102614911
0.000412261609450814
0.000340981256138953
0.000266118677217338
0.000186599373604886
9.84837354414218e-05
0.000847807692212041
0.000808877657961289
0.000763889195005176
0.000712988871748612
0.000656851130696786
0.00059642726319704
0.000532521468666678
0.000465650188857438
0.00039611141637651
0.000324019407660192
0.000249270493860637
0.00017117473239955
8.66539852938706e-05
0.000889507899735836
0.000852327922517526
0.000808757273986399
0.000759119613317709
0.000704046314365109
0.000644507714279624
0.000581383842460122
0.000515314715212317
0.000446775627906039
0.000376144138699502
0.000303689455289243
0.000229552780644221
0.000153415480968712
7.32518255373406e-05
0.000801524209815323
0.000747697654606299
0.00068917027029815
0.000626873028081373
0.000561516221304949
0.000493670921620131
0.000423854891341667
0.000352541097983702
0.000280151527700877
0.000207084587850636
0.000133376153615569
5.84185510914584e-05
0.00078743372971597
0.000730126919107163
0.000668801443729896
0.000604221465243301
0.000537016717244252
0.000467779132246613
0.000397088227188213
0.000325481891607769
0.000253573471480669
0.000181964324093219
0.000111115745402269
4.25916189978837e-05
0.000295096291334444
0.000224081934163905
0.000154300508429891
8.68553546472043e-05
2.692972146095e-05
0.000261661105606577
0.0001918573347039
0.000124336998960368
6.13309073268556e-05
1.68602079664201e-05
1.87462995304934e-05
2.08878967954479e-05
3.0029396612037e-07
1.00456310809001e-06
1.35018600876108e-05
2.33669785072883e-06
4.29206500170434e-06
6.67886501051142e-06
9.27786838846841e-06
1.19180705377988e-05
1.44673179397649e-05
1.68224134809708e-05
1.89238615360492e-05
2.07252545365076e-05
2.21961870199774e-05
2.32604932804557e-05
2.33502171661313e-05
2.25519242324035e-05
2.10365025373343e-05
9.98731326880203e-05
0.00018410703366704
0.00010833469377684
0.000258008166178246
0.000195305476787368
0.000116091889787089
0.000327235542257311
0.000271054190702627
0.000204661338753247
0.000122363757213201
0.000393425494855683
0.000341595954201999
0.000281615988542207
0.000211543581030943
0.000126370199709067
0.000456878979139281
0.000408096726511985
0.000352879235297441
0.000289169870729222
0.000216102153681779
0.000128703901858017
0.00051798373610421
0.000471187974070905
0.000418832223501464
0.000360022236902315
0.000293189123922662
0.000218198597748371
0.000577083408543502
0.000531759440958307
0.000481090219347358
0.000424904776572546
0.000362578481093299
0.000293522100115133
0.000216904082100731
0.000634254116724258
0.000590209415375085
0.00054081946084477
0.0004861521708347
0.000426341765443683
0.000361179564191797
0.000290402539743098
0.000212333304069853
0.000689341751025585
0.000646535901129875
0.000598293199006092
0.000544752754908752
0.00048638596952256
0.000423553710028224
0.000356234273257848
0.000283989700252103
0.00020502590257742
0.000113821363432327
0.000120402280325521
0.000125563880341231
0.000128592616220276
0.000742062107195922
0.000700540231152501
0.000653422742974079
0.000600874733037515
0.000543500151311758
0.000481996775821162
0.000416733078973296
0.000347677502096037