/*--------------------------------*- C++ -*----------------------------------*\
  =========                 |
  \\      /  F ield         | OpenFOAM: The Open Source CFD Toolbox
   \\    /   O peration     | Website:  https://openfoam.org
    \\  /    A nd           | Version:  12
     \\/     M anipulation  |
\*---------------------------------------------------------------------------*/
/*   Windows 32 and 64 bit porting by blueCAPE: http://www.bluecape.com.pt   *\
|  Based on Windows porting (2.0.x v4) by Symscape: http://www.symscape.com   |
\*---------------------------------------------------------------------------*/
FoamFile
{
    format      ascii;
    class       volScalarField;
    location    "400";
    object      nut;
}
// * * * * * * * * * * * * * * * * * * * * * * * * * * * * * * * * * * * * * //

dimensions      [0 2 -1 0 0 0 0];

internalField   nonuniform List<scalar> 
10107
(
6.29707057494523e-06
2.3924995513621e-06
0.00017456095112613
4.63363815989845e-06
1.93600302614221e-06
2.77324626365882e-05
1.29885142357982e-06
0.000254688061190977
0.000172838253267707
6.43108283275524e-05
6.01350596200392e-07
1.11028093370402e-05
1.12461796495744e-06
0.000108941857133734
4.07394555749681e-05
1.66975145459839e-06
9.84806098974449e-06
0.000396618506963505
0.000741767957334311
0.000272148342235808
0.000190218462571478
0.000279440697250452
0.000178315746592095
0.000130070488751443
0.000161447088577315
3.61617341460554e-07
1.42231731727344e-06
3.1601779432469e-05
6.40013475105146e-06
1.0657280384087e-06
0.000228197915103662
0.000146525436781454
2.52474810439193e-05
6.50782445940509e-05
8.952866349349e-05
3.23315182253014e-06
2.46779974954182e-05
3.16981824604947e-05
6.03110722812043e-05
0.000531845832246766
0.000841923624188174
0.000408055296594556
0.00130862318905535
0.000770054519518321
0.000302355656402608
0.000162918794895174
0.000222787038922959
0.000359758908706636
0.000229003741950916
0.000154184380281072
0.000184248050077532
2.79074112159715e-07
7.71824278828124e-07
2.14797725643546e-06
6.15274379859758e-05
2.89384411805264e-05
9.39027550510779e-06
1.28578595104036e-06
0.000297684169098574
0.000214281199673221
6.98620389275895e-05
0.000119912573386263
7.47885234193918e-06
3.44129296811624e-06
0.000216272191095686
9.33093625478985e-05
0.000121370955911282
0.000597308395867562
0.000936947505408077
0.000493940973498025
0.00136637009656439
0.00083078876022279
0.000296799117076943
0.00184972003552751
0.00130603522272337
0.000696903897017933
0.000172938730306825
0.00025379361592548
0.000252238076625777
0.00020797305048913
2.70751320533414e-07
9.46134995203374e-07
1.49155049963654e-06
2.56085207362211e-06
8.55776835513432e-05
5.47255577865213e-05
2.10080106259828e-05
1.37725763846035e-06
0.000320224896848085
0.000252317596204132
0.000105012987782596
1.31939991728172e-05
6.75817431422686e-06
0.000186846088365842
3.39780251901384e-06
0.000149337961470292
0.000618363677112827
0.000984699864385883
0.000537760062893652
0.00141435973261218
0.000900816738499597
0.000357993807517908
0.00188506777585033
0.00135157277198905
0.000755798073126991
0.000190463316920766
0.00235949917856552
0.00184249167424805
0.00126962901029866
0.000657686181496599
2.18522425068459e-07
1.16436102977969e-06
1.93153517101627e-06
2.83690120126931e-06
9.56967193474333e-05
7.21520618400711e-05
2.99282499156569e-05
1.281093836752e-06
0.000319403809856656
0.000265687740965243
0.000120203463723191
1.38979651271548e-05
1.25492438787067e-05
0.000223761768578518
6.22452666180004e-06
3.31185612343787e-06
0.00061580137357548
0.000999827492338121
0.00055168800081964
0.00144210939472079
0.000938310471338402
0.000384407496928345
0.00191191224018333
0.00139049180748471
0.000810578161183265
0.000197820375047204
0.00238121911987459
0.00187310199304886
0.00130434062085891
0.00067291261721905
0.000220172772664067
0.00235135267284961
0.00181717581106919
0.00122313261900351
0.000661143833469284
1.4555095780442e-07
1.05225811541659e-06
2.07511719745221e-06
2.77199040167869e-06
9.50649766711067e-05
7.97460266106659e-05
3.50134086051921e-05
1.19893212315332e-06
0.000305288840229571
0.000263694140431462
0.00012375203461943
1.29391256166429e-05
1.33183913629098e-05
0.000229468016407964
1.18010349401985e-05
5.53535836884681e-06
3.26705902970215e-06
0.000598215178583139
0.000994592030408248
0.000547114081913083
0.0014496812058939
0.000949573502650261
0.000390153279215764
0.00192617786811457
0.00141377537256245
0.000836488630147433
0.000202406928043818
0.00239637771239192
0.00189623875830539
0.00133366764052367
0.000691014760118129
0.000218793709058422
0.00237095954565819
0.00184055690025542
0.00123986688067671
0.000661710907790703
0.000226467681267973
0.00232858967897495
0.00177688402993437
0.00119455076937773
0.000655345630570168
9.94409774604548e-08
9.24066131495965e-07
2.07616923876685e-06
2.64797008080503e-06
8.68993456453029e-05
7.93590531664359e-05
3.70514223852852e-05
1.16773219407472e-06
0.000281113947660915
0.000251828884776429
0.000121562984226874
1.15380174072209e-05
1.24867722100476e-05
0.000222183405818272
1.27746999943831e-05
1.11063924161718e-05
5.05376241904438e-06
3.0894401581881e-06
0.000567101739958346
0.000974512164535472
0.000530407080219076
0.00144142737350113
0.000943257423780227
0.000382310703515017
0.00192719454759869
0.00141944494566931
0.000842200028665253
0.000202312553113016
0.00240236702762997
0.00190832604433249
0.00135033476182754
0.000700833378403923
0.000216826995984059
0.00285215998733222
0.00238441061644662
0.00185800526341234
0.0012551688319111
0.000663936537432248
0.000223876037695948
0.00234421070315537
0.00179062663831761
0.00119937195718061
0.000652947851332007
0.000219955813037982
0.00229004566124282
0.00173369655565295
0.00116619406310204
0.000637054185491126
7.49618119891933e-08
8.50953176554754e-07
1.95328981047251e-06
2.39222480153157e-06
7.48611000170975e-05
7.24232672333694e-05
3.59874775161736e-05
1.11332963253165e-06
0.000239373161079292
0.000231931247780562
0.000115478657845438
1.00855782224269e-05
1.12005638326268e-05
0.000210304686327837
1.21067916946427e-05
1.22917302470826e-05
1.04799626019164e-05
4.62190835951453e-06
2.91886949695361e-06
0.00051421140415619
0.00093943375533435
0.000502080815279252
0.00142017569694545
0.000923548521364476
0.000368155178720679
0.00191612652629818
0.00141071030820384
0.000834257494255957
0.000198378834459358
0.00239846466379623
0.0019083322093405
0.00135270707982454
0.000700705394113017
0.000213544785576658
0.0028528829314669
0.00238930650348666
0.00186635672780394
0.00126307597833195
0.000663653467026883
0.000220894524123839
0.00327300635440963
0.00284165913268158
0.00235448375245
0.00180071169930411
0.00120348696190901
0.000650623168047429
0.000217558872137075
0.00230035184161153
0.00173959331012696
0.00116598645086777
0.000634339886129991
0.00020846053015816
0.00223994761991669
0.00168729023371731
0.00113108440319485
0.000611310720890522
6.69854708176513e-08
7.72429385109627e-07
1.7824816509379e-06
2.10690824402793e-06
5.57638213163294e-05
6.20590864907457e-05
3.20143842531611e-05
1.02485595652125e-06
0.000169887762496299
0.000200454419716676
0.000105552789851227
8.60493673741925e-06
9.79074054374783e-06
0.000196757437590944
1.08659730299922e-05
1.16707194511299e-05
1.17337360567269e-05
9.81968355526875e-06
4.24043571909373e-06
2.61028503775665e-06
0.000420809163084879
0.000883844565018019
0.000456031421864806
0.00138622367776601
0.000890401413459858
0.000345769214804179
0.00189429546758856
0.00138994596095193
0.000815665082555756
0.000191978009192087
0.0023849002456566
0.00189703997366326
0.00134313583483558
0.000692747671012033
0.000208746149951186
0.00284541031672128
0.00238485295248322
0.00186443926344523
0.00126141964189419
0.000659235503692569
0.000217183571215366
0.00327036128566605
0.00284185358327645
0.00235726224561676
0.0018042111301036
0.00120368159057658
0.00064686802906166
0.000214691972166562
0.0036570170072847
0.00326300206851085
0.00281470869609202
0.0023064120443915
0.0017429887317051
0.0011647380044933
0.000631034354455194
0.000206364161824165
0.00224535847106977
0.00168859252042327
0.00112915134802745
0.000608703541046061
0.000195128977947224
0.00218069969791703
0.00163457170281768
0.00108873753845136
0.000581304032245136
6.0221745199193e-08
7.00806267028734e-07
1.5663536893247e-06
1.63739757282779e-06
3.28215879954169e-05
4.74567022564304e-05
2.67740044640572e-05
9.04939676586124e-07
7.19040563095593e-05
0.000151606402903677
9.28749923254146e-05
7.16513932209004e-06
8.36844251366677e-06
0.000182078191574619
9.5129012907377e-06
1.05052611739138e-05
1.1206091181606e-05
1.11464724923703e-05
9.1784173421412e-06
3.72966711597911e-06
2.41859319822069e-06
0.00026285500410954
0.000797227301622508
0.000376526924432058
0.00133816120424761
0.000838728347609958
0.000312720136604774
0.00186245862759317
0.00135736104412609
0.000786429998185608
0.000180131922201695
0.00236226816801377
0.00187559839794393
0.00132344003910878
0.000677515579583264
0.000201630821003727
0.00282964649984987
0.00237116999213564
0.00185269973716874
0.00125118153360905
0.000650719087936651
0.000212461155702967
0.00326032206882601
0.00283410332433383
0.00235169279002719
0.00179977837105906
0.00119837829913124
0.000640921763775512
0.000211204725963442
0.00365235217513666
0.00326011882849166
0.00281374772525288
0.00230634044057075
0.00174178349674636
0.00116092992815774
0.00062651082275586
0.000203810105778944
0.0040047097993402
0.00364696993263752
0.00323651389837764
0.00276943420770738
0.00224732709294015
0.00168772611329956
0.00112592778968053
0.000605365026350781
0.000193269810831214
0.00218272441292826
0.00163369392784137
0.001086297321192
0.000578871845318806
0.000180650015065517
0.00211207827113246
0.00157394496909948
0.00104004219349986
0.000547943771409912
5.61341443862473e-08
6.1793280186066e-07
1.27668054235501e-06
1.09529640809715e-06
1.18614433245487e-05
3.0576758859216e-05
2.08295968617467e-05
7.76306704396499e-07
4.81645973097941e-06
7.22081187737409e-05
7.88949959659929e-05
5.7816966795892e-06
6.98318034610524e-06
0.000166227854458909
8.14840983538188e-06
9.21892133423738e-06
1.01210245072335e-05
1.07422467070776e-05
1.05931780369511e-05
8.47689859359723e-06
3.2608590643982e-06
3.1494616821034e-06
0.000118636306050289
0.000674366724402811
0.000269851551972068
0.00127576646979462
0.000757971298775421
0.000269635108615307
0.00182117467296993
0.00131251439068252
0.000743819477885748
0.000163238371685167
0.00233119042590939
0.00184478403881282
0.00129383836072835
0.000654050418771334
0.000192364232056262
0.00280580832982809
0.0023487787941508
0.00183205323483099
0.0012332725552774
0.000637753162081532
0.000205322020479171
0.00324266314180906
0.00281828533370116
0.00233776350239566
0.00178751628210107
0.00118757272619535
0.000632450595333128
0.000206256008653159
0.00364053043337718
0.00324995859773497
0.00280538640539102
0.00229925253783857
0.00173490617882952
0.00115371334205028
0.000620387957002475
0.000200642896287605
0.00399896634475911
0.003642215881426
0.00323303841294166
0.00276683274911937
0.00224438787401626
0.00168341649543708
0.00112065251212311
0.000600914233837135
0.000190988469507847
0.0043179866456281
0.0039942791716533
0.00361968176339008
0.00319067633329969
0.00270820511554737
0.00218172656018685
0.00163074676437023
0.00108252030890896
0.000575723526080372
0.000179006285014932
0.0021121989857624
0.00157220736970487
0.00103756685252474
0.000545743915325368
0.000164982862422756
0.00203295703237634
0.00150463719228443
0.000985154256777802
0.000510882788483055
5.31048113989423e-08
5.12234582940751e-07
8.74638693148819e-07
4.58162280789095e-07
2.0065317136024e-06
1.2048516208474e-05
1.44354454602879e-05
7.42760012828521e-07
3.00174352401359e-06
4.99722680897859e-06
6.19963612310812e-05
6.47866637858428e-05
4.5061238908785e-06
5.66803878725267e-06
0.00014769746805011
6.81701856992738e-06
7.91243152649008e-06
8.90796473161428e-06
9.7560421768562e-06
1.02920885781648e-05
1.0026022873231e-05
7.80991358356712e-06
2.88194674493296e-06
2.16157012896591e-06
0.000143888910478237
0.000548612631709957
0.00012684877479207
0.00120227878264835
0.000676845018457282
0.000144461043809091
0.000252489431065301
0.00177124648625025
0.00125803208662677
0.000688238292921772
0.000246916819070823
0.000139447560660464
0.00229226164581734
0.00180548950377295
0.00125522669460094
0.000621125963225501
0.000183227525861089
0.0027742380969891
0.00231830462531476
0.00180328623659773
0.00120762407047687
0.000620152597225079
0.00019815246762316
0.00321739206938941
0.00279458923576978
0.00231588945298515
0.00176801506903014
0.00117149594370253
0.000620782577188614
0.00020004442211319
0.00362129429886357
0.0032322928838533
0.00278945607415553
0.00228501353137427
0.00172222061954094
0.00114284463747415
0.000612141683236716
0.000195717578369084
0.0039859590658369
0.00363036104344498
0.0032225849961829
0.00275760819694647
0.00223578712467907
0.00167498401113278
0.00111287251385378
0.000595065254936501
0.00018799132693865
0.00431177425321482
0.00398852266417699
0.00361465339366286
0.00318631371120322
0.00270389374616955
0.00217667863965962
0.00162495643164362
0.0010769380914896
0.000571535748262235
0.000176889314028162
0.00459940581806136
0.00430697071858064
0.00396551581450233
0.00357152443838697
0.00312561935275124
0.00263418560959404
0.00210951446265487
0.00156847462256116
0.00103379573587958
0.000542851075832243
0.00016350864541931
0.0020322159310309
0.00150271736636008
0.000982883385990859
0.00050891922099809
0.000146445247248914
0.0019420207101586
0.00142578559076452
0.0009232773004171
0.000468039050168524
5.42339184251051e-08
3.62745130850687e-07
4.10972935171265e-07
8.80460909567093e-08
1.88143669588034e-06
6.74864276800193e-06
4.49848131456207e-07
4.71629311550167e-06
1.87182527318971e-06
1.18653306465842e-06
0.000101738079776057
3.17085678506838e-05
2.6617747088851e-05
0.000105909017874396
3.1156864701447e-05
3.32385914676718e-06
4.43741654121984e-06
0.000125586898518011
5.56459209907085e-06
6.65685066736395e-06
7.68220212370199e-06
8.61470200565548e-06
9.3848479444102e-06
9.83064814605662e-06
9.47156655972199e-06
7.18575869508692e-06
2.98004280130752e-06
0.00015329409716376
0.000540697401714316
0.000142952992930855
0.00112421557215007
0.000621147154916651
0.000130750891700136
3.45288719174968e-05
0.000216730828574438
0.00171365300429388
0.00120091328640254
0.00066667500648231
0.000120449772536849
0.000143420485095376
0.000306160758370597
0.000185989786393815
0.00224595424508621
0.00175926222167692
0.00121352742802323
0.000576834956467162
0.000140598490224319
0.000189314942867055
0.00017543718894909
0.000113300260155843
0.00273528124663091
0.0022804343567087
0.00176771541588766
0.00117550626286554
0.000600138496024106
0.000193065520837616
0.00318463493712058
0.00276334744621176
0.00228667365234649
0.00174192680156667
0.00115034645218696
0.000607050200195288
0.000194155376913386
0.00359454574257685
0.00320712231002777
0.00276610020824006
0.00226390605586037
0.00170400146482106
0.001128294700321
0.000601593073237571
0.000190386476198543
0.00396544381001744
0.00361115373204199
0.00320491268165682
0.00274155416405519
0.00222132503773273
0.00166223203723693
0.00110232690568879
0.000587195677169889
0.000183448155197653
0.0042980075037237
0.00397553169046414
0.00360269987620437
0.00317543546911041
0.00269380319032276
0.0021670376742309
0.00161591971164891
0.00106926034265241
0.000565976057900753
0.000173472311943805
0.00459309574114115
0.00430078511963542
0.00395965866521932
0.00356606340199668
0.00312030617985371
0.00262855109959808
0.00210331933114186
0.00156222891368739
0.00102836379456837
0.000538865739766708
0.000161054934864473
0.00485181054719796
0.00458770610526034
0.00427638227613117
0.00391413905277041
0.00350138873664548
0.00304319723351385
0.00254839437730506
0.00202880935209683
0.00149887999751631
0.000979365580734065
0.000506257064211152
0.000145026016202584
0.00194107101838776
0.00142406047845718
0.000921328479148161
0.000466147251600426
0.00012508164989943
0.00183774896598113
0.00133601172726532
0.000852493348881016
0.000417407222813146
4.25721967500327e-08
1.96610249281487e-07
9.32377966862713e-08
6.95608536373663e-07
6.48851177179793e-06
3.12807627471375e-06
3.5288703040971e-06
2.27092882041038e-06
7.45735961788283e-05
8.04719210755536e-05
2.27466926897598e-06
3.29358154613451e-06
0.000101706747520481
4.37420238771484e-06
5.45061937515074e-06
6.48323832246733e-06
7.44371388333213e-06
8.30433235385607e-06
8.99745581064869e-06
9.3800616383971e-06
9.05756501822487e-06
6.7365051786633e-06
6.8881131062943e-06
0.000161516097107498
0.000522785292445998
0.000144715516938726
0.00107220299837069
0.000582989986593794
0.000142247977798932
5.25422386598016e-05
0.000225937972224174
0.000135435436490555
0.0016501531261583
0.00114093390814035
0.000619237795716245
0.000163410487268106
8.18086625242901e-05
0.00219258827882082
0.00170724505564556
0.00117672421936685
0.000551097306051748
0.00012477762536884
0.000123820506628811
0.000120185477483665
0.000157470106305874
0.00268919342236168
0.00223576047003881
0.00172753530259067
0.0011422794395341
0.00058080344338961
0.000123428300349162
0.000190097164674467
0.000168370420616165
0.000132350101863828
0.00314454328139349
0.00272492443820438
0.00225089490703039
0.00171058916079814
0.00112568830196086
0.000594053954134508
0.000189871536188502
0.00356027397077265
0.00317456749421015
0.00273562892165235
0.00223644651410722
0.00168076926220676
0.00111063904032879
0.000590098564499386
0.000185281346145492
0.00393727700713257
0.00358449789378477
0.00318000669661038
0.00271875795799281
0.00220115006954944
0.00164526446232686
0.00108904470014488
0.000577481588544274
0.000178710517313338
0.00427646223854789
0.00395507092950478
0.00358356832700266
0.00315779747214309
0.00267772200397141
0.00215261000497622
0.00160346975580054
0.00105924386893825
0.000558469362752563
0.000169474516912629
0.00457886118141496
0.0042870630958901
0.00394668507915887
0.00355397044206539
0.00310901895727935
0.00261787532148558
0.00209325339007083
0.00155322072284831
0.00102102897154534
0.000533273206034963
0.000157963862944223
0.00484558618289838
0.00458144344066837
0.00427019008795073
0.00390811351728842
0.00349546502776485
0.00303714433670391
0.00254201659600012
0.00202223307709543
0.00149273233520302
0.000974238442784559
0.000502095153371379
0.00014303109089333
0.00483941307934066
0.0045551496856212
0.00422136894700877
0.00383823895957717
0.00341023434555978
0.00294446727438118
0.00244994798406551
0.00193756708587677
0.00142049035561794
0.000918182097745314
0.000463711671526523
0.000124412498276586
0.00183699792546635
0.00133470227732585
0.000850818459564597
0.000416511341263075
0.000102137593970127
0.00171823064544753
0.00123321961327755
0.000770345369542462
0.000359647996311303
4.85374008013736e-08
6.62876472003417e-06
5.89049311565038e-06
5.2635737682582e-06
3.85743651177912e-05
4.47651578186255e-05
1.40300113632188e-06
2.27395759516702e-06
7.71946822560893e-05
3.26547520118653e-06
4.29822651567787e-06
5.31810001048993e-06
6.29027335272873e-06
7.18502171818778e-06
7.97449636216547e-06
8.60851930004197e-06
8.97877743937457e-06
8.90618610473293e-06
7.68832585716945e-06
5.79368038637997e-06
0.000161423462719296
0.000523135780322382
0.000161290359332745
0.00102378147310928
0.000530525525880596
0.000159328890730624
0.00158862679179735
0.00108314071620962
0.000551014967658915
0.000136095813030005
8.9976482209878e-05
0.000162862109217939
0.0021330529697136
0.00164898991195711
0.00112943161191103
0.000551027410823195
0.000224200505491093
0.0026362007609187
0.00218451689930802
0.00168370437692167
0.00111398675270122
0.000567955899463331
0.00012825808730485
0.000132561846266042
0.000135790865729882
0.00309724204470402
0.002679599354665
0.00220926177428112
0.00167611946246702
0.00110110537378955
0.000583143585341389
0.000188399809012403
0.00018682134875499
0.000173568857733096
0.000150294083135066
0.00351849533100341
0.00313478382136284
0.00269841799033503
0.00220338196819384
0.00165365039320518
0.0010913030874617
0.000579579802700602
0.000181004619897115
0.00390136674216735
0.00355038236586652
0.00314797559684933
0.0026894836209081
0.00217565053145328
0.0016245120972536
0.00107362013555859
0.000567345795841589
0.000174086822847213
0.00424698131917631
0.00392700251626211
0.00355716123738722
0.00313336611998046
0.00265568451233461
0.00213345549889215
0.00158766537971369
0.00104698984516892
0.000549645497779069
0.000165343991507645
0.00455647416979663
0.00426559020194361
0.00392636077911212
0.00353499952406506
0.00309153127405177
0.00260197686406166
0.00207916412322292
0.00154132486826433
0.00101159630190771
0.000526170789720844
0.000154515809036962
0.00483101240874602
0.00456726764024682
0.00425655499077082
0.00389518028966782
0.00348327921561502
0.00302563908023745
0.00253116583196948
0.00201225193070714
0.00148410263210855
0.00096726694852019
0.000496758691794855
0.000140545433920542
0.00483323393193776
0.00454893189572524
0.0042151586903653
0.00383205279793896
0.00340398130621298
0.00293803558891716
0.00244336854502608
0.00193112486060283
0.001414738467726
0.000913376254367488
0.000460195521245221
0.000123189899021219
0.00480489300050855
0.00449637811730568
0.00413944553338055
0.00373819922906453
0.00329890142230454
0.00282892713618011
0.00233707109550774
0.00183379301154568
0.00133161799184138
0.000848158551387292
0.000415157836804325
0.000102328769178981
0.00171793400025509
0.00123244706684447
0.000769616438363451
0.000360230056670639
7.84109142076864e-05
0.00158098096119831
0.0011144832750502
0.000675680807816475
0.000294872754470157
6.56978828358255e-06
6.47291818626324e-06
7.10962730512151e-06
0.000139424499927741
7.47519457648552e-07
1.41808502994099e-06
5.33614112785895e-05
2.27337919656731e-06
3.22402839969817e-06
4.20369371841477e-06
5.16636259193569e-06
6.07736185680126e-06
6.90733941203229e-06
7.63386144434381e-06
8.23163292127941e-06
8.72002592820873e-06
8.82759509482625e-06
8.25103963469752e-06
7.17720100549064e-06
0.000154114942998531
0.000513361982788276
0.00016180261861895
0.000989596149847829
0.000525546662433005
0.000166585377830367
0.00152957536345605
0.00102751428114917
0.000529684197473675
0.000166322117194331
0.00207028188357131
0.00158814772326584
0.00107132651496374
0.000538430858113769
0.00257689024164704
0.00212703956117381
0.00163265345535091
0.00108514418930289
0.000562935229468966
0.00304287183994207
0.00262757404077072
0.00216188013747581
0.00163933123756977
0.00107888038816005
0.000573760518873873
0.00346921908179529
0.00308790425407553
0.00265476462770098
0.00216541831926067
0.00162408503641309
0.0010721207277133
0.000570927191366297
0.000177906867228395
0.00018533545613375
0.000185191833539989
0.000176594836565379
0.00385763142199288
0.00350882504849617
0.00310897307239665
0.00265407898806887
0.00214542569032734
0.00160078238105013
0.00105706725455504
0.000557618912646782
0.000169813351016731
0.00420942228655719
0.00389123648763902
0.00352346400992547
0.00310222800303292
0.00262788488876504
0.00210984049386523
0.00156883532138351
0.00103296528309204
0.000540391747867691
0.0001612388975834
0.00452579366380476
0.00423621642493967
0.00389855166003394
0.00350905099779483
0.00306779400916011
0.00258085357640693
0.00206107173441955
0.00152659128029217
0.0010002080437483
0.000518296918755946
0.000150895926079632
0.00480793918779322
0.00454496628049723
0.00423526147079202
0.0038751118963583
0.0034646069395734
0.00300849091312228
0.00251570484371414
0.00199875756875248
0.00147290457134407
0.000958387392473097
0.000490448682636715
0.00013774404928811
0.00505690595352138
0.00481870846056075
0.00453488083582596
0.00420167609330588
0.00381923780792571
0.00339185575537536
0.0029266014354325
0.00243273505891359
0.00192158702697801
0.00140667555791096
0.00090678956044539
0.000455664534341777
0.000121445352499119
0.00479877449371207
0.00449022778019448
0.0041332555949059
0.00373195670913976
0.00329255691787713
0.00282249461434858
0.00233071473059191
0.00182782217001866
0.00132644337474725
0.000844039314930064
0.000412775347351116
0.000101922715241016
0.00474243416551362
0.00440846561799089
0.00403062493100391
0.00361464790156579
0.00316696319880236
0.00269497705081163
0.0022075977925178
0.00171528580829043
0.00122996353929829
0.000768000564922541
0.0003603316866958
7.93280315014093e-05
0.00158128598064491
0.00111449105021296
0.000676178758513097
0.000297032832140539
5.49605676217215e-05
0.00142273731897083
0.000977123681299493
0.000566447362196387
0.000223561751001536
6.11765067903838e-06
6.50861940925728e-06
7.16243812555905e-06
3.23369975478075e-07
7.63524133386344e-07
3.21519093668279e-05
1.4324890185923e-06
2.25997148976426e-06
3.16449099447444e-06
4.09101160685047e-06
4.99694566447269e-06
5.84659614391732e-06
6.61467227248121e-06
7.28749900103078e-06
7.86289086193537e-06
8.37363697959087e-06
8.47134805280077e-06
8.05022323612179e-06
7.45944645638038e-06
0.000144852346273357
0.000495441003398688
0.000154555527464483
0.000959285280852473
0.000515292164806408
0.000164772648433566
0.00147733731651792
0.000991370150218703
0.000528817245512916
0.00017019055518801
0.00200662062517775
0.00152885876763207
0.00102284435070082
0.000537549021252017
0.000175747999416704
0.00251258575406867
0.0020655347628161
0.00157567776816968
0.00104677824618814
0.00055386611084821
0.00298173320658646
0.0025692970226479
0.00210830571270885
0.00159756810881639
0.0010564140634778
0.000564901412147496
0.00341245601963666
0.00303406207545314
0.00260481443317611
0.00212262275197591
0.00159254199683767
0.00105312968422026
0.000561850417269615
0.00380597242968401
0.00345983794007628
0.00306313198193341
0.00261282926425438
0.00211102237590981
0.0015748582570622
0.00104033385553959
0.000548616279116277
0.00016594079398795
0.000174890565230286
0.000181475075366103
0.000181690078817744
0.00416362919845335
0.00384769250703456
0.00348249289889615
0.00306451954058231
0.00259459991642369
0.00208217717589274
0.00154749885452574
0.00101788694267255
0.000531037035248032
0.000157235541920887
0.00448663852204006
0.00419880206339968
0.00386316859624189
0.00347610237248245
0.00303786232621354
0.00255462925433748
0.00203914631591534
0.00150924684843596
0.000987248027712167
0.000509902036287123
0.000147198295907801
0.00477618160350092
0.00451440176877075
0.00420616556341361
0.00384777793880793
0.0034393495031378
0.00298564362340277
0.00249561556551361
0.00198175559969862
0.00145918562658817
0.000947854260564271
0.000483412864445299
0.000134757017608169
0.00503338807055087
0.00479573816806077
0.00451278946356202
0.00418070763015556
0.00379958464999115
0.00337366634487969
0.00291001671047403
0.00241795331049879
0.00190888180873068
0.0013962585719105
0.000898709608824809
0.000450282477266408
0.000119332717384216
0.00525944625811262
0.00504387793909539
0.00478437931037809
0.00447639495789485
0.00412002898412759
0.00371940160163083
0.00328071210065353
0.00281143367478009
0.00232061950612579
0.00181897539451615
0.00131908607591639
0.00083840631703418
0.000409362689238014
0.000100933938532584
0.00473642349702202
0.0044024419276649
0.00402455111018436
0.00360852011441231
0.00316079455580304
0.0026888740909547
0.00220177936055812
0.00171001683866249
0.00122553207688912
0.000764995880554956
0.000359326489558676
7.96297284196471e-05
0.00464876077050446
0.00429118630585336
0.0038953893862842
0.00346713071133039
0.00301288205849658
0.00254040387322683
0.00205900935040186
0.00157936341527498
0.00111301485012424
0.000675916647964266
0.000298638839778558
5.62601521181258e-05
0.00142371234459127
0.000978079574283867
0.000568235452567954
0.000226963003488976
3.35876328833933e-05
0.00123976877401163
0.000817364067848834
0.000440467914545915
0.00014848929086871
5.57612305387164e-06
6.12953997932153e-06
6.84279973317177e-06
9.84698219753198e-08
3.31291316154806e-07
1.55078266480878e-05
7.78863679383589e-07
1.43625119339566e-06
2.2296558025799e-06
3.08783090814055e-06
3.96217391581713e-06
4.81150684398294e-06
5.60011538220808e-06
6.30905520575587e-06
6.92898418541215e-06
7.45459075492997e-06
7.84247731642655e-06
7.85265665321976e-06
7.53622569142668e-06
7.00218302266093e-06
0.000134540474251649
0.000473689865282674
0.000145213518633538
0.000926180841500381
0.000497166326466955
0.000156305736077942
0.00142857692506314
0.000960767965703769
0.000517824706990318
0.000166302763482294
0.00194400560269531
0.00147670023698341
0.000989923900948732
0.000531632136361995
0.000171691334755715
0.00244463854688585
0.00200275620763605
0.00152015219954689
0.00101292468261212
0.000543424381788275
0.000175675048947935
0.00291436449668496
0.00250591790785997
0.00204995088252849
0.00154989386691435
0.0010292321116586
0.000552822541539156
0.00334825511335346
0.00297352338955467
0.00254878410948504
0.00207439264937476
0.001557477330474
0.00103271406815831
0.00055127090863077
0.00374626459210214
0.00340342981690578
0.00301056028567322
0.00256582922947006
0.00207248643393167
0.00154682882209874
0.00102271231675563
0.000539279099247212
0.00410940916854313
0.0037962728662782
0.00343425718409605
0.00302035516581502
0.00255605421636641
0.00205080497177357
0.00152402699367316
0.0010021624789601
0.000521691239348308
0.000153289306364098
0.000162036303075763
0.00017052460536301
0.000176007901161445
0.00443879119763042
0.00415319248171123
0.00382013099275902
0.0034361602074032
0.00300183539261243
0.00252348919704456
0.00201363865191336
0.001489590946785
0.000973221383391525
0.000501146909949897
0.000143451923264989
0.00473552013566204
0.0044753959816703
0.00416913009717742
0.00381308823244216
0.00340747254558299
0.00295711943735337
0.0024709651290698
0.00196134611067764
0.00144309173249991
0.000936006345862356
0.000475803745082289
0.000131641144809277
0.00500070372424816
0.00476410780962269
0.00448252239952364
0.00415211529497776
0.00377296940954795
0.0033493202217253
0.00288822664161718
0.00239900210435231
0.00189301040235284
0.00138353435027557
0.000889215419076222
0.000444204421909769
0.000116977488340705
0.00523545476024323
0.0050204883599179
0.00476164566323572
0.00445467811115177