/*--------------------------------*- C++ -*----------------------------------*\
  =========                 |
  \\      /  F ield         | OpenFOAM: The Open Source CFD Toolbox
   \\    /   O peration     | Website:  https://openfoam.org
    \\  /    A nd           | Version:  12
     \\/     M anipulation  |
\*---------------------------------------------------------------------------*/
/*   Windows 32 and 64 bit porting by blueCAPE: http://www.bluecape.com.pt   *\
|  Based on Windows porting (2.0.x v4) by Symscape: http://www.symscape.com   |
\*---------------------------------------------------------------------------*/
FoamFile
{
    format      ascii;
    class       volScalarField;
    location    "400";
    object      omega;
}
// * * * * * * * * * * * * * * * * * * * * * * * * * * * * * * * * * * * * * //

dimensions      [0 0 -1 0 0 0 0];

internalField   nonuniform List<scalar> 
10107
(
5.27003482348185
7.27825328304519
1.0113977118832
5.96826009719384
4.14927083928547
2.53962605639212
9.14053124380136
0.748839175195681
1.02430617680117
1.98947300739048
4.06764258281354
2.23147781495143
4.66904877017909
1.02082616730931
1.86520000711045
9.18162026892896
4.31205226671746
0.51522673870565
0.396573070262152
0.708014971690528
0.945073459760783
0.773125793689599
0.986471281128059
1.22065357031053
1.05454403948521
4.094106352247
3.54014110772502
1.32697571768779
2.31297151827089
5.09571296103964
0.583635357690655
0.781240770286489
2.01580349158397
1.31290724145823
1.3237404427037
4.43089718798029
2.7202838178289
2.08420624227303
1.83583314437996
0.403650130105251
0.349644889388765
0.496669514127949
0.288686167109648
0.385939866641275
0.639590292866408
0.966290337376839
0.830541683856204
0.605619693894696
0.834849348235739
1.05474687566461
0.949439239529102
4.54723869844334
3.56082404316362
3.20924745751029
0.943536994034542
1.30261076845634
2.34574238528142
3.95312183062866
0.477069168178405
0.593961699170539
1.30268812154402
1.08054657059672
4.75759480946997
4.41110540376318
0.815932657370519
1.30413518005347
1.19659927705331
0.365426721551402
0.316700568927857
0.424658671471887
0.2749945298935
0.353294790620529
0.625036909821265
0.241138026142817
0.288824986131404
0.413587003984492
0.903457088431944
0.731173348941045
0.771323345921042
0.860679859298205
4.21125316065085
3.67095202867328
3.32486447822636
3.17186088385131
0.797628210183242
0.953680848129686
1.46407558123492
3.45560940552646
0.449871288667387
0.528704232243598
0.955176509759281
3.17815925430089
5.16228597672177
0.909232398454839
4.4438557929623
1.00972717951207
0.35239988937877
0.301217710475083
0.395486537686156
0.264221645210461
0.327132275761258
0.539656264061915
0.235731219950715
0.277387075888962
0.381012500265354
0.89463500345673
0.214503979649966
0.24151221008773
0.293968309153925
0.432781740213743
3.9972631466993
3.52242491168161
3.27383849417203
3.12219677449552
0.752964905169498
0.829193920338813
1.14937913466747
3.31782161675668
0.444734958838385
0.507330667591984
0.867544022171094
2.98769745909496
3.26468592581607
0.795966911860964
5.23596345843017
4.50823200270357
0.348718182995662
0.294437139847395
0.384532745527326
0.257480569595518
0.313817389416432
0.510132154430978
0.231177097137176
0.268075460252548
0.357754781089884
0.8748160910587
0.212058097117246
0.236688206677939
0.284782126520866
0.42210830537772
0.800797822692088
0.214666636456587
0.242743591141031
0.300041017499945
0.423735363804746
4.02502402442387
3.53970932205945
3.29197360510439
3.1508830226331
0.750593426169464
0.787113236873566
1.03319366203496
3.27878063814882
0.449680615108296
0.50296756273485
0.84546868331901
2.9682566388506
3.00569648010294
0.766440963181966
3.29539497570583
5.25714597072873
4.50893437524619
0.34979784876
0.291889013716037
0.381724341597496
0.25377150347442
0.307760756826937
0.50072352541412
0.227860453562124
0.26200225995722
0.346426082598802
0.86150689097203
0.209833128721717
0.232562193597504
0.277195379776739
0.411122229271803
0.80163869044181
0.212416145168462
0.238874828718283
0.295052260715169
0.421535075751809
0.768693623177888
0.214879790817915
0.244292597273854
0.300194790363689
0.415978504700791
4.05164480188546
3.58187176909058
3.31347654572538
3.14867074790825
0.779033228936751
0.782078459453894
0.990446154418874
3.25698095035996
0.462457662198347
0.507888761273391
0.842052910096768
2.97852550755558
2.9707097236313
0.757742856158409
3.0171940487117
3.30684481874429
5.26186321824533
4.53678670404781
0.35548010442339
0.291940355694224
0.383331648624709
0.251972080700586
0.305512142371119
0.501197739010831
0.225663284162454
0.258577391240213
0.341394338239408
0.856110683896212
0.207974036364193
0.229493127151312
0.272137182391592
0.403970942800274
0.802549022383354
0.195716035205697
0.210343787293702
0.235469325551238
0.290238912781791
0.418310302498688
0.770298553570158
0.213012332594773
0.241778005601916
0.298087088633371
0.415495627628178
0.758467961270908
0.215064888158682
0.244503936451512
0.298033747362781
0.410787146308571
4.06901349337569
3.60414217353889
3.32899135058071
3.20606431223534
0.825786716484309
0.810967775525162
0.997479508268368
3.25879707512224
0.496710896789884
0.520855092799469
0.847362305297953
2.98931009642749
2.97739378968851
0.75236424466121
2.9733751092887
3.02366096824299
3.31550065235858
5.31432902124554
4.54468513030997
0.371617873231072
0.294848752156529
0.389707317429595
0.25153762640311
0.305748907502228
0.505181147309271
0.224318775833024
0.256885998245515
0.339761835308553
0.856595776992314
0.206536135956031
0.227418635282796
0.269214284756902
0.400453613932943
0.803605702041873
0.194532387257143
0.208585288325742
0.232851473401618
0.286654485224565
0.41574385567332
0.771591602589358
0.186185187699124
0.195891726432686
0.211242148508205
0.239363781012729
0.295740072233157
0.414551075128545
0.759140486819287
0.213729367747736
0.243126224078649
0.297183350892196
0.410626025655895
0.752686743012854
0.214804668169753
0.243471383726228
0.295183194737115
0.406026660878038
4.07324184915891
3.61989243280007
3.36243502119815
3.25131513111342
0.937607457512026
0.860544278391839
1.04235660352434
3.27988146396991
0.590749500470737
0.551581702405866
0.863888779489355
2.9971858613557
2.98788943717078
0.745648764331375
2.97718044401914
2.97614017048956
3.03024726371563
3.33163896088872
5.35602151296243
4.61092380035489
0.418647180218806
0.303014341495518
0.406357827042443
0.252549052423741
0.308755687985206
0.515669709536772
0.223648233825379
0.256459495062679
0.340453562163826
0.860298733225982
0.205465862685638
0.226119549276515
0.267728882947919
0.399235019301372
0.805420371541092
0.193494531889027
0.207203352240939
0.231017003038991
0.28441536870369
0.414193495677148
0.772599242320473
0.185366832408265
0.194753838820189
0.209687907680564
0.237363439442101
0.293743541928796
0.413607817970236
0.759701702372022
0.179737590965159
0.186224504948693
0.196068383017766
0.212379977218116
0.241655594355854
0.296098366382617
0.410208007987816
0.752848330698361
0.213976476940967
0.242784721216484
0.294825755264297
0.405980454713847
0.745924211818616
0.213977422566178
0.24168576131031
0.291880025062214
0.400547470125223
4.08760426479464
3.64062805979951
3.40533452077345
3.40888787680393
1.15217680489317
0.959039322362482
1.10782890794104
3.33405604383619
0.913968514743866
0.629565646920581
0.890206420077163
3.00278185522813
2.99613123920442
0.737122099290633
2.98711966570684
2.97798796838942
2.98011658958233
3.03916579930953
3.34928365706884
5.50343821068362
4.57673898216596
0.579498971158329
0.322892435797839
0.453054849589908
0.255676717752155
0.31684461582992
0.538234373569697
0.223637282125078
0.257383209027176
0.343843136704667
0.880614060814174
0.204704586999938
0.225437136861953
0.267309331550455
0.400080512226608
0.811166122968153
0.192595294512993
0.206155126357749
0.229809514633808
0.283158543949648
0.413471967142039
0.773954338333853
0.184559791498085
0.193742702085013
0.208423122321741
0.2358593342747
0.292278810826105
0.412805466065032
0.760177510645104
0.179124388845498
0.185428589858118
0.195027739734618
0.211113002407317
0.240300428442366
0.295013782420937
0.40965812104806
0.752910621173056
0.175424301847883
0.179722128990208
0.186126053473401
0.196235974664104
0.213053040150492
0.241943816675523
0.294257143441171
0.405684916054541
0.745917438869441
0.213518879994174
0.241362636924714
0.291737660954966
0.400580774076198
0.73739172277893
0.212709112564881
0.239426935733868
0.288055468410605
0.394113014396817
4.09252256686571
3.66820644959643
3.49306732275086
3.64382144658235
1.60824910843481
1.12190361517191
1.19435148701177
3.41292537707422
3.07870875889917
0.917985615036465
0.926383028908236
3.00662897851038
3.00211845303373
0.727164505232511
2.99546430097443
2.98716598030766
2.98013082638813
2.98585620709538
3.05014928535692
3.38062081357103
5.69036198270097
3.8730490814397
1.14807303153801
0.366590502940103
0.574487464616034
0.262000128185008
0.336092504370727
0.58320164135996
0.22440385621156
0.260161508738119
0.351746505876863
0.921360346935693
0.204227545557013
0.225349272527593
0.268030100255988
0.403933313784559
0.821942199974307
0.191814348473239
0.205387541008384
0.229100147993204
0.282674800159733
0.41382479161507
0.780225881590988
0.183773469537539
0.192854804537167
0.207421447015669
0.23477200072181
0.291254562843888
0.412222683919143
0.762869692574445
0.178457368726804
0.184634866412511
0.194075542954345
0.21001478037394
0.239150669140097
0.294024111456468
0.409030378800723
0.753041123906076
0.174931987654016
0.179121016794158
0.185378332081323
0.195336524803721
0.212090605586374
0.24104961371341
0.29356308252746
0.405204916655682
0.745754315724417
0.172620318965813
0.175390588270627
0.179521782660934
0.185934306746476
0.196208622792117
0.212922052305231
0.240863011054362
0.291377414363254
0.400332665394137
0.737313496069641
0.212482530600489
0.239290386332706
0.288021605795347
0.394197915639294
0.727516432573168
0.211166752115101
0.23684579369433
0.283749821419488
0.386975986501817
4.10547671168613
3.70988258459
3.70412601432622
4.40687230616592
2.51310024892921
1.50135045804627
1.29801142121496
3.40587309548597
5.56935632745119
2.96800662017695
1.02212737000845
0.992679946910213
3.00810733057151
3.00625796220537
0.721216120025631
3.00167241210895
2.99530713291871
2.98821163596928
2.983660754701
2.99267318976685
3.06124431078117
3.41224625226103
5.97442220864581
3.31903464970527
0.971435665691179
0.43919222337105
1.09625111274621
0.272139871521811
0.36609956463072
0.965551616405485
0.614884905172707
0.22609935522742
0.265344843322585
0.366436691095287
0.626828911436002
1.00709953139758
0.204039109543755
0.225926908720185
0.270104898345761
0.412126735901793
0.831176287515505
0.191134321659453
0.204873142778894
0.228853598955816
0.283072658414818
0.415596541152153
0.785248728910456
0.18300250657058
0.192071583312022
0.206638816175868
0.234014356719777
0.290609930124832
0.412278822087605
0.767656311934513
0.177748712900567
0.183854442321827
0.193212596190853
0.209078255288398
0.238185804942377
0.293130275825276
0.408561856989225
0.756678134316224
0.174354395170534
0.1784609090357
0.184614912470787
0.194470897948551
0.211171903539609
0.240161404264821
0.292783600189686
0.404600865917295
0.746141436639036
0.172205060504778
0.174905500692438
0.178945747297543
0.18525831609511
0.195464428595699
0.212202958947779
0.24022698218628
0.29083775347156
0.39987755670598
0.737305773306612
0.170898313366854
0.172585065851126
0.175161736514469
0.179208027857496
0.185639758070018
0.195850632577114
0.212094802833851
0.238962274042561
0.287753613371469
0.393985871502721
0.727590875019435
0.211075290811131
0.236805129477878
0.283771382191587
0.387129825102917
0.722753386741285
0.20951316418514
0.23409847532962
0.279180714679702
0.38044516120201
4.12079691745599
3.82309748124472
4.20185004395085
6.2779386786611
2.59455446050988
1.5529684301262
3.79398833320395
4.20862058821044
7.04583862283236
4.42545133364611
0.921551128965448
1.20787722958977
1.70564998458178
0.898886496596353
1.50153700409365
3.00479489861237
3.00792242084241
0.725292970204751
3.00600077155068
3.00151221660038
2.9957712188442
2.99022837485353
2.98795959616821
2.9985502999755
3.06971332369608
3.45241325094409
5.3751916532156
0.865047608233022
0.434347023401236
0.97731559176987
0.284548125530139
0.396952018069984
1.06682111818171
2.5984516737995
0.796613254700492
0.228674762843212
0.27248870587725
0.374344718419344
1.11010229029452
0.812879133427375
0.57827700144123
0.774366537882368
0.204140308197995
0.227220904847871
0.273282060509107
0.427266083189679
0.814847949431743
0.773838966635906
0.836727605566194
1.16121855907933
0.190541294118577
0.204604669399156
0.22906293562453
0.284360251845577
0.417880257021542
0.782751062184209
0.182237241068489
0.191375178241164
0.206044087714321
0.23354761542008
0.290360317219478
0.412463526503035
0.770209000504066
0.176998693616333
0.183082593990517
0.192423100208182
0.208271439275388
0.237361403872673
0.292333849476824
0.40837235454633
0.760237959156066
0.1737015461997
0.177755212511608
0.183847872132268
0.193643837898255
0.210303569512264
0.23928229330405
0.291945431087305
0.40420706924406
0.74985241376067
0.171689525775012
0.17433160683504
0.17830151128326
0.184540497528074
0.194694696879044
0.211430215763764
0.239488155098266
0.290141288841635
0.399341017307044
0.740078877323886
0.170539907303823
0.172174586454282
0.174690459800198
0.178669445933598
0.185045771752232
0.195240322013677
0.211534907700186
0.238456005183067
0.287281610688025
0.393628711393648
0.729844865492931
0.16995259678097
0.170868973699265
0.172360158030516
0.174825856232338
0.17884379841278
0.185228641342113
0.195189784718795
0.210808413230712
0.236560889524925
0.283548016927557
0.387002038332798
0.723850290862751
0.209495281528643
0.234102418747947
0.279234165689857
0.380843908617198
0.725065206316079
0.20794102894625
0.231423516039095
0.274858244129954
0.376211730794175
4.27944907072908
4.10275621453384
5.44637106668741
3.11198871262333
3.31322299288818
4.42817052605534
4.89885632165427
4.72110659296529
1.16417377130561
1.09068035098443
2.99553684740839
3.00471274591505
0.7359103528226
3.00779187168594
3.00589047425553
3.00169655307656
2.99682921125701
2.99279902052904
2.99153466492761
3.00051719804159
3.06794005574955
3.47183702090853
3.15914725847201
0.795373123907303
0.429159908003311
0.904770318759921
0.289170282983921
0.409513696605613
0.954721379341995
1.83153476521373
0.756185998073342
1.02763045702031
0.231576488340362
0.28056493549201
0.394914944101536
0.926993339649021
1.46912316557818
0.204463348546749
0.229112685228679
0.276351021285641
0.436774523185804
1.08434648262057
1.07995921481861
0.931397073906281
0.885466794559593
0.190014036320179
0.204567843328844
0.229652022217362
0.28598944059738
0.419649468292321
0.908994406577595
0.773373586656224
0.845733141769748
0.986333225201534
0.18146524011947
0.190749265099125
0.205612145711006
0.233311272763824
0.290309687464878
0.411408574251728
0.766781472623741
0.176203073373897
0.182309642231891
0.191688690826499
0.207562468719705
0.23663489419139
0.291538377082136
0.407779584477166
0.76170920846503
0.17297569725725
0.177004504892999
0.183073289069927
0.192843058631816
0.209466119466959
0.238391458282737
0.291037004096715
0.403918488631566
0.752815130314576
0.171078998891602
0.173680083318954
0.177602728045552
0.183792893158444
0.193906055081727
0.210614908019534
0.238654017392994
0.289323779282833
0.399050073628803
0.743408686271759
0.170074597630801
0.171661042695353
0.174124960683086
0.178049273960763
0.18437991746207
0.194553576778792
0.210858171874385
0.237791827517706
0.286630240782243
0.39339982717212
0.732864804410231
0.169650134122023
0.170514016123189
0.171957723155871
0.174374587027254
0.178349209433542
0.184709536527837
0.194675956123228
0.210340530623073
0.236117048080112
0.283122514143895
0.387034595088909
0.725732078918013
0.169932410708658
0.170662065348931
0.172045626431177
0.17448132539139
0.178479946034363
0.18474154393088
0.194354199853438
0.209292284094029
0.233894916971651
0.279037893928278
0.380875473056429
0.724396880470837
0.207956478629228
0.231440329794389
0.274962651568519
0.376221320464139
0.732375939757639
0.206721288409697
0.229216084655125
0.271584203700457
0.374453906419443
4.72437067178306
3.17793968532096
3.37837639929875
3.93442892991065
2.22645692763157
2.05456206166862
2.988404427218
2.99550403396536
0.753584126390127
3.00465407972314
3.00772716149031
3.00595457031049
3.00220125851827
2.99824734783479
2.99498859480117
2.99234658532949
2.99605448464726
3.0373867508719
3.22309604519668
3.70123266792263
0.762858301845998
0.412935088796701
0.796165460438619
0.29071109946811
0.423748047795934
0.834597718962169
0.233210998904199
0.286067518657781
0.422412723600033
0.99541390614866
1.34017684066436
0.92033861943511
0.204790614210367
0.231270637609754
0.28105824394839
0.426502540785646
0.760244254193101
0.189502930055607
0.204696930602901
0.230464003848199
0.286759920863263
0.418529772615316
1.05386548092419
1.02676123229759
0.98810202905622
0.180668026707085
0.190170214050339
0.20530798052378
0.233161055970084
0.289942790091673
0.408655707963338
0.753763938655876
0.765803613563837
0.805210804544668
0.882259836877994
0.175354449608024
0.181522668720263
0.190989329748236
0.206913489861002
0.235920908530428
0.290499513781305
0.405804222013659
0.759362689350558
0.172176358666398
0.176204589253696
0.18228153489735
0.192050572735466
0.208630634258901
0.237443313520913
0.289938413885055
0.40298570581044
0.753982162867595
0.170377280829831
0.172953414147894
0.176850216814754
0.183012356207062
0.19308973076548
0.209745656760388
0.237710111913644
0.288354808395759
0.398631223393428
0.745681845799654
0.16949733398568
0.171050905867832
0.173476653727675
0.177360398417832
0.183653227683315
0.193796369531646
0.210074855523172
0.236976615165345
0.285830827205818
0.393218303897014
0.735619874542743
0.169238739141021
0.170049722954249
0.171448532356266
0.173821566330983
0.177756842151802
0.184090535974461
0.194048445761328
0.20971818597429
0.235488630373462
0.282527437590478
0.386993475838426
0.727940431189685
0.169632448642984
0.170312008817034
0.171653980448913
0.174053652117941
0.17802708047264
0.184279880580938
0.193901151816281
0.208871818761988
0.233479170072523
0.27867078657279
0.380836282886982
0.724607101583849
0.169749087718345
0.170387062463216
0.171760026417773
0.174214026256399
0.178180821115924
0.184279765456292
0.19352049620109
0.207780511722927
0.231241512778561
0.274777451053636
0.375809945590759
0.728855007597008
0.206741791175103
0.229225424153805
0.271562548450601
0.37359377801598
0.745717013832524
0.206273177542496
0.22814776383401
0.270094669873599
0.376649671917379
3.06240844532914
3.19263853277925
3.23591728226173
0.972624749626746
3.00012317284131
2.98838951838587
0.780842517812199
2.99548065381921
3.00461954795575
3.00774703696448
3.00617033780488
3.00291439194283
2.99951570782702
2.99563074578356
2.98890831186384
2.98298480138562
2.99445812932044
3.06772242194462
3.19237385003994
0.753535153606891
0.40201822217372
0.761379081466661
0.287770445070431
0.410310930295197
0.774285851749227
0.233414496109593
0.289066153428689
0.419602728236518
0.794708866580861
0.204701818141413
0.232738180682135
0.286291392070452
0.422200329725781
0.188907461731255
0.204823893567252
0.2315661856443
0.286648963407977
0.411173539338464
0.17981467833384
0.189590936511005
0.205073257836774
0.232932918552659
0.288774838984326
0.404752595946002
0.174441634745145
0.180702941689699
0.190298604801976
0.206275440026766
0.235091783421596
0.288922468772594
0.402016921384177
0.752066329519927
0.745059906312632
0.751602161491578
0.772832511184434
0.171300972267405
0.175348017665637
0.18145918463878
0.19124390945657
0.207756838438769
0.236358821746971
0.288453265020527
0.400964617122304
0.752658514000492
0.169587164387777
0.172151156796031
0.176039884898277
0.182189635875296
0.192229494918958
0.20879823315567
0.236615239470028
0.287129222484903
0.397591259994638
0.746395042198565
0.168817719880047
0.170348195694341
0.17274816095741
0.176603650200464
0.182863180460497
0.1929621185364
0.209177198930445
0.235997084910057
0.284839624103821
0.392632898531215
0.7374742927111
0.168683839953239
0.169472291006128
0.170839444780155
0.173177546561463
0.1770782379059
0.183380905221004
0.193311065725043
0.208949592742798
0.234680370213378
0.281762933148527
0.386706577596508
0.729798227023222
0.168993324342122
0.169221217639742
0.169849783011495
0.17115082904382
0.173514801492513
0.177460130241578
0.183695618027853
0.193309281567493
0.208275495414046
0.232868280221545
0.278138925795707
0.38063919501761
0.725417350447094
0.169452082993137
0.170042690711252
0.171380703742642
0.173809002469556
0.177761026883592
0.183855916027782
0.193099843859986
0.2073783437463
0.230833721387681
0.27439108266749
0.375339689533898
0.726732264948035
0.169519948939909
0.170175511272217
0.171609362655026
0.174107436359045
0.178048361849254
0.184001705778982
0.192915710374927
0.206567090924832
0.229017650264029
0.271229317814
0.372351366123347
0.738605970767444
0.206277811464754
0.228105899345785
0.269820295569926
0.374492480167216
0.768101120815569
0.207301067927295
0.229248056559251
0.272181514956276
0.386563892630786
3.03904660161857
3.08705306668659
3.12147597404275
3.03227789416475
3.00011815589781
0.818927247027033
2.98838524891312
2.99546486959106
3.00462601301671
3.00783005496708
3.00649472784376
3.00358748310247
3.00002743082254
2.99406506223786
2.98244609025947
2.96917431186883
2.97409970003325
3.02400297030466
3.03888528969574
0.747541910493687
0.394919526298461
0.75181609784501
0.28323656798178
0.399779312441624
0.748508638644399
0.231827161510062
0.286548476245816
0.404967681258769
0.753943697769387
0.203941625118938
0.232929529911466
0.287601468387967
0.409155746078297
0.75106049415747
0.188076565330335
0.204609574642848
0.232450517550482
0.28725345030006
0.404707976123062
0.178856956020189
0.188922659264416
0.204821749102187
0.232668738349079
0.286816539357898
0.399493510796754
0.17344836917786
0.17982074954634
0.189575351210611
0.205597116303742
0.234042575638289
0.286788313584514
0.397812661057713
0.170345146306612
0.174423720921949
0.180587763784764
0.19039556843022
0.206797842406174
0.235056485756734
0.286409015257278
0.39768428712774
0.748618652771732
0.743027177042721
0.736852154868933
0.740020209518872
0.168710159212071
0.171270793247048
0.175164399740293
0.181311416635805
0.191303782865481
0.20773822212989
0.235309141069607
0.28549791173232
0.395738602383614
0.745309208180619
0.168042558929063
0.169555749695734
0.171939128911326
0.17577516099642
0.182001442626001
0.192037380244304
0.208145967249257
0.234820130329247
0.283564964142873
0.391481433581885
0.738123438536557
0.168021765160359
0.168791537838729
0.170134621628534
0.172445027244948
0.176314053117852
0.182578409225118
0.192458369490921
0.208028482176869
0.233679149469301
0.280759066334643
0.386004153652392
0.730824540268332
0.168436782606205
0.168665934130505
0.169272065797243
0.17054262934002
0.172874456343094
0.176789048538322
0.182996017428344
0.192580306176955
0.207509660663541
0.232062609446927
0.277364892299966
0.380149663914803
0.72615446286093
0.169125770296404
0.168982662310498
0.169041211308659
0.169582805015647
0.170883825593812
0.173282636109268
0.177212697921378
0.183292502979863
0.192524292210194
0.206789019704995
0.230227170791917
0.273796578079531
0.374766643375046
0.725740287184898
0.169225621467184
0.169837028379131
0.171241525186291
0.173720253235575
0.177650338037326
0.183597634147626
0.192505615655433
0.206162354669821
0.228595834400363
0.270700265340526
0.37118374929547
0.733627405880299
0.169385728496096
0.170145704956049
0.171690523695723
0.174271325643633
0.178240205496866
0.184135734154915
0.192854018419446
0.206084228911368
0.227825775597122
0.269211188452395
0.372073992400525
0.757047704180693
0.207272411773013
0.229103991183922
0.271543262097746
0.382685077796933
0.801774913833383
0.211056376875743
0.234726901084405
0.282283895953122
0.413032528932221
3.02364345326162
3.05835341538442
3.05253662388946
3.04960403194021
3.03226513676743
0.870648118140762
3.00013713898965
2.98838045979743
2.99546907768607
3.00465558655069
3.00796249508925
3.00681645249182
3.00394051422881
2.9994762954023
2.99109566163266
2.97751918913836
2.96596245573261
2.97354362953806
2.99246932825524
3.00427773299478
0.742327788299705
0.388665764586654
0.746037247745746
0.278572126109067
0.39283729888804
0.74272315719239
0.229063998246261
0.282122427452166
0.395232857742096
0.73578907921292
0.202378786516978
0.231323829743407
0.284482462007746
0.397913456621629
0.736031319745218
0.18689019680283
0.203767550416773
0.23213414775351
0.285480130648524
0.397667386528813
0.732624824235346
0.177734712556857
0.188030091725269
0.204313297001956
0.232288316372963
0.284862005957228
0.394699168997103
0.172353476365044
0.17883143035843
0.18875283220616
0.204833340833818
0.232798560851574
0.28422397754161
0.393461869118889
0.169303075405135
0.173416067651329
0.179640800889603
0.189471756440747
0.205715105519354
0.233496789710543
0.283953302395288
0.393735459739219
0.167747168206657
0.170308068967584
0.174213277263209
0.180360495704073
0.190287814087914
0.206530467722598
0.233745382947098
0.283376903660159
0.393002387453423
0.742526443181723
0.743057438611305
0.736338782745942
0.730607065772134
0.167176619524717
0.16867511781295
0.171047208646151
0.174868078543873
0.18105594752108
0.191004097178487
0.206955244217882
0.233404682571704
0.28189570409211
0.389666996294571
0.737460947801965
0.167263270694269
0.168014299302148
0.169336967471836
0.171623766652776
0.17546083301318
0.181676005187923
0.191479660342516
0.206940098226193
0.232459663600129
0.2794328651379
0.384787219124036
0.730813257150169
0.167786390152225
0.168002640432694
0.168588871093329
0.169833438880466
0.17213480077912
0.176014192941065
0.182178838482016
0.191709205590222
0.206568747133056
0.231048900862797
0.276314550889881
0.379253644868915
0.726306795503074
0.168587999108451
0.168427180768549
0.16848488948603
0.169003833751505
0.170275120736362
0.172643438249411
0.17654423084502
0.182594997820278
0.191793851918918
0.206017213986395
0.229421079373243
0.272958883193601
0.373962548380362
0.725096901816042
0.169539434251574
0.16912377901485
0.168823210897712
0.168814601295406
0.169378723303616
0.170749208672485
0.173201937862137
0.177111885254487
0.183041915054649
0.19193087915403
0.205565389825504
0.227964639217107
0.26997502673493
0.370056901965348
0.730464660474554
0.169093482898987
0.169812054200815
0.171331003333802
0.17389496529512
0.17785218075425
0.183735597196209
0.192436883649315
0.205659722745608
0.227334183787363
0.268439719259319
0.369950420183426
0.748823813701373
0.169472670650126
0.17040360356685
0.172121647407017
0.174869196463354
0.178991957199164
0.185016266407611
0.193809943326561
0.207037634727556
0.22870901407445
0.270545352361929
0.378748347261896
0.787079132832888
0.210968238333752
0.234442556062283
0.281174492700733
0.406951510913159
0.851402773571417
0.220089538704821
0.24983768534768
0.312340182616663
0.485493098182003
3.0247177064467
3.05020418506065
3.03429078017122
3.73006693002183
3.04959415554777
1.07168424840482
3.03228292887633
3.00012142561296
2.98838437108533
2.99547885057045
3.00470379617671
3.00809964913782
3.00701746144821
3.00383444881016
2.9982515987981
2.98890124898374
2.97806516607392
2.97319974693783
2.97806331878807
2.9822999625052
2.99773181936069
0.736864559907493
0.3823928986292
0.740886856805448
0.273792436655477
0.386672918109533
0.7383716040887
0.225737036510409
0.277490108283515
0.388866061018402
0.732790736136382
0.20017182059788
0.228544602511981
0.280009416014079
0.389976614901262
0.729133217739555
0.185300154495115
0.202152110820244
0.230259043962414
0.281673500129222
0.39098494346288
0.729306658972565
0.176401686407306
0.186794881024957
0.203244187975569
0.231033937535904
0.282030987060458
0.390277765539669
0.730618068530734
0.171135463263692
0.177679279693923
0.187723281357488
0.203850805710746
0.231358609553911
0.281537010606814
0.389496307304691
0.168168983425195
0.172305193831631
0.178581147515692
0.188427114561572
0.204483695203482
0.231700537776958
0.281223968536746
0.389805933753441
0.166699584710696
0.16925751573437
0.17317256840657
0.179315309666037
0.189156047343789
0.205151273171531
0.23191987554794
0.280869241465853
0.389621330844304
0.166224572413005
0.167707294875717
0.170068572091237
0.173873164069347
0.180012191832172
0.189842984973345
0.205581826659417
0.231724123894711
0.279809589662975
0.387180243002367
0.735542021004576
0.738689657934896
0.738027122922032
0.734007916238057
0.166414648414211
0.167145367028173
0.168448147967705
0.170711784157007
0.174512685386632
0.180663771094651
0.19036118306225
0.205666255730616
0.230997450590022
0.277747713782272
0.38300700083177
0.729750908553226
0.16704508599251
0.167242167517435
0.167807059858156
0.169026200863874
0.171295741481332
0.175132653993471
0.181238318571984
0.190687561178903
0.205441538618783
0.229808192437942
0.274952759858582
0.37788670356419
0.72564971370055
0.167955895480369
0.167775757710208
0.167818900683042
0.168315768743137
0.169558359873542
0.171893190047934
0.175755618497356
0.181760977774044
0.190903597135778
0.205057716154576
0.228388023343501
0.271844197965375
0.372814068125849
0.724195273398612
0.169024766097248
0.16858712772705
0.168267446595334
0.168255672275033
0.168796515571757
0.170137342762919
0.172559887379651
0.176440036824942
0.182338554722812
0.191190166656369
0.204779460302686
0.227120259218352
0.269023200982058
0.368820022526053
0.728146152249789
0.170146412526392
0.169545925427129
0.168985985712252
0.168638360248849
0.168681017957434
0.169353378740546
0.170839807330898
0.173378630333497
0.177314299058575
0.183175503305028
0.191849685819716
0.205042821088246
0.226640649184492
0.26751364420836
0.368078926882163
0.743041328785612
0.16918122231119
0.170072303939145
0.171765612017852
0.174495565541499
0.17860236352169
0.184605848711658