/*--------------------------------*- C++ -*----------------------------------*\
  =========                 |
  \\      /  F ield         | OpenFOAM: The Open Source CFD Toolbox
   \\    /   O peration     | Website:  https://openfoam.org
    \\  /    A nd           | Version:  12
     \\/     M anipulation  |
\*---------------------------------------------------------------------------*/
/*   Windows 32 and 64 bit porting by blueCAPE: http://www.bluecape.com.pt   *\
|  Based on Windows porting (2.0.x v4) by Symscape: http://www.symscape.com   |
\*---------------------------------------------------------------------------*/
FoamFile
{
    format      ascii;
    class       volScalarField;
    location    "400";
    object      p;
}
// * * * * * * * * * * * * * * * * * * * * * * * * * * * * * * * * * * * * * //

dimensions      [0 2 -2 0 0 0 0];

internalField   nonuniform List<scalar> 
10107
(
83333.3392236406
83333.3390136318
83333.3392348443
83333.3392254475
83333.3389468702
83333.3389776897
83333.3390172378
83333.3390511122
83333.3392402631
83333.3392327367
83333.3389268908
83333.3389215615
83333.338943037
83333.3388964259
83333.3389741316
83333.3390021313
83333.3390043791
83333.3389247143
83333.3390828427
83333.339044624
83333.3391565385
83333.3392422461
83333.3393094146
83333.3391490948
83333.3392228257
83333.3389232792
83333.3389028323
83333.3388711704
83333.3389158705
83333.338936348
83333.3388153632
83333.3388864324
83333.3389470581
83333.3389411102
83333.3389935479
83333.3389662311
83333.3389722817
83333.3389723893
83333.3390147445
83333.338828239
83333.3389481215
83333.3389134023
83333.3390905161
83333.3390786729
83333.3389892088
83333.3390161902
83333.3391041309
83333.3390530062
83333.3391510412
83333.3390937781
83333.3391428695
83333.3389161509
83333.3388998637
83333.3388579295
83333.338804903
83333.3388680136
83333.3389146801
83333.3389195351
83333.3387387275
83333.3388125799
83333.3388922243
83333.3389749859
83333.3390229169
83333.3388886835
83333.3390364097
83333.3389962532
83333.3390480154
83333.3387433038
83333.3388392424
83333.3388249799
83333.3389573729
83333.3389435015
83333.3389200028
83333.3390865949
83333.339085822
83333.339068632
83333.3389931295
83333.3390361041
83333.339107367
83333.3391005883
83333.3389016363
83333.3388961827
83333.3388559977
83333.3387992244
83333.3387343315
83333.3388034043
83333.3388673468
83333.3388675726
83333.3386627447
83333.3387366981
83333.3388105856
83333.3390345517
83333.3389102912
83333.3390392683
83333.3388094213
83333.3390145284
83333.3386625198
83333.338745838
83333.338740896
83333.338843364
83333.3388366399
83333.3388223747
83333.3389536863
83333.3389541561
83333.3389409302
83333.3389200058
83333.3390676504
83333.3390813827
83333.3390766155
83333.3390567509
83333.3388575377
83333.3388547637
83333.3387978013
83333.3387322146
83333.3386620136
83333.3387331455
83333.3388017244
83333.3388014326
83333.338589351
83333.3386609999
83333.3387339801
83333.3390227093
83333.3389144428
83333.3390390689
83333.3388164791
83333.3387327232
83333.3385865221
83333.338660297
83333.3386603368
83333.3387436359
83333.3387434063
83333.3387367077
83333.3388370327
83333.3388406788
83333.3388324571
83333.3388202763
83333.3389361359
83333.3389497386
83333.3389479246
83333.338932296
83333.338917621
83333.3390623371
83333.3390718171
83333.3390630303
83333.3390443472
83333.3387971145
83333.3387966569
83333.3387309724
83333.338661878
83333.338590767
83333.3386608127
83333.3387315018
83333.3387309941
83333.3385200473
83333.3385877679
83333.338658291
83333.3389978229
83333.3389050133
83333.3390234122
83333.338813309
83333.3387313031
83333.3386566599
83333.3385152503
83333.3385809725
83333.3385844907
83333.3386535922
83333.3386580263
83333.3386560539
83333.3387336622
83333.3387410148
83333.3387387679
83333.3387317172
83333.3388192623
83333.3388337546
83333.3388352225
83333.3388254231
83333.3388140591
83333.3389319274
83333.3389422431
83333.338936849
83333.3389218536
83333.3389054746
83333.3390525027
83333.3390568157
83333.3390452343
83333.3390247265
83333.3387297041
83333.3387297023
83333.3386605966
83333.3385915555
83333.3385227748
83333.3385894808
83333.3386591686
83333.3386583648
83333.3384560561
83333.3385185205
83333.3385846159
83333.338966489
83333.3388857293
83333.3389981696
83333.3388024247
83333.3387231685
83333.3386501841
83333.3385818622
83333.3384493546
83333.3385072154
83333.3385133009
83333.3385709733
83333.3385789663
83333.3385798451
83333.3386403855
83333.3386512305
83333.3386534738
83333.3386488861
83333.3387144359
83333.3387307926
83333.3387359435
83333.3387316371
83333.338722406
83333.3387899629
83333.3388158095
83333.3388275497
83333.3388260432
83333.3388154722
83333.3388020446
83333.3389240447
83333.338930141
83333.3389221258
83333.3389061592
83333.3388854079
83333.3390367976
83333.3390362292
83333.3390215746
83333.3389974143
83333.3386589558
83333.338659309
83333.3385901993
83333.3385240456
83333.3384599857
83333.3385215172
83333.3385873155
83333.3385857007
83333.3383980589
83333.3384547435
83333.3385147345
83333.3389306872
83333.3388601097
83333.3389661337
83333.3387851581
83333.3387107213
83333.3386396456
83333.338572628
83333.3385118565
83333.3383892057
83333.3384387483
83333.3384474562
83333.3384945426
83333.3385053315
83333.3385081635
83333.338555084
83333.3385689324
83333.3385744543
83333.3385709527
83333.3386194133
83333.3386378966
83333.3386465783
83333.3386460566
83333.3386379693
83333.3386855898
83333.3387115134
83333.3387253974
83333.3387277245
83333.3387210831
83333.3387094056
83333.3387497921
83333.3387866034
83333.3388093062
83333.3388174864
83333.338813268
83333.3388011056
83333.3387841738
83333.3389113098
83333.3389133357
83333.3389029371
83333.3388842189
83333.3388592401
83333.3390147589
83333.3390096693
83333.3389916867
83333.3389642388
83333.3385878096
83333.3385884126
83333.3385228265
83333.338461778
83333.3384042162
83333.3384589015
83333.3385189135
83333.3385173316
83333.3383475092
83333.3383975957
83333.3384506234
83333.3388922793
83333.3388300578
83333.33892983
83333.3387627791
83333.3386939766
83333.338626348
83333.3385611741
83333.3384998459
83333.338447301
83333.3383350259
83333.3383753007
83333.3383876608
83333.3384234733
83333.3384368294
83333.3384418065
83333.3384763398
83333.338492724
83333.3385005895
83333.3384976861
83333.3385324238
83333.3385529447
83333.3385645782
83333.3385664906
83333.3385590987
83333.3385902902
83333.338616903
83333.3386331222
83333.3386388824
83333.3386350879
83333.3386245835
83333.3386473355
83333.3386827653
83333.3387059643
83333.338716645
83333.338716099
83333.3387071948
83333.3386926189
83333.3387000126
83333.3387465902
83333.3387800416
83333.3387987281
83333.3388033196
83333.3387967217
83333.3387822525
83333.3387617059
83333.3388932876
83333.3388916542
83333.3388786462
83333.3388571244
83333.3388290474
83333.3389864781
83333.3389774595
83333.3389566386
83333.3389268643
83333.3385202145
83333.3385208049
83333.3384608025
83333.3384071616
83333.33835833
83333.3384037297
83333.3384563912
83333.3384550144
83333.3383089897
83333.3383474281
83333.3383942892
83333.3388530648
83333.3387973773
83333.3388911582
83333.3387366856
83333.3386734699
83333.3386098771
83333.3385474789
83333.3384871992
83333.3384315474
83333.3383889312
83333.3382878534
83333.3383159543
83333.3383340759
83333.3383568295
83333.3383730497
83333.338381978
83333.3384030208
83333.338421635
83333.3384315745
83333.3384288974
83333.3384520768
83333.3384744396
83333.3384884305
83333.3384918512
83333.3384847981
83333.3385027289
83333.3385302527
83333.3385486182
83333.3385570786
83333.3385550822
83333.3385454213
83333.3385531156
83333.3385878556
83333.3386120509
83333.3386252558
83333.3386277968
83333.3386212535
83333.3386082538
83333.3386005537
83333.3386446455
83333.3386772
83333.3386968976
83333.3387042172
83333.3387010369
83333.3386898059
83333.3386722154
83333.3386419837
83333.3386969562
83333.3387400915
83333.3387692153
83333.3387836403
83333.3387849935
83333.3387760266
83333.3387590384
83333.3387356336
83333.3388700276
83333.3388651993
83333.3388497787
83333.338825965
83333.3387962392
83333.3389526587
83333.3389405708
83333.3389178635
83333.3388872223
83333.3384588135
83333.3384589949
83333.3384066975
83333.3383640751
83333.3383271912
83333.3383582551
83333.3384019447
83333.3384000224
83333.3382846068
83333.3383097155
83333.3383479267
83333.338814438
83333.3387636183
83333.3388515487
83333.338708222
83333.3386500181
83333.3385905347
83333.3385311959
83333.3384729817
83333.3384169114
83333.3383675349
83333.3383346975
83333.338228189
83333.3382575616
83333.3382902765
83333.3382930951
83333.3383123126
83333.3383294407
83333.3383339452
83333.338354656
83333.3383670018
83333.3383642064
83333.338377183
83333.3384011903
83333.3384171404
83333.3384215055
83333.3384142071
83333.3384216833
83333.3384501502
83333.3384703528
83333.3384808244
83333.3384798113
83333.3384706895
83333.3384661105
83333.3385005997
83333.3385259182
83333.3385413058
83333.3385461907
83333.3385412521
83333.3385293777
83333.3385084669
83333.3385507792
83333.3385830069
83333.33860405
83333.3386139461
83333.3386135643
83333.3386047117
83333.3385891216
83333.3385463011
83333.3385979766
83333.3386391425
83333.3386679698
83333.3386838866
83333.3386880955
83333.3386825211
83333.3386689844
83333.3386488897
83333.3385770354
83333.3386390671
83333.3386906012
83333.3387292284
83333.338753608
83333.3387640571
83333.3387625897
83333.338751425
83333.3387322659
83333.3387071311
83333.3388419942
83333.3388345609
83333.3388173351
83333.3387923769
83333.3387621833
83333.3389143732
83333.3389002899
83333.3388769599
83333.3388468059
83333.3384053894
83333.3384056161
83333.3383643799
83333.3383350481
83333.3383073835
83333.3383282413
83333.3383585671
83333.3383532301
83333.3382412563
83333.3382839624
83333.3383077709
83333.3383207569
83333.3387777028
83333.3387300381
83333.3388125133
83333.3386786712
83333.3386246084
83333.3385689141
83333.3385126482
83333.3384567275
83333.3384017136
83333.3383488695
83333.3383053569
83333.3382899212
83333.3381089274
83333.3381889333
83333.3382281233
83333.3382293072
83333.3382521154
83333.3382522282
83333.3382768799
83333.3382676177
83333.3382901492
83333.3383039931
83333.338288897
83333.3383012405
83333.3383065652
83333.3383319925
83333.3383496121
83333.3383545439
83333.3383461357
83333.3383460439
83333.3383753851
83333.3383971227
83333.3384090706
83333.3384083116
83333.3383992712
83333.3383853103
83333.338419788
83333.3384461598
83333.3384632976
83333.3384698371
83333.3384658289
83333.3384547487
83333.3384229692
83333.3384640483
83333.3384962894
83333.3385186624
83333.3385306852
83333.3385324282
83333.338525267
83333.3385110924
83333.3384571384
83333.33850622
83333.3385459868
83333.3385749354
83333.3385924948
83333.3385992717
83333.3385964213
83333.3385854564
83333.3385676843
83333.3384856604
83333.338543824
83333.3385925839
83333.338629889
83333.3386545956
83333.3386669333
83333.3386684552
83333.3386607699
83333.3386451941
83333.3386234924
83333.3385064928
83333.3385742561
83333.3386329231
83333.3386798748
83333.3387134574
83333.3387332806
83333.3387403232
83333.3387365164
83333.3387236199
83333.3387031899
83333.3386773309
83333.338809941
83333.3388006734
83333.338782618
83333.3387576675
83333.3387282594
83333.3388728748
83333.3388580233
83333.3388353683
83333.3388069747
83333.3383623818
83333.3383643722
83333.3383362123
83333.3383175219
83333.338308067
83333.3383306696
83333.3383193506
83333.3381029651
83333.3382360191
83333.3382796412
83333.3382944457
83333.3383183767
83333.3382914437
83333.3383044765
83333.3382993667
83333.3387439146
83333.3386977919
83333.338775315
83333.338649089
83333.3385982619
83333.3385457542
83333.3384923624
83333.3384387536
83333.3383853413
83333.3383322127
83333.3382810373
83333.3382421524
83333.3380319197
83333.3381066545
83333.3381023592
83333.3381614042
83333.3381797574
83333.3381808764
83333.3382376606
83333.3382133352
83333.3382020826
83333.338225228
83333.3382355714
83333.338215873
83333.338285908
83333.3382563928
83333.338236405
83333.3382390107
83333.3382653395
83333.338283881
83333.3382888714
83333.338294488
83333.3382526861
83333.3382791543
83333.3382343876
83333.3382747672
83333.3383047849
83333.3383277264
83333.3383406929
83333.3383394832
83333.3383299757
83333.3383097674
83333.3383443047
83333.3383715728
83333.3383900508
83333.3383976305
83333.3383939015
83333.3383833058
83333.3383432543
83333.3383834696
83333.3384158761
83333.3384393844
83333.3384530298
83333.3384562652
83333.338450203
83333.3384371076
83333.3383738952
83333.3384209767
83333.3384597989
83333.3384890676
83333.3385081198
83333.3385169664
83333.3385161898
83333.3385071304
83333.3384910486
83333.3384000107
83333.3384549726
83333.3385015219
83333.3385379245
83333.3385632049
83333.3385774116
83333.3385815229
83333.338576603
83333.3385637278
83333.3385445912
83333.3384197455
83333.338483283
83333.3385385854
83333.3385834268
83333.3386163845
83333.3386370991
83333.3386463441
83333.3386456439
83333.3386362648
83333.3386194023
83333.3385969388
83333.3384317267
83333.3385038612
83333.3385683723
83333.3386224856
83333.3386642355
83333.3386928618
83333.3387087155
83333.3387130055
83333.3387074725
83333.3386936238
83333.3386729024
83333.3386474707
83333.3387748156
83333.3387646695
83333.3387468679
83333.3387230733
83333.3386956173
83333.3388294827
83333.3388151146
83333.3387943606
83333.338768913
83333.3383329558
83333.3383385842
83333.3383194405
83333.3383105839
83333.3380311835
83333.3380992656
83333.3381957367
83333.33823106
83333.3382836846
83333.3382899329
83333.3387139503
83333.3386678284
83333.3387409847
83333.3386204943
83333.3385718458
83333.3385218918
83333.3384709434
83333.3384195363
83333.3383679183
83333.3383159217
83333.3382631851
83333.3382122687
83333.3381685062
83333.3379716699
83333.3380327309
83333.3380255244
83333.3380902941
83333.338101401
83333.3380675618
83333.3380992795
83333.3380969746
83333.3381492615
83333.3381361453
83333.3381570695
83333.3381665164
83333.3381738756
83333.3381812868
83333.3381733467
83333.3381995169
83333.3382173488
83333.3382228634
83333.3381712838
83333.3382036315
83333.3382691401
83333.3382173819
83333.3382069069
83333.3382371591
83333.3382606718
83333.3382739564
83333.3382724066
83333.3382780119
83333.3382617704
83333.3382117919
83333.3381669943
83333.3382386075
83333.3382731161
83333.3383010157
83333.3383204228
83333.3383285316
83333.3383244506
83333.3383140458
83333.3382685466
83333.3383080941
83333.3383406672
83333.3383650602
83333.338379845
83333.3383839902
83333.3383785023
83333.3383662615
83333.3382959485
83333.3383414739
83333.3383796464
83333.3384092735
83333.3384295189
83333.3384399155
83333.3384406333
83333.3384329117
83333.3384181677
83333.3383195907
83333.3383719739
83333.3384168181
83333.3384526413
83333.3384785498
83333.338494374
83333.3385005441
83333.338497751
83333.3384869221
83333.3384697367
83333.338338004
83333.3383979275
83333.3384504024
83333.3384935523
83333.3385261428
83333.3385478286
83333.3385591184
83333.33856105
83333.3385544665
83333.3385403634
83333.3385205466
83333.338349727
83333.338417481
83333.3384782361
83333.3385296365
83333.3385700042
83333.3385986645
83333.3386158692
83333.338622588
83333.3386202069
83333.338609801
83333.3385925002
83333.3385702909
83333.3384292691
83333.3384982803
83333.3385583452
83333.3386072268
83333.3386437767
83333.3386679875
83333.3386805864
83333.338682842
83333.3386763617
83333.3386624775
83333.3386424973
83333.3386185392
83333.3387376815
83333.3387276919
83333.3387112223
83333.3386896727
83333.338665177
83333.3387854748
83333.33877277
83333.3387550432
83333.3387336033
83333.3383242849
83333.3379712636
83333.3380276175
83333.3380862208
83333.3381940912
83333.3382152951
83333.3386885906
83333.3386409906
83333.3387103696
83333.3385937228
83333.3385462117
83333.3384980105
83333.3384490637
83333.3383995667
83333.3383497291
83333.3382993628
83333.3382475742
83333.3381952227
83333.3381446775
83333.3380884463
83333.3379179128
83333.3379700753
83333.337970355
83333.3380236405
83333.3380296156
83333.338026082
83333.3380705462
83333.3380874477
83333.3380929469
83333.338092528
83333.3381492956
83333.33814826
83333.3381091425
83333.3381337091
83333.3381501255
83333.3381562232
83333.3381790638
83333.3381416869
83333.3381714604
83333.3381946014
83333.3382077224
83333.3382060133
83333.3381449805
83333.3381476866
83333.3381826149
83333.3381710779
83333.3382052957
83333.3382333587
83333.3382531118
83333.3382613229
83333.3382566795
83333.3382462268
83333.3381946295
83333.3381450486
83333.3380906121
83333.3381981378
83333.3382370564
83333.3382696604
83333.3382946218
83333.3383101018
83333.3383146539
83333.3383092806
83333.3382978045
83333.3382226819
83333.3382669397
83333.3383045993
83333.3383345059
83333.338355618
83333.3383670673
83333.3383687751
83333.3383619686
83333.338348355
83333.3382439314
83333.3382942328
83333.3383377534
83333.3383731898
83333.3383996523
83333.338416729
83333.3384244483
83333.3384232394
83333.3384139895
83333.338398335
83333.3382608025
83333.3383177432
83333.3383679325
83333.3384097737
83333.3384421816
83333.3384647686
83333.3384777783
83333.3384817958
83333.3384773911
83333.3384654293
83333.3384477069
83333.3382720533
83333.3383360156
83333.3383935174
83333.3384426074
83333.3384818599
83333.3385106534
83333.3385291482
83333.338538041
83333.3385383058
83333.3385306634
83333.3385160781
83333.3384964611
83333.3383475985
83333.3384126647
83333.3384695922
83333.3385164866
83333.3385523602
83333.3385771617
83333.3385914537
83333.3385962611
83333.3385928705
83333.338582237
83333.3385654184
83333.3385443718
83333.338424042
83333.3384887618
83333.3385436667
83333.3385872432
83333.3386190648
83333.338639564
83333.3386496718
83333.3386506938
83333.33864414
83333.3386311715
83333.3386129159
83333.3385913439
83333.338699616
83333.3386908013
83333.3386766773
83333.3386583429
83333.3386377417
83333.3387420274
83333.3387320518
83333.338718367
83333.3387018711
83333.3379182304
83333.337970236
83333.3380254172
83333.3380851233
83333.3386684664
83333.3386180655
83333.3386842918
83333.3385695639
83333.3385220919
83333.3384747999
83333.3384272587
83333.3383793554
83333.3383311128
83333.3382824043
83333.338232651
83333.3381810222
83333.3381298844
83333.338077857
83333.3380226841
83333.3378678911
83333.3379155234
83333.3379172042
83333.3379635255
83333.3379691011
83333.3379689653
83333.3380082509
83333.3380221637
83333.3380277474
83333.3380246333
83333.3380466695
83333.3380686954
83333.3380826724
83333.3380880303
83333.3380788081
83333.3381073297
83333.3381292198
83333.3381415854
83333.338140547
83333.3381065929
83333.3381401211
83333.3381677294
83333.3381871995
83333.3381953778
83333.3381904003
83333.3381314207
83333.3381696175
83333.3382019767
83333.3382270675
83333.3382427998
83333.3382474317
83333.3382419366
83333.3382313105
83333.3381802025
83333.3381296167
83333.3380787228
83333.3381535323
83333.3381966715
83333.3382338184
83333.3382638268
83333.3382854632
83333.3382975263
83333.3382997841
83333.338293608
83333.3382810844
83333.3381725739
83333.3382211409
83333.3382635768
83333.3382986913
83333.3383255534
83333.3383435162
83333.3383523193
83333.3383522592
83333.3383442547
83333.3383298974
83333.3381878023
83333.3382422866
83333.3382906307
83333.338331452
83333.3383637605
83333.3383870852
83333.3384014176
83333.338407029
83333.338404309
83333.3383940369
83333.3383780205
83333.3381982782
83333.33825904
83333.3383138456
83333.3383610567
83333.3383994468
83333.3384284318
83333.3384480502
83333.3384587459
83333.3384611148
83333.338455658
83333.3384432305
83333.3384257137
83333.3382029234
83333.3382701835
83333.3383317988
83333.3383859726
83333.3384311426
83333.3384664581
83333.3384918135
83333.3385076328
83333.3385146819
83333.3385138864
83333.3385058984
83333.3384916489
83333.3384730017
83333.3383430581
83333.3384044109
83333.3384568776
83333.3384991844
83333.3385309447
83333.3385524679
83333.3385644876
83333.3385680673
83333.3385644262
83333.3385544095
83333.3385389478
83333.3385198777
83333.3384151113
83333.3384748192
83333.3385244306
83333.3385630975
83333.3385908481
83333.3386083978
83333.3386168268
83333.3386174635
83333.3386117208
83333.3386005768
83333.3385849283
83333.3385666289
83333.3386616433
83333.3386549447
83333.3386440834
83333.3386298574
83333.3386141138
83333.3387002176
83333.338693927
83333.3386851998
83333.3386745691
83333.3378686218
83333.3379175134
83333.337968761
83333.3386537613
83333.3385997151
83333.3386635607
83333.3385487832
83333.3385002107
83333.3384528952
83333.3384060729
83333.3383593236
83333.3383124258
83333.3382652189
83333.3382172987
83333.3381680514
83333.3381175933
83333.3380675266
83333.3380165637
83333.3379656357
83333.3378214545
83333.3378652201
83333.3378672172
83333.337909068
83333.3379148207
83333.337915499
83333.3379503356
83333.3379625986
83333.3379674371
83333.3379659217
83333.3379870831
83333.3380068593
83333.3380192956
83333.3380225753
83333.3380171261
83333.3380182767
83333.3380450571
83333.3380650668
83333.3380764352
83333.3380760277
83333.3380448654
83333.3380773072
83333.3381038659
83333.338122478
83333.338130563
83333.3381261552
83333.3380679209
83333.338105218
83333.3381369719
83333.3381617074
83333.338177324
83333.3381819242
83333.3381765711
83333.3380880143
83333.3381300716
83333.3381665971
83333.3381964382
83333.3382182308
83333.3382305519
83333.3382330641
83333.3382274201
83333.3382160899
83333.3381669608
83333.3381169211
83333.3380672265
83333.3381050825
83333.3381521411
83333.3381936057
83333.3382283581
83333.3382554109
83333.3382739145
83333.3382833987
83333.3382841445
83333.3382771862
83333.3382640543
83333.3381186888
83333.3381711017
83333.3382179084
83333.338257883
83333.3382900827
83333.3383139355
83333.3383292183
83333.338336004
83333.3383345887
83333.338325698
83333.3383111488
83333.3381281599
83333.3381862334
83333.3382388204
83333.3382845101
83333.3383222242
83333.3383513871
83333.3383719047
83333.3383839954
83333.3383880023
83333.338384272
83333.3383735888
83333.3383578061
83333.3381326823
83333.3381966204
83333.3382553139
83333.3383071935
83333.3383509523
83333.3383858409
83333.3384117046
83333.3384288167
83333.3384377153
83333.3384389975
83333.3384331319
83333.3384209636
83333.3384043034
83333.3381311762
83333.338201184
83333.3382662009
83333.3383245725
83333.3383748615
83333.3384160238
83333.3384477113
83333.3384701161
83333.3384838143
83333.338489625
83333.3384884449
83333.3384808668
83333.3384677208
83333.3384507612
83333.3383352642
83333.3383922659
83333.3384401418
83333.3384781809
83333.3385063683
83333.3385252451
83333.3385356771
83333.3385387586
83333.3385356445
83333.3385270578
83333.3385137496
83333.3384974828
83333.3384020167
83333.338456539
83333.3385011812
83333.3385355335
83333.3385599451
83333.3385753522
83333.3385829399
83333.3385840317
83333.3385799311
83333.3385714402
83333.3385592415
83333.3385451631
83333.3386247231
83333.3386209973
83333.338614243
83333.3386050419
83333.3385951033
83333.3386611013
83333.3386594155
83333.3386565582
83333.3386526335
83333.337822295
83333.337867864
83333.33791583
83333.3386441687
83333.3385862156
83333.3386486919
83333.3385320418
83333.3384812863
83333.3384329461
83333.3383860506
83333.3383398861
83333.3382939957
83333.3382480388
83333.3382017082
83333.3381545272
83333.338106275
83333.3380574574
83333.3380090072
83333.3379605242
83333.3379127844
83333.3377785578
83333.3378187274
83333.3378208173
83333.3378586874
83333.3378645198
83333.3378656809
83333.3378966849
83333.3379081193
83333.3379131211
83333.3379124621
83333.3379308764
83333.337949138
83333.3379604634
83333.3379638217
83333.3379603863
83333.3379605334
83333.3379856436
83333.3380040734
83333.3380144293
83333.3380148844
83333.3380086022
83333.3379857786
83333.3380168813
83333.3380420227
83333.3380595024
83333.3380673928
83333.3380643734
83333.338007355
83333.3380435738
83333.338074387
83333.3380983429
83333.3381135719
83333.3381182994
83333.3381137549
83333.3380257366
83333.3380666794
83333.3381024146
83333.3381317856
83333.3381533933
83333.338165739
83333.3381684639
83333.3381634805
83333.3380410746
83333.3380867533
83333.3381272646
83333.3381615369
83333.3381885355
83333.3382072711
83333.3382171321
83333.3382184636
83333.3382124692
83333.3382006187
83333.3381534497
83333.3381053228
83333.3380567604
83333.3380531516
83333.3381037615
83333.338149225
83333.338188425
83333.338220437
83333.3382445914
83333.3382604954
83333.3382681084
83333.3382677254
83333.3382600362
83333.3382468417
83333.3380615177
83333.3381172894
83333.3381680048
83333.338212421
83333.3382495594
83333.3382788274
83333.3383000035
83333.3383131311
83333.3383183995
83333.3383160518
83333.338306823
83333.3382925329
83333.3380655677
83333.3381266775
83333.338182922
83333.3382329142
83333.3382755252
83333.3383100771
83333.3383363606
83333.3383545044
83333.3383648498
83333.3383677739
83333.3383636135
83333.3383531518
83333.3383381598
83333.3380645237
83333.338131136
83333.3381930975
83333.338248939
83333.3382974024
83333.3383376203
83333.3383692621
83333.3383924243
83333.3384075256
83333.3384151773
83333.3384159843
83333.3384103872
83333.338399151
83333.3383839739
83333.3380574822
83333.3381295465
83333.338197459
83333.3382593554
83333.3383139237
83333.338360202
83333.338397616
83333.3384261239
83333.3384461131
83333.3384582827
83333.3384634965
83333.3384626236
83333.3384561805
83333.3384448512
83333.3384303375
83333.3383237902
83333.3383762776
83333.3384198266
83333.3384540881
83333.3384793077
83333.3384962131
83333.3385057697
83333.3385090824
83333.3385072331
83333.3385008242
83333.3384904575
83333.3384779086
83333.3383848386
83333.338434439
83333.3384746419
83333.3385053662
83333.338527228
83333.3385413262
83333.3385489004
83333.3385512393
83333.3385495486
83333.3385444938
83333.3385366449
83333.3385277404
83333.3385898171
83333.3385898985
83333.3385881283
83333.3385848315
83333.3385813075
83333.3386258928
83333.3386298286
83333.3386337214
83333.3386369884
83333.3377794389
83333.3378216295
83333.3378662806
83333.338639739
83333.3385774014
83333.3386391806
83333.3385196454
83333.3384659571
83333.338415616
83333.3383677661
83333.3383215058
83333.3382761329
83333.3382311344
83333.3381860821
83333.3381406207
83333.3380944347
83333.3380476948
83333.3380008197
83333.3379543125
83333.3379084715
83333.3378636512
83333.3377390398
83333.3377758478
83333.3377779944
83333.3378121929
83333.3378180557
83333.3378194985
83333.3378467187
83333.3378577975
83333.3378629784
83333.3378630738
83333.3378782091
83333.3378955178
83333.3379062558
83333.3379100042
83333.3379080389
83333.3379057704
83333.3379295555
83333.337946867
83333.3379565947
83333.337958134
83333.3379538074
83333.3379294608
83333.3379592278
83333.3379830533
83333.3379995499
83333.3380073028
83333.338006036
83333.3380000448
83333.3379495555
83333.3379845833
83333.3380142513
83333.3380372169
83333.3380519396
83333.3380570506
83333.3380538823
83333.3379664319
83333.3380062137
83333.3380409992
83333.3380696422
83333.3380908034
83333.338103089
83333.338106222
83333.3381021799
83333.3379802326
83333.3380245944
83333.3380641153
83333.338097757
83333.3381244652
83333.3381431925
83333.3381532714
83333.3381551359
83333.3381501107
83333.337990898
83333.3380398885
83333.3380841161
83333.3381225398
83333.3381542425
83333.3381784781
83333.3381947375
83333.3382029233
83333.3382033959
83333.3381968331
83333.3381849657
83333.3381396122
83333.3380934573
83333.3380467607
83333.3379981422
83333.3380519008
83333.3381009858
83333.3381442815
83333.338180872
83333.3382101347
83333.338231738
83333.3382456016
83333.3382518377
83333.3382506342
83333.3382426779
83333.3382297431
83333.3380015403
83333.3380601933
83333.3381143369
83333.3381627333
83333.3382043755
83333.3382386238
83333.3382652077
83333.3382841306
83333.3382955875
83333.3382998149
83333.3382970464
83333.3382880173
83333.3382744684
83333.3380005275
83333.3380641791
83333.33812354
83333.3381772658
83333.3382242279
83333.3382636734
83333.3382952798
83333.3383190582
83333.3383352843
83333.3383443919
83333.3383467882
83333.3383428031
83333.3383331525
83333.3383194935
83333.3379944479
83333.3380630748
83333.3381278341
83333.3381870496
83333.3382395452
83333.3382844734
83333.3383213624
83333.3383501357
83333.3383710597
83333.3383846752
83333.3383916543
83333.3383926059
83333.3383879238
83333.3383782552
83333.3383652477
83333.3379827335
83333.3380559475
83333.3381260612
83333.3381910339
83333.338249258
83333.3382998721
83333.3383423539
83333.3383764258
83333.3384022609
83333.3384204092
83333.338431667
83333.3384369255
83333.3384370171
83333.3384323812
83333.3384235983
83333.3384123932
83333.3383086838
83333.3383568722
83333.3383965334
83333.3384275863
83333.3384504965
83333.338466135
83333.3384755273
83333.3384797645
83333.3384798689
83333.3384763665
83333.33846981
83333.3384619185
83333.3383640649
83333.3384092119
83333.3384456103
83333.3384734682
83333.3384936113
83333.3385072395
83333.3385156032
83333.338519949
83333.3385214324
83333.3385206618
83333.3385180608
83333.3385149851
83333.3385580535
83333.3385628906
83333.3385670174
83333.3385702524
83333.3385724571
83333.3385961716
83333.3386068473
83333.3386181261
83333.3386276393
83333.3377399453
83333.3377788628
83333.3378202757
83333.3385734056
83333.3386349662
83333.3385115404
83333.3384545374
83333.3384015127
83333.3383518262
83333.3383046875
83333.3382592305
83333.3382147453
83333.3381706756
83333.3381265694
83333.3380821307
83333.3380372601
83333.3379922003
83333.337947376
83333.3379032527
83333.3378600326
83333.3378180788
83333.3377027537
83333.3377363418
83333.3377385625
83333.3377693136
83333.337775238
83333.3377768727
83333.337800419
83333.3378113715
83333.3378167093
83333.3378173185
83333.3378288906
83333.3378456385
83333.3378561686
83333.3378603574
83333.337859441
83333.3378541401
83333.3378769615
83333.3378935563
83333.3379030786
83333.3379055177
83333.3379026782
83333.3378759597
83333.3379045579
83333.3379273393
83333.3379431471
83333.3379510344
83333.3379513386
83333.3379466713
83333.3378945046