/*--------------------------------*- C++ -*----------------------------------*\
  =========                 |
  \\      /  F ield         | OpenFOAM: The Open Source CFD Toolbox
   \\    /   O peration     | Website:  https://openfoam.org
    \\  /    A nd           | Version:  12
     \\/     M anipulation  |
\*---------------------------------------------------------------------------*/
/*   Windows 32 and 64 bit porting by blueCAPE: http://www.bluecape.com.pt   *\
|  Based on Windows porting (2.0.x v4) by Symscape: http://www.symscape.com   |
\*---------------------------------------------------------------------------*/
FoamFile
{
    format      ascii;
    class       volVectorField;
    location    "400";
    object      U;
}
// * * * * * * * * * * * * * * * * * * * * * * * * * * * * * * * * * * * * * //

dimensions      [0 1 -1 0 0 0 0];

internalField   nonuniform List<vector> 
10107
(
(-0.00037331574819491 0.00122717600090713 -0.00217284942619613)
(-0.000235660252884405 0.000492990649895708 -0.0012818590984214)
(-0.000186053406205385 0.000316376668455453 0.000288538466639001)
(-1.99514855407836e-05 0.000681774356267085 -0.00196105877922733)
(-6.76526189611025e-05 0.00104778637125469 2.36547282941671e-05)
(0.000229277510177437 0.000492502505772143 0.000122537246096628)
(-0.000169877063646971 0.000305582581060015 -0.000445596214718124)
(0.000138521798479813 0.00028387058094735 0.000261027934707536)
(9.16313465822536e-05 0.000314257017208525 0.0020193246620444)
(-0.000109536411559383 -8.61583764475407e-05 0.00203012294467182)
(9.99751864241987e-06 0.00028695551126492 0.000144131808349926)
(0.000261314461498849 0.000796941812531133 -0.000170673790316113)
(-4.87816795108296e-05 0.00065371097876244 0.000330610799844655)
(0.000227285797308614 -3.45168763826066e-05 0.000125082826510962)
(-2.01365347430351e-06 -0.000524255484816656 0.00131178894497512)
(0.000482982381263462 -0.000615927304687537 -0.000773827471732319)
(-0.00010005317546978 -0.0011069073106185 0.000641806982764491)
(0.000126444656764165 0.000144404370078567 0.000402724994520331)
(-2.36800181321982e-06 0.000438125940986649 0.000766215082401699)
(4.09125451717123e-06 -2.14362156805582e-05 0.00127683923459941)
(0.00012316232999262 0.000206860164677038 0.00126557404553361)
(-8.89480948068301e-05 0.000506487000672153 0.00176496879325058)
(-0.000203761970731541 0.000583346767131955 0.00122764802141605)
(-6.76465280498529e-05 -0.000128321000748833 0.0011237505119371)
(-1.38567640329186e-05 0.00025333743799034 0.00209368099716569)
(0.000210959868051597 6.53620953175166e-05 0.000402370900397815)
(9.94792178689212e-05 0.000306504797342609 -0.000841421279460008)
(0.000194849102840783 0.000113717252047686 -0.000448033405842643)
(9.62052211051544e-05 3.41409559488891e-05 0.000351812429267254)
(0.000265227088199099 0.000442824100655615 0.000364612919948809)
(1.23535506213811e-05 5.64368042593463e-05 0.000241551611123467)
(2.11067832091006e-05 -0.000177544556433189 0.000516025707647589)
(4.84408014551201e-05 2.34434978196019e-05 0.00111741779570747)
(6.08531631795193e-05 -0.000584555823575554 0.000554337298536442)
(-4.44326485870282e-05 -0.000183981765623439 0.00093512229163742)
(7.81535744701738e-05 0.000293583049228139 0.000429672624140038)
(6.18366076007642e-05 0.00026927720541983 0.000949074618578433)
(5.65102388278533e-05 -0.000611903877222681 0.00135782164712714)
(-3.95133053961418e-05 -0.000169416840353826 0.00118069634121893)
(6.51693612963483e-06 0.000170649025267408 0.000365794989194254)
(2.07131059974434e-05 0.000337719587037676 0.000579380745377065)
(4.37524113738218e-06 0.000148697158642398 0.000723868891819351)
(-6.32941090861938e-06 0.000603796462043999 0.000787659649967161)
(-8.82259558567564e-06 0.000476532712459166 0.000925669722164076)
(7.58047266249209e-05 1.98369213671739e-05 0.000786846741687586)
(4.19689035685922e-05 -5.97527208247127e-05 0.000881928535276685)
(-0.000136627896236744 0.000125826054791942 0.00110470451006889)
(-6.45050286285808e-07 0.000247769723945806 0.00116418014413863)
(-5.23611233893857e-05 0.000411805577802194 0.00118683722955296)
(-2.68204777117383e-05 0.000103839681225093 0.000879412649670107)
(-0.000233138966202303 0.000214250757770536 0.00131785403804507)
(0.000591031121102968 2.29210406408202e-05 0.000177693105369877)
(0.00023184573849538 -6.15421865549708e-05 6.41825834386987e-05)
(0.000123819172097689 0.000192274707026634 -0.00153457821677665)
(4.85858970326707e-05 -1.53296687859264e-05 -0.000239221977850006)
(7.54540087909579e-05 -0.000270010854616946 8.49286014859966e-05)
(-0.000234751514772971 0.000202971055655069 0.00119023766513788)
(0.00014985743096372 0.000626645228531991 0.000725469535510551)
(-3.22779954075315e-06 9.83146861262933e-05 0.000278543638499567)
(-1.59431313362144e-05 -2.6154954005257e-06 0.000562731386326077)
(-0.000211410467628622 -3.62338399638067e-05 0.000361398051467139)
(2.06161624803412e-05 -0.000101783943267127 0.000780324844162834)
(-0.000246015736548352 0.000363145573913351 -0.00039712505525813)
(5.43669350075706e-06 0.000448117716674083 -0.000181566671271406)
(-4.23820015519122e-05 0.000405244415927366 0.000569444079399443)
(6.14666439790836e-05 -0.000214410268646781 0.000981665982312929)
(-2.20289896654467e-05 7.7957254402354e-05 0.000791652460489556)
(2.46185551250522e-06 0.000172026420680314 0.000313048918298833)
(3.08692915483001e-06 0.000296887601971231 0.00044973800012407)
(9.05225311689816e-07 0.000144942980772047 0.000624243804858405)
(-1.73483904921807e-06 0.000493522244906526 0.00062914281336667)
(-5.45957321400644e-06 0.000373351786378504 0.000738485178018271)
(-0.000131978141051085 0.000186793383229101 0.000707699925704845)
(-8.47457300922399e-06 0.000736847340222052 0.00078551450496925)
(-2.67841178059731e-05 0.000618258393666138 0.000911630965744984)
(-1.14159778968409e-06 0.000480537879865496 0.00111889784756605)
(2.75433999162852e-05 -0.000131461795635104 0.000864414673529937)
(3.30608365746644e-05 -9.62725911695797e-05 0.00144169051770688)
(-5.39604977001137e-05 0.000155657581988343 0.00115129623509156)
(4.27131377407125e-05 8.49834212388409e-05 0.00122339245328199)
(0.000662500371322264 0.000185321872391604 -5.7906861413931e-05)
(-3.1967605890172e-05 -9.0801250525153e-05 0.000736608321808053)
(0.000214352165302397 -5.88496389863784e-05 -0.000529610265969559)
(9.73147412685567e-05 3.79863144820785e-05 -0.00185695866100314)
(1.22798662083854e-05 4.11798033187702e-05 -5.56336481975885e-05)
(2.82062547679329e-05 -9.89869070674668e-05 0.000205902440189789)
(-7.88006776383158e-05 -4.41235557349044e-06 0.000515868979392551)
(0.000192080213319003 0.000470860966826791 3.90379043420826e-05)
(8.59016426964345e-07 0.000109409372601681 0.000268665011030113)
(-1.10578885400321e-05 8.13076129273253e-05 0.000541893479151349)
(-6.70141157537587e-05 8.31846421977901e-05 0.000451592072991514)
(-7.83666713951121e-05 0.000167618585302722 -0.000396489865699828)
(-0.000310865585566946 0.000539396191671576 -0.000235049521228927)
(8.79634859458253e-05 0.000203430843617395 0.000598371515221642)
(-0.000131404723375028 0.000366132674495663 -0.000508011577560578)
(1.44131926571803e-05 -0.000148654983862572 0.000983156495226848)
(4.42531746820115e-06 0.000158404826651606 0.000267756871174658)
(3.24740823299563e-06 0.000258597403265674 0.000363700310046865)
(4.49952485330358e-06 0.000164992874792448 0.000534738873339055)
(6.77989384514726e-07 0.000419198804820292 0.000507035942598958)
(1.21319999821281e-06 0.000298874115205594 0.000618513046775322)
(-4.19728684123384e-06 0.000160938381100958 0.000744229145894733)
(-4.04016619444233e-06 0.000615541334326743 0.000660280801254598)
(-1.11742912814141e-05 0.000508013799345562 0.000745085449572215)
(-1.59602423709301e-05 0.000361493464826707 0.000927969199027881)
(3.19444015278924e-05 0.000194991180073743 0.000542753136856839)
(-8.91846350420277e-06 0.00083675708125772 0.000790218060635289)
(-2.60704044166846e-05 0.000755260096427479 0.00086682954608522)
(-5.0424331978459e-05 0.000626909405858949 0.00104666942889893)
(-5.2606206705168e-05 0.000485724175104162 0.00122796978954688)
(0.000495968893719817 9.15003301676297e-05 -0.000860133204154393)
(7.717776048938e-05 -5.50136917059438e-05 7.91207039915753e-06)
(0.000200027547527037 -9.46222369178833e-05 -0.000823628550735559)
(5.5349256608429e-05 5.63747955191014e-05 -0.00184424623113043)
(9.51974800350685e-06 6.95997205066383e-05 6.7234523939599e-06)
(1.18461246535726e-05 2.01728230621542e-05 0.00027912795886061)
(-5.83820906080269e-05 -3.74302634538067e-05 0.000490294568692541)
(5.11738169358614e-05 0.000250757466458841 -0.000225528340770757)
(4.35413035859726e-06 9.68292271101616e-05 0.000258277374267823)
(-7.64483046461007e-07 0.000118907673816873 0.000507070852794436)
(-4.97115686131839e-05 0.000131836708375606 0.000390401669524393)
(0.000259217374945952 0.000188365561135791 -0.000441350560967718)
(-8.88995874509038e-05 0.000257902332443929 -0.000562877871736625)
(-8.17633269480539e-05 0.00032307733453037 0.00106196500728624)
(-0.000191472951088119 0.000449072804497605 -0.000674860234134227)
(-5.90958953290387e-05 0.000267771375406363 -0.000764885182543766)
(4.40778612396245e-06 0.000131466129435112 0.000234456061716516)
(5.74850934495927e-06 0.000222173818858667 0.000298476084746098)
(8.2271125088934e-06 0.00016967241622317 0.000467057396445147)
(3.21615231835318e-06 0.000356518913396729 0.000417894063773996)
(9.69162134948647e-06 0.000266498905814011 0.000513434774393938)
(5.81977969964378e-06 0.00016765367002603 0.000658847937344353)
(-6.85551157377998e-07 0.000525035919813869 0.000555596884018829)
(4.27898134362584e-07 0.000432896701599825 0.000612043573289355)
(6.24437315376055e-06 0.000312773483564162 0.000786368985283151)
(2.91493239972087e-07 0.000199946535991333 0.000489862282372495)
(-4.98592458916911e-06 0.000713611078340987 0.000686019179172005)
(-1.21490799649293e-05 0.000631006614619187 0.000735410432870128)
(-1.82731055224365e-05 0.000514647677224532 0.00086966462307443)
(-1.31956097327479e-05 0.000383248988574081 0.00102633663340205)
(-2.95951582576965e-05 0.000269722634376608 0.000896160161893118)
(-2.65614916255254e-05 0.000855710199754095 0.000842731944054081)
(-4.88391118738236e-05 0.000765876103020081 0.000951154981504663)
(-7.18101161243451e-05 0.000640560491173656 0.00109892084179078)
(-9.24749876050341e-05 0.000489244640380415 0.00127136321716317)
(0.000261199704229332 2.55404919196467e-05 -0.00125711753127269)
(5.71621711063398e-05 -6.37938857982776e-05 -0.000252699248447394)
(0.000147988145583729 2.03678215070699e-06 -0.000986508761817495)
(1.44237551031411e-05 8.06156396749151e-05 -0.00191654533363504)
(1.32314184330357e-05 6.71647811009349e-05 3.22291939162938e-05)
(1.76733466357882e-05 7.69514529496982e-05 0.000292791086333226)
(-4.72503122417379e-05 5.93454152895132e-05 0.000408733937490057)
(2.17556897533037e-05 0.000175197992794251 -0.000533771417563485)
(5.82768384678261e-06 7.14177436723205e-05 0.000254198313498714)
(3.06288261158572e-06 0.000123173865293304 0.000481549641047848)
(-3.13766871174437e-05 0.000143978076557178 0.000325096194482224)
(0.000415798513222321 0.000171123625825171 -0.000357164455171853)
(0.000192866072478587 0.000162327726769968 -0.000636180920892928)
(-6.09852903542533e-05 0.000338152641457678 0.0011465802676806)
(3.58998966909825e-05 0.000176358188330072 -0.000764800159148851)
(-3.3135306330477e-05 0.000196092627342228 -0.000880147280105076)
(-3.91198084143133e-05 0.000166746299964556 -0.000641005437817526)
(5.15381519745248e-06 9.79628739960023e-05 0.000211452997945099)
(7.3726722639785e-06 0.000184239670210996 0.000248042503380858)
(8.81197242460772e-06 0.000156783579442348 0.000420476903098563)
(5.6584745816906e-06 0.000303626242790684 0.000346976373911065)
(1.57230233227453e-05 0.000238214165472272 0.000433042085020356)
(1.5265593686624e-05 0.000166828410753545 0.000572761932692719)
(2.07483274962793e-06 0.000451305895790432 0.000470268945442846)
(9.98131324726394e-06 0.000372220853743996 0.000511875600288901)
(1.38961122353978e-05 0.00028234937174646 0.000667852571934909)
(1.81555337029846e-05 0.000181075709127906 0.000421239796640104)
(-1.94548067369813e-06 0.000617041236134036 0.0005955754712928)
(-1.75642699342251e-06 0.000541247134180286 0.000624213687760237)
(4.21235900837352e-07 0.000446249192169708 0.00072407848434441)
(8.78801311777363e-07 0.000339483300708453 0.000864556257564369)
(3.34457357251879e-06 0.000233398407772669 0.000761351022075862)
(-1.46596770968806e-05 0.000729767638593741 0.00073538902819055)
(-2.2938661848799e-05 0.000642504128924665 0.0008151399244209)
(-2.71515059136751e-05 0.000530158473206926 0.000928886078084557)
(-3.48147652450157e-05 0.000406998486503887 0.00108363580395376)
(-1.50057366703076e-05 0.000282692823511331 0.000972926064157891)
(-4.91621434011403e-05 0.000867376817287996 0.000899292479206776)
(-7.22363502032623e-05 0.000766060297994358 0.000980339310950595)
(-9.51769538549592e-05 0.000636090105907059 0.00109614113763631)
(-0.000119224931315897 0.0004933555237339 0.00123764689284667)
(0.000115757283573499 5.1921103318304e-06 -0.00149556526942785)
(2.35612716317794e-05 2.55762767742844e-05 -0.000483336562248899)
(9.24596137052448e-05 6.10875468005611e-05 -0.00112032746090461)
(1.04897257960292e-05 6.16641141262011e-05 -0.00186288651602181)
(1.27326843704317e-05 4.59269300450476e-05 4.51635436803472e-05)
(2.30185302637261e-05 8.92300939842055e-05 0.00029907984237016)
(-2.81009097773664e-05 9.77513701797154e-05 0.000367991390691976)
(-2.6100705925474e-06 0.000112044949888157 -0.000566192959404006)
(5.37557029506494e-06 4.06299249256062e-05 0.000253020342861337)
(1.00138325044972e-06 0.000106674978942392 0.000468969506770924)
(-1.7538200307074e-05 0.00013751804301172 0.000286067205261348)
(0.000484966281933732 0.00016500557464188 -0.000354386826529491)
(0.000367946728089775 0.00013226612232644 -0.000562393960889438)
(-6.21945287048232e-05 0.000345087530749283 0.00109022086923081)
(0.000226827843371139 0.000109520266325607 -0.00069968470773642)
(0.000150725688342091 6.86039883408395e-05 -0.000766029639029312)
(4.31182486024576e-05 3.46626728030759e-05 -0.000798614531725811)
(-5.60165111090348e-05 8.58362338223337e-05 -0.000625983561375244)
(6.67727491774026e-06 6.107588774834e-05 0.000195600852373346)
(8.45141723753156e-06 0.00014470030666132 0.000209070198778842)
(7.38496918343713e-06 0.000132691982312999 0.00039054717734989)
(7.3886163868196e-06 0.000256445099838398 0.000288620847854103)
(1.78220505468972e-05 0.000206701014896841 0.000372793426756338)
(1.97700084229358e-05 0.000153979984104889 0.000512335146453238)
(4.29122154333175e-06 0.000389087950334067 0.000398941539938558)
(1.64323960201206e-05 0.000322213625427962 0.000432411256619573)
(2.00339040167496e-05 0.000256839018110464 0.000573613190606514)
(3.15420030426176e-05 0.000169533534003941 0.000339260703483412)
(5.60557048539824e-07 0.000537120700342815 0.000516696620436461)
(6.55130368971937e-06 0.000468538899243038 0.000532824717102185)
(1.38939955092153e-05 0.000389365353750525 0.000613925433939696)
(1.48297134580639e-05 0.000301500793488887 0.000739231795637299)
(3.05826769016241e-05 0.000201723222562537 0.000647417457840599)
(-3.0018762695853e-06 0.00069456769456593 0.000627811554936502)
(-5.63345288091367e-06 0.000633215909240677 0.000642719538481689)
(-5.17399352940169e-06 0.000555473599641047 0.000698663210002786)
(-2.01529248525197e-06 0.0004602892871607 0.000785088886813162)
(-5.9963264507824e-06 0.000358180526059007 0.000924446505674106)
(1.38384566985633e-05 0.000244048177116399 0.000826601403021623)
(-2.74834356158479e-05 0.000741712215904749 0.000789351127470096)
(-3.53028448019371e-05 0.000647901175429902 0.000849217152720317)
(-4.14116309977202e-05 0.000535950342808152 0.000943514715186137)
(-5.56302584459904e-05 0.00041624284985377 0.0010732613900231)
(-1.30355497632553e-05 0.000288202331950965 0.000937764625401593)
(-7.37215160049628e-05 0.000863942417600371 0.000916378599740401)
(-9.53603783341468e-05 0.00075335488016736 0.000973868766750842)
(-0.000115709127756788 0.000620434065207455 0.0010602309436797)
(-0.0001398122871217 0.000478900136463274 0.00117699455341394)
(4.81453112448695e-05 -9.65299122973887e-07 -0.00162901661493077)
(-7.81439932995314e-06 6.29406644724926e-05 -0.000675320840959984)
(6.1857723188422e-05 6.74985714757239e-05 -0.00117283655481979)
(6.57254255235788e-06 1.11805046845475e-05 -0.00183826754365668)
(9.6954265659737e-06 2.10006627163853e-05 6.2689978156009e-05)
(1.27191214016049e-05 7.26101235282226e-05 0.000298978744116531)
(-2.11261325378393e-05 9.70951951760932e-05 0.000340051753768415)
(-2.36779793966358e-05 4.37071747189767e-05 -0.000691194146499422)
(1.49685001588996e-06 1.33112992215718e-05 0.000247887420371622)
(1.89537866316096e-08 8.23744763729313e-05 0.000459628435816559)
(-3.23317081296123e-05 0.000104563660639813 0.000268114466753617)
(0.000544265273743989 0.000164151669974628 -0.00037022264629946)
(0.000465768227825851 0.000136730719498238 -0.00054230347708168)
(-6.48464903515068e-05 0.00033090116392615 0.00101911547186181)
(0.000370424193210131 0.000104851786641494 -0.000676711893468346)
(0.000284719368689785 6.43836922542415e-05 -0.000729681197738245)
(0.000213643240041702 1.87264763964759e-05 -0.000767954783043698)
(7.92532481356918e-05 -7.75639042911467e-05 -0.000736539922653782)
(-0.000114214402650341 -2.57778493273223e-06 -0.000561168295099442)
(5.63474292804445e-06 2.45726582651673e-05 0.00018159409548994)
(9.48314414290691e-06 0.000103752323883171 0.000176310228692956)
(8.6248394790552e-06 0.000101901994111293 0.000371300623316669)
(8.49704549976903e-06 0.000212173582010328 0.000239705614239964)
(1.85215191230852e-05 0.000172646655650137 0.000328246933025641)
(2.15141188921863e-05 0.000129726479589033 0.000474650484592188)
(5.9062563586435e-06 0.000335127882997553 0.000338043718902215)
(2.009626467723e-05 0.000277739413198554 0.000368110921782859)
(2.31860331937449e-05 0.0002296198843361 0.000502860706965301)
(4.27244664403356e-05 0.000158284391479416 0.000280828578681533)
(2.56692257464663e-06 0.000469135468210813 0.000447949791104825)
(1.26918011313368e-05 0.000407233072905172 0.00045653130916402)
(2.32036668801402e-05 0.000342088638799334 0.000526778737216506)
(2.34486522830975e-05 0.000272963938999132 0.000638050930964606)
(4.15848469899392e-05 0.000184023085839072 0.000548191411928641)
(-8.35578346611044e-07 0.000611728568369035 0.000556453342376302)
(1.67674069238498e-06 0.000553719328189874 0.00056144392554377)
(8.33303418612192e-06 0.000485123400467454 0.00060184122525684)
(1.48789013028838e-05 0.000403646049822712 0.000671868475639333)
(1.20924967564411e-05 0.000316220652835773 0.000797337003113925)
(3.64729584031368e-05 0.000213513547331605 0.000708823391479779)
(-3.92491869376121e-06 0.000759564906455002 0.000656090251488419)
(-9.35800379208934e-06 0.000709672910748417 0.000662082347599249)
(-1.17020959495983e-05 0.000646745556827806 0.000694779602900087)
(-1.05106331551294e-05 0.000563355257188303 0.000735186327557897)
(-9.11239340098855e-06 0.000467149820399507 0.000810611978301368)
(-1.92806284808638e-05 0.000363248277389305 0.000929356357123703)
(2.00019093960303e-05 0.000251738071576351 0.000808500570184792)
(-4.21447085271363e-05 0.000742038139230091 0.000809416400202186)
(-4.95149992713227e-05 0.00064366060538009 0.000853118240396833)
(-5.71302784230359e-05 0.00052962232811525 0.000926897708517626)
(-7.42887511861724e-05 0.000409290248744969 0.00103795859027336)
(-1.46335720211655e-05 0.000283579786051009 0.000892340285162823)
(-9.78542540741581e-05 0.000846859721512478 0.000908945227176879)
(-0.00011468982853554 0.000729141001610029 0.000945757343471309)
(-0.000131161911682557 0.000594365425515087 0.0010128908310169)
(-0.000153505896664492 0.000453656472827966 0.00111729156969528)
(7.32584510963183e-06 -1.68997923085371e-05 -0.00170399992031837)
(-3.83318189135352e-05 6.41636463592926e-05 -0.000833975087007814)
(2.33059527691718e-05 2.87284067407361e-05 -0.00120806425797039)
(-6.0545322892975e-06 -2.45228719242044e-05 -0.00169249719624838)
(8.50743029394411e-06 -1.26813619706333e-05 7.07841803133217e-05)
(-1.35033223559958e-06 5.39424121668769e-05 0.000297966504693336)
(-5.88526794763675e-05 5.44707926532028e-05 0.000307716895837446)
(-8.44121503988527e-05 -1.74412565607022e-05 -0.000776999168443084)
(7.83464567146234e-06 -1.22754309007084e-05 0.000252149539643969)
(-1.21698082673944e-06 5.52962925617234e-05 0.000441157331759209)
(-4.37715753321613e-05 5.46659587431558e-05 0.000253361731996758)
(0.00059346752980036 0.000157318915519365 -0.000392203022160332)
(0.00053329613590403 0.000148344319196558 -0.000537254167648317)
(-6.2097424007911e-05 0.000308395679256221 0.000957275317841407)
(0.000469305084586193 0.000124200377021189 -0.000668435984617314)
(0.00039350558630358 8.77141254003306e-05 -0.000730818408193425)
(0.000322881188871066 4.37084549623178e-05 -0.000748611747029765)
(0.00024910971595498 -1.67628054540535e-05 -0.00074118406804379)
(0.000127563881210643 -0.000221878903400078 -0.000626543086164012)
(-0.000182350055465175 -0.000125587771603281 -0.000514409818908499)
(1.17519548574073e-05 -2.65505005243418e-06 0.000175198165540646)
(1.07576759541417e-05 6.44413784505909e-05 0.000144537014033288)
(1.62824297825164e-05 6.80212660082217e-05 0.000356990163326451)
(9.31018572338637e-06 0.000169996233513736 0.000196007996851451)
(2.04576609430681e-05 0.000136120619076504 0.000292688577595652)
(3.14635615609208e-05 9.21336182509238e-05 0.00044745411533573)
(7.02758711943024e-06 0.000286955769953637 0.000285038158842454)
(2.21960986502963e-05 0.000236306145052979 0.000315574131394968)
(2.50679517642652e-05 0.000200216870186703 0.000450295742949336)
(5.58809242108032e-05 0.000132578293895891 0.000244413196060997)
(4.05480996375956e-06 0.000410397451808454 0.000387667145563563)
(1.68446383456161e-05 0.00035435030073853 0.000391987202444928)
(2.90698610532984e-05 0.000300316670970857 0.000456571630528734)
(2.90871465460275e-05 0.000246532649118063 0.000561054423664526)
(5.00613549427875e-05 0.000167284868866428 0.000474820728427302)
(9.57662721975704e-07 0.000540439631960011 0.000491957162240614)
(7.45897778400181e-06 0.000485876465139221 0.000489858629770549)
(1.82705744584338e-05 0.000425570061383438 0.000521101067726118)
(2.68812731142593e-05 0.000356620546487995 0.000581673016029373)
(2.37553174734725e-05 0.00028474667970067 0.000695778492545465)
(5.02595757206276e-05 0.00019390791238374 0.0006122846674533)
(-2.00454709841289e-06 0.000675614793358102 0.000591087939378722)
(-2.90998305468817e-06 0.000626978204290772 0.000590136272694001)
(6.67416555789071e-07 0.000568829296788479 0.000611321993694324)
(7.70332237021327e-06 0.000494807634273786 0.000638152699586467)
(1.21146118329551e-05 0.000411126712744342 0.000701442199672487)
(4.33823054856491e-06 0.000321382998926518 0.000811182110798486)
(4.46078423718256e-05 0.00022243197549548 0.000703515099552527)
(-4.61994721063127e-06 0.000813455069689185 0.000679611734483495)
(-1.24784897686477e-05 0.000773728622215384 0.00068311379924586)
(-1.77690395011035e-05 0.000721939925346372 0.000700703040478893)
(-1.95873775248633e-05 0.000650052106447315 0.000717102306333987)
(-1.84005423159289e-05 0.000562961900361351 0.000746472966748939)
(-1.93995594661051e-05 0.000463690541430716 0.000807816198884425)
(-3.22725294417682e-05 0.000359263596753828 0.000912964287885621)
(2.38392476202462e-05 0.000251872525332465 0.000780297603675174)
(-5.76877530336861e-05 0.000731558282169735 0.000808310836784619)
(-6.3058250616011e-05 0.000628491823720599 0.000837244974743778)
(-7.02385943237898e-05 0.000512406827196548 0.000897407116578654)
(-8.79005022592668e-05 0.000392637342095829 0.00100011585852619)
(-1.18768395466837e-05 0.000270582723505318 0.000850007530189919)
(-0.000118296517955768 0.000818282597897825 0.000885907659985683)
(-0.000128527805304512 0.00069582414390761 0.000908094953365168)
(-0.000139875272492308 0.000559978586536602 0.000964924917309325)
(-0.000158228774384407 0.000420760723938041 0.0010633930395651)
(-3.0727748881932e-05 -1.98754196750514e-05 -0.00173914617679629)
(-8.6531142127988e-05 2.77713392463938e-05 -0.000956057561577609)
(-1.96211640277613e-05 1.99502762747531e-06 -0.00119230046070503)
(-1.75748231534136e-05 -6.33645278844552e-05 -0.00155344447764432)
(9.05908720696846e-06 -0.000113180860456465 8.89590455524952e-05)
(-8.17109290240985e-06 3.24937935331139e-05 0.000285972442240969)
(-0.0001052496300458 8.58255188570281e-06 0.000242508838176795)
(-0.000179056920970756 -0.000105600411581088 -0.000870324116364633)
(-4.13198176353757e-05 -0.000157755380572761 0.000167423490371769)
(-8.69808135909617e-05 3.56717714324549e-05 0.000386047605971817)
(-4.2981898427512e-05 -6.1850819276569e-06 0.000239278414655871)
(0.000625282700087652 0.0001384465629889 -0.000406068762532118)
(0.00057758282381219 0.000146653924805265 -0.000535377248739573)
(-4.96298731143691e-05 0.000279026039674642 0.000905047587478044)
(0.000537361981828254 0.000137698616636961 -0.000660340403927327)
(0.000476867112795442 0.000110191444411154 -0.000735312337116034)
(0.000414694267951512 7.49223023834128e-05 -0.0007629143605094)
(0.000353906033491247 2.2869225832254e-05 -0.000746921480862467)
(0.000306205367756595 -7.35036835439117e-05 -0.000682044176890851)
(0.000204849313660459 -0.000413398081571759 -0.00049554820823008)
(-0.000241623397099688 -0.000269856228797427 -0.000420651174040154)
(-1.76806465915636e-05 -0.000122045791506268 3.05680330623148e-05)
(1.29759045102619e-05 3.20142163397763e-05 0.000111318441330971)
(9.30319199243874e-06 1.77271668596086e-05 0.000335274460041238)
(9.81842884529975e-06 0.000131887841550085 0.000153483537326626)
(2.58279349565218e-05 9.80550787487911e-05 0.000258654152970762)
(6.32013813486736e-05 3.40151804766939e-05 0.000421407703803536)
(7.78659607340227e-06 0.000243583972255307 0.000237040109392249)
(2.40665114865253e-05 0.00019678937883923 0.000270070519123811)
(2.91276330466873e-05 0.000167962842584501 0.000407721122588705)
(8.76761845749607e-05 9.73118810607699e-05 0.000214007498895663)
(5.11020518843533e-06 0.000358873321813912 0.000334098689696896)
(1.96284108568196e-05 0.000307494499949983 0.000336705106292798)
(3.28777080796369e-05 0.000262059673108494 0.00039962569909891)
(3.34519449287942e-05 0.000219241664045304 0.000502731048512914)
(6.25017961677963e-05 0.000145164305974413 0.000422040927814483)
(2.33340816441709e-06 0.000478501607622518 0.000434028653721301)
(1.16836719386361e-05 0.000427421312149008 0.000427274323123745)
(2.5200936249532e-05 0.000374333349610445 0.000453053290625967)
(3.50269426446688e-05 0.000316016570875278 0.000508588892280436)
(3.17660898830498e-05 0.000257282773753637 0.000615011355846988)
(6.22841700970443e-05 0.000176673344743991 0.000534314925649469)
(-3.89277644036168e-07 0.000602694701186505 0.000531048792092642)
(2.42851001552065e-06 0.000555685639758799 0.000524260347210107)
(1.03557779114679e-05 0.000502037237522998 0.000537196467896545)
(2.11377044174425e-05 0.000436554277716007 0.000556601998178808)
(2.73134370420168e-05 0.000364172667879778 0.00061205460920705)
(2.10891452072527e-05 0.000287278625203292 0.000713013993585182)
(6.37274106347332e-05 0.000200305883207672 0.000613018846211837)
(-2.91392784409092e-06 0.000729999828133213 0.000620832065869164)
(-6.69557684999643e-06 0.000689720695861566 0.000617966304989599)
(-6.6408651049105e-06 0.000640364282484037 0.000628072699186451)
(-2.3352907738862e-06 0.000574488953764337 0.000634863113250579)
(4.30699249984031e-06 0.00049643524887824 0.000653099527810366)
(6.90655076309677e-06 0.000408959413500272 0.00070591300327624)
(-1.62119499263173e-06 0.000316941621987722 0.000805799023301837)
(5.47036672262403e-05 0.000223219879758027 0.000685837714778202)
(-5.10169177589156e-06 0.000857911002423225 0.000699124823369257)
(-1.46953554560937e-05 0.000826741981185006 0.000701578228540831)
(-2.30207706994836e-05 0.000785086927122845 0.000713917815714338)
(-2.7977223309062e-05 0.00072215492949668 0.000715437236332874)
(-2.9067525530796e-05 0.00064395031493034 0.000720998234629515)
(-2.71057363092684e-05 0.000552561805943355 0.000739908639553297)
(-2.83293467888524e-05 0.000450146390500505 0.000791960053616974)
(-4.04104338685387e-05 0.000345768771202478 0.000891846630384009)
(3.1692595972902e-05 0.000242692601819504 0.00075228050682161)
(-7.18222898669635e-05 0.000710906403182299 0.000793193485841036)
(-7.36388325742645e-05 0.000604084483559481 0.000811590269661744)
(-7.85560411148422e-05 0.000486568114759428 0.000865046992595929)
(-9.43110943471046e-05 0.000367449365201217 0.000964758918596953)
(-1.85574346320283e-06 0.000249244444176388 0.000812539256381926)
(-0.000133407454908907 0.000780782812956747 0.000854832048417938)
(-0.000136136640562231 0.000655476505787467 0.000868190859846393)
(-0.000141678445715854 0.00051977230920841 0.000920375744044235)
(-0.000155287202303576 0.000381051703349131 0.00101763684908447)
(-0.000112465616644312 -3.89440508713143e-05 -0.00173376042433569)
(-0.000162139347578922 -1.64135559283303e-05 -0.00104849247961009)
(-7.44893035472393e-05 -3.91802714294184e-06 -0.00112957091215276)
(-1.52207766913344e-05 -0.000176431620150175 -0.00126176666270197)
(-3.28021505603525e-05 -0.000415036324548931 -7.57731487339298e-05)
(-5.98191912542212e-05 -5.37670451487402e-05 0.00025555152573281)
(-0.000166124552750511 -4.51259108478965e-05 0.000143278558234213)
(-0.000342702999437375 -0.000215352224273398 -0.000911027346983558)
(-0.000321695343113564 -0.00120066097760311 -0.000242476531977012)
(-0.000114094035134175 -3.34083480975102e-05 0.000280391166350793)
(5.56026513773961e-05 -2.90657915513945e-05 0.000208962347721541)
(0.000629715616080481 0.000109564980338457 -0.000404729279606595)
(0.000599845035233763 0.000131243850936286 -0.00052752846843626)
(-3.30922115181796e-05 0.000240498287861131 0.000864624271409713)
(0.000579722128071201 0.000137436117447728 -0.000648483679432908)