/*--------------------------------*- C++ -*----------------------------------*\
  =========                 |
  \\      /  F ield         | OpenFOAM: The Open Source CFD Toolbox
   \\    /   O peration     | Website:  https://openfoam.org
    \\  /    A nd           | Version:  12
     \\/     M anipulation  |
\*---------------------------------------------------------------------------*/
/*   Windows 32 and 64 bit porting by blueCAPE: http://www.bluecape.com.pt   *\
|  Based on Windows porting (2.0.x v4) by Symscape: http://www.symscape.com   |
\*---------------------------------------------------------------------------*/
FoamFile
{
    format      ascii;
    class       volScalarField;
    location    "600";
    object      k;
}
// * * * * * * * * * * * * * * * * * * * * * * * * * * * * * * * * * * * * * //

dimensions      [0 2 -2 0 0 0 0];

internalField   nonuniform List<scalar> 
10103
(
8.03632381031879e-10
8.08858470574522e-10
1.35132466331655e-08
1.45102952683558e-08
8.10489429080155e-10
1.36178348291347e-08
1.45883529577377e-08
7.04892425176318e-08
3.78458054354049e-07
8.46893046482813e-08
8.09919597926366e-10
1.36511509762484e-08
1.45683361763551e-08
7.10453233470901e-08
3.81265164234224e-07
8.52253055773298e-08
1.75946420734489e-07
1.97758252531831e-06
2.22364287728544e-06
2.51929589628738e-07
8.03616709623305e-10
1.36272850880261e-08
1.44950643630469e-08
7.11360978722958e-08
3.81248504586183e-07
8.5050987719584e-08
1.76929951159998e-07
1.99228121877075e-06
2.24041148476764e-06
2.5364716827006e-07
3.11659168877193e-07
4.62271944040153e-06
8.96210363553901e-06
5.78799020240593e-06
5.05257345031198e-07
7.91287804596708e-10
1.34992971532137e-08
1.43325541039584e-08
7.07301945317472e-08
3.79081028958646e-07
8.43095531592377e-08
1.76762901930276e-07
1.99220494953774e-06
2.23920053322777e-06
2.53027428055817e-07
3.12921605660471e-07
4.64530514424795e-06
9.00196342029224e-06
5.81989839369186e-06
5.08389260612076e-07
4.71226329901422e-07
7.62578635566595e-06
1.64881131343139e-05
1.74454964531509e-05
1.00751558931798e-05
8.28560491656593e-07
7.73676408227626e-10
1.32735088945205e-08
1.40658076654347e-08
6.97798779389722e-08
3.74185336092649e-07
8.29674371680694e-08
1.7525076057489e-07
1.97634581342672e-06
2.21843846477163e-06
2.50559185167883e-07
3.12080776393424e-07
4.63654881356931e-06
8.98680295155838e-06
5.81189896802678e-06
5.07293265672339e-07
4.72769499589217e-07
7.65075650918593e-06
1.65281047166304e-05
1.74862282539279e-05
1.01111142588023e-05
8.330396940221e-07
6.54115995480678e-07
1.07344446568612e-05
2.36318437660892e-05
2.81760003315517e-05
2.58058652793585e-05
1.45743175169644e-05
1.22225371728675e-06
7.5113897533237e-10
1.29605440831795e-08
1.37064026295262e-08
6.83367554096277e-08
3.66675118812393e-07
8.10378262623716e-08
1.72462239054451e-07
1.9459297638838e-06
2.18205064502074e-06
2.46275365361155e-07
3.08679012064815e-07
4.59436083342498e-06
8.91597093542371e-06
5.76014644654958e-06
5.02306298075629e-07
4.70818943783093e-07
7.62569043601487e-06
1.64854170368206e-05
1.74448319849948e-05
1.00903837630505e-05
8.31115462282108e-07
6.55818655364852e-07
1.07578896990897e-05
2.36657638313164e-05
2.82118394110496e-05
2.58456090164225e-05
1.46132156306548e-05
1.22746756760837e-06
8.57865349941053e-07
1.3874966266353e-05
3.0346945451005e-05
3.79471340457405e-05
3.90795802830272e-05
3.39184026196625e-05
1.91688147060773e-05
1.69455060333945e-06
7.23943046157535e-10
1.25663039218105e-08
1.32611066649368e-08
6.64478065653273e-08
3.56808832784909e-07
7.85905192838079e-08
1.68526244085643e-07
1.90283488881109e-06
2.13165066550169e-06
2.4034257009161e-07
3.03195234219219e-07
4.52255895031239e-06
8.79417950340327e-06
5.6714766570878e-06
4.93928602202633e-07
4.65087452535891e-07
7.55241728543973e-06
1.63636832684859e-05
1.73218409692864e-05
1.00091347151081e-05
8.22918532278678e-07
6.52484762678586e-07
1.07156060363705e-05
2.35931729753576e-05
2.81317107245846e-05
2.57759601529061e-05
1.4575507564912e-05
1.22406748691809e-06
8.59617437266347e-07
1.38951993751183e-05
3.03755737229386e-05
3.79760462536995e-05
3.91091558833305e-05
3.39541371393875e-05
1.92090220021222e-05
1.70047394102255e-06
1.07681858317698e-06
1.70003589819471e-05
3.66765204411558e-05
4.70167795223217e-05
5.08512477820724e-05
4.94664258894609e-05
4.17741572829318e-05
2.38534535349016e-05
2.24303917247778e-06
6.92424255783138e-10
1.20954712790727e-08
1.27362027667141e-08
6.41570278016124e-08
3.44754486531832e-07
7.56684906605227e-08
1.63542764106833e-07
1.84805138795455e-06
2.06869062045095e-06
2.32918139426202e-07
2.95806374480529e-07
4.42419758205524e-06
8.62807965352059e-06
5.5517791631781e-06
4.82352583409577e-07
4.56459742544349e-07
7.43584047093284e-06
1.61669869282127e-05
1.71214810832948e-05
9.87300813435056e-06
8.09294321245282e-07
6.44263689558398e-07
1.06117548982025e-05
2.34200966086668e-05
2.79409853217146e-05
2.56008430764577e-05
1.44637803048848e-05
1.21198780577985e-06
8.54775257149841e-07
1.38367661882422e-05
3.02752321818984e-05
3.78594687944448e-05
3.89925522571617e-05
3.38559490512735e-05
1.91528413615998e-05
1.69474358184204e-06
1.07862911614732e-06
1.70188108470669e-05
3.67017086812995e-05
4.70404738162975e-05
5.0871810326526e-05
4.94874465433057e-05
4.18031709057006e-05
2.38911488790972e-05
2.24921571142981e-06
1.30495411985971e-06
2.00633783515064e-05
4.26623814900654e-05
5.54932297588385e-05
6.16780808927646e-05
6.29370389270001e-05
5.93969108932128e-05
4.94135945686065e-05
2.85707180878627e-05
2.82606881876848e-06
6.56936197957976e-10
1.21393459608079e-08
1.15548677427815e-08
6.14863225393951e-08
3.30690892208124e-07
7.23129215746164e-08
1.57584388136126e-07
1.78241400623924e-06
1.99410479048529e-06
2.2411845666654e-07
2.86641610350817e-07
4.30113032790175e-06
8.42026997971282e-06
5.40304880826957e-06
4.67797338600649e-07
4.45071632309258e-07
7.27936220210992e-06
1.58994750682978e-05
1.68479240756679e-05
9.68751737505076e-06
7.90446824815881e-07
6.31977562280969e-07
1.04519330453376e-05
2.31508393500539e-05
2.76425174840046e-05
2.53230515429876e-05
1.42799109852115e-05
1.19179499399381e-06
8.43892874144537e-07
1.37043065031733e-05
3.00544228727327e-05
3.76044144958178e-05
3.87345735966487e-05
3.36275332343894e-05
1.90065116992085e-05
1.67752863894638e-06
1.07229632477502e-06
1.69461192215826e-05
3.65775395177935e-05
4.68912619208447e-05
5.07125060896815e-05
4.93332964901711e-05
4.16744673339945e-05
2.38142822533822e-05
2.24045852744051e-06
1.30693483880554e-06
2.0082267444207e-05
4.26868290642749e-05
5.55144787349662e-05
6.16928147263674e-05
6.2946566709976e-05
5.9406952056306e-05
4.94331266166616e-05
2.86029481047414e-05
2.83194376926989e-06
1.53805277835629e-06
2.30289619649467e-05
4.83297537059221e-05
6.34557069892869e-05
7.17722026595977e-05
7.51867766257423e-05
7.43761455194353e-05
6.89243506970119e-05
5.68610646464295e-05
3.31550662352715e-05
3.2841125408568e-06
6.17773802928809e-10
1.14780995483373e-08
1.09507543858569e-08
6.85724427376077e-08
3.14846005621232e-07
5.8464701176812e-08
1.50724184535907e-07
1.7068737615717e-06
1.9088464484214e-06
2.14068336585799e-07
2.75821810555748e-07
4.15483541667243e-06
8.17268327498378e-06
5.22661635085361e-06
4.50465855945409e-07
4.31013052960496e-07
7.08493375990998e-06
1.55645794205651e-05
1.65044548072628e-05
9.45483123882432e-06
7.66672200001805e-07
6.16007227433063e-07
1.02394743082328e-05
2.27890016270716e-05
2.72395026006816e-05
2.49459689307052e-05
1.40279108439521e-05
1.16389521541213e-06
8.27679317197576e-07
1.35035889042261e-05
2.97174062550367e-05
3.72140613532693e-05
3.8337814833953e-05
3.32710969112272e-05
1.87700600878598e-05
1.64898787077828e-06
1.05850084189463e-06
1.67873992580873e-05
3.63134525227901e-05
4.65769812371237e-05
5.0379004810778e-05
4.90075391202187e-05
4.13906061271157e-05
2.36287851240965e-05
2.21701296390578e-06
1.29918217556939e-06
1.99972834585886e-05
4.25423290623523e-05
5.53366790789961e-05
6.14958563396602e-05
6.27433333813362e-05
5.92134597939624e-05
4.92711836285626e-05
2.85027307401007e-05
2.81968981600227e-06
1.54031035816753e-06
2.30496665270599e-05
4.83557364997063e-05
6.34770013294939e-05
7.17842545866738e-05
7.51891855218773e-05
7.43722576702622e-05
6.89211753427667e-05
5.68688376523204e-05
3.31801074546615e-05
3.28943365816731e-06
1.77357709130041e-06
2.58793202479438e-05
5.36965112226177e-05
7.09620561140137e-05
8.12543100581888e-05
8.6566154898027e-05
8.7839625124285e-05
8.52544341334967e-05
7.81007997950878e-05
6.41458119077228e-05
3.74445100004897e-05
3.09857947190644e-06
5.75264722733317e-10
1.07578294219953e-08
1.02865386904139e-08
6.44944305548418e-08
2.97422046537795e-07
5.51312095589282e-08
2.02909208779631e-07
1.81395327763511e-06
1.62252010233599e-06
1.43050094608469e-07
2.63504295985037e-07
3.98698396343414e-06
7.88719589011303e-06
5.02416647387183e-06
4.30611182432216e-07
4.14480568305575e-07
6.85445239119376e-06
1.51647163995919e-05
1.60935303675323e-05
9.17658393093145e-06
7.3828354607137e-07
5.96459769518036e-07
9.97622885123525e-06
2.23373831787344e-05
2.6734843744895e-05
2.44723684080794e-05
1.37099956776964e-05
1.12861019922208e-06
8.06673080249564e-07
1.32379406615034e-05
2.92674799190158e-05
3.6691238153133e-05
3.78046961226165e-05
3.27892594510399e-05
1.84458217192061e-05
1.60948103384562e-06
1.03831054746285e-06
1.65482563386575e-05
3.59141572856458e-05
4.61017403093179e-05
4.98743874638712e-05
4.85125679639459e-05
4.09533717560752e-05
2.33337156753462e-05
2.17804622513289e-06
1.28241404402095e-06
1.98143626022988e-05
4.22391469338992e-05
5.49689538063614e-05
6.10941445778313e-05
6.23321572331479e-05
5.88191826766635e-05
4.89294430881156e-05
2.82748194500237e-05
2.78899491029867e-06
1.53123365178915e-06
2.29541556468954e-05
4.81939206494928e-05
6.32745419244792e-05
7.15546383515973e-05
7.49437980031354e-05
7.41239218520162e-05
6.86866035492956e-05
5.66710821403141e-05
3.30543008060833e-05
3.27408391569212e-06
1.77621418729349e-06
2.59028981856435e-05
5.3725827340134e-05
7.09856124981012e-05
8.12664046476477e-05
8.65651407215723e-05
8.7827109865085e-05
8.52350655084983e-05
7.80825136855331e-05
6.41405771388948e-05
3.74633618091648e-05
3.1033668660433e-06
2.00977085561318e-06
2.86097286638682e-05
5.87800267296403e-05
7.80552999896299e-05
9.02028515346647e-05
9.72574262101752e-05
0.000100284185157414
9.97734161988245e-05
9.56272073543795e-05
8.69826956061003e-05
7.15144152575893e-05
4.31297010309406e-05
5.29860725122403e-10
9.98515237499842e-09
9.56562489141331e-09
6.01283895432502e-08
2.78509051647658e-07
5.15325157588424e-08
1.90786882954319e-07
1.71045049943441e-06
1.53028652735739e-06
1.34667657788607e-07
4.08513790891471e-07
4.79769608531067e-06
7.56583013071051e-06
3.79925573377973e-06
2.49804074657002e-07
3.95688680064589e-07
6.58998336097687e-06
1.47021647125289e-05
1.56174621802497e-05
8.85514830237697e-06
7.05677378358124e-07
5.73526523310922e-07
9.66438447113009e-06
2.17983921828448e-05
2.61311118438735e-05
2.39046883829934e-05
1.33282043192371e-05
1.08627257547986e-06
7.81058239573131e-07
1.29095899211073e-05
2.87072655128405e-05
3.6038638181177e-05
3.71377880192953e-05
3.21844377643212e-05
1.8035740059374e-05
1.55922390775972e-06
1.01215252657103e-06
1.62321232514291e-05
3.5383018794487e-05
4.54682614939541e-05
4.92008401900991e-05
4.78501382853874e-05
4.03644190014091e-05
2.29304319056734e-05
2.12420416729462e-06
1.25820492019659e-06
1.95382881774383e-05
4.17827918747122e-05
5.44160490050859e-05
6.04912598606151e-05
6.17154717222928e-05
5.82257228304742e-05
4.84085659657171e-05
2.79168009857091e-05
2.73825066570744e-06
1.51156343890602e-06
2.27485103391203e-05
4.78555570147692e-05
6.28587483121986e-05
7.10916194002483e-05
7.44567903702378e-05
7.36353055164384e-05
6.82226175490833e-05
5.62689654543421e-05
3.2781262356363e-05
3.2366757335626e-06
1.76586005934139e-06
2.57985138173252e-05
5.35493508232886e-05
7.07620865276528e-05
8.10086735911855e-05
8.62836307558027e-05
8.75326628055659e-05
8.49406415827633e-05
7.78052158237789e-05
6.39046275204175e-05
3.7309244865612e-05
3.08681003305268e-06
2.01296452930128e-06
2.86370621032401e-05
5.88141285146962e-05
7.80830222656593e-05
9.02173842577498e-05
9.72561187247681e-05
0.000100267392857402
9.97440443305036e-05
9.55908611728796e-05
8.69485082084752e-05
7.14979812958002e-05
4.31521616507369e-05
2.54149090581797e-06
2.2453591893532e-06
3.12213637561157e-05
6.35977624892729e-05
8.47692651068442e-05
9.86721930373806e-05
0.000107365326091933
0.000111965914709593
0.000113121893834459
0.000111053208808655
0.000105516630433752
9.56650939642086e-05
7.9869514301735e-05
4.82111212618284e-10
9.16806538807044e-09
8.79619443250638e-09
5.55313084402845e-08
2.58237980573573e-07
4.77026643192422e-08
1.77839964596278e-07
1.59929394775634e-06
1.43103495518018e-06
1.25704816342151e-07
3.84482748014706e-07
4.54924914833226e-06
7.2107921800155e-06
3.59335267256029e-06
2.348721865614e-07
6.69355122267415e-07
8.49319581702115e-06
1.50787624372943e-05
1.41792892143214e-05
6.29341938666155e-06
3.74839357323054e-07
5.47478698955491e-07
9.30615488791112e-06
2.11744917972254e-05
2.54308990177489e-05
2.32456228217368e-05
1.28851940128953e-05
1.03747205639593e-06
7.51122541307872e-07
1.25206694786364e-05
2.80392363905363e-05
3.52588886787801e-05
3.63397113449546e-05
3.14590840280186e-05
1.75419717315976e-05
1.49903218735695e-06
9.80238007026985e-07
1.58422546251054e-05
3.47227267361842e-05
4.46792217302856e-05
4.83608514223271e-05
4.70224727551227e-05
3.96256227030049e-05
2.2419995318602e-05
2.05560334812657e-06
1.22674498305191e-06
1.91742818369167e-05
4.11767739287975e-05
5.36809298041983e-05
5.96895677983935e-05
6.08949887633278e-05
5.74341724701923e-05
4.77091778856061e-05
2.742860112861e-05
2.66790840247675e-06
1.48331674892695e-06
2.24384151930388e-05
4.73468264484752e-05
6.22349830876747e-05
7.03993361930715e-05
7.37310110720493e-05
7.29080694999628e-05
6.75299131281804e-05
5.56614118423153e-05
3.23568810175418e-05
3.17510355179579e-06
1.74341507887306e-06
2.55721837226166e-05
5.31794261973886e-05
7.03031430862426e-05
8.04906255263405e-05
8.57290661363792e-05
8.69618041123374e-05
8.43746520991985e-05
7.72701104763125e-05
6.34388505341837e-05
3.69867567351125e-05
3.04845920553835e-06
2.00149306949546e-06
2.85251339133375e-05
5.86253942024951e-05
7.78416533177598e-05
8.9935605817981e-05
9.69436793614636e-05
9.99339411233783e-05
9.94002201674381e-05
9.5249611634156e-05
8.66268109050529e-05
7.12198261438123e-05
4.2952379670579e-05
2.52415382984706e-06
2.24917782610103e-06
3.12531968934059e-05
6.36378207948607e-05
8.48027639586684e-05
9.86912481597978e-05
0.000107366418041067
0.000111948441060084
0.000113087514955619
0.000111005849020287
0.000105463126789904
9.56180268713331e-05
7.98537192510768e-05
6.02415867882039e-05
3.16386256293539e-05
2.47897954361599e-06
3.37167817908012e-05
6.81655340525693e-05
9.11310517901699e-05
0.00010670247086186
0.000116954697348416
0.000123024039442368
0.000125633831261681
0.000125168423648846
0.00012168350195891
0.000114894864712134
0.000104163848103647
4.32411148813712e-10
8.31646204818384e-09
7.98805533750344e-09
5.07495618211281e-08
2.36841670578364e-07
4.36753855450358e-08
1.64245682486274e-07
1.48165576644088e-06
1.3257429008348e-06
1.16235168185434e-07
3.58828767134664e-07
4.28038324096704e-06
6.82448450878687e-06
3.37100111561884e-06
2.18916109091561e-07
6.29970827732605e-07
8.09375644935532e-06
1.44800621496342e-05
1.35985440469501e-05
5.96723075529484e-06
3.5218583530153e-07
9.83084552473744e-07
1.23846238912321e-05
2.24982730357005e-05
2.46369909132738e-05
2.04680982267652e-05
8.90395525781405e-06
5.18639592898436e-07
7.17177052786635e-07
1.20735485494739e-05
2.72659348769436e-05
3.43547554247053e-05
3.54133394274728e-05
3.06162699315623e-05
1.6968107610932e-05
1.42980859340748e-06
9.42889999529524e-07
1.53805754343577e-05
3.39358075124626e-05
4.37373186083087e-05
4.73571278961313e-05
4.60321436597159e-05
3.87393242701899e-05
2.18046322934988e-05
1.97276262869129e-06
1.18839483068057e-06
1.87259008208738e-05
4.04240993883532e-05
5.27664065310396e-05
5.86916584266773e-05
5.98729367874794e-05
5.64462786202196e-05
4.68322375112522e-05
2.68097879735466e-05
2.57763803668053e-06
1.44661069232623e-06
2.20306714199377e-05
4.66717263165654e-05
6.14065611823684e-05
6.94804977119953e-05
7.27684432373331e-05
7.19433846498559e-05
6.66087360471167e-05
5.4847722893159e-05
3.17789988080582e-05
3.08993992005538e-06
1.71115654456591e-06
2.52309998754192e-05
5.26228361042806e-05
6.96147436072345e-05
7.97169628691037e-05
8.49048177493444e-05
8.6116630776793e-05
8.35379965053214e-05
7.64769518099268e-05
6.27409250226491e-05
3.64909535963633e-05
2.98645240980418e-06
1.97636970536007e-06
2.82798285644838e-05
5.82271693347308e-05
7.73440308944401e-05
8.93681733385202e-05
9.63287111564016e-05
9.92905791303439e-05
9.87468128837738e-05
9.46062338823831e-05
8.6018818228286e-05
7.06844728892383e-05
4.25554263006505e-05
2.48772479957455e-06
2.2367088109357e-06
3.11351103142429e-05
6.34389401138823e-05
8.45464092282067e-05
9.83890439271625e-05
0.000107027569799968
0.000111581848966299
0.000112702443523506
0.000110612750023985
0.00010507468080129
9.52498582575006e-05
7.95229797879308e-05
5.99549455884367e-05
3.14695395460512e-05
2.48353945899951e-06
3.37535309191313e-05
6.82124730309744e-05
9.11716562267096e-05
0.000106727838011733
0.00011696051064502
0.00012300891377696
0.00012559850350501
0.000125115643924097
0.000121618609298892
0.000114828690249485
0.000104120042928131
8.9122055869415e-05
7.34435285196506e-05
4.79946176071608e-05
2.70925323515969e-06
3.60970136566666e-05
7.24960624672175e-05
9.71620080317785e-05
0.000114323976561399
0.000126069177382931
0.000133537898868761
0.000137486913536127
0.000138383972828618
0.000136434884445736
0.000131608630219265
0.000123628353543033
3.81129627213851e-10
7.43793323892018e-09
7.14882687549082e-09
4.58341086785543e-08
2.14596940029857e-07
3.94917242361451e-08
1.50140474606554e-07
1.35862893225799e-06
1.2153964531871e-06
1.06293097963218e-07
3.31834281004134e-07
3.99386003229531e-06
6.40936448850935e-06
3.13422279320151e-06
2.02158129503826e-07
5.88077495251775e-07
7.65980326714512e-06
1.38240121532608e-05
1.29625209053727e-05
5.61403804556402e-06
3.27981709809986e-07
9.24468327376442e-07
1.18313947381108e-05
2.16660038155141e-05
2.37523334129382e-05
1.96819434998668e-05
8.46031925853965e-06
4.87348900076399e-07
1.35302809459426e-06
1.63195923358503e-05
2.96599029792022e-05
3.43619533412789e-05
3.3329197025556e-05
2.6390060726789e-05
1.15709386140708e-05
6.79591207951952e-07
9.00572555798625e-07
1.4849431440439e-05
3.30248852736159e-05
4.26454325049404e-05
4.61926997223378e-05
4.48822951385084e-05
3.77090417392361e-05
2.10889175144347e-05
1.87718486377817e-06
1.14354187889093e-06
1.81951394013264e-05
3.95273329809655e-05
5.16753048048315e-05
5.75003719693114e-05
5.86520042246399e-05
5.52644218916745e-05
4.5779641003372e-05
2.6061712463514e-05
2.46800604168389e-06
1.40181982443767e-06
2.15282760885947e-05
4.58335229750792e-05
6.03765355168626e-05
6.83379174318439e-05
7.15715189300448e-05
7.07431220490192e-05
6.54600854729754e-05
5.38273293137653e-05
3.10444971349626e-05
2.97891257530193e-06
1.66921281820598e-06
2.47834285415128e-05
5.18842119369171e-05
6.87005957641032e-05
7.86907834880948e-05
8.38132673264227e-05
8.49986874649586e-05
8.24312221738394e-05
7.54249370036568e-05
6.18082671558001e-05
3.58165773602988e-05
2.90290721660194e-06
1.94018502543397e-06
2.79102812541961e-05
5.76268651232455e-05
7.65966626717585e-05
8.8520323266795e-05
9.54151059039936e-05
9.83399234268856e-05
9.77852309896514e-05
9.36609956650382e-05
8.51234453483451e-05
6.98890378606193e-05
4.19565568233785e-05
2.43029651461874e-06
2.20906052687489e-06
3.08729963613369e-05
6.30153220807495e-05
8.40141196270265e-05
9.77772902314891e-05
0.000106358439518697
0.000110873997560196
0.000111972772421529
0.000109878128374923
0.000104353857742657
9.45661322895216e-05
7.89053488715228e-05
5.94327639154484e-05
3.11475968155196e-05
2.4701773229786e-06
3.36304210105419e-05
6.80053076587144e-05
9.09028482766904e-05
0.000106408420129042
0.000116599218713739
0.000122614134449549
0.000125178679008352
0.000124679783423002
0.000121176934641161
0.000114392845789399
0.00010370059201265
8.8723149978238e-05
7.3088563972195e-05
4.77449967535318e-05
2.71457575476682e-06
3.61393185151468e-05
7.25505478605199e-05
9.72107873923559e-05
0.0001143571619118
0.000126081703960596
0.00013352769650778
0.000137453991038745
0.000138330236655347
0.000136364695375975
0.000131531955628179
0.000123569076912226
0.000112015721997164
9.74230343031153e-05
8.1646518966201e-05
5.64276257794073e-05
2.93456046260935e-06
3.83617500021733e-05
7.65983342853493e-05
0.000102878283978936
0.000121559419884976
0.000134739416961775
0.000143555784305125
0.000148777592382543
0.000150913488590794
0.000150247871836825
0.000146874875654828
0.000140711555222699
3.28908865406655e-10
6.53946968578002e-09
6.28514583972421e-09
4.08296360403941e-08
1.91704136278343e-07
3.51967095472575e-08
1.35651219842821e-07
1.23146975510072e-06
1.1010173377202e-06
9.60157246775235e-08
3.0373374304343e-07
3.69161320866313e-06
5.96733947413219e-06
2.88511147562333e-06
1.84766229107214e-07
5.44046910156017e-07
7.19387819361797e-06
1.31130916456402e-05
1.22738991880587e-05
5.23673129057755e-06
3.02615122410941e-07
8.63022068766725e-07
1.12297898978526e-05
2.0752237214987e-05
2.27799547679044e-05
1.88190395409967e-05
7.97864210725205e-06
4.53964779537106e-07
1.27088083357303e-06
1.56034308280305e-05
2.85946236407535e-05
3.31891745402989e-05
3.21854284804304e-05
2.54145599567775e-05
1.1015923527009e-05
6.3879659484842e-07
1.77164023189871e-06
2.02808233868614e-05
3.65398765790558e-05
4.35767903260687e-05
4.48710065136023e-05
4.14067223071543e-05
3.19928157612874e-05
1.4251572935634e-05
8.53722926453522e-07
1.09269928945836e-06
1.75844818882645e-05
3.84891846307572e-05
5.04106270329634e-05
5.61188994136766e-05
5.72354489921899e-05
5.38919474003143e-05
4.45552543551023e-05
2.51897339335508e-05
2.34091263744247e-06
1.34943898128824e-06
2.09335678822454e-05
4.48349341817101e-05
5.91478882438963e-05
6.69746350608517e-05
7.01431355298743e-05
6.93098362385548e-05
6.4085858163528e-05
5.26009377842449e-05
3.01527117358766e-05
2.84474795326796e-06
1.61804149351972e-06
2.42313875127491e-05
5.09669391241781e-05
6.75640324316039e-05
7.74151943694487e-05
8.24571595953721e-05
8.36101764966728e-05
8.10556847448391e-05
7.41139155523115e-05
6.0637868082874e-05
3.49558020968607e-05
2.78915559888846e-06
1.8931124932311e-06
2.74254248805226e-05
5.68297010267771e-05
7.5603673175718e-05
8.73955440171561e-05
9.42056688278645e-05
9.70839977507932e-05
9.65165802176937e-05
9.24137861323892e-05
8.39387715515287e-05
6.88286048003328e-05
4.11456196244056e-05
2.3528446720788e-06
2.16901957207835e-06
3.04774715054043e-05
6.23749663341474e-05
8.32128865805695e-05
9.6861699875458e-05
0.000105363402751683
0.000109828016682198
0.000110900483415372
0.000108802932845062
0.000103300822300327
9.35659107495163e-05
7.7998959795282e-05
5.8665858464317e-05
3.06646246882904e-05
2.44007275898406e-06
3.33533091640662e-05
6.75589793494682e-05
9.03394864438317e-05
0.000105756874130348
0.00011588143006339
0.000121848559334732
0.000124381548048294
0.000123866319267645
0.000120362590225848
0.000113594359025558
0.000102937080044413
8.80185342643489e-05
7.24632985023399e-05
4.72997221996372e-05
2.70040062714269e-06
3.60120408471406e-05
7.23366938607151e-05
9.69317511865509e-05
0.000114023378928721
0.000125701464624271
0.000133108992513879
0.000137004749651831
0.000137858626764394
0.000135879559897699
0.000131042706484374
0.000123082756653407
0.000111530307850947
9.6971491089488e-05
8.12403667893605e-05
5.61275541556516e-05
2.94072057322005e-06
3.84098036971124e-05
7.66608284286572e-05
0.000102936039069591
0.000121601653526377
0.000134760345304266
0.000143552700353889
0.000148749885694237
0.000150862422595402
0.000150177145522377
0.000146794071419284
0.000140645454383172
0.000131468819103607
0.000119120125959713
0.000104454209521634
8.7332117148173e-05
6.16857100871086e-05
3.1526170582699e-06
4.05087438265132e-05
8.04776626169143e-05
0.0001082913026552
0.000128425403100271
0.000142987115947762
0.000153108408691613
0.000159560086604769
0.000162868884506222
0.000163360838491965
0.000161198500996818
0.00015640397837474
2.76128341637219e-10
5.63046960427173e-09
5.40802097895483e-09
3.57769775868702e-08
1.68334655848151e-07
3.0824511959143e-08
1.20903212016967e-07
1.10114427944146e-06
9.83677811727943e-07
8.55839460046214e-08
2.74791533238109e-07
3.37563634061928e-06
5.50031742482244e-06
2.6259638990013e-06
1.66874801617749e-07
4.98465671196794e-07
6.69758937229674e-06
1.23492559374106e-05
1.15350817556997e-05
4.83821069378818e-06
2.764226594385e-07
7.99133656177439e-07
1.0581858059122e-05
1.97598841931886e-05
2.1722817798424e-05
1.78824379608108e-05
7.4629235184587e-06
4.18887103586225e-07
1.18583760093255e-06
1.48264432092299e-05
2.74249306328447e-05
3.18987649881498e-05
3.0926885427541e-05
2.43426931510911e-05
1.04116295889865e-05
5.95272694312379e-07
1.66047616159807e-06
1.93916453473121e-05
3.52382501058062e-05
4.21201447854622e-05
4.33958909106445e-05
4.00246466854778e-05
3.08427318574257e-05
1.35901491826615e-05
8.02878042654608e-07
2.20104334066339e-06
2.42057427802423e-05
4.31657668386082e-05
5.23334231856471e-05
5.56271971313178e-05
5.45508654227291e-05
4.8975687436904e-05
3.73125433580508e-05
1.68966242606665e-05
1.0363819855846e-06
1.28996472703925e-06
2.02493495381308e-05
4.36787001294703e-05
5.77237526655038e-05
6.53940203950405e-05
6.84867452222919e-05
6.76469256776194e-05
6.2489421379057e-05
5.11722428179448e-05
2.91083547185898e-05
2.68444562828992e-06
1.5581575401167e-06
2.35780704353316e-05
4.98739209507002e-05
6.62082213614309e-05
7.58934637519804e-05
8.0839671531012e-05
8.19539692627805e-05
7.94136085878197e-05
7.25447827210822e-05
5.92279866634575e-05
3.39043848611386e-05
2.65749712087686e-06
1.83562509242621e-06
2.68280192679196e-05
5.58392980336878e-05
7.43686593469288e-05
8.59972478116424e-05
9.27034996862736e-05
9.55254308186349e-05
9.49427645426223e-05
9.0865251330077e-05
8.24629367992231e-05
6.74963642209775e-05
4.01049036802097e-05
2.24806258377815e-06
2.11691049377601e-06
2.9958487505778e-05
6.15238309445927e-05
8.21472536307115e-05
9.56461345842637e-05
0.000104045667235637
0.000108446407484045
0.000109487288178369
0.00010738790796589
0.00010191488562133
9.22459290066956e-05
7.67952272947892e-05
5.76380630103425e-05
3.00089831578301e-05
2.39629107752501e-06
3.29338190251844e-05
6.6881985463595e-05
8.9488986233237e-05
0.000104779324467898
0.000114811946536617
0.00012071578354186
0.000123209633481852
0.000122676894312616
0.000119176755152957
0.000112434742104144
0.000101830377742526
8.7000373656405e-05
7.15587790429812e-05
4.66467341624392e-05
2.66796803102445e-06
3.57213313343399e-05
7.18700203387576e-05
9.63405746194749e-05
0.000113336125864017
0.00012493992021998
0.000132291541648674
0.000136147356534078
0.000136975735937963
0.000134984971015111
0.000130150036179417
0.000122205794730177
0.000110686641741892
9.61895648786625e-05
8.05416358105802e-05
5.56086964462398e-05
2.92576320300363e-06
3.82793075347166e-05
7.64416671109109e-05
0.000102648726422588
0.000121256035821895
0.000134364270416408
0.000143113804101175
0.000148275737849265
0.000150360688542622
0.000149655880955451
0.000146261414132261
0.000140106142490012
0.000130915428237038
0.00011858651320192
0.000103954460100612
8.68832610940881e-05
6.13468707998622e-05
3.15979798925988e-06
4.05624314202315e-05
8.05483197751035e-05
0.00010835855764078
0.000128477646981215
0.000143017857783952
0.000153114315476547
0.000159539978029399
0.000162823492417642
0.000163293387937517
0.000161118460744221
0.000156337339535431
0.000148857864320576
0.000138468321663496
0.0001253934484421
0.000109947362294689
9.12198548660964e-05
6.50401528271506e-05
3.36071052388241e-06
4.25320555014386e-05
8.41354361334076e-05
0.000113408099886596
0.000134933433034884
0.000150827390374996
0.000162215603501696
0.000169865543153383
0.000174309656863055
0.00017589465679551
0.000174822673888306
0.000171176531588863
2.24125607072337e-10
4.72108929769529e-09
4.52495099338909e-09
3.07186220620764e-08
1.44742117321348e-07
2.64153922634119e-08
1.06067207243288e-07
9.68615099618716e-07
8.64315797199927e-07
7.50264631085963e-08
2.45253410882212e-07
3.04770474983934e-06
5.01055318652439e-06
2.35925225186337e-06
1.48598481378415e-07
4.51226569647015e-07
6.17332540404973e-06
1.15342922547954e-05
1.07483925481861e-05
4.4218602705199e-06
2.49574215352179e-07
7.32951964314064e-07
9.88794788936083e-06
1.86911233597735e-05
2.05835836529068e-05
1.68751589941068e-05
6.91655655223957e-06
3.82542929009975e-07
1.0992798143638e-06
1.3992292937711e-05
2.615429124737e-05
3.04943514993301e-05
2.95570453693221e-05
2.3177760367459e-05
9.76239328021802e-06
5.49504868115258e-07
1.54810559134419e-06
1.8433192418742e-05
3.3810710366696e-05
4.05171341698704e-05
4.17715122417375e-05
3.85029281827548e-05
2.95780341504338e-05
1.28689672634757e-05
7.48611520638968e-07
2.05446696934058e-06
2.31280239867246e-05
4.16205119437041e-05
5.05945696539431e-05
5.38318362313394e-05
5.28003354773463e-05
4.73741043220688e-05
3.60006299214401e-05
1.61350224977045e-05
9.75193259186551e-07
2.51077954273014e-06
2.79274143255598e-05
4.95497651094075e-05
6.0676111164236e-05
6.57588165193498e-05
6.6606444771219e-05
6.35998758384773e-05
5.61075448931583e-05
4.23677895108621e-05
1.94781135753762e-05
1.2240283166476e-06
1.490119664904e-06
2.28251084485131e-05
4.86079485850242e-05
6.46364267038661e-05
7.41291524646889e-05
7.89645016723624e-05
8.00337141202658e-05
7.750838548183e-05
7.07204791573505e-05
5.75805014242369e-05
3.26603392860994e-05
2.48500119385479e-06
1.76827729655725e-06
2.61193883246347e-05
5.46586116565295e-05
7.28949723405972e-05
8.4328940296475e-05
9.09120832662021e-05
9.36674853054096e-05
9.30665236754308e-05
8.90169814416919e-05
8.06949596179299e-05
6.58860728739549e-05
3.88238905647593e-05