/*--------------------------------*- C++ -*----------------------------------*\
  =========                 |
  \\      /  F ield         | OpenFOAM: The Open Source CFD Toolbox
   \\    /   O peration     | Website:  https://openfoam.org
    \\  /    A nd           | Version:  12
     \\/     M anipulation  |
\*---------------------------------------------------------------------------*/
/*   Windows 32 and 64 bit porting by blueCAPE: http://www.bluecape.com.pt   *\
|  Based on Windows porting (2.0.x v4) by Symscape: http://www.symscape.com   |
\*---------------------------------------------------------------------------*/
FoamFile
{
    format      ascii;
    class       volScalarField;
    location    "600";
    object      nut;
}
// * * * * * * * * * * * * * * * * * * * * * * * * * * * * * * * * * * * * * //

dimensions      [0 2 -1 0 0 0 0];

internalField   nonuniform List<scalar> 
10103
(
2.15027371912954e-10
2.16425587006356e-10
3.38946933812673e-09
4.76073540298075e-09
2.1686259770375e-10
3.41568245525108e-09
4.78634765712218e-09
1.67683290693666e-08
4.58996214433628e-07
2.79655187097211e-08
2.1671030269663e-10
3.42408664091547e-09
4.77977568774207e-09
1.69004269813213e-08
4.63080132573401e-07
2.81425077481523e-08
4.05658062325634e-08
2.82185174331147e-06
4.09881541445052e-06
8.41887629313374e-08
2.15024794064727e-10
3.41808661030286e-09
4.75573118732572e-09
1.69223996925079e-08
4.63516863194937e-07
2.80849156541317e-08
4.0792277235463e-08
2.848614933517e-06
4.13189222067105e-06
8.47626560616669e-08
7.07306902834876e-08
6.53448947121188e-06
3.00768322677538e-05
1.12697745786142e-05
1.69837587729728e-07
2.11728021490694e-10
3.38599900012417e-09
4.70243318102634e-09
1.68257029016958e-08
4.60599614546834e-07
2.7840011490137e-08
4.07542602464609e-08
2.85320107693445e-06
4.13071644958337e-06
8.45553302427412e-08
7.10170166047231e-08
6.57669903721778e-06
3.02669466096892e-05
1.13326165681945e-05
1.70889941168749e-07
1.06249890806722e-07
1.05801638001591e-05
6.01455440633502e-05
7.32512597296752e-05
1.94873443744561e-05
2.78616166183099e-07
2.07018747287001e-10
3.32939401249227e-09
4.61487246259636e-09
1.6599665966399e-08
4.54207013888773e-07
2.73968204053002e-08
4.04055012865263e-08
2.83136960322992e-06
4.08483552824001e-06
8.37299747315184e-08
7.0826332416774e-08
6.57062426408601e-06
3.02620767847984e-05
1.13179884881902e-05
1.70520501679264e-07
1.06597595391828e-07
1.06268431907666e-05
6.03895630312418e-05
7.34825879395386e-05
1.95562523813658e-05
2.80120944843523e-07
1.47332834335918e-07
1.46556572746674e-05
8.49801097072786e-05
0.00014727852406204
0.000111392980701058
2.76249893522127e-05
4.11257953368326e-07
2.00992652730153e-10
3.25094004560084e-09
4.49692742336755e-09
1.62564421421972e-08
4.44659166783129e-07
2.67592376409718e-08
3.97625688857719e-08
2.78840869241721e-06
4.00921061404517e-06
8.22973710946675e-08
7.00544245945434e-08
6.5138486282142e-06
3.00476091321448e-05
1.12032064623372e-05
1.68841872257058e-07
1.06157784675827e-07
1.05964065822352e-05
6.03211674143264e-05
7.3399640536086e-05
1.95209992935738e-05
2.79470413097476e-07
1.47716044054111e-07
1.46958809440329e-05
8.51896180432645e-05
0.000147626132100641
0.000111666276759681
2.77040155797915e-05
4.13008318238155e-07
1.9351345417879e-07
1.86977102776475e-05
0.000106030196913039
0.000207634010640885
0.00022842202665319
0.000143692548015571
3.55701485163888e-05
5.72073752156961e-07
1.93721566345679e-10
3.15211604913125e-09
4.35078861493137e-09
1.5807216817236e-08
4.32309550946671e-07
2.59506894148419e-08
3.88551199978455e-08
2.72742956294269e-06
3.9084209728868e-06
8.03129254450225e-08
6.88098389583435e-08
6.41549883534501e-06
2.96653117253772e-05
1.10165204280186e-05
1.66021235397754e-07
1.04865741925198e-07
1.04996822728969e-05
5.99784010618704e-05
7.29899010970307e-05
1.93615825530661e-05
2.76706454656046e-07
1.46964853186719e-07
1.46433165234142e-05
8.50299564346005e-05
0.000147460250451995
0.000111521657981335
2.76438751917755e-05
4.11854581309054e-07
1.93908511068861e-07
1.87287442827628e-05
0.000106184978196093
0.00020796206385204
0.000228841674598566
0.000144001264256792
3.56650748080335e-05
5.7406440666554e-07
2.43372482848636e-07
2.26554993474706e-05
0.000124492761693847
0.00025613488111573
0.000331437951116763
0.000296235278828892
0.000172085241743986
4.34768417907977e-05
7.59516149113746e-07
1.85295365602934e-10
3.03409916323209e-09
4.17851796087973e-09
1.5262442793274e-08
4.17365166867576e-07
2.49851994256483e-08
3.7706288411364e-08
2.64980060321604e-06
3.7858997950255e-06
7.7828944128081e-08
6.71329027971805e-08
6.28013478029426e-06
2.91478009868663e-05
1.07739222434039e-05
1.62122058404449e-07
1.0292032970429e-07
1.03444554157121e-05
5.93953195004111e-05
7.2299112791208e-05
1.90990941063189e-05
2.72110201742235e-07
1.45113712019979e-07
1.45093682554459e-05
8.45583451035965e-05
0.00014682467016646
0.000110982102128701
2.74515325211273e-05
4.07768990374671e-07
1.92816042657222e-07
1.86565721040479e-05
0.000105948201132552
0.000207671809754709
0.000228604326943533
0.00014382406320311
3.55835918435155e-05
5.72106559391203e-07
2.4378169408964e-07
2.26806955073779e-05
0.000124608317052247
0.000256399564573311
0.000331866617233196
0.000296716241609547
0.000172418484139533
4.35775905561772e-05
7.61588975346788e-07
2.95354074620826e-07
2.64607500709067e-05
0.000141000152681698
0.000296512300078061
0.000415806805904762
0.000439507852314833
0.000353639680775567
0.000198103079068338
5.12359787118292e-05
9.47159990926945e-07
1.75808742663366e-10
3.98263334666107e-09
2.89860175913488e-09
1.46273319556875e-08
4.00042377744935e-07
2.38763829553669e-08
3.63326881329048e-08
2.5566720194035e-06
3.64323024246797e-06
7.48841737339803e-08
6.50530676332466e-08
6.11019689269856e-06
2.85044419060485e-05
1.04790310494761e-05
1.57216834068105e-07
1.00352572704981e-07
1.01353657352097e-05
5.85899811786085e-05
7.13533692873687e-05
1.87496492829083e-05
2.65746305256451e-07
1.42346181929838e-07
1.43021383126431e-05
8.37984917231625e-05
0.000145756539676883
0.000110081783333188
2.7129887678901e-05
4.00933584240173e-07
1.9036159843108e-07
1.84895748834389e-05
0.000105365584215523
0.000206814499672189
0.000227738279373168
0.000143185660327945
3.53491609245849e-05
5.66244113503115e-07
2.42350371806986e-07
2.25920787387223e-05
0.00012431184960016
0.000255980571566527
0.000331472211476585
0.000296422994968906
0.000172207414848951
4.34738253371809e-05
7.58575217262185e-07
2.9580213892741e-07
2.6485390329508e-05
0.000141096231180818
0.00029672793310926
0.000416184434460234
0.000440023405417019
0.000354156038861959
0.00019844078996816
5.13362456390172e-05
9.49097919143006e-07
3.48394407888212e-07
3.00664589918612e-05
0.000155877482616336
0.000331147799604706
0.000485281040816473
0.00056166778397513
0.0005315594488157
0.000404261007548369
0.000222515448342332
5.8164329701889e-05
1.02297752936777e-06
1.65341036840675e-10
3.76562185589776e-09
2.74718206129088e-09
2.26403802331537e-08
3.80626951286744e-07
1.39087898661885e-08
3.47511930762089e-08
2.44937557372374e-06
3.48235094053179e-06
7.15205003040995e-08
6.25975890066906e-08
5.90756107322347e-06
2.77392879816356e-05
1.01334596393629e-05
1.513733020863e-07
9.71826872109665e-08
9.87478913392075e-06
5.75727294812605e-05
7.01672656696705e-05
1.8316072606805e-05
2.57710695207875e-07
1.38748986541702e-07
1.40259148953701e-05
8.27625794811021e-05
0.00014427891817189
0.000108845631697411
2.66907986527454e-05
3.91474423391891e-07
1.86704262210074e-07
1.82353963114227e-05
0.00010445501808275
0.000205419471901647
0.000226286522437819
0.000142119188566071
3.49615685377819e-05
5.56510258318836e-07
2.39232498174006e-07
2.23960655703296e-05
0.000123637966685321
0.000254919717034647
0.00033028359076956
0.000295364340733024
0.000171464891649394
4.31867671201749e-05
7.50531206355578e-07
2.94047728198098e-07
2.63833936297749e-05
0.000140754401701807
0.000296198806942286
0.000415607509551543
0.000439533218769701
0.000353795890013682
0.000198179076794522
5.12053529429045e-05
9.44909735032833e-07
3.4890518000554e-07
3.0092472194454e-05
0.000155967205628061
0.000331333369202529
0.000485604439716659
0.000562144342501142
0.000532128781806236
0.000404784569693145
0.000222843677886308
5.82593659544026e-05
1.02459927957062e-06
4.01900220091438e-07
3.34559571931553e-05
0.000169340134482718
0.0003614375769243
0.000543722305684791
0.000663789090349252
0.000688807663109952
0.000611723054956659
0.000450964578956538
0.000245747618657406
6.27074645766149e-05
6.35267297649347e-07
1.5398001596782e-10
3.52924910881694e-09
2.5807538120329e-09
2.12929472411564e-08
3.59376386455238e-07
1.3116043516398e-08
6.77857933018105e-08
3.30554316789274e-06
2.32945540267763e-06
3.29820864214255e-08
5.98022210415884e-08
5.67438240039895e-06
2.68560273621544e-05
9.74002249683296e-06
1.44677496876315e-07
9.34549412639831e-08
9.56490248140303e-06
5.63475734208437e-05
6.87459603847558e-05
1.77996412730008e-05
2.48107419260838e-07
1.34346047341345e-07
1.36826250690324e-05
8.14561432192713e-05
0.000142402786070515
0.000107281504968221
2.61368303892493e-05
3.79490300217132e-07
1.81965549404828e-07
1.78981486053231e-05
0.000103225231758164
0.000203502926126501
0.000224272196297232
0.000140643759352048
3.44239727731774e-05
5.43001650551317e-07
2.34669712834541e-07
2.20994615828118e-05
0.000122601400957855
0.000253241300500241
0.000328336230686284
0.000293591397437003
0.000170232091865403
4.27176978021017e-05
7.37130202427827e-07
2.9025265999658e-07
2.61616569620012e-05
0.000140005061829921
0.000294965962868966
0.000414111231361344
0.00043805378168828
0.000352554047763971
0.000197319788168626
5.08610727714025e-05
9.34439100685762e-07
3.46849905731249e-07
2.9979638345512e-05
0.000155590794863596
0.000330716907029735
0.000484860356765227
0.000561420842661844
0.000531532483855843
0.000404336602700835
0.000222514082097284
5.80977464001275e-05
1.01972097045539e-06
4.02497484186255e-07
3.34846385974599e-05
0.000169430339924218
0.000361608871630005
0.000544005054383865
0.000664208100490127
0.000689347642979571
0.000612309122002857
0.000451473535792913
0.000246059342557667
6.27959156230433e-05
6.36228399799398e-07
4.55495548084289e-07
3.66357594494185e-05
0.000181572200757462
0.000388273109760425
0.00059386674731176
0.000749706284471167
0.000823136756341916
0.000799928714191101
0.000684458180727739
0.000496789326459363
0.000270278516407675
6.6359244897896e-05
1.41847374116105e-10
3.27568910095078e-09
2.40007978858352e-09
1.98505019263455e-08
3.36385021676342e-07
1.22604535589957e-08
6.37296404944593e-08
3.11492687291249e-06
2.19818216521619e-06
3.10497043128994e-08
1.37226639691133e-07
9.30265392992916e-06
2.58586668553453e-05
5.41283244106245e-06
5.66930601625242e-08
8.9217974344958e-08
9.20814617067551e-06
5.49171702896542e-05
6.7091769814095e-05
1.72038110676709e-05
2.370737042255e-07
1.29180338631911e-07
1.32745965771259e-05
7.98814067503741e-05
0.00014013115288644
0.000105390906571676
2.5469253016221e-05
3.6509084816899e-07
1.76187337013391e-07
1.74801705199327e-05
0.000101679319756406
0.000201071323531559
0.000221704181095451
0.00013876376698691
3.37375985468278e-05
5.25769939102777e-07
2.28757225278694e-07
2.17049253652188e-05
0.000121209199452533
0.000250955573848187
0.000325646827125365
0.000291124232225958
0.000168518828321488
4.20668510164273e-05
7.18538676680282e-07
2.84773896290649e-07
2.58229272325087e-05
0.000138861637184515
0.000293049514395712
0.000411720900962304
0.000435621042817244
0.000350481450734793
0.000195904614349874
5.03039485223076e-05
9.17066251252962e-07
3.42394501775849e-07
2.97347957396868e-05
0.000154778106632057
0.000329341756582512
0.000483092339477061
0.000559527665553249
0.00052977667692607
0.000402900163665992
0.000221526647487281
5.76952168364719e-05
1.00783076552638e-06
4.00151803481375e-07
3.33632119194872e-05
0.00016902745245974
0.000360924901997617
0.000543121816031313
0.000663260756253216
0.000688470589831274
0.000611584464071873
0.00045091485626247
0.000245646594417916
6.26013380066925e-05
6.32780242847265e-07
4.5621993859917e-07
3.66681277562309e-05
0.000181667570951052
0.00038844170308599
0.000594125446227391
0.00075007474998236
0.000823617675932047
0.000800490609498747
0.000685029357859324
0.000497270051340541
0.00027057916111837
6.64536553629895e-05
7.98260001382408e-07
5.08918913521613e-07
3.96210741811944e-05
0.000192740813402785
0.000412285463825059
0.000637581662448139
0.000822939665699647
0.000937245044874192
0.000963780272641208
0.000899606390267602
0.000754387761384798
0.000547748571466594
0.000311983242675002
1.29089757601621e-10
3.00755478442365e-09
2.2072628852475e-09
1.83318240086717e-08
3.1178493847701e-07
1.13496914925715e-08
5.93989922121085e-08
2.91150791412646e-06
2.05673979309833e-06
2.89835473081036e-08
1.29128900815357e-07
8.82545937788596e-06
2.47516183224977e-05
5.12505028698599e-06
5.33043787843932e-08
2.24788901893504e-07
1.65327799098514e-05
6.52076470980148e-05
5.32835904190626e-05
8.80662414491875e-06
8.45170977326488e-08
1.23313646271676e-07
1.28041409936648e-05
7.80396569984333e-05
0.000137463858457945
0.000103175189516054
2.46909478465612e-05
3.48486851143525e-07
1.69434274930721e-07
1.69833634500124e-05
9.9818112380707e-05
0.000198124900363261
0.00021858309939141
0.00013647855984735
3.29039611162459e-05
5.05087187794702e-07
2.21544006827623e-07
2.12189500436428e-05
0.000119463906214031
0.000248065072228529
0.00032222077266839
0.000287968248296972
0.000166324970284983
4.12327453677178e-05
6.94753218245764e-07
2.7765281076325e-07
2.53741867504708e-05
0.000137329083466654
0.000290456573972557
0.000408446556592423
0.000432250441601837
0.000347593662700747
0.000193937596101138
4.95304811848338e-05
8.92838055166676e-07
3.35996848000903e-07
2.93576173752632e-05
0.000153539135280648
0.000327226060467093
0.000480320366737759
0.000556487705428671
0.000526893685670962
0.00040052296832002
0.000219914666926071
5.70492419148518e-05
9.88142128738221e-07
3.95066007686063e-07
3.30978380906636e-05
0.000168161514008753
0.000359432056556502
0.000541123770808022
0.000660990186474849
0.000686199475445265
0.000609544593856738
0.000449263627084649
0.000244514481357791
6.21440375276753e-05
6.24767673154604e-07
4.53620422038684e-07
3.65397917718849e-05
0.000181244891989135
0.000387706312337227
0.000593131288600862
0.000748933242880311
0.000822463282222522
0.000799438974158512
0.000684148655829349
0.000496572746629498
0.000270058972181169
6.62060647609839e-05
7.92781485900906e-07
5.09785638768997e-07
3.965793324883e-05
0.00019284472973039
0.000412460068354492
0.000637831437000777
0.000823273472638988
0.000937667572951377
0.000964281060637588
0.000900151386043726
0.000754919722346237
0.000548202350852491
0.000312307572416904
0.000198039936595248
6.07517819273109e-05
5.61880697229178e-07
4.24271624994406e-05
0.000202988678397171
0.000433948913933576
0.000676181168782117
0.000886213384443041
0.00103469306585036
0.00110456976996905
0.00108934832888882
0.000992641511252528
0.000827412612121285
0.000617438918941206
1.15810971806273e-10
2.728065939452e-09
2.00472499942728e-09
1.67520515330288e-08
2.85857148024587e-07
1.03919602544519e-08
5.48529457974211e-08
2.69649525491283e-06
1.90643364552111e-06
2.68004167572677e-08
1.20492256875826e-07
8.31066841415762e-06
2.354001818809e-05
4.81322688648824e-06
4.96832707494475e-08
2.11488736258835e-07
1.57921951310116e-05
6.30963687425915e-05
5.14482860188338e-05
8.36324645843715e-06
7.94092213849099e-08
3.3000495770215e-07
2.38071876106722e-05
0.000100636551035624
0.000134399283426989
7.59306108714244e-05
1.22737280686153e-05
1.16818224045105e-07
1.6177739204566e-07
1.64099250994296e-05
9.76412678738326e-05
0.000194660718263709
0.000214906423219871
0.000133788419285513
3.19275790064113e-05
4.81290470670375e-07
2.13102544463241e-07
2.06416884474139e-05
0.000117364965872498
0.000244567097163114
0.000318055440885659
0.000284120834926661
0.000163647951666808
4.02161454680769e-05
6.65943974540318e-07
2.68972630197916e-07
2.48233182952592e-05
0.000135413821673485
0.000287187347335382
0.000404288501102033
0.000427943932024259
0.000343890719135271
0.000191412173764098
4.85349566492365e-05
8.61568754091503e-07
3.2768144633158e-07
2.88640497654866e-05
0.000151882794309675
0.000324375381847136
0.000476549708077419
0.000552308208984927
0.000522894336704412
0.000397212971196465
0.000217674607395348
5.61508407009968e-05
9.60718866654678e-07
3.87756879754806e-07
3.26875143613442e-05
0.000166839354580516
0.000357147321008663
0.00053802912930158
0.000657412728540994
0.000682551518707867
0.000606215926998328
0.000446561459690244
0.000242686353577253
6.1417350139741e-05
6.11653269795366e-07
4.47927267867522e-07
3.62553424847676e-05
0.000180333988116755
0.000386116081024812
0.000590942019663823
0.000746335383324269
0.000819711235943676
0.000796786932048551
0.000681801154339307
0.000494676378386761
0.0002687469666447
6.56675044706811e-05
7.81214702926809e-07
5.0696003186428e-07
3.95243690639818e-05
0.000192407403407591
0.000411686340983907
0.000636751196573666
0.000821972340567319
0.000936265309229153
0.000962901490865685
0.000898895712152213
0.000753849371811994
0.00054732687980207
0.000311615623071141
0.000197426870476038
6.04865004953893e-05
5.6291564477292e-07
4.24688928062057e-05
0.000203103736866694
0.000434135992210002
0.000676434574870545
0.000886529922369792
0.00103507152144851
0.00110500565307329
0.00108982729650729
0.000993137158465405
0.000827898490353992
0.000617891417579811
0.00044513267894249
0.000338047551743189
0.000156713262634016
6.1407863397913e-07
4.50653028751238e-05
0.000212429797395812
0.000453626092645761
0.000710619349518384
0.000941565320161065
0.00111868753885213
0.001225486222539
0.00125396315105256
0.00120402591006331
0.00108385819730584
0.000911155623158856
1.02104735268782e-10
2.43966532084082e-09
1.79432251828882e-09
1.51277135147277e-08
2.5893305311574e-07
9.39682043023177e-09
5.01360535127793e-08
2.47195016863304e-06
1.74865165720455e-06
2.45081125488595e-08
1.11411805126719e-07
7.76257596050946e-06
2.2228067317461e-05
4.48004066086135e-06
4.58799502770468e-08
1.97373172748193e-07
1.49868974474316e-05
6.07586715494984e-05
4.9412589074657e-05
7.88115998716871e-06
7.39517358466169e-08
3.10149482490121e-07
2.28278331702419e-05
9.77780051822206e-05
0.000130934155751563
7.35535033517155e-05
1.16859822776421e-05
1.09770116784637e-07
4.54957659699528e-07
3.0817385322733e-05
0.000130696776658758
0.000210670322588376
0.000190673141587418
9.51473153723815e-05
1.57623606273381e-05
1.53299195264217e-07
2.03538849683996e-07
1.9974656877809e-05
0.000114910749247033
0.000240455665518559
0.000313143671747429
0.000279577131120083
0.00016048872712759
3.90234319289559e-05
6.32691254407664e-07
2.58820378721565e-07
2.4170680876896e-05
0.000133113042456474
0.000283236566627878
0.000399239556954928
0.00042269432368106
0.000339365479232996
0.000188321475497928
4.73154021816451e-05
8.23424993467053e-07
3.17534906573365e-07
2.82565188278253e-05
0.000149816952382758
0.00032078984391357
0.000471776347315817
0.000546984636842162
0.000517774143157098
0.000392961311376163
0.000214789734542244
5.49872316745493e-05
9.24572038455595e-07
3.78251152546399e-07
3.21548182765354e-05
0.000165079369735894
0.00035407764697126
0.000533840620787263
0.000652528927643379
0.000677527642191505
0.00060160026919681
0.000442803938998443
0.000240146107575175
6.04051281943023e-05
5.93942503211487e-07
4.39726334310279e-07
3.5816513782895e-05
0.000178941115351689
0.00038368805173989
0.000587575918108314
0.00074229522601705
0.000815370671058488
0.00079254336661725
0.000678005620027575
0.00049160885789401
0.000266655389583057
6.48282562231277e-05
7.62770636541936e-07
5.00694816363229e-07
3.92237300431486e-05
0.000191457822928191
0.000410015687258091
0.000634404238633061
0.000819098516465311
0.000933087790625633
0.000959669864757372
0.000895840967000451
0.000751154096328032
0.000545126256814956
0.000310008486523966
0.000196173047688992
5.99520092102039e-05
5.59887688615409e-07
4.23313783642161e-05
0.000202656182148512
0.000433334360158726
0.00067528912072342
0.000885101979328131
0.00103346036820592
0.00110332761296747
0.0010881948724562
0.000991641396423224
0.000826592490255489
0.000616765342423176
0.00044409514490232
0.000337141298608051
0.000156184895519632
6.1528656360901e-07
4.51124771456731e-05
0.000212557785067624
0.000453830522106995
0.000710886313147252
0.000941880485087804
0.00111904068493656
0.00122587048205455
0.00125437101726467
0.00120444732103733
0.00108429419527008
0.000911617092546979
0.000728730452559645
0.00057267115556135
0.000419970462845052
0.000203717366595357
6.65145890138522e-07
4.75430809542991e-05
0.000221151017706427
0.000471593624055612
0.000741602947150622
0.000990513861298635
0.00119183519098821
0.00132989330961624
0.00139626859214374
0.00138870152562159
0.00131162973739626
0.0011773986115223
8.81434119747857e-11
2.14455768176357e-09
1.57762976338138e-09
1.34731566660973e-08
2.31238099039403e-07
8.37469559002068e-09
4.52890994118915e-08
2.24024836418352e-06
1.58482526644748e-06
2.21378756856533e-08
1.01961991526001e-07
7.18423804805859e-06
2.0818047277332e-05
4.12827758259609e-06
4.19322526922836e-08
1.82569371696813e-07
1.41203035454375e-05
5.81928005315231e-05
4.7177171017306e-05
7.36385954470588e-06
6.82319684113572e-08
2.89435168834417e-07
2.17602393859984e-05
9.45994632754438e-05
0.000127062618098954
7.09077825976449e-05
1.10446715732937e-05
1.02250587229785e-07
4.26949786129792e-07
2.95864597437247e-05
0.000127210850259663
0.000205869236055432
0.000186154183644011
9.23342116160424e-05
1.50435862965766e-05
1.4409692368628e-07
5.96102812266605e-07
3.76694653070541e-05
0.000156855217203645
0.000274332607820289
0.000307475082708705
0.000235722039131029
0.000112098593713409
1.92199149234086e-05
1.92950519130696e-07
2.47313656698574e-07
2.34172193429104e-05
0.000130423409518781
0.000278595586406106
0.00039328739111386
0.000416489541486902
0.000334010733434796
0.000184667111416942
4.58798889087411e-05
7.79174856601836e-07
3.05669679109763e-07
2.75372450708581e-05
0.000147338873985941
0.000316461958667422
0.000465988727109659
0.000540503208346276
0.000511518827614249
0.000387752853141704
0.000211244787447364
5.35515767349483e-05
8.80816520372183e-07
3.66654371927382e-07
3.14981372004161e-05
0.000162883947729892
0.000350223093440476
0.000528551480187984
0.000646327931763238
0.000671115031590394
0.000595682134526854
0.000437967523909552
0.000236860430090144
5.90808291313794e-05
5.69129341761877e-07
4.29056871969299e-07
3.52479095847075e-05
0.000177090846586504
0.0003804328179297
0.000583035223710016
0.000736809231551767
0.000809433918066827
0.000786698521426369
0.000672749476862984
0.000487349089146854
0.000263750433710061
6.36664201141395e-05
7.37856221267633e-07
4.9161830446902e-07
3.87597697625172e-05
0.000190003884446153
0.000407466357639354
0.000630810038759629
0.000814666031340233
0.000928140826475506
0.000954585021869209
0.000890985568396331
0.000746842980820232
0.000541611386502484
0.000307489586082888
0.000194244257173845
5.91278722424495e-05
5.53065737348644e-07
4.20166388361345e-05
0.000201674512299064
0.000431597196262301
0.00067281274199947
0.00088199899942403
0.00102991889783432
0.00109957633783418
0.00108446735835439
0.000988144706784747
0.000823484779044341
0.000614144968920301
0.000441892962052884
0.00033529992159031
0.000155142290766265
6.12074400757971e-07
4.49718878048961e-05
0.000212103377784253
0.000453009567924616
0.000709692729358322
0.000940354488139746
0.00111726022413524
0.00122393679988029
0.001252393433573
0.00120252829806922
0.00108251290414677
0.000910002825962712
0.000727228756980296
0.000571321961606637
0.000418858266150043
0.000203048838142079
6.6654369635518e-07
4.75958689326848e-05
0.000221293165435849
0.000471818950175124
0.000741891061048542
0.000990840998102782
0.001192181671115
0.00133024602149035
0.00139661931832621
0.00138904614768547
0.00131198479778709
0.00117780040850822
0.00101092002225694
0.000839288057521498
0.000666726815921382
0.000465019264551618
0.000226371098693234
7.14569921083024e-07
4.98643656743418e-05
0.000229216719738482
0.000488061133181785
0.000769661467159544
0.00103419469237175
0.00125617191556958
0.00142075505622562
0.00151963039908736
0.00154938648418686
0.00151179853428891
0.00141480980972494
7.40053507178189e-11
1.84573253315729e-09
1.35733679674166e-09
1.18013446347672e-08
2.02963051981289e-07
7.33328968032612e-09
4.03522981669376e-08
2.0026758303511e-06
1.41642534505299e-06
1.97307321417847e-08
9.2224643705244e-08
6.58029040358121e-06
1.93116270470406e-05
3.76112699589311e-06
3.78701291528561e-08
1.67258515711252e-07
1.31920994740738e-05
5.53922936137853e-05
4.47406740410347e-05
6.81492433966362e-06
6.23252553051552e-08
2.68002905298747e-07
2.06042650780198e-05
9.1094799419294e-05
0.000122774716194485
6.79916535246148e-05
1.03543948307381e-05
9.4349358744857e-08
3.98229567956454e-07
2.82474833865875e-05
0.000123332917111816
0.000200492834941736
0.000181093264339388
8.91995599798744e-05
1.42566069960286e-05
1.34278744333645e-07
5.57923394947679e-07
3.61778282872691e-05
0.000152761305864523
0.000268382203661227
0.000301035812263008
0.000230354969727693
0.000108925026318734
1.83797225634129e-05
1.81459357395824e-07
7.30683853206322e-07
4.42530045578885e-05
0.00018046552250536
0.000327823018299269
0.000409314620336851
0.000386415477944894
0.000273252947319087
0.000127340589601526
2.2564175466875e-05
2.34567449954954e-07
2.92198262696148e-07
2.67070630935387e-05
0.000144443516610691
0.000311380590360623
0.000459169662486196
0.000532843624254104
0.00050410980732276
0.000381576156394661
0.000207039517713799
5.18502869368092e-05
8.28120209712892e-07
3.5308499290202e-07
3.07210440493113e-05
0.000160251302529955
0.000345575012849604
0.000522146540903899
0.000638789332638566
0.000663290093061338
0.00058843552019867
0.000432022478109197
0.000232799028283015
5.74361447815203e-05
5.40880252587769e-07
4.16026595473583e-07
3.45496750191363e-05
0.000174783346718858
0.000376348699798332
0.000577311501864324
0.000729861780848857
0.000801879813887823
0.000779226453082792
0.000665999313515629
0.000481849860056857
0.000259970237075018
6.21208044207009e-05
7.03192847020523e-07
4.79806955073993e-07
3.8159605380562e-05
0.000188074793364964
0.000404052030955721
0.000625971675510533
0.000808669399393839
0.000921411086799603
0.000947626978390071
0.00088430383365436
0.000740882537574936
0.000536736396529905
0.000303998427128969
0.00019156478120771
5.79875146661966e-05
5.4314099309434e-07
4.15299948466286e-05
0.000200167832656108
0.000428944575890808
0.000669026627870888
0.000877236121260151
0.00102445223074887
0.00109374602219329
0.00107863092115943
0.000982633545231696
0.000818573641569371
0.000610024042615918
0.000438483771270543
0.000332475276484871
0.00015354972107469
6.04724853917122e-07
4.46445182130372e-05
0.000211094188070681
0.00045121791223479
0.000707110423901737
0.000937062841686152
0.00111341364095703
0.00121973622826871
0.00124805911479164
0.00119827294887525
0.00107851583831497
0.000906388867323147
0.000724031784239148
0.000568561266476808
0.000416651665221672
0.000201761628651252
6.63154213606938e-07
4.74530887364869e-05
0.000220834568781055
0.000470985465093125
0.000740663258139251
0.000989241150221125
0.00119026799997095
0.00132810227660818
0.00139434393370042
0.00138674064329202
0.00130973917967732
0.0011756707501912
0.0010088968854527
0.000837429141046298
0.000665100637968827
0.000463743091634719
0.000225605382936697
7.16199085194197e-07
4.99226746184627e-05
0.000229373547490329
0.000488309934552985
0.000769976273942181
0.00103454437376109
0.00125652818399065
0.00142109735961052
0.00151994606371904
0.0015496711364028
0.0015120756915527
0.00141513034989112
0.00127435618006298
0.00110918870494515
0.00093004324911722
0.000727354448277253
0.00048950194394855
0.000237873852734232
7.61734988876788e-07
5.20284683059227e-05
0.000236673184399371
0.00050318668718588
0.000795194054526881
0.00107346234335054
0.0013132626008837
0.00150050016723619
0.00162719472252741
0.00168941126805884
0.00168720327374805
0.001625295267886
6.00904022880402e-11
1.5463603247193e-09
1.13526744622852e-09
1.01257348858392e-08
1.74415818232767e-07
6.28181553144777e-09
3.53812750773161e-08
1.76065993485201e-06
1.24470658086939e-06
1.72922874304185e-08
8.22764382436371e-08
5.95283615209711e-06
1.77100505923312e-05
3.38205045378413e-06
3.37183982474884e-08
1.51377691491152e-07
1.22045474479146e-05
5.23478437833573e-05
4.21006411410233e-05
6.23864145436554e-06
5.62691442889227e-08
2.45852061879338e-07
1.93483572117652e-05
8.72483815046296e-05
0.000118054573202129
6.48015320690228e-05
9.61890718566523e-06
8.61621026242641e-08
3.69309169969615e-07
2.68044380021888e-05
0.000119051164521409
0.000194522666379006
0.000175475095139219
8.57395564196135e-05
1.34059295309474e-05
1.23954239191248e-07
5.19999883037655e-07
3.45740989910196e-05
0.000148217562543083
0.000261714162297458
0.000293806546758474
0.000224339876334212
0.000105385832923514
1.74576974405033e-05
1.69194082608538e-07
6.80491448691872e-07
4.24774031151861e-05
0.000175747513353252
0.000320801072336837
0.000401150877612284
0.000378602769493346
0.000267194178608348
0.000123859102896708
2.16140646167038e-05
2.20718877863342e-07
7.71693149890314e-07
4.99212378369414e-05
0.000202202733914155
0.000374430089828064
0.00049552725358132
0.00052398041970551
0.000451297090321447
0.000305531625739489
0.000141125003677027
2.57667174157319e-05
2.77262883557552e-07
3.37667572369661e-07
2.98228504418061e-05
0.000157174230350725
0.000340120219633655
0.000514604368185037
0.000629885019965105
0.000654021902799362
0.000579831402047196
0.000424947012897349
0.000227949807452986
5.54532153376315e-05
5.02552474842051e-07
4.00763563909548e-07
3.37192345424941e-05
0.000172014361614883
0.000371426054216076
0.000570386890139431
0.000721426843106134
0.000792675599884614
0.00077008856437885
0.000657708932434087
0.000475054577850309
0.000255261471730524
6.02033867917275e-05
6.6274589041443e-07
4.65361808962552e-07
3.7422838794399e-05
0.000185668467219337
0.000399770023021685