/*--------------------------------*- C++ -*----------------------------------*\
  =========                 |
  \\      /  F ield         | OpenFOAM: The Open Source CFD Toolbox
   \\    /   O peration     | Website:  https://openfoam.org
    \\  /    A nd           | Version:  12
     \\/     M anipulation  |
\*---------------------------------------------------------------------------*/
/*   Windows 32 and 64 bit porting by blueCAPE: http://www.bluecape.com.pt   *\
|  Based on Windows porting (2.0.x v4) by Symscape: http://www.symscape.com   |
\*---------------------------------------------------------------------------*/
FoamFile
{
    format      ascii;
    class       surfaceScalarField;
    location    "600";
    object      phi;
}
// * * * * * * * * * * * * * * * * * * * * * * * * * * * * * * * * * * * * * //

dimensions      [0 3 -1 0 0 0 0];

internalField   nonuniform List<scalar> 
28828
(
6.22475281113987e-07
-6.7203349594563e-09
5.8592804578104e-09
6.23511966211425e-07
-3.56892457953728e-09
2.52283847782345e-09
5.92462814935327e-07
-1.61021190013376e-08
8.23937454949219e-09
6.42090852278228e-07
-8.96729257675141e-09
1.34851468317871e-08
6.25189518914112e-07
-5.38233051036322e-10
-1.12239695282101e-09
5.94297272929387e-07
-8.56379045576092e-09
3.16245589139056e-09
6.44125184224013e-07
-5.37779680348904e-09
5.88809263293257e-09
5.72930244413493e-07
-2.55778878164315e-08
7.96413834202371e-09
5.38922050416074e-07
-2.0716982025722e-08
1.72909660893774e-08
6.55396911939644e-07
-7.84595276509332e-09
1.9919257930002e-08
6.26498349226246e-07
3.1395161747108e-09
-4.44494359434636e-09
5.9625680278139e-07
-6.06135567061233e-10
-1.86513353435711e-09
6.46341872586862e-07
-1.26044882103087e-09
-2.07087678582095e-09
5.75124491522958e-07
-1.39656372354622e-08
3.20957293714625e-09
5.42302941183193e-07
-1.218340327937e-08
6.58513754705803e-09
6.58005601381512e-07
-4.2481651960988e-09
7.51864285848499e-09
5.90649753193131e-07
-3.34425295811533e-08
5.30620944448671e-09
2.30827282444385e-07
-2.61939384809746e-08
1.49931681981882e-08
1.67789456451387e-07
-1.08156493517437e-08
2.26617308664212e-08
6.79167947681395e-07
-5.46883188127901e-09
2.4052769170585e-08
6.26706603571924e-07
7.13204536197457e-09
-7.36141560580884e-09
5.97146235493951e-07
8.06246498497449e-09
-5.85046985660825e-09
6.47510884549572e-07
4.06344084751529e-09
-9.66735140239875e-09
5.77184309024059e-07
-1.2616606937887e-09
-1.40983506949148e-09
5.4452447301759e-07
-1.88699000541378e-09
-3.48253703211409e-09
6.6060977419908e-07
-4.09918712048092e-10
-4.25990173270469e-09
5.93464117804493e-07
-1.81854619311039e-08
1.42480328789983e-09
2.33220720943872e-07
-1.60090958227462e-08
4.68533388342258e-09
1.69912109468127e-07
-7.49837985124217e-09
7.67964159986144e-09
6.81998452584942e-07
-3.78850617850565e-09
8.48582251231364e-09
6.15821517200338e-07
-3.98197531542059e-08
3.19545173117582e-09
7.188990651222e-09
-2.66873579900086e-08
8.50389603051634e-09
-6.04486418590713e-07
-6.30436504875334e-09
1.55696078059263e-08
-1.99519482611248e-07
-1.25381074895372e-09
2.26158827407221e-08
6.83528865787452e-07
-2.08878672751101e-09
2.4841461090774e-08
6.25711391485986e-07
1.12141155869134e-08
-1.01995525094352e-08
5.97010665457694e-07
1.69332158882572e-08
-9.64694914124138e-09
6.47536285788306e-07
9.64126775132994e-09
-1.69978440812038e-08
5.77964514250415e-07
1.20498420746906e-08
-4.73778578020017e-09
5.45270359717329e-07
9.72839930122203e-09
-1.22861030835863e-08
6.61794866271447e-07
4.62720303234376e-09
-1.55104602775033e-08
5.95762187597749e-07
-2.02194906282019e-09
-1.56527344289819e-09
2.38187301644714e-07
-3.75664880458794e-09
-4.46170098576857e-09
1.74951777314293e-07
-2.8288338316699e-09
-6.08810353284421e-09
6.84667297269516e-07
-6.23211354368657e-10
-6.33451262211841e-09
6.1921157129734e-07
-2.16105785139844e-08
1.40260179747474e-11
8.02071968991009e-09
-1.63669862805988e-08
9.74073741027402e-10
-6.06161000722935e-07
-5.82584245284031e-09
4.70477456247002e-09
-1.9977737084094e-07
-2.95558273814725e-09
7.08932980908394e-09
6.85899075151364e-07
-2.10499728462463e-09
8.20180161970016e-09
6.34127109142505e-07
-4.49840551474312e-08
1.53896503596345e-09
-8.44786679462772e-08
-2.49408684017549e-08
3.91618686967591e-09
-7.99945407905232e-07
-1.31530203078245e-09
8.11006679904966e-09
-9.13405247181869e-07
6.08723529271003e-09
1.29261107308115e-08
-3.80543630255408e-07
5.88216220882802e-09
1.94405031536052e-08
6.51189181255041e-07
6.07090736068717e-10
2.33193792867411e-08
6.23617657307376e-07
1.51901217953265e-08
-1.31116349880558e-08
5.95845615653807e-07
2.58442726507379e-08
-1.34955454708527e-08
6.46427898620638e-07
1.51866694482545e-08
-2.42779972590557e-08
5.77722326430355e-07
2.55197107951189e-08
-8.33300398373738e-09
5.45069547175179e-07
2.13826964608544e-08
-2.12097659478836e-08
6.61791668100396e-07
1.00914712978201e-08
-2.70709105885939e-08
5.96610474181878e-07
1.50108950359109e-08
-3.80282709470272e-09
2.45332408250099e-07
9.8115559251691e-09
-1.19719547521367e-08
1.83075003883858e-07
3.03572978265805e-09
-1.88163185456105e-08
6.85883246100754e-07
3.89300798988502e-09
-2.06395602199212e-08
6.22151244110139e-07
-3.0720264772434e-09
-1.89042146790937e-09
1.23464428950595e-08
-4.58237251296486e-09
-5.05995041678752e-09
-6.04048693071471e-07
-4.22736757326033e-09
-5.19396438472533e-09
-1.96138447833575e-07
-3.04690702805988e-09
-7.3294827036962e-09
6.88237511380399e-07
-7.19033062225271e-10
-7.95089721106388e-09
6.37959081357839e-07
-2.46642059521049e-08
-8.06213536333844e-10
-8.40096349638318e-08
-1.53857476879499e-08
-1.43562022496256e-09
-8.02281780515254e-07
-3.13540307991694e-09
6.10543440576995e-10
-9.15980623552445e-07
1.26430804689498e-09
3.06507082716659e-09
-3.82214918314538e-07
1.19947080760884e-09
5.44989348689382e-09
6.5297225203267e-07
-6.5618121794668e-10
7.06855555345758e-09
6.4537526578363e-07
-4.93754018257817e-08
4.64986750217585e-10
-1.20852163043761e-07
-2.20206654414091e-08
9.21227705290506e-10
-8.12566297827939e-07
4.01719496646731e-09
2.74494475446615e-09
-1.03930825862477e-06
1.26870477905899e-08
5.98078941605124e-09
-9.84060606221902e-07
1.38035999454485e-08
9.95926953454689e-09
-4.6682314236782e-07
9.9373325346055e-09
1.56089733483697e-08
5.94144067445508e-07
2.44261726294432e-09
2.06443838025874e-08
6.20599271354528e-07
1.90521368256453e-08
-1.60336516997726e-08
5.93824140311951e-07
3.46754509751821e-08
-1.74791880747348e-08
6.44406701159097e-07
2.04872093360723e-08
-3.15786328776771e-08
5.76616291556791e-07
3.89864641398262e-08
-1.20195353963283e-08
5.44262858948085e-07
3.29541689182096e-08
-3.04905226689034e-08
6.60739760631632e-07
1.56913228954628e-08
-3.88881664639507e-08
5.96357021254497e-07
3.20431196541482e-08
-6.27456179672544e-09
2.54440057119347e-07
2.35391139793632e-08
-1.96521015227013e-08
1.93994086858569e-07
9.61050159464258e-09
-3.16428778304635e-08
6.85984736486053e-07
8.29029936262292e-09
-3.54272384087698e-08
6.23343276189139e-07
1.62801134592108e-08
-2.44385841493728e-09
1.98421153889399e-08
8.14110497050398e-09
-9.64476255351953e-09
-5.96929671386591e-07
-1.62772394859244e-09
-1.44190893720126e-08
-1.88013321928008e-07
-1.80687582756436e-09
-2.12518299572202e-08
6.89247607810045e-07
2.19109339933344e-09
-2.38715786183591e-08
6.41377827496519e-07
-4.43131628109827e-09
-2.06477676396963e-09
-8.01118512405468e-08
-4.97949294408527e-09
-5.37713755530555e-09
-8.01480679030183e-07
-4.23567468104696e-09
-5.85642875196152e-09
-9.15446841899271e-07
-2.74291542912328e-09
-6.033657490941e-09
-3.80311758099602e-07
-2.15636485132715e-09
-7.80128127296901e-09
6.54712377283336e-07
-6.83510855524737e-10
-8.97286996948114e-09
6.49568145041477e-07
-2.75796205644933e-08
-1.28155245570844e-09
-1.20463661478219e-07
-1.37371128797008e-08
-2.82362917377448e-09
-8.15028856884013e-07
1.63608508822739e-10
-2.27002003670641e-09
-1.0422882427261e-06
5.37979233960645e-09
-5.25862070627953e-10
-9.87385024228105e-07
6.09944906999587e-09
1.49077183302928e-09
-4.69521999250722e-07
3.76568788064179e-09
3.73712740480776e-09
5.95308029638981e-07
4.46134340461516e-10
5.49237160733688e-09
6.54488816747522e-07
-5.32719021449331e-08
-3.75241202698917e-10
-1.3246826680079e-07
-1.85525010248255e-08
-7.78730514920315e-10
-7.7352712576336e-07
9.4921548620967e-09
-5.82520005746953e-10
-1.01300274804333e-06
1.88908003767351e-08
1.03049195282351e-09
-1.07781846357144e-06
2.08097059215012e-08
3.91468795453537e-09
-9.72414175440245e-07
1.80244134246234e-08
7.21199511031166e-09
-5.07274541754669e-07
1.20870715948523e-08
1.18625060888768e-08
5.24119854674641e-07
3.52352127588751e-09
1.75291894700325e-08
6.16708532940293e-07
2.28052807552023e-08
-1.89164078931824e-08
5.91142388297657e-07
4.32701514557607e-08
-2.15558834763937e-08
6.41676044807781e-07
2.55372058567637e-08
-3.88261281350749e-08
5.74752540528265e-07
5.23686495501234e-08
-1.58399155001677e-08
5.43114653359924e-07
4.41392643977297e-08
-3.99808246223875e-08
6.58990164456717e-07
2.10334710357052e-08
-5.0849411390119e-08
5.95272383204617e-07
4.90028771343169e-08
-8.92696445883998e-09
2.65675142508679e-07
3.73842776007153e-08
-2.77070703151275e-08
2.07708588071722e-07
1.63657533930699e-08
-4.4914712965347e-08
6.85251243156463e-07
1.24018049037185e-08
-5.05861647174219e-08
6.23316375044443e-07
3.55326399746532e-08
-3.47343290896938e-09
3.00513865750553e-08
2.10793987697109e-08
-1.40223042523973e-08
-5.85181089025685e-07
1.40045504272556e-09
-2.3174178353459e-08
-1.75791446628708e-07
-3.70292675109484e-10
-3.51933366803386e-08
6.89237871511052e-07
4.82207222944237e-09
-4.02574449595427e-08
6.42837443995895e-07
1.63505196535023e-08
-1.51533266500663e-09
-7.27698946034516e-08
6.04718245406656e-09
-7.6868480603183e-09
-7.96587590037534e-07
-4.7596990675354e-09
-1.14198364990637e-08
-9.10888935702104e-07
-6.13415791372529e-09
-1.46528777874337e-08
-3.74294606433719e-07
-4.31674404432874e-09
-2.07267122936471e-08
6.55414890348387e-07
4.98006303482448e-10
-2.50710646230607e-08
6.53171467426649e-07
-6.12484947691638e-09
-1.91380040432612e-09
-1.17011455530554e-07
-5.15910037566508e-09
-5.35179785499147e-09
-8.14919813091846e-07
-3.41374200473861e-09
-6.29367779837267e-09
-1.04284084475693e-06
-1.64637603542163e-09
-6.39392993464849e-09
-9.88116430958413e-07
-1.02719872925842e-09
-6.44214139285939e-09
-4.69006693645187e-07
-1.37502002467061e-09
-7.61084349399223e-09
5.96447457475409e-07
-5.86355017437426e-10
-9.54913228033676e-09
6.58997168815197e-07
-3.04841432906017e-08
-1.60314589924468e-09
-1.32178619303431e-07
-1.18687064001228e-08
-3.43350585753995e-09
-7.76013061036851e-07
3.69818700552646e-09
-3.87169925348292e-09
-1.01618866374529e-06
9.43686272191718e-09
-3.14429091842779e-09
-1.08141629290721e-06
1.07061178204492e-08
-1.53989493994608e-09
-9.76313395151574e-07
8.90126245677917e-09
2.50363606638186e-10
-5.10660115130671e-07
5.32244855144071e-09
2.2417485724896e-09
5.24714188481426e-07
9.69579093864862e-10
3.91895687044002e-09
6.65796070934626e-07
-5.68924641770977e-08
-9.13041098709006e-10
-1.30552688659388e-07
-1.49632911355191e-08
-1.70734937842593e-09
-7.21877119322234e-07
1.50005188020472e-08
-2.40779734132197e-09
-9.47272445601294e-07
2.490435321026e-08
-2.03609028900972e-09
-1.04216810677753e-06
2.7176779394309e-08
-2.90066027113331e-10
-1.04648286444006e-06
2.5055878149138e-08
2.26234171255396e-09
-9.33851211123411e-07
2.00742241740423e-08
4.86709889105283e-09
-5.2447828358717e-07
1.29142239768329e-08
8.43919492045147e-09
4.51722909550744e-07
4.15369936802556e-09
1.44092900555973e-08
6.11943706717966e-07
-2.16934907871246e-08
2.64485875558663e-08
5.87911899845284e-07
5.16449233179421e-08
-2.56042520850749e-08
6.38348961126434e-07
3.03681597285773e-08
-4.59516600850304e-08
5.72455905890436e-07
6.56487851842082e-08
-2.00875254152323e-08
5.41915539614598e-07
5.47353567101793e-08
-4.95075804890594e-08
6.56727238415538e-07
2.62108757326314e-08
-6.27608474714503e-08
5.93543683120322e-07
6.58502531928603e-08
-1.1770593061846e-08
2.78167586166396e-07
5.14323190590321e-08
-3.56236414662762e-08
2.24518427751673e-07
2.27762997848497e-08
-5.84928208697526e-08
6.84140726635774e-07
1.62267841279907e-08
-6.59515942906083e-08
6.22405083719039e-07
5.45962444990051e-08
-4.69559477158038e-09
4.31530979007542e-08
3.41421980576087e-08
-1.87535830974734e-08
-5.69211383578187e-07
4.55605041492798e-09
-3.18682798502564e-08
-1.59766657340836e-07
8.41002232222825e-10
-4.93849467774677e-08
6.88689780414969e-07
7.02825834259111e-09
-5.70564345701474e-08
6.4303593612387e-07
3.72514217795262e-08
-1.9384540347949e-09
-6.27067387122614e-08
1.73058206048769e-08
-9.75036772895539e-09
-7.87671227443304e-07
-5.10104586722315e-09
-1.64250441970525e-08
-9.02232542086377e-07
-9.3338263470994e-09
-2.28549284076201e-08
-3.64481290521444e-07
-6.50418515584513e-09
-3.36700093110858e-08
6.5541919121071e-07
1.40784396530678e-09
-4.16452505797137e-08
6.55011735236447e-07
1.56996138151502e-08
-1.19631852170116e-09
-1.10100761117324e-07
3.92042832584383e-09
-6.3162688500518e-09
-8.11400227827875e-07
-6.72937500251713e-09
-9.24195044174436e-09
-1.04019216083708e-06
-8.52249019910095e-09
-1.16736666065654e-08
-9.85462252186747e-07
-7.71331305839873e-09
-1.38979229007984e-08
-4.64907634358632e-07
-5.63867998899397e-09
-1.86957068633142e-08
5.96867003085191e-07
-6.94270852022076e-10
-2.47948069488107e-08
6.62699200629877e-07
-8.10774430450196e-09
-1.70638787794655e-09
-1.29066655980029e-07
-5.18620062218364e-09
-5.01733077859213e-09
-7.7634810671943e-07
-2.15778088811783e-09
-6.26566639486093e-09
-1.01732654522341e-06
-1.0380877946328e-10
-6.70460300521129e-09
-1.08291063936207e-06
6.5212792107508e-10
-6.57977543291585e-09
-9.78018140741698e-07
1.21241544860099e-10
-6.24242863639541e-09
-5.11157367410843e-07
-8.3867607044634e-10
-6.85915101468909e-09
5.25424093674137e-07
-6.6981800611808e-10
-9.59010141587306e-09
6.70495677684292e-07
-3.33770237684772e-08
-1.79944844110295e-09
-1.30443430605387e-07
-9.94452097571181e-09
-3.64350252701443e-09
-7.24376099693676e-07
7.320917028709e-09
-4.55976740823108e-09
-9.5058512479199e-07
1.35032900430852e-08
-4.62076468079497e-09
-1.04592311664737e-06
1.50019566841506e-08
-3.68403485962213e-09
-1.05055913092345e-06
1.35967205552125e-08
-2.15618353636103e-09
-9.38119646683631e-07
1.03622108903822e-08
-5.15951862137551e-10
-5.28100514600643e-07
5.84500235271898e-09
9.98166309558083e-10
4.51876692087551e-07
1.23522338351157e-09
2.56074314193702e-09
6.81294984719804e-07
-6.04103289547421e-08
-1.23536531249703e-09
-1.19887005687013e-07
-1.14590955036274e-08
-2.15782772738233e-09
-6.68993767831337e-07
2.04126101383254e-08
-3.31453366889732e-09
-8.76701255270506e-07
3.07898123568092e-08
-3.7114650044877e-09
-9.72681724894104e-07
3.31762973873893e-08
-2.91500431940133e-09
-1.00951159737659e-06
3.13383469369825e-08
-1.10588706140766e-09
-9.9533508264492e-07
2.6971651593116e-08
1.03238279748879e-09
-8.89180869077413e-07
2.07424851607033e-08
2.81212537931473e-09
-5.2790112252411e-07
1.30912794842468e-08
5.35019576547487e-09
3.85307895604501e-07
4.47439486139807e-09
1.14411012030386e-08
6.06320880106309e-07
-2.4276867828171e-08
2.99086931269746e-08
6.34518539181282e-07
-5.27939812585296e-08
3.49480813754778e-08
5.84130408941063e-07
-2.96338131388099e-08
5.98305224239258e-08
5.69805821659854e-07
7.86537571423756e-08
-2.4355249128836e-08
5.40790964575136e-07
6.4939876842219e-08
-5.90537916246898e-08
6.54152681594935e-07
3.10699401399292e-08
-7.43899079315297e-08
5.91410456889721e-07
8.24744075985912e-08
-1.46989152963902e-08
2.90382022515888e-07
6.57740342009174e-08
-4.33256072178984e-08
2.44626586187179e-07
2.89681910305708e-08
-7.23722607143178e-08
6.82920245147272e-07
1.98710981251443e-08
-8.14252321639859e-08
6.20820728269103e-07
7.35420960455227e-08
-6.12240126771789e-09
5.92748671828255e-08
4.72683291045382e-08
-2.37138437995351e-08
-5.48968353064599e-07
7.60464372431108e-09
-4.06726998263172e-08
-1.39729093813117e-07
1.68927508401112e-09
-6.39768475874654e-08
6.88004753929514e-07
8.95463785694075e-09
-7.42256620050594e-08
6.42371214828714e-07
5.79397063873834e-08
-2.66034884363287e-09
-4.98432033017115e-08
2.86201214845891e-08
-1.20751820071611e-08
-7.74997059021673e-07
-5.51708970930724e-09
-2.13704802422534e-08
-8.89651695473314e-07
-1.26806669973664e-08
-3.09347049001827e-08
-3.50898096304264e-07
-9.11769968159686e-09
-4.68334856286009e-08
6.55125016123111e-07
1.99683518175491e-09
-5.87360354260109e-08
6.55423744140131e-07
3.7657211158796e-08
-8.28657344894788e-10
-1.00675165983212e-07
1.3021641963619e-08
-7.08759198326297e-09
-8.0448212193868e-07
-1.00846105186658e-08
-1.1679404064907e-08
-1.03409490147328e-06
-1.54385006518826e-08
-1.64173811080647e-08
-9.79303728904583e-07
-1.44901581545457e-08
-2.10224530794008e-08
-4.57397835096518e-07
-1.0015334961881e-08
-2.97533047692576e-08
5.96790244571026e-07
-1.05248858348075e-09
-4.05225282248032e-08
6.6474765188445e-07
1.45611300231659e-08
-9.03745865379156e-10
-1.22863356494499e-07
1.81526626682512e-09
-5.27774871781822e-09
-7.73747107542866e-07
-7.98527814601972e-09
-7.65350127535122e-09
-1.01575569237682e-06
-9.74942973350958e-09
-9.58103052063879e-09
-1.08170845689314e-06
-9.46056009685242e-09
-1.11262126947661e-08
-9.76849613374774e-07
-8.40161285713055e-09
-1.22955887764465e-08
-5.08483694205901e-07
-6.37478087224729e-09
-1.5678967637726e-08
5.25744441258375e-07
-1.65133798100258e-09
-2.34816222292969e-08
6.74358177130683e-07
-1.0338718413125e-08
-1.61970626172872e-09
-1.27672537819754e-07
-5.06473823632377e-09
-4.59065306153836e-09
-7.2499403714842e-07
-6.29368305862033e-10
-5.93089261792209e-09
-9.52092373920415e-07
1.77718189247025e-09
-6.63918420084762e-09
-1.04784751905932e-06
2.5565634862262e-09
-6.68464594126651e-09
-1.05281666612776e-06
2.00874490876483e-09
-6.21269076063725e-09
-9.40482159984543e-07
6.92629046320292e-10
-5.41407928994045e-09
-5.29208385923456e-07
-8.3884743095593e-10
-5.58993211262037e-09
4.52214567996611e-07
-9.37927215767034e-10
-8.98458068156298e-09
6.86150746027198e-07
-3.63237741549593e-08
-1.89079230245933e-09
-1.19957047531168e-07
-8.04453516806578e-09
-3.63051227525077e-09
-6.71532246939247e-07
1.09545084362794e-08
-4.73946602647352e-09
-8.80081299503773e-07
1.75876394609651e-08
-5.25865387803822e-09
-9.76533581240511e-07
1.91583149256643e-08
-4.92439529302598e-09
-1.01368713966871e-06
1.78962754444802e-08
-3.8097268383684e-09
-9.99730480816203e-07
1.4912722487535e-08
-2.31278254021756e-09
-8.93596136414423e-07
1.07415878017044e-08
-9.92499095676643e-10
-5.31520246097423e-07
5.82234990272465e-09
2.95997508563163e-11
3.8519055300211e-07
1.31474313250723e-09
1.35048500779898e-09
7.00523424531727e-07
-6.3972700263928e-08
-1.41024154738299e-09
-1.030906106143e-07
-8.18943177480789e-09
-2.32455019549196e-09
-6.17744237331538e-07
2.56563358914972e-08
-3.67276705107115e-09
-8.09754250553845e-07
3.65536373216321e-08
-4.51038638335658e-09
-9.00251014383502e-07
3.89694213477624e-08
-4.38052885583176e-09
-9.42730445169025e-07
3.71583594087365e-08
-3.25668629486256e-09
-9.59730687158448e-07
3.3121508493161e-08
-1.54557474039228e-09
-9.43088101806318e-07
2.7573940588887e-08
2.22258108588885e-11
-8.46953821221536e-07
2.07272811853614e-08
9.40477728166363e-10
-5.22750755425411e-07
1.30115666349389e-08
2.49166544266966e-09
3.26864334012932e-07
4.46716512920523e-09
8.71138806094159e-09
5.99725751652845e-07
-2.65242391386154e-08
3.31277093156308e-08
6.30356486149419e-07
-5.92028081428217e-08
3.91235549156001e-08
5.79905379453376e-07
-3.35865246902471e-08
6.76877363851392e-08
6.5142574258769e-07
-8.53336139104221e-08
3.52672089910446e-08
5.39868082722574e-07
-6.89113492491903e-08
7.50994529149895e-08
5.66686860461713e-07
-2.82632201343299e-08
9.11782269011334e-08
5.88910715624215e-07
9.8682882861245e-08
-1.75116873415979e-08
3.01997792448814e-07
7.9984576613672e-08
-5.10020702360671e-08
2.67953524910138e-07
3.50795842493041e-08
-8.64160627749253e-08
6.81846455159307e-07
2.33663762195454e-08
-9.66895613788029e-08
6.18713337753761e-07
9.22473285521529e-08
-7.67401282251978e-09
7.86860901213753e-08
6.04747031841407e-08
-2.87990026770606e-08
-5.24200973892461e-07
1.0539226156143e-08
-4.96378394156564e-08
-1.15420840373877e-07
2.22307208855662e-09
-7.90287194809963e-08
6.87592956526862e-07
1.07577647608615e-08
-9.17488897862625e-08
6.40964137139316e-07
7.82884336234648e-08
-3.31934768821641e-09
-3.3996897232268e-08
3.986733646777e-08
-1.45734187297571e-08
-7.58526389480952e-07
-6.20593188535926e-09
-2.63732424670809e-08
-8.73128750430746e-07
-1.64190015646212e-08
-3.9100518439856e-08
-3.33345757197246e-07
-1.2202205139806e-08
-6.0392641428279e-08
6.55005006148669e-07
2.31013550606783e-09
-7.64010637157864e-08
6.54837722329572e-07
5.95556726651156e-08
-1.0211384600808e-09
-8.87441970929911e-08
2.20793733774036e-08
-8.10898963575371e-09
-7.94297338446915e-07
-1.37146328444063e-08
-1.40460532182182e-08
-1.02454050160292e-06
-2.26410329720064e-08
-2.09647530964117e-08
-9.69677050108037e-07
-2.16414361940772e-08
-2.80327181874629e-08
-4.46417963059074e-07
-1.48419148028221e-08
-4.09827910390001e-08
5.96646859418674e-07
-1.6853587039013e-09
-5.69097658649798e-08
6.65363327814835e-07
3.71681133642019e-08
-1.3264900398173e-10
-1.1419532038003e-07
8.74748399836168e-09
-5.24119709682319e-09
-7.68239417534717e-07
-1.40736332638927e-08
-8.6174247515533e-09
-1.01122781748037e-06
-1.96775175684806e-08
-1.19645228431926e-08
-1.07752011664439e-06
-1.98523215491511e-08
-1.52450597057201e-08
-9.72674844144084e-07
-1.71677327002234e-08
-1.80415407870737e-08
-5.02763225643982e-07
-1.20787278598224e-08
-2.44562376926501e-08
5.25749764675973e-07
-2.76255482530561e-09
-3.77851539103683e-08
6.76449971248386e-07
1.29686813863645e-08
-4.91267674461695e-10
-1.22206365476914e-07
-1.11402287313697e-10
-4.45299595367701e-09
-7.2310708006543e-07
-8.73328298343469e-09
-6.421845926898e-09
-9.51237539256644e-07
-1.0240420203962e-08
-8.01665429680717e-09
-1.04747090130229e-06
-1.02060835665625e-08
-9.211051628302e-09
-1.05274541222929e-06
-9.74600518265745e-09
-9.85600432576731e-09
-9.40386531133916e-07
-8.88185232770659e-09
-9.89324990807071e-09
-5.27536540987528e-07
-7.10735271237722e-09
-1.1889020453322e-08
4.52601075969801e-07
-2.89939002305358e-09
-2.09540040631848e-08
6.90149776804801e-07
-1.27726097755706e-08
-1.55679791312641e-09
-1.17595380186657e-07
-4.84910561479899e-09
-4.18238616536022e-09
-6.72378346736434e-07
1.10184275357976e-09
-5.47009580634301e-09
-8.81843415020544e-07
3.9182687829418e-09
-6.30842705709298e-09
-9.78739275940378e-07
4.68563559091438e-09
-6.56189187414675e-09
-1.01622267636506e-06
4.06307957905859e-09
-6.20313134150315e-09
-1.00251281985817e-06
2.57701966641162e-09
-5.31455909367852e-09
-8.96351963950475e-07
6.21676570755175e-10
-4.12167606129889e-09
-5.32868272353131e-07
-1.25702196974544e-09
-3.9195549664087e-09
3.85343646828903e-07
-1.5324863960991e-09
-7.581895786096e-09
7.05522405653741e-07
-3.9394220080462e-08
-1.91836933041814e-09
-1.03316144244874e-07
-6.22970671755482e-09
-3.49863963469117e-09
-6.20333541888835e-07
1.45538041462483e-08
-4.65180264939696e-09
-8.13186474567252e-07
2.16908388756147e-08
-5.40680577912523e-09
-9.04148025509794e-07
2.32902003476755e-08
-5.49170717987865e-09
-9.46946595676e-07
2.19913461556624e-08
-4.80338381699458e-09
-9.64179518713925e-07
1.91244015835924e-08
-3.57221562832376e-09
-9.47660319716553e-07
1.52214160243863e-08
-2.22018082127403e-09
-8.51393901560291e-07
1.0506175288155e-08
-1.23259721070295e-09
-5.26255874760341e-07
5.44689960229885e-09
-6.04367288936572e-10
3.26471869557315e-07
1.09662110965108e-09
6.56860870578691e-10
7.22842439361281e-07
-6.7687982225433e-08
-1.51348714176215e-09
-8.21596570840488e-08
-5.18807243563599e-09
-2.29114767489952e-09
-5.68668103910702e-07
3.06873507401149e-08
-3.70707082815359e-09
-7.47268662999669e-07
4.21719565335134e-08
-4.77650899703482e-09
-8.31898442538881e-07
4.46173909402376e-08
-5.07975466703286e-09
-8.73405664616748e-07
4.27049268250263e-08
-4.50250666384626e-09
-8.97014637434602e-07
3.87576541452386e-08
-3.23873803785042e-09
-9.09804172331292e-07
3.36382805078016e-08
-1.79100771255101e-09
-8.96088422011403e-07
2.74790206060102e-08
-8.70162199010515e-10
-8.1676816054851e-07
2.04218885668579e-08
-7.48285557843207e-10
-5.17927306937759e-07
1.29325300506378e-08
-2.7686157044237e-10
2.09847074644721e-07
4.4517618786427e-09
5.91950563076628e-07
-2.83279037835812e-08
3.61128697846929e-08
6.25795618060501e-07
-6.48960227703594e-08
4.29068935127388e-08
5.75231717561911e-07
-3.72149605410457e-08
7.50113069806235e-08
6.48858445623179e-07
-9.50835375604805e-08
3.84405783245596e-08
5.39537411222664e-07
-7.9170499063213e-08
8.5033808171152e-08
5.6314648533663e-07
-3.18240111527236e-08
1.03040994586119e-07
6.81212189351371e-07
-1.11222566017527e-07
2.6588972309809e-08
2.9290551320933e-07
-1.00012660232543e-07
4.14286097868211e-08
3.14202546176178e-07
-5.89891000528243e-08
9.36651847782774e-08
5.85895080206815e-07
-2.01375498146458e-08
1.14335157226779e-07
6.1614489519487e-07
1.10546916152171e-07
-9.28196499008664e-09
1.01486292050054e-07
7.3651086775427e-08
-3.40095684652808e-08
-4.946817879887e-07
1.33333357213281e-08
-5.8779938833296e-08
-8.65149209409063e-08
2.5190992239971e-09
-9.44342026637223e-08
6.87834122715458e-07
1.24080749871756e-08
-1.09333428482139e-07
6.38935282206046e-07
9.82480610558656e-08
-3.97039358833271e-09
-1.50534600368021e-08
5.1039189648783e-08
-1.72035172664169e-08
-7.38080133335762e-07
-7.24558797228386e-09
-3.1466006787446e-08
-8.52463008186717e-07
-2.06195726329982e-08
-4.744756466065e-08
-3.1146128825849e-07
-1.57196161329828e-08
-7.44367107606909e-08
6.55569315548654e-07
2.44697882293071e-09
-9.47441136945314e-08
6.53461382433936e-07
8.09395838430111e-08
-1.31295102711742e-09
-7.40798747224139e-08
3.1030082205622e-08
-9.14409420097726e-09
-7.80817808542508e-07
-1.78257168279732e-08
-1.64425214311265e-08
-1.01149694440273e-06
-3.03738344068475e-08
-2.54627694417754e-08
-9.56549993364995e-07
-2.93783883939558e-08
-3.50659403277048e-08
-4.3172243184073e-07
-2.02401424743142e-08
-5.25197443442316e-08
5.96903682911872e-07
-2.53551027476004e-09
-7.41513023732771e-08
6.64843370125589e-07
5.98105457063735e-08
2.76991707544895e-10
-1.03272711530549e-07
1.54871256338006e-08
-5.3554123488958e-09
-7.5994042774397e-07
-2.06224287696612e-08
-9.50690240130168e-09
-1.00368998203564e-06
-3.00932005633307e-08
-1.41341310206412e-08
-1.07025932708032e-06
-3.07315258632716e-08
-1.91386294424485e-08
-9.65464293453328e-07
-2.64492200441857e-08
-2.36264140614114e-08
-4.93910195227386e-07
-1.82554395944134e-08
-3.32610204709261e-08
5.25864091697916e-07
-4.16214155858375e-09
-5.288106488953e-08
6.77106882198663e-07
3.60440986500863e-08
4.50589237514451e-10
-1.14397669282e-07
4.76482640754987e-09
-3.9343873979771e-09
-7.18677220682503e-07
-1.72294817771724e-08
-6.5106015802968e-09
-9.4782649495654e-07
-2.27305076719938e-08
-8.9768432541198e-09
-1.04452251395022e-06
-2.34406712768925e-08
-1.13276978345591e-08
-1.05009670354781e-06
-2.19319013817999e-08
-1.31342842484601e-08
-9.37696527081218e-07
-1.87780263988666e-08
-1.40413334297258e-08
-5.23065387871401e-07
-1.3596957276135e-08
-1.80785061424009e-08
4.5275177386723e-07
-4.59442158536518e-09
-3.33435985464997e-08
6.92234673107107e-07
1.10406316883873e-08
-1.6301417726835e-10
-1.12711536906946e-07
-1.72535505378818e-09
-3.75592870411403e-09
-6.71068783387054e-07
-9.05351799250659e-09
-5.43614530961035e-09
-8.81531407660368e-07
-1.01892302251381e-08
-6.78667139281073e-09
-9.78928717022264e-07
-1.02723047213383e-08
-7.76390210805412e-09
-1.01676067674228e-06
-1.01916505817077e-08
-8.22682525528807e-09
-1.00328221381462e-06
-1.00367174844565e-08
-7.93436510330442e-09
-8.96965636242505e-07
-9.52899620889159e-09
-6.85781325233022e-09
-5.31838829178594e-07
-8.12154065499305e-09
-7.70210765358252e-09
3.8588122078114e-07
-4.3408029108281e-09
-1.71586099183714e-08
7.096422366546e-07
-1.5394462190349e-08
-1.4959899178933e-09
-1.01366194667272e-07
-4.56801621604385e-09
-3.79319650649851e-09
-6.21406599373603e-07
2.98318720911688e-09
-4.98688515357877e-09
-8.1515411430293e-07
6.27046775597213e-09
-5.85773513752487e-09
-9.06558155297596e-07
7.04255666703308e-09
-6.2543337382529e-09
-9.49666718879487e-07
6.29242604289167e-09
-6.07009695121479e-09
-9.67148351351189e-07
4.66908111715593e-09
-5.3260467211357e-09
-9.50782393891196e-07
2.5099884899021e-09
-4.08018533360898e-09
-8.54304854792629e-07
8.23197938323362e-11
-2.54681392112548e-09
-5.27609610909262e-07
-2.09359563211697e-09
-1.99821284310064e-09
3.26811704010673e-07
-2.52828133335986e-09
-5.38972332045301e-09
7.28006816576875e-07
-4.2656504604791e-08
-1.88949130297031e-09
-8.24945166792892e-08
-4.5290721512168e-09
-3.28519352448935e-09
-5.71310138361977e-07
1.81079079380631e-08
-4.41104963109e-09
-7.50757353577189e-07
2.58016843579322e-08
-5.2748847107346e-09
-8.35829802407385e-07
2.74352398161587e-08
-5.61955330182298e-09
-8.77632983802513e-07
2.60167138895004e-08
-5.28866884868003e-09
-9.01454771770309e-07
2.31341685538489e-08
-4.36968443790085e-09
-9.14412109298438e-07
1.93971993462842e-08
-3.13985846367467e-09
-9.00731374144847e-07
1.49455262362977e-08
-2.01862209253874e-09
-8.21179921847612e-07
9.9264025586919e-09
-1.30046354647431e-09
-5.21368336705294e-07
4.83388000930383e-09
-8.90329554218109e-10
2.09060808300725e-07
8.9511045496533e-10
5.24717765026029e-10
7.47679449916054e-07
-7.16517792573955e-08
-1.50843423915965e-09
-5.84087356577348e-08
-2.53804162580005e-09
-2.16806296814205e-09
-5.21707495834766e-07
3.54864878434501e-08
-3.53869029286474e-09
-6.88710108068638e-07
4.76315671102406e-08
-4.71154533626639e-09
-7.67918557044727e-07
5.01331937104353e-08
-5.28819412693485e-09
-8.07596106614221e-07
4.8069509358093e-08
-5.11571555311067e-09
-8.31659110389021e-07
4.40667499807406e-08
-4.26864313086107e-09
-8.51001395681675e-07
3.91360815804641e-08
-3.02875566747707e-09
-8.64383606938396e-07
3.34535551730766e-08
-1.93606817486808e-09
-8.5944864128027e-07
2.7002923540506e-08