/*--------------------------------*- C++ -*----------------------------------*\
  =========                 |
  \\      /  F ield         | OpenFOAM: The Open Source CFD Toolbox
   \\    /   O peration     | Website:  https://openfoam.org
    \\  /    A nd           | Version:  12
     \\/     M anipulation  |
\*---------------------------------------------------------------------------*/
/*   Windows 32 and 64 bit porting by blueCAPE: http://www.bluecape.com.pt   *\
|  Based on Windows porting (2.0.x v4) by Symscape: http://www.symscape.com   |
\*---------------------------------------------------------------------------*/
FoamFile
{
    format      ascii;
    class       volVectorField;
    location    "600";
    object      U;
}
// * * * * * * * * * * * * * * * * * * * * * * * * * * * * * * * * * * * * * //

dimensions      [0 1 -1 0 0 0 0];

internalField   nonuniform List<vector> 
10103
(
(-5.13803347457759e-07 -9.22854545811827e-07 6.37018254229854e-05)
(-4.18268349270698e-07 -4.73865511317492e-07 6.40913197184311e-05)
(-7.94842808712036e-07 -3.30793901619025e-06 -1.96931588233238e-05)
(-3.869007720869e-06 -1.0521570019108e-06 -2.91540293836927e-05)
(-1.43116562059523e-07 -1.62114267830676e-07 6.28408455479779e-05)
(-6.43431144521278e-07 -1.87292881145666e-06 -1.92118516624779e-05)
(-2.54006089439217e-06 -4.88986328960535e-07 -2.86408001946798e-05)
(-1.17015768460479e-06 -6.46974284536205e-06 -4.98208951751416e-05)
(-6.22609443179018e-06 -3.49639630312454e-06 -0.000225093924793462)
(-7.36954500764058e-06 -3.77910119763165e-07 -7.34918334030954e-05)
(1.80818516882718e-07 1.39337549506429e-07 6.2259198057837e-05)
(-1.25266084776544e-07 -5.60360092206158e-07 -2.06154914870207e-05)
(-9.19090785788788e-07 -2.78554124339513e-07 -3.00774306888123e-05)
(-1.01043979623892e-06 -4.25152748512993e-06 -4.94828329839694e-05)
(-3.63767729439892e-06 -2.39780583267287e-06 -0.00022395140483005)
(-4.07537735542678e-06 4.65238855976072e-08 -7.29680128716955e-05)
(-1.56282606901281e-06 -9.62141049184483e-06 -5.21989199537345e-05)
(-6.49689604230121e-06 -5.96488890518303e-06 -0.000337893883219923)
(-9.53899729824473e-06 -4.30494816517312e-07 -0.000373185332148965)
(-9.44780155795348e-06 4.25592663790581e-07 -9.42085325505592e-05)
(3.92942851080673e-07 5.31579294479864e-07 6.27872533820298e-05)
(2.50019950231323e-07 9.92349843526999e-07 -2.16365275499374e-05)
(8.47379004697447e-07 1.71365982665716e-07 -3.10241777255235e-05)
(-3.5510120788707e-07 -1.42200117700176e-06 -5.07454101275341e-05)
(-7.88465887128845e-07 -1.13197577919227e-06 -0.000226411163814034)
(-9.0160499428808e-07 -6.15767924514332e-08 -7.43222532533402e-05)
(-1.22581324505094e-06 -6.40820138373752e-06 -5.19008275143449e-05)
(-4.09225290255434e-06 -4.7244145352345e-06 -0.000337791473081913)
(-4.71307667554674e-06 -6.62668125118266e-08 -0.000373074470598469)
(-4.61646041775476e-06 3.48300444657948e-07 -9.38205115964338e-05)
(-1.63054184504657e-06 -1.20089236500172e-05 -4.43132957957258e-05)
(-4.29678470287151e-06 -6.58129010364968e-06 -0.000370601969765609)
(-6.86805800285098e-06 2.89450425799049e-07 -0.000532264452712726)
(-9.76872604162195e-06 1.92446418639774e-06 -0.000438566072493304)
(-9.94107070496625e-06 1.01705310732976e-06 -0.000102649466539027)
(6.17690025446349e-07 9.76971658624086e-07 6.38874782681806e-05)
(4.82428920331701e-07 2.63619423705335e-06 -2.09161593279779e-05)
(2.44681037224224e-06 7.38738391836823e-07 -3.00977007717662e-05)
(2.29762562058759e-07 1.96757317740087e-06 -5.1745080539612e-05)
(1.67999787100586e-06 7.32434917003934e-07 -0.000227799253302458)
(2.11944412695423e-06 2.23164076650264e-07 -7.5273512969058e-05)
(-5.5638390336141e-07 -2.36653630108492e-06 -5.27088822279028e-05)
(-5.78147327844364e-07 -2.52801936249741e-06 -0.000340050639257627)
(-1.91286766384383e-07 -6.3720395462891e-07 -0.000375555815684032)
(-2.7317235271875e-07 -6.94437802334212e-08 -9.52513449139975e-05)
(-1.07677372796924e-06 -7.87743945081914e-06 -4.39912591962777e-05)
(-2.64342739465452e-06 -5.59137111396381e-06 -0.000371628260761843)
(-3.40778647186998e-06 -1.02415473482466e-06 -0.00053379250121445)
(-4.18401923631662e-06 9.27858682689532e-07 -0.00043974815505721)
(-4.48659753789047e-06 6.37524918168386e-07 -0.000102638419318031)
(-1.41513891513128e-06 -1.3443980742189e-05 -3.4825823197461e-05)
(-2.82768899290286e-06 -6.10037514936228e-06 -0.00036199651455621)
(-4.01185490032843e-06 1.53713573916872e-06 -0.000529140305268232)
(-5.61615935935275e-06 4.23650125045899e-06 -0.00055099732483545)
(-8.3321667781052e-06 3.95635398554646e-06 -0.000445382859639556)
(-9.33652894683631e-06 1.53538158845432e-06 -0.000110323623442492)
(8.38694271069146e-07 1.4277967923033e-06 6.52419880585167e-05)
(7.69786047126271e-07 4.35949421865526e-06 -1.9246882541415e-05)
(3.97399669575156e-06 1.33939787550015e-06 -2.81275812269893e-05)
(6.06973396502265e-07 5.33011547042431e-06 -5.10137439425458e-05)
(4.05094481688918e-06 2.77438463781937e-06 -0.000226228074274234)
(5.14470976662389e-06 6.44166620172861e-07 -7.40734173170219e-05)
(2.46200817042692e-07 2.30770533362818e-06 -5.35860241203623e-05)
(2.07646316119004e-06 5.62118968076886e-07 -0.000339844689885291)
(3.832547236484e-06 -7.32811407522887e-07 -0.000375240916045747)
(3.75209110007537e-06 -2.07388206576871e-08 -9.61881694955237e-05)
(-3.34634735752136e-07 -3.2092633620514e-06 -4.43165603553803e-05)
(-2.67388063357125e-07 -3.60773115087684e-06 -0.000373623589161424)
(1.84594944232731e-07 -2.0843170994587e-06 -0.000536201724539629)
(8.73517455470882e-07 -5.07833569597857e-07 -0.000442153902401161)
(4.70813595925781e-07 -7.13128658412302e-08 -0.000104212272735475)
(-9.67987625720476e-07 -8.75496854359e-06 -3.431720421747e-05)
(-1.69070217266138e-06 -5.43505230421315e-06 -0.000363291294682581)
(-1.75722826009464e-06 -7.15485178760097e-07 -0.000531177818099034)
(-2.03370516108807e-06 1.58811257927214e-06 -0.000553105942901651)
(-3.00500180697174e-06 2.1482370195292e-06 -0.000447219899607324)
(-3.96461814854225e-06 9.21152277958883e-07 -0.000110601537940144)
(-1.05893939490315e-06 -1.41653717409941e-05 -2.57764297168583e-05)
(-1.69165008002677e-06 -4.34733404176858e-06 -0.000342715317049878)
(-1.93133030840855e-06 3.55742539970774e-06 -0.000494238603547587)
(-2.67556228215136e-06 6.0915429338456e-06 -0.000529139078523541)
(-4.27816059758786e-06 6.49871381162845e-06 -0.000525367818661681)
(-6.78700425351977e-06 4.96513550744041e-06 -0.000435917008106006)
(-8.17949356233935e-06 1.93699801200369e-06 -0.000117983690671469)
(1.06423881276991e-06 1.86370382052742e-06 6.68283640132995e-05)
(1.06703983647938e-06 6.06664805029504e-06 -1.70114981675842e-05)
(5.52665019477162e-06 1.94688253005585e-06 -2.55125156733328e-05)
(9.80490103756527e-07 8.59333127796194e-06 -4.91906307436797e-05)
(6.38392221868856e-06 4.89468958593055e-06 -0.000222828021270019)
(8.14078810194779e-06 1.17242495594392e-06 -7.17651581843598e-05)
(8.54323660989022e-07 6.94737266096679e-06 -5.30067987367173e-05)
(4.52395126476603e-06 3.7183740248165e-06 -0.000336421181482241)
(7.75564338367304e-06 1.64296861327536e-08 -0.000371332171594395)
(7.88280018868052e-06 2.10743464934425e-07 -9.48948387701801e-05)
(3.02539305125762e-07 2.17113555292535e-06 -4.48892402591e-05)
(1.70518209855806e-06 -7.8965835079953e-07 -0.000373231570679818)
(3.56516436388316e-06 -2.58972694024042e-06 -0.000535719402571303)
(5.57347846790182e-06 -1.39042095512603e-06 -0.000441767561328666)
(5.08329753210198e-06 -3.00164053060575e-07 -0.000105169208653584)
(-1.00911697991945e-07 -3.90728472050917e-06 -3.42960559516274e-05)
(-3.77320790871047e-09 -4.03022816796229e-06 -0.000364935009515857)
(7.06563096851254e-07 -2.55533698317381e-06 -0.000533286198462587)
(1.3036586288595e-06 -1.09465047405531e-06 -0.000555253599429757)
(1.77483495093302e-06 -9.01873243637857e-08 -0.000449673190238815)
(1.06190537857578e-06 -2.00210203701847e-08 -0.000112327535261639)
(-8.00403568936031e-07 -9.29476385762757e-06 -2.50894196031479e-05)
(-9.84399588314921e-07 -4.34250104654174e-06 -0.000343951797205468)
(-5.41864052680892e-07 4.52345665449451e-07 -0.000496377916419309)
(-4.7798997652855e-07 2.47139450879118e-06 -0.000531481255815245)
(-9.76729742861795e-07 3.1952859805147e-06 -0.000527765988664496)
(-2.13030887327097e-06 2.6890526402927e-06 -0.000438103188697695)
(-3.23654489443435e-06 1.15445487228023e-06 -0.000118534870907083)
(-7.75186203518786e-07 -1.44818348898025e-05 -1.69531018310125e-05)
(-9.46664981064005e-07 -2.06962302911667e-06 -0.000321591058775322)
(-6.21848075923469e-07 6.08614241701798e-06 -0.000456907793313356)
(-7.24561090265677e-07 8.38713106537153e-06 -0.000489438486593817)
(-1.65155241737777e-06 8.63318023249295e-06 -0.000499638325003671)
(-3.16129541660567e-06 7.6453259714722e-06 -0.000494900316148554)
(-5.2557745104895e-06 5.49923688962135e-06 -0.000422974570972428)
(-6.7593336481614e-06 2.18409358760748e-06 -0.000126618095977849)
(1.29172857864697e-06 2.29230052875617e-06 6.86432708361844e-05)
(1.3612350808253e-06 7.73173351953212e-06 -1.42019192086146e-05)
(7.08398816681462e-06 2.54872025075624e-06 -2.22798048146273e-05)
(1.32034001798436e-06 1.17899828340457e-05 -4.66729774179082e-05)
(8.67792750048338e-06 6.94597576607393e-06 -0.000218083822819553)
(1.11728638090913e-05 1.88992047825437e-06 -6.86426859083956e-05)
(1.30962381299899e-06 1.14470788965223e-05 -5.12871353378059e-05)
(6.82684008416823e-06 6.81575801076557e-06 -0.000330650240162948)
(1.17163679503569e-05 1.17210579735054e-06 -0.000365044833122978)
(1.20602302369473e-05 5.5128412829428e-07 -9.24553429790194e-05)
(1.0928027208644e-06 7.48129388506754e-06 -4.43447760117704e-05)
(3.28496848354433e-06 2.0619366960809e-06 -0.0003701833538523)
(6.57093608852261e-06 -2.817525345407e-06 -0.000532258525867619)
(1.01287555054855e-05 -1.91391011913396e-06 -0.00043815929950376)
(9.77501338924921e-06 -3.30068646814395e-07 -0.000104061996784667)
(3.73459878704606e-07 1.59163018903252e-06 -3.46156722236485e-05)
(1.30646896655054e-06 -2.07304167438078e-06 -0.000364541092606704)
(2.83465139926223e-06 -4.00180902982644e-06 -0.000533119352153943)
(4.41212567599463e-06 -3.45075296138404e-06 -0.000555105138632291)
(6.23972894731336e-06 -1.77393746594018e-06 -0.000449741397576656)
(5.85370119555259e-06 -5.30843816044379e-07 -0.000113407615319694)
(-1.06286402108956e-07 -4.52785086202232e-06 -2.48052610268092e-05)
(1.89129525413812e-07 -3.94724312348714e-06 -0.000345340218453113)
(1.01487674546129e-06 -2.37310976867923e-06 -0.000498275359992902)
(1.61402992467493e-06 -1.0644249871002e-06 -0.000533401801888239)
(2.02217239411607e-06 -2.61445273919478e-07 -0.000529882060718163)
(2.12575387010041e-06 7.6871363040443e-08 -0.000440585507543352)
(1.48399128256085e-06 3.93046139626524e-08 -0.000120433054489694)
(-6.43710475888753e-07 -9.72648683394543e-06 -1.61007481987605e-05)
(-5.52024460173681e-07 -2.94476298772319e-06 -0.000322729855118603)
(2.07719501495241e-07 2.11454835226884e-06 -0.00045898918695353)
(5.88345652196964e-07 3.86646461426436e-06 -0.00049179882212261)
(3.5911128926074e-07 4.34540210076487e-06 -0.000502144294707902)
(-3.14114244605778e-07 4.01714277531626e-06 -0.000497396901615817)
(-1.4077739166901e-06 2.97686857501849e-06 -0.000425416959263551)
(-2.35372283046597e-06 1.27703561324747e-06 -0.000127385851522632)
(-5.97409130199397e-07 -1.45720925673936e-05 -7.7072489417307e-06)
(-5.11704808952018e-07 4.12532876194839e-07 -0.000300613167280579)
(1.06088975761711e-07 8.81218645506526e-06 -0.00042234358260687)
(4.54330387366815e-07 1.09241833575461e-05 -0.000450708000814793)
(8.2090877656902e-08 1.09845994984282e-05 -0.000461953634167942)
(-9.18972327315244e-07 9.93820458588611e-06 -0.00046853482256928)
(-2.2635310352516e-06 8.191501243294e-06 -0.000466910702813079)
(-3.86517121486679e-06 5.70415646883063e-06 -0.000410058407410718)
(-5.35364537801006e-06 2.28937213907909e-06 -0.000135320349595742)
(1.52311644070738e-06 2.72721950716745e-06 7.07191682370102e-05)
(1.65419482988017e-06 9.35495566195177e-06 -1.08168938759279e-05)
(8.66437741617792e-06 3.12637902822843e-06 -1.84230943061474e-05)
(1.64637793387507e-06 1.49229122942353e-05 -4.34543705990629e-05)
(1.09789241538415e-05 8.87572516203222e-06 -0.000212041197115559)
(1.42774961293144e-05 2.66678784177184e-06 -6.47252879475106e-05)
(1.72067262133457e-06 1.58149102861284e-05 -4.88058286350839e-05)
(8.85151752245153e-06 9.80712445120757e-06 -0.000322901272535733)
(1.57232204522865e-05 2.20078846685647e-06 -0.000356635713949715)
(1.63028068383873e-05 9.31842668143857e-07 -8.9142427788173e-05)
(1.52095851359029e-06 1.2632537191108e-05 -4.27887148348389e-05)
(4.69287402745843e-06 4.84213590501051e-06 -0.000364914272848022)
(9.38320494236464e-06 -2.97317778230072e-06 -0.000526549367915379)
(1.46651525242989e-05 -2.32356908112566e-06 -0.000432382349473338)
(1.45433924835804e-05 -2.57199239111919e-07 -0.000101822451138319)
(9.40328920488675e-07 7.08092514840752e-06 -3.40931045899995e-05)
(2.28348940354372e-06 -1.08604729104669e-07 -0.000361932835941309)
(4.59626365909876e-06 -5.34990085453043e-06 -0.000530676100851358)
(7.26637199131215e-06 -5.63328879574253e-06 -0.00055271600707968)
(1.0622020851138e-05 -3.26519580609968e-06 -0.000447194576140732)
(1.06641910289046e-05 -8.69085099452907e-07 -0.000112483291711085)
(4.59826502989273e-07 7.27283765152315e-07 -2.49492148220486e-05)
(1.072578962314e-06 -3.20048908811178e-06 -0.000345024109582125)
(2.25520728487409e-06 -4.97964612512738e-06 -0.000498384092171975)
(3.5147356778965e-06 -4.50896600747562e-06 -0.00053353268738627)
(4.7839821544932e-06 -3.54612229252997e-06 -0.000530178934528567)
(6.10878836268556e-06 -2.14489601119375e-06 -0.000441095017036856)
(5.98011356716292e-06 -6.87503252820881e-07 -0.000121582624337319)
(-2.11543333201645e-07 -5.16201355390682e-06 -1.56027163456835e-05)
(2.68636401285167e-07 -3.68512813597507e-06 -0.000323953492784376)
(1.1687786822573e-06 -1.77271184827964e-06 -0.000460769017938789)
(1.83828342115179e-06 -6.20517008360526e-07 -0.000493621975440796)
(2.20526491603314e-06 -9.33531793210576e-09 -0.000504060996571585)
(2.26284976949727e-06 1.98951386268794e-07 -0.000499551693214633)
(2.12965321148122e-06 1.20623419202189e-07 -0.000427923072721078)
(1.77792421852547e-06 5.86706519798333e-08 -0.000129309214782642)
(-5.60427891590135e-07 -1.00742676373027e-05 -6.6949388933028e-06)
(-3.16742438002477e-07 -1.44213967936546e-06 -0.000301709228536062)
(5.89196985061655e-07 3.9428174655725e-06 -0.000424347517524279)
(1.20878766883351e-06 5.56581717051083e-06 -0.0004530147086505)
(1.25622400047615e-06 5.81373268040047e-06 -0.000464429525700947)
(8.14925115736174e-07 5.32216784092388e-06 -0.000471066770731623)
(4.47394595870697e-08 4.42015288756399e-06 -0.000469470384562268)
(-8.48657836965732e-07 3.03682243771176e-06 -0.000412572962406732)
(-1.5439333802187e-06 1.39420440451661e-06 -0.000136217323413685)
(-4.73206681953978e-07 -1.45305062918571e-05 2.39093580637318e-06)
(-2.92426713857591e-07 2.90313331902017e-06 -0.000280165014822016)
(4.71213052569648e-07 1.15738470088168e-05 -0.000390995658332419)
(1.08678546044311e-06 1.35155228238905e-05 -0.000415627047452822)
(1.12316860764203e-06 1.34062855772971e-05 -0.000425739829827066)
(5.24158951060075e-07 1.23141262922596e-05 -0.000433419513068812)
(-4.63487934935968e-07 1.05195454973746e-05 -0.000440483834867057)
(-1.54345959699077e-06 8.30959980822259e-06 -0.000442215122647553)
(-2.68409968599624e-06 5.7152695793653e-06 -0.000397378754601772)
(-4.07341542003098e-06 2.25453496781128e-06 -0.000141965762111654)
(1.7589471460622e-06 3.151911090335e-06 7.30766780460911e-05)
(1.02551018610863e-05 3.68942019844366e-06 -1.3858325513485e-05)
(1.95845948896299e-06 1.09475353348631e-05 -6.77464268887437e-06)
(1.98966599781659e-06 1.79480467846893e-05 -3.95506022430723e-05)
(1.33324206054646e-05 1.07318208231312e-05 -0.000204692737176377)
(1.743837369728e-05 3.31696104762478e-06 -5.99974943738351e-05)
(2.11242838932409e-06 2.00319328214419e-05 -4.56104472519239e-05)
(1.08789035420279e-05 1.27384786236412e-05 -0.000313639098159736)
(1.98753107683797e-05 3.16332675636164e-06 -0.0003461370437368)
(2.0634016509317e-05 1.34517674277911e-06 -8.4933191638305e-05)
(1.86593754849273e-06 1.75914295502135e-05 -4.04901921862521e-05)
(6.03703910043409e-06 7.51081884292987e-06 -0.000357705180476857)
(1.21370968271327e-05 -3.21146302192313e-06 -0.000518738696731867)
(1.9300990676362e-05 -2.78837769730932e-06 -0.000424590014659732)
(1.94031512324809e-05 -1.53192319185996e-07 -9.86724600236823e-05)
(1.62537009748904e-06 1.23573067438496e-05 -3.27011614556108e-05)
(3.0997069397492e-06 1.73229278104419e-06 -0.000357381884882052)
(6.19499067581235e-06 -6.75363192548846e-06 -0.000526359785383626)
(9.99153286741882e-06 -7.81679192463322e-06 -0.000548491520783544)
(1.50038877166666e-05 -4.76547181264552e-06 -0.000442730846762841)
(1.55111199814877e-05 -1.08845349597526e-06 -0.000110441895524485)
(6.2030504661737e-07 6.08164879824559e-06 -2.44250965907383e-05)
(1.68663676372909e-06 -2.47989589389449e-06 -0.000342815966052695)
(3.19419536025463e-06 -7.62427780528006e-06 -0.000496656096645644)
(5.13980950118455e-06 -7.93776217088793e-06 -0.000531956796926894)
(7.36880146731991e-06 -6.7917400724679e-06 -0.000528649752608809)
(9.97218956584902e-06 -4.24528079357502e-06 -0.000439384417573369)
(1.04499478008851e-05 -1.27673110751947e-06 -0.000120828827732674)
(4.22705879650415e-07 -2.77888640235724e-07 -1.56738954005523e-05)
(8.97055962614071e-07 -4.19410742031211e-06 -0.000323734127496997)
(1.87875075953125e-06 -5.60486073641552e-06 -0.000461086231020426)
(2.86288679640168e-06 -5.13638649639147e-06 -0.000494005463733855)
(3.83775335021103e-06 -4.39227488781082e-06 -0.00050452483280044)
(4.6082482785538e-06 -3.57583568049634e-06 -0.00050023852079926)
(5.38607178044896e-06 -2.44270716466155e-06 -0.00042871638657752)
(5.66739326597946e-06 -8.44060400587655e-07 -0.000130448364479411)
(-2.52637239054302e-07 -5.84082550396942e-06 -6.08131850533589e-06)
(2.61877281464834e-07 -3.28679451858851e-06 -0.000302841051800541)
(1.18970939367415e-06 -9.86221687198864e-07 -0.000426055127863968)
(1.91044046980298e-06 1.26191809848182e-07 -0.000454798949791543)
(2.30254544010585e-06 5.52831647323368e-07 -0.000466272968376186)
(2.35297747945701e-06 5.61585487295145e-07 -0.000473035081725583)
(2.11544144365302e-06 3.84503603036998e-07 -0.000471657815801479)
(1.83253883437827e-06 3.14435472664289e-08 -0.00041503349170755)
(1.84713262164979e-06 1.47600675728794e-07 -0.000138079637123457)
(-5.27028506343965e-07 -1.0379390149227e-05 3.54349412825896e-06)
(-2.1905469827891e-07 7.58831400879862e-08 -0.00028122591406909)
(7.44868781163104e-07 5.82683756850177e-06 -0.000392948557231201)
(1.49517533827102e-06 7.36206233864929e-06 -0.000417869505358769)
(1.77193533874813e-06 7.44495237373067e-06 -0.000428144189473307)
(1.52838081723522e-06 6.82828644450766e-06 -0.000435913479505484)
(9.33702265597371e-07 5.7501633794895e-06 -0.000443015974556026)
(1.85358533603814e-07 4.44859328169587e-06 -0.000444793672897124)
(-4.78853156361234e-07 2.96826153007238e-06 -0.000399863703515199)
(-9.26781112303646e-07 1.44004548793474e-06 -0.000142901804841541)
(-4.28243919412844e-07 -1.44700407007093e-05 1.29963746459499e-05)
(-1.97729096277633e-07 5.32031219527858e-06 -0.00026026309797241)
(6.20053623033757e-07 1.42911158251276e-05 -0.000362425475478905)
(1.37350909581636e-06 1.61017336202065e-05 -0.000384031229363141)
(1.67561316776562e-06 1.58099232228775e-05 -0.000392787100820924)
(1.40502837341158e-06 1.4642566875842e-05 -0.000399875386734778)
(7.10022224551626e-07 1.28995344989139e-05 -0.000407528066060068)
(-1.61635432593177e-07 1.06648140970606e-05 -0.000415805293256187)
(-9.44922483427474e-07 8.21265810470607e-06 -0.000420302299132956)
(-1.67259826444426e-06 5.57086424987711e-06 -0.000383854912114701)
(-3.09736131483837e-06 1.89726822604767e-06 -0.000143790045785741)
(1.99957114878387e-06 3.5939789739418e-06 7.57820928441846e-05)
(1.18547286467871e-05 4.23375361199837e-06 -8.52799067748989e-06)
(2.2883095850766e-06 1.24904212194655e-05 -2.00203326844843e-06)
(2.06440876862706e-05 3.8719845317149e-06 -5.43825578495972e-05)
(1.57510962164777e-05 1.25279444746421e-05 -0.000195833712902127)
(2.30964744898412e-06 2.0856338671284e-05 -3.49180929524841e-05)
(2.49758803827553e-06 2.40866332374829e-05 -4.16677326444002e-05)
(1.29461772358495e-05 1.55147785614694e-05 -0.000303306716011098)
(2.41566571910698e-05 4.04330233431786e-06 -0.000333508730846657)
(2.50689586965732e-05 1.78987788551678e-06 -7.97966251014283e-05)
(2.26349136689721e-06 2.23617914446564e-05 -3.74777450462396e-05)
(7.36033284735152e-06 1.00587384017011e-05 -0.00034856956327753)
(1.49048018134815e-05 -3.5322195933886e-06 -0.000508834335755952)
(2.4120559601917e-05 -3.3109082594553e-06 -0.000414762224702982)
(2.44070717954415e-05 -1.34041180579748e-08 -9.46420277508834e-05)
(2.14891901355259e-06 1.741826260047e-05 -3.06014100683305e-05)
(3.83447583458155e-06 3.38811967536092e-06 -0.000351074878831484)
(7.70628207748121e-06 -8.33491745073461e-06 -0.000520260100479747)
(1.2707808886955e-05 -1.01155854427076e-05 -0.000542519611713565)
(1.94976568088297e-05 -6.32123873530735e-06 -0.000436495329038794)
(2.0448795134349e-05 -1.2941709330041e-06 -0.000107495166842735)
(1.12346188341483e-06 1.12618567491708e-05 -2.3172769345159e-05)
(2.19264414138026e-06 -1.93718660976174e-06 -0.000338904671748755)
(3.98036078722094e-06 -1.0422338501438e-05 -0.000493326993138569)
(6.61061446933102e-06 -1.14673455181418e-05 -0.000528848769496082)
(9.86584402926716e-06 -1.01049598940888e-05 -0.000525568704792029)
(1.38267258745131e-05 -6.36081973195928e-06 -0.000436003892865364)
(1.49198460147269e-05 -1.79298238033132e-06 -0.000118994348178932)
(5.23228246313728e-07 4.6502541054067e-06 -1.52321130839533e-05)
(1.25111470612931e-06 -4.76769522878946e-06 -0.000321878193289886)
(2.35126750101114e-06 -9.55752015240223e-06 -0.000459839235601445)
(3.65959733234942e-06 -9.77222474581212e-06 -0.000492961163298587)
(5.27413806807216e-06 -8.87574864465453e-06 -0.000503582505269455)
(6.79811416067708e-06 -7.39433445785049e-06 -0.000499380987906884)
(8.49985663037037e-06 -4.95934412114138e-06 -0.000427605324206084)
(9.48106061628344e-06 -1.64900533436105e-06 -0.000129784267348484)
(2.92696311365747e-07 -1.38108283342395e-06 -6.06929873289732e-06)
(7.14262655616872e-07 -5.0422219409795e-06 -0.000302727748970013)
(1.59931036596412e-06 -5.95507753131475e-06 -0.000426519338854895)
(2.42264169614647e-06 -5.42351056803306e-06 -0.000455366199573476)
(3.16837948584614e-06 -4.84646722346659e-06 -0.000466918809862852)
(3.71843216696628e-06 -4.29385757071576e-06 -0.000473816013964584)
(3.9622951564397e-06 -3.6834202813059e-06 -0.000472613818694671)
(4.23655871612678e-06 -2.77733961659235e-06 -0.000416004725502631)
(4.94813706992538e-06 -8.32712267635531e-07 -0.000139144762341883)
(-2.97272652298122e-07 -6.55287411138371e-06 4.24362615883655e-06)
(2.06887700736396e-07 -2.81979187627379e-06 -0.000282335872942421)
(1.13033244812098e-06 -6.99139292707386e-08 -0.000394615514014241)
(1.86728339544695e-06 1.04076123354322e-06 -0.000419629237463464)
(2.30889895586005e-06 1.33525876728679e-06 -0.000429956665529126)
(2.38258094524349e-06 1.17977175548792e-06 -0.000437807656291126)
(2.15686609326188e-06 7.80321161767348e-07 -0.000445022425744878)
(1.68696926663106e-06 3.01256211097251e-07 -0.000446985707840752)
(1.30983822291863e-06 -1.44640743025799e-07 -0.000402217605255776)
(1.58702276342896e-06 2.46198370580162e-07 -0.000144546991646278)
(-5.28441518037208e-07 -1.07206940549025e-05 1.4277967731692e-05)
(-2.10069722391134e-07 1.55888482765697e-06 -0.000261284069250551)
(7.66369365923736e-07 7.70795963280355e-06 -0.000364340153553092)
(1.57928765850721e-06 9.19922465143463e-06 -0.000386232471401235)
(2.00271720004347e-06 9.14329573349077e-06 -0.000395117950599143)
(1.94333068390805e-06 8.4103580455769e-06 -0.000402295046315413)
(1.51103983446608e-06 7.2682938421686e-06 -0.000410010157800621)
(8.57352778605421e-07 5.80612220359772e-06 -0.000418330699704955)
(2.04212464422803e-07 4.2747795346238e-06 -0.000422861068774908)
(-2.45672782417997e-07 2.76802722051425e-06 -0.000386239413705289)
(-7.85658979634195e-07 1.30420009195753e-06 -0.000144623442347895)
(-3.78071365025375e-07 -1.44687531673603e-05 2.39286437665804e-05)
(-1.93527267731401e-07 7.6193675430062e-06 -0.000240991317403829)
(6.30516538125886e-07 1.69297474011161e-05 -0.000336110847409457)
(1.44964069291673e-06 1.86470121865252e-05 -0.000355280840538402)
(1.91320471267508e-06 1.81873031709312e-05 -0.000362865387756914)
(1.8837514657695e-06 1.69008774156291e-05 -0.000369172908832469)
(1.44292553577628e-06 1.51647175009454e-05 -0.000376245818563305)
(7.64238355095684e-07 1.3043831084995e-05 -0.000384604964730024)
(6.65151251653519e-08 1.05732203099718e-05 -0.000393995473733234)
(-4.30789506146558e-07 7.98719462723579e-06 -0.000400557035938971)
(-7.90679912835924e-07 5.23171436262674e-06 -0.000367365746827159)
(-1.82554178414055e-06 1.1684068065429e-06 -0.000152224197290135)
(2.20606730775145e-06 4.01289761604833e-06 7.88377063309312e-05)
(1.34611505726833e-05 4.7948867521449e-06 -2.27493244350752e-06)
(2.62023231972429e-06 1.39421428440424e-05 3.58181827405412e-06)
(2.38339642442395e-05 4.40463286012937e-06 -4.77977629296642e-05)
(1.82878053947322e-05 1.42523337424244e-05 -0.000185346752556756)
(2.62148340747589e-06 2.36485142652769e-05 -2.94498946900661e-05)
(2.95752068054311e-05 2.26799953632621e-06 -7.36737095383311e-05)
(2.86120712758457e-05 4.88070959542928e-06 -0.000318615401247333)
(1.50619227035057e-05 1.81669053469375e-05 -0.000291474165929568)
(2.85412920612814e-06 2.79537168577888e-05 -3.69671469801128e-05)
(2.65903020104091e-06 2.69028790648655e-05 -3.37665172395356e-05)
(8.72252129167868e-06 1.24758888620097e-05 -0.000337450006577607)
(1.77466382648078e-05 -3.94046791002957e-06 -0.000496780354583657)
(2.9189463214882e-05 -3.90868088964915e-06 -0.000402825600185184)
(2.956169485681e-05 1.4366735545946e-07 -8.96744974625959e-05)
(2.62643470687893e-06 2.22323617666968e-05 -2.7820350079727e-05)
(4.57201641193002e-06 4.85337310093871e-06 -0.000343013576653944)
(9.20457124040978e-06 -1.01309818083128e-05 -0.000512371366500459)
(1.54833329224915e-05 -1.25821259028451e-05 -0.000534776375449743)
(2.41819028696389e-05 -7.94115908552381e-06 -0.000428475747528491)
(2.55601722356358e-05 -1.49813009480056e-06 -0.000103648842658573)
(1.65498288658021e-06 1.61428091605383e-05 -2.13234866535209e-05)
(2.61177451022432e-06 -1.6292594285777e-06 -0.00033343354611411)
(4.68107343384068e-06 -1.34777893377038e-05 -0.000488460087999123)
(8.0171320389915e-06 -1.52122805647609e-05 -0.000524245860307363)
(1.2354371358819e-05 -1.35857841742257e-05 -0.000521013323940503)
(1.774766540498e-05 -8.58635543357883e-06 -0.000431056852869757)
(1.94994841131426e-05 -2.26053540136839e-06 -0.000116267110927846)
(5.94881659855382e-07 9.51921981759179e-06 -1.40685659714011e-05)
(1.5585611171343e-06 -5.57971794910053e-06 -0.000318510185303681)
(2.69172019569852e-06 -1.375035636641e-05 -0.000457203976307014)
(4.31900078454195e-06 -1.46050125787741e-05 -0.000490598447705045)
(6.60008584177675e-06 -1.35235228161146e-05 -0.000501339961129058)
(8.90552398165242e-06 -1.13326984137616e-05 -0.000497186462248718)
(1.15666063516144e-05 -7.52573999041983e-06 -0.000425018722235121)
(1.33274632175717e-05 -2.37759132477512e-06 -0.000128074712482987)
(4.87821256391307e-07 3.06339699434636e-06 -5.79292424902206e-06)
(9.02093131933713e-07 -6.88433740236306e-06 -0.00030120027641515)
(1.80543565262605e-06 -1.11081103861659e-05 -0.000425632208144457)
(2.75472207475784e-06 -1.11680840133684e-05 -0.000454690434077508)
(3.86213428268765e-06 -1.04382590603846e-05 -0.000466376912846694)
(4.92424853203048e-06 -9.31664033344705e-06 -0.000473382271921944)
(5.64910196878083e-06 -7.84274726735247e-06 -0.000472249865126954)
(6.47391642476457e-06 -5.59887069648776e-06 -0.000415288447392636)
(7.95799878187528e-06 -1.76591457568532e-06 -0.000138490852972863)
(1.21174748469225e-07 -2.53063950965801e-06 4.33387178030124e-06)
(5.3766734654018e-07 -5.73139107408063e-06 -0.000282326301795576)
(1.36299643432888e-06 -6.08368885465915e-06 -0.000395198919236966)
(2.0823962120861e-06 -5.4486118525844e-06 -0.000420332592838391)
(2.69386681725841e-06 -4.97422691736773e-06 -0.000430746692305087)
(3.08796675226238e-06 -4.65082967390375e-06 -0.00043869730239496)
(3.20946478715904e-06 -4.33538913666021e-06 -0.000446029473027448)
(2.97125531660187e-06 -3.92882999091073e-06 -0.00044810683143518)
(2.7963635122511e-06 -3.16704317289921e-06 -0.000403257743003247)
(3.69281861737219e-06 -7.72765455169535e-07 -0.000145485743183868)
(-3.46117376953807e-07 -7.33581342567698e-06 1.50383014412165e-05)
(1.18770819893495e-07 -2.31865323750561e-06 -0.00026240628977772)
(1.02245418602513e-06 9.229072551329e-07 -0.000366000331988826)
(1.7580081856931e-06 2.07975980213432e-06 -0.000387977335843092)
(2.23038768533711e-06 2.26566010046333e-06 -0.000396908635699097)
(2.3566912052129e-06 1.97655720517403e-06 -0.000404148970761387)
(2.17587720892989e-06 1.43237076850695e-06 -0.00041193992817303)
(1.72338597519135e-06 7.2593910280813e-07 -0.0004203612610093)
(1.10663785602619e-06 3.64354439560361e-08 -0.000425018047212924)
(6.59459530155192e-07 -4.67004681423643e-07 -0.000388411844070756)
(6.39518223741231e-07 1.88657794902822e-07 -0.000145902326015521)
(-5.45543828444284e-07 -1.11066683398656e-05 2.53713584332573e-05)
(-2.54852558720501e-07 2.99480082677506e-06 -0.000241974539975234)
(7.0693595775727e-07 9.5688813815296e-06 -0.000337995202625641)
(1.54336547935928e-06 1.10555970865243e-05 -0.000357449750767025)
(2.04910639819115e-06 1.08758127789311e-05 -0.000365145962191097)
(2.13371365768005e-06 1.00213889616494e-05 -0.000371521508465826)
(1.8573721260843e-06 8.81431265438366e-06 -0.00037864871069225)
(1.335707379158e-06 7.340939659176e-06 -0.000387064878804087)