/*--------------------------------*- C++ -*----------------------------------*\
  =========                 |
  \\      /  F ield         | OpenFOAM: The Open Source CFD Toolbox
   \\    /   O peration     | Website:  https://openfoam.org
    \\  /    A nd           | Version:  12
     \\/     M anipulation  |
\*---------------------------------------------------------------------------*/
/*   Windows 32 and 64 bit porting by blueCAPE: http://www.bluecape.com.pt   *\
|  Based on Windows porting (2.0.x v4) by Symscape: http://www.symscape.com   |
\*---------------------------------------------------------------------------*/
FoamFile
{
    format      ascii;
    class       volScalarField;
    location    "500";
    object      nut;
}
// * * * * * * * * * * * * * * * * * * * * * * * * * * * * * * * * * * * * * //

dimensions      [0 2 -1 0 0 0 0];

internalField   nonuniform List<scalar> 
10103
(
7.17812840919706e-10
7.19321613541945e-10
1.12939840665614e-08
1.5865709262713e-08
7.23432678529328e-10
1.1347483596629e-08
1.58903053570258e-08
5.46237516728385e-08
1.48457691669318e-06
9.25970917816273e-08
7.23792791897344e-10
1.1384639543887e-08
1.59341619399329e-08
5.48545383785572e-08
1.49394572742119e-06
9.28964318442275e-08
1.25931480515515e-07
8.01992605037264e-06
1.12607257423623e-05
2.64424862848946e-07
7.18136168802541e-10
1.13469070696045e-08
1.58866112991313e-08
5.47900040378183e-08
1.4937653727482e-06
9.28971301669533e-08
1.26307031958107e-07
8.06503717618817e-06
1.13129157613022e-05
2.65407460836926e-07
2.13855041299634e-07
1.61648529493835e-05
5.92092723635072e-05
2.58520278446399e-05
5.14170869915964e-07
7.06979643450858e-10
1.12149425211479e-08
1.57054127863198e-08
5.43283729608262e-08
1.48162931997696e-06
9.21409407283788e-08
1.25885138085347e-07
8.0493883535835e-06
1.1267139832658e-05
2.64799992449757e-07
2.14353019791174e-07
1.6220186512595e-05
5.93831634855033e-05
2.59156470270516e-05
5.15902839421753e-07
3.16028825400921e-07
2.40151715166636e-05
0.000104706416940572
0.000123268895340581
4.03867605748332e-05
8.23599838347493e-07
6.9091015248793e-10
1.09998343440717e-08
1.54042626820613e-08
5.3450892050054e-08
1.45758006418131e-06
9.0620017396601e-08
1.24605335691863e-07
7.97677902951072e-06
1.11334891679287e-05
2.62113190666709e-07
2.13272950213579e-07
1.61704555178279e-05
5.92169840458259e-05
2.57882065852661e-05
5.14059924346904e-07
3.16515869280332e-07
2.40574662207275e-05
0.000104874412948002
0.000123436261316521
4.04213574669309e-05
8.2549003208972e-07
4.3284156695643e-07
3.14017854482961e-05
0.000140521982825113
0.000225370085833984
0.000177254015012761
5.39536383403345e-05
1.19388616792752e-06
6.70223708165572e-10
1.0711613405026e-08
1.49981269322183e-08
5.22139282073592e-08
1.42325415565335e-06
8.84355804241117e-08
1.22449841742358e-07
7.85273943236189e-06
1.09289712304664e-05
2.5749466459981e-07
2.10886645155337e-07
1.60315416358099e-05
5.8778791155777e-05
2.551330623041e-05
5.08491410788602e-07
3.14630857603358e-07
2.39719923937122e-05
0.000104634018267136
0.000123110140220106
4.02382393698307e-05
8.21870546360133e-07
4.33306435501224e-07
3.14330764420767e-05
0.000140641410730487
0.000225577424779905
0.000177399897270197
5.39786106434231e-05
1.19561784152112e-06
5.62678112815238e-07
3.84207845296026e-05
0.000170227789547551
0.000306918504428213
0.000334116165280523
0.000222498536764292
6.68524026217989e-05
1.6362326927453e-06
6.45083924047529e-10
1.03552656861565e-08
1.44952708716446e-08
5.06488406397014e-08
1.38008221906188e-06
8.56728923036675e-08
1.19500928902765e-07
7.68315012252323e-06
1.0662960608314e-05
2.51162458242731e-07
2.07097029382185e-07
1.58089859499962e-05
5.8103667590643e-05
2.51176922269408e-05
4.994544021542e-07
3.1086986365037e-07
2.37728823665027e-05
0.000104037918406539
0.00012235583257269
3.9868165498342e-05
8.12590915685653e-07
4.30562301688553e-07
3.13160089213925e-05
0.000140313280367967
0.000225139452211089
0.000176972549809624
5.37540436647938e-05
1.18962801498632e-06
5.63161579537857e-07
3.8447382389479e-05
0.000170317608170787
0.000307097918636168
0.000334335978318083
0.00022262882884839
6.68644376583335e-05
1.63745153294894e-06
7.01417441221372e-07
4.51011973563675e-05
0.000195973076601407
0.000371995937554873
0.000469451881919649
0.000424828597710265
0.000262095347200146
7.9464738904574e-05
2.14464591237036e-06
6.15696595004203e-10
9.93432106177279e-09
1.39016022397087e-08
4.87670607582114e-08
1.32884947052056e-06
8.23872651173256e-08
1.15813325701171e-07
7.47180667552593e-06
1.03417234885818e-05
2.43270195213833e-07
2.02020602808727e-07
1.55079173557768e-05
5.72095307191047e-05
2.4609741878986e-05
4.87247436964095e-07
3.05200503552327e-07
2.34665964675974e-05
0.000103108174203329
0.000121225639357384
3.93358822632206e-05
7.97989948102137e-07
4.25339679599009e-07
3.10642236528349e-05
0.000139570038388607
0.000224098908703354
0.00017601235379416
5.33048051745769e-05
1.17568945666665e-06
5.59543559926581e-07
3.83014131919164e-05
0.000169910960647581
0.000306518176203755
0.000333730393959885
0.000222117287529733
6.65968159126742e-05
1.62832714434323e-06
7.01979751350343e-07
4.51260691721429e-05
0.000196049081802059
0.000372145716953838
0.000469668277923612
0.000425041302183206
0.000262200527512995
7.94577431158899e-05
2.1450153682047e-06
8.44724109067363e-07
5.13936249988241e-05
0.000218828505648268
0.000425893054400298
0.000579863247245356
0.000610732310697482
0.000501683316257019
0.000298274875062009
9.16890891847272e-05
2.64622653979687e-06
5.82356055730921e-10
1.32237931868898e-08
9.45289828487123e-09
4.65938019056212e-08
1.27021191793737e-06
7.86266011521053e-08
1.11432697349023e-07
7.22061682644593e-06
9.96962691618686e-06
2.33953549806677e-07
1.95728717561405e-07
1.51321240862331e-05
5.61069738709629e-05
2.39956204084841e-05
4.72085212640395e-07
2.97692897543756e-07
2.30568048369502e-05
0.000101857904994123
0.000119737813907917
3.86469838303914e-05
7.78400967793102e-07
4.17469658609682e-07
3.06855111788419e-05
0.000138430137481353
0.000222492612489123
0.000174572077017857
5.26575223447894e-05
1.15416993439191e-06
5.52767299091466e-07
3.80010475847245e-05
0.000169039888404648
0.0003052129362308
0.000332326532819561
0.000220987469930971
6.60697931828252e-05
1.60850138274838e-06
6.97469971115347e-07
4.49556156763568e-05
0.000195578256082668
0.000371432802597926
0.000468854625419736
0.000424282352906273
0.000261598958558866
7.91461214972868e-05
2.13193099898033e-06
8.45444085688827e-07
5.14199475815799e-05
0.000218900026146113
0.000426026448951622
0.000580058378196129
0.000610956163502334
0.000501869126226704
0.000298345165730051
9.16635010334971e-05
2.64544376106027e-06
9.89686881253432e-07
5.72592368277673e-05
0.000239323658853131
0.00047193067618056
0.000670624044422166
0.000768353189002985
0.000731218332809497
0.00056947412131925
0.000332193119001307
0.00010255148878973
2.83666726587041e-06
5.45402483583078e-10
1.24700500943203e-08
8.91586022404719e-09
7.44407097458475e-08
1.20485268139838e-06
4.41641651431317e-08
1.06425141543346e-07
6.93191086574092e-06
9.55028144978457e-06
2.23337005835547e-07
1.88300858643679e-07
1.46841559617778e-05
5.48011324255438e-05
2.32790658698521e-05
4.5417544024495e-07
2.88421308718844e-07
2.25459875922524e-05
0.000100293887221854
0.000117901101745706
3.78055541766234e-05
7.54079170865022e-07
4.07173648598766e-07
3.01816862274828e-05
0.000136901120067887
0.000220338233828074
0.000172666619189062
5.18128550147922e-05
1.12537957098167e-06
5.42620403919916e-07
3.75632146897356e-05
0.000167721394775618
0.000303207371477328
0.000330165048042056
0.000219289119898159
6.530569241047e-05
1.57823346711803e-06
6.89052512822147e-07
4.46042856779391e-05
0.000194597566625854
0.000369894564180309
0.000467040063792724
0.000422567206908391
0.000260304378872178
7.85310925309997e-05
2.10491859454092e-06
8.40059140788528e-07
5.12280835968488e-05
0.000218377804144063
0.000425204550949085
0.000579047479579119
0.000609920931147198
0.000500956019436476
0.000297646157574531
9.13048559125906e-05
2.6280091293037e-06
9.90638647635419e-07
5.72889985295862e-05
0.000239398273131498
0.000472059988296387
0.000670804433366456
0.00076856273145512
0.000731420657594728
0.000569616597559678
0.000332224334648519
0.000102507661628063
2.83486009455041e-06
1.13470483130917e-06
6.27011448290527e-05
0.000257794119574869
0.000512055496948979
0.000746836593786709
0.000899897721786969
0.00093254060665097
0.000836289330553023
0.000632034743029163
0.000364589098993333
0.000109919446575128
1.73345914231115e-06
5.05231143935759e-10
1.16482961007268e-08
8.32872338130975e-09
6.98870250897687e-08
1.13348222483783e-06
4.15109704713787e-08
2.11559844288017e-07
9.08780125104754e-06
6.60871706481473e-06
1.00864194980065e-07
1.79833605695981e-07
1.41671803067612e-05
5.32950162676095e-05
2.2463506464954e-05
4.3375079673114e-07
2.77523679590676e-07
2.19365268707046e-05
9.84183229829935e-05
0.000115718710738814
3.68145488971174e-05
7.25321811537513e-07
3.94580674625551e-07
2.955477357797e-05
0.000134984659164399
0.000217642219903671
0.000170300768484715
5.07701508285286e-05
1.08957753690528e-06
5.29289822054022e-07
3.69768313069945e-05
0.00016595892326917
0.00030051284799104
0.000327263644403812
0.000217030880617654
6.4300758953263e-05
1.53772483310927e-06
6.76539437774333e-07
4.41071629754649e-05
0.000193131807461288
0.000367551481097228
0.00046425035055513
0.000419931188909822
0.000258355439283453
7.76419076806279e-05
2.06395798524077e-06
8.30007765298467e-07
5.08251788344325e-05
0.000217297763174733
0.000423471385679428
0.000576868519336231
0.000607648026209762
0.000498949849008479
0.000296176571735796
9.06071465174086e-05
2.59331821809227e-06
9.84395463895124e-07
5.70800205567053e-05
0.00023883484770583
0.000471152246306695
0.000669628448452703
0.000767263387494843
0.000730165515512163
0.000568541584003134
0.000331421858493608
0.000102102436558244
2.81479437684196e-06
1.13597121409733e-06
6.27359299913124e-05
0.000257877893688993
0.00051219124310464
0.000747014511450116
0.000900094671340297
0.000932731163835449
0.000836445224304789
0.000632122154680727
0.000364579977640426
0.0001098633097325
1.73237857318642e-06
1.27890394301886e-06
6.77511908295545e-05
0.000274517586808611
0.00054750301146054
0.000812107578615499
0.00101047321709898
0.00110403689955052
0.00107615155416008
0.000931675771718957
0.000693443027621396
0.000399172848947517
0.000116718258190501
4.62551974779729e-10
1.07673108134659e-08
7.69633793228694e-09
6.50161345813003e-08
1.05676360766687e-06
3.86638779691991e-08
1.98772878140073e-07
8.58703073098317e-06
6.25404026762023e-06
9.48140605204713e-08
4.11111248156932e-07
2.15557647789692e-05
5.15932054215079e-05
1.35848646060972e-05
1.70438685840663e-07
2.65128992424974e-07
2.12309073484174e-05
9.62331150860328e-05
0.000113191761849881
3.56782357340898e-05
6.92524176165911e-07
3.79780897700198e-07
2.88069196697408e-05
0.000132680889188049
0.000214405273085602
0.000167475652598008
4.95317710594025e-05
1.04713473124415e-06
5.12952351802788e-07
3.62476762688688e-05
0.000163753266771943
0.000297131470535058
0.00032362837128016
0.000214212325760163
6.30503589646636e-05
1.48714757919194e-06
6.6012866020421e-07
4.34527668825664e-05
0.000191173437367299
0.00036441000902669
0.000460497672600229
0.000416388973264136
0.000255754403821256
7.64681344539622e-05
2.00895090469125e-06
8.15105866364441e-07
5.02704653448602e-05
0.000215700372953517
0.000420848821472283
0.000573540594023443
0.000604157780817602
0.000495875778342205
0.000293969319818738
8.95914541435754e-05
2.54087719091292e-06
9.72741574539195e-07
5.66334083649993e-05
0.000237665275570404
0.000469255489770886
0.000667142580319911
0.000764486875359428
0.000727464790259691
0.00056624424606516
0.00032977142409536
0.000101322633235604
2.7759319733181e-06
1.12892362536907e-06
6.25138167764987e-05
0.000257283226414439
0.000511216754257215
0.000745706598618396
0.000898568478741269
0.000931145636986527
0.000834962564030228
0.000630873867253811
0.000363664947228874
0.000109410329528355
1.71931254470519e-06
1.28054352084103e-06
6.77921590912603e-05
0.000274614722834416
0.000547653716892345
0.000812295008054752
0.00101066864951545
0.00110421454667071
0.00107629201798491
0.000931764530453343
0.000693467038376993
0.000399130083779944
0.000116672822409205
2.21641481492975e-06
1.42158762856184e-06
7.24490922191307e-05
0.00028973838190165
0.000579140277950003
0.000868901675782308
0.00110464497607507
0.0012495543066298
0.00128414597423481
0.0012050215310582
0.00102328246165952
0.000761540640821038
0.000457485032399303
4.18160885843798e-10
9.84019459810585e-09
7.03048722428534e-09
5.98808734596244e-08
9.75345247186752e-07
3.56533735049581e-08
1.85119790614845e-07
8.05130129104194e-06
5.87055387966262e-06
8.83470892167484e-08
3.86562111393308e-07
2.05627478710861e-05
4.97011695742455e-05
1.2940557192814e-05
1.60225430675751e-07
6.56200352771021e-07
3.44047898266641e-05
0.000110324467783351
9.37400858567082e-05
2.04324199744961e-05
2.51366457305342e-07
3.62953124049962e-07
2.79403995460159e-05
0.0001299900461048
0.000210625923621185
0.000164191473674111
4.81023967579018e-05
9.98594874412008e-07
4.93827100857242e-07
3.53774102720424e-05
0.000161102939768741
0.000293059776409147
0.000319257071084224
0.00021083531819885
6.15531739306512e-05
1.4269849112141e-06
6.40023500129806e-07
4.26384838268401e-05
0.000188724573445021
0.000360469276869739
0.000455782548998627
0.000411939874869529
0.000252498144864865
7.49997607660846e-05
1.93988034907044e-06
7.95566521486737e-07
4.95482484405785e-05
0.000213578546308744
0.000417338465809846
0.000569069721552431
0.000599458268166367
0.000491741606356865
0.000291019521411234
8.82394512975463e-05
2.47003696271249e-06
9.55498526262318e-07
5.60268656187981e-05
0.000235949699491547
0.000466397702149644
0.000663364706482577
0.000760245999942471
0.000723328966877982
0.000562738521560034
0.000327294864614979
0.000100182085875152
2.7172607822405e-06
1.11573677263832e-06
6.20271766368481e-05
0.000256038833626931
0.000509182450610555
0.000742966204304167
0.00089536010386992
0.000927805445517949
0.000831842266544373
0.00062827359866285
0.000361818542775593
0.000108552166324382
1.69470841978072e-06
1.27274187030472e-06
6.75610408201798e-05
0.000273997124180718
0.000546628661435937
0.000810883856650679
0.00100895690511987
0.00110233880295014
0.00107441292867183
0.000930039074861428
0.000692026412431834
0.000398072616741288
0.000116135782011762
2.19794561468144e-06
1.42365931227674e-06
7.24969726438105e-05
0.00028985169129994
0.000579312267388861
0.000869108963323938
0.00110485177442555
0.00124972955271989
0.00128426912969468
0.00120508394304948
0.00102328656853049
0.000761504318404277
0.000457427593757762
0.000299926280429561
0.000107450157747891
1.56206055761177e-06
7.68293884194401e-05
0.000303662306520489
0.000607613323787114
0.000918953058363508
0.00118592782749607
0.00137375171670819
0.00146255759327057
0.00144493242505612
0.00132517038415614
0.00111846935939541
0.000853155503455955
3.7277623434732e-10
8.88223161016386e-09
6.34274848480536e-09
5.45473955335006e-08
8.90375432782804e-07
3.25187039484144e-08
1.70748879407619e-07
7.48384662806752e-06
5.46105231014305e-06
8.15400444890294e-08
3.6037384212802e-07
1.94892353836584e-05
4.76205328080396e-05
1.22380114541651e-05
1.49314767771092e-07
6.16909329975303e-07
3.30032212424868e-05
0.000107121121553162
9.09397328579307e-05
1.95446711713165e-05
2.36402285635403e-07
9.44991772925784e-07
4.64918448871267e-05
0.000160455761088006
0.000206301868843803
0.000126911097556921
2.69577070260294e-05
3.44280801937287e-07
4.7211608192332e-07
3.43682290895257e-05
0.000158004162644959
0.000288294292499548
0.000314142800426043
0.000206895590220639
5.98139361810209e-05
1.35828046237647e-06
6.16436225561703e-07
4.16613505958782e-05
0.000185782567662325
0.000355722917100311
0.000450093935239953
0.000406568372782042
0.000248572966224579
7.32354460059886e-05
1.85730308848024e-06
7.71624069148507e-07
4.8652536943752e-05
0.000210926751795054
0.00041293781936677
0.000563449748096279
0.000593540127896639
0.000486528183629095
0.000287307152444889
8.65352997734065e-05
2.38034005956189e-06
9.3287619116048e-07
5.52394635333371e-05
0.000233679903102536
0.000462580142071434
0.000658296498075551
0.000754540474966021
0.000717755765116211
0.000558017586261545
0.000323974745309004
9.86539928510129e-05
2.63788490359717e-06
1.09619625304964e-06
6.13769396753294e-05
0.000254219450256932
0.000506124311599128
0.000738813090890507
0.000890480011353277
0.00092271286589811
0.000827082218949599
0.00062432225020198
0.000359053464216783
0.00010729632339146
1.6573111480901e-06
1.258085115204e-06
6.70407082965327e-05
0.000272687317055022
0.000544480190256467
0.000807933026661441
0.00100538670555721
0.00109843970435224
0.00107052304430759
0.000926487718635806
0.000689093560529808
0.000395986672055143
0.000115143190618661
2.16397964436375e-06
1.41514629240973e-06
7.22596844566346e-05
0.000289217967201591
0.000578249717415343
0.000867618530127175
0.00110299222862774
0.00124761144760075
0.00128203648279161
0.00120289479743638
0.00102129336477456
0.000759830481891346
0.000456133293007683
0.000298877101631954
0.000106933945468067
1.56460229752931e-06
7.68846757828853e-05
0.000303793442438723
0.000607810998975289
0.000919188459941949
0.00118615809556248
0.00137393871165878
0.00146267495714462
0.00144496838769015
0.00132513006099513
0.00111838732074981
0.000853065652211322
0.000627673746925766
0.000483465624929096
0.000241097242324124
1.69955796246156e-06
8.09183067100398e-05
0.000316452397337343
0.000633413759139412
0.000963519459709599
0.0012569485496643
0.00148074469798728
0.00161567120261128
0.00165260730146185
0.00159164097783036
0.00144251689308602
0.00122631914270475
3.27005290057692e-10
7.90688296510732e-09
5.64158250975793e-09
4.90888524818305e-08
8.03076493343454e-07
2.9296687228857e-08
1.55830469155631e-07
6.88839947820136e-06
5.02928726977608e-06
7.44760658046037e-08
3.32837087958924e-07
1.83388106861296e-05
4.53507366789098e-05
1.14813404292424e-05
1.37837201170717e-07
5.75208346503219e-07
3.14797495461993e-05
0.000103580371248073
8.78304176144195e-05
1.85714677907559e-05
2.2041212072864e-07
8.87483543129087e-07
4.47150535784172e-05
0.000156273154390459
0.000201430962321176
0.000123441512228266
2.58619710100119e-05
3.2396569618023e-07
1.28269891481559e-06
5.7869620498543e-05
0.000202399873689221
0.000308276573062179
0.000282826684213635
0.0001544543726585
3.32222259143525e-05
4.48064485186652e-07
5.89626474736834e-07
4.05243151134711e-05
0.000182343515654392
0.00035015972492261
0.000443422328126395
0.000400270712936324
0.000243977136113878
7.11861557782469e-05
1.76275020849376e-06
7.43524614926898e-07
4.75804997429517e-05
0.000207737199449239
0.000407637395241059
0.000556668251575273
0.000586389927044541
0.000480224085341405
0.000282810047093447
8.44718755954456e-05
2.27226330481384e-06
9.05128399919501e-07
5.42642181264702e-05
0.000230846791471497
0.000457796544795937
0.000651929193154725
0.000747357221809514
0.000710726531339834
0.000552051808659601
0.000319765468439508
9.67109906853789e-05
2.53516398568899e-06
1.07053548459434e-06
6.05333081009433e-05
0.000251815602513004
0.00050204416295002
0.000733247573335684
0.000883922837901625
0.000915856433420807
0.000820664653116752
0.000618991026197429
0.000355326972933344
0.000105609769796002
1.60758864809243e-06
1.23630653099961e-06
6.635053670586e-05
0.000270772067412595
0.000541250839666635
0.000803465385535786
0.000999968759783534
0.00109251613508827
0.00106461061048833
0.000921092677779998
0.000684654124564005
0.000392873444789711
0.000113712337560588
2.11262938563366e-06
1.39908340134901e-06
7.17087320337054e-05
0.000287848730021441
0.000576005282409757
0.000864493888304035
0.0010991216437635
0.00124323755419131
0.00127746401828991
0.00119844809776061
0.00101727744166623
0.000756498696367921
0.000453648885440598
0.000296966749672969
0.000105999025272421
1.55542656580328e-06
7.66436736743926e-05
0.000303148903857133
0.000606721266610215
0.000917638270803985
0.00118418323438651
0.00137162436673974
0.00146014286186035
0.00144236322209593
0.00132260522319394
0.00111608420674387
0.000851074265171638
0.000625951788571715
0.00048198219827282
0.000240191474478017
1.70255947148451e-06
8.09812143279691e-05
0.00031660244244444
0.000633639857699794
0.000963789033921341
0.00125721253687268
0.00148095771192672
0.00161579932929209
0.00165263151657454
0.00159156087497481
0.00144237049610679
0.00122614870407541
0.000993075877884446
0.000789676763579135
0.000590152164854039
0.000305048229474518
1.83326757961108e-06
8.47341173468127e-05
0.000328233234482038
0.000656915922628264
0.00100353200603927
0.00131966451568523
0.00157385684995438
0.00174782428332665
0.00183196102329489
0.00182386838966788
0.00172895448119924
0.00156196774042585
2.8147318618979e-10
6.92634188683184e-09
4.93613894272911e-09
4.35728240730535e-08
7.1437225619732e-07
2.60240306799902e-08
1.40528838748717e-07
6.2690349331945e-06
4.5792091393826e-06
6.72229444205725e-08
3.04221966440204e-07
1.71145126621597e-05
4.28919980787416e-05
1.06752973227321e-05
1.25928999541969e-07
5.31575441763911e-07
2.98408228538669e-05
9.96951502692104e-05
8.44083202305603e-05
1.75170461619732e-05
2.03578913385707e-07
8.27080920733377e-07
4.27907566835353e-05
0.000151641142860815
0.000196004480382671
0.000119577226241276
2.46567185059829e-05
3.02245520379681e-07
1.20235431402899e-06
5.57445731614226e-05
0.000197359485467252
0.000301652335509787
0.000276645151852329
0.000150449331150642
3.19419108768543e-05
4.21896285471058e-07
1.65919383920447e-06
6.88769394919696e-05
0.000238728489038417
0.000393041245198946
0.000435754061933672
0.000343769263133099
0.000178401375765726
3.923175799836e-05
5.59869322896453e-07
7.11576081305157e-07
4.63315344787868e-05
0.000204005644500334
0.000401424224773942
0.000548707560379287
0.000577990727651798
0.000472818349351357
0.000277523119167299
8.2055711979478e-05
2.14792813194656e-06
8.72547505220182e-07
5.30997352291039e-05
0.000227441761029855
0.000452034691053499
0.000644245931028694
0.000738675435722973
0.000702219236472944
0.000544817636396356
0.000314635144333158
9.43336846556634e-05
2.41205547451501e-06
1.03903934785467e-06
5.9488862916209e-05
0.000248817098914341
0.000496933694088071
0.000726258491317137
0.000875671300205265
0.000907212614608296
0.000812558400417035
0.000612235383209539
0.00035056808020317
0.000103434429480462
1.53904662236159e-06
1.20768881242926e-06
6.54562090119785e-05
0.000268247497874414
0.000536943460456257
0.000797481527832739
0.000992695568321324
0.00108455056917261
0.00105664858461561
0.000913816405226212
0.000678654434713678
0.000388654920797122
0.000111795730804872
2.04414968768926e-06
1.37513628417055e-06
7.09828819203189e-05
0.000285852449196482
0.00057262755071705
0.000859761282583113
0.00109325244164902
0.0012366058509432
0.00127053535621097
0.00119171464525472
0.00101120250942344
0.000751477102958188
0.000449963940004471
0.000294155936862293
0.000104625244117411
1.5380268081471e-06
7.60644692708872e-05
0.000301728139807859
0.000604395304399272
0.000914369588624945
0.00118006419068259
0.00136685287126493
0.00145498403857892
0.00143711647951691
0.00131757372154713
0.00111154017177503
0.000847210241796404
0.00062272805818939
0.000479293284713828
0.000238573981275738
1.69282844362984e-06
8.07385723008975e-05
0.000315951422459843
0.000632531046710554
0.00096219464979478
0.00125514941001601
0.00147848824852182
0.00161302209829335
0.001649671784463
0.00158856047783908
0.00143947228802842
0.00122346848619373
0.000990651838067347
0.000787538886365845
0.000588378865267322
0.000303958702445403
1.8366377798454e-06
8.48045006785024e-05
0.000328402618023141
0.000657172045335899
0.00100383968155446
0.00131997009273565
0.00157410850282298
0.0017479804609613
0.00183199405167436
0.00182376881849869
0.00172875581362941
0.00156170753048903
0.00135152277665479
0.00113206386437643
0.000909486061408904
0.000649393993518508
0.00033624741093971
1.96225456715042e-06
8.8289434235098e-05
0.000339097971592345
0.000678404155886864
0.00103968880643588
0.00137554089800491
0.0016556783992243
0.00186278418085256
0.00198736954394264
0.00202569908049187
0.00198007929453317
0.00186007216768481
2.36264320686854e-10
5.95279752963996e-09
4.23509053083965e-09
3.80647068248533e-08
6.25270384394306e-07
2.27344156123025e-08
1.25003491073458e-07
5.6304603723924e-06
4.11439063483061e-06
5.98475402229945e-08
2.74768109248283e-07
1.58161247763246e-05
4.02424355754062e-05
9.82398229675856e-06
1.1372990223397e-07
4.86179196463855e-07
2.80856201102102e-05
9.54561780241564e-05
8.06681165120823e-05
1.63862258023624e-05
1.86100526494043e-07
7.64342772351853e-07
4.07409678241903e-05
0.000146551438086981
0.000190006828903957
0.000115311614063735
2.3345795898304e-05
2.79368047073786e-07
1.11943055299348e-06
5.3468845712038e-05
0.000191783179885003
0.000294259410547282
0.000269735257568497
0.000145982968978508
3.05304067584015e-05
3.93890312262482e-07
1.55066179987799e-06
6.63597900463086e-05
0.00023285168210725
0.000384874528179477
0.000427071609391933
0.000336536656609168
0.00017395007293613
3.77857642759257e-05
5.27495237683062e-07
2.01188114578839e-06
7.93375672009227e-05
0.000271480848534005
0.000464308455492363
0.000568322938940255
0.00053954661443213
0.000394283014017586
0.000199727441709415
4.49090865701969e-05
6.76089348484441e-07
8.35466695201715e-07
5.17461730953246e-05
0.000223457051522268
0.000445279524534
0.000635223114750555
0.000728467191301179
0.000692207765426305
0.000536297041221702
0.000308587235556379
9.15321391701292e-05
2.26535586072738e-06
1.00204690846677e-06
5.82419248612836e-05
0.000245216072467019
0.000490779208932518
0.000717825181918707
0.000865697297469968
0.000896747541528911
0.000802725363295587
0.000604011016258317
0.000344737564331162
0.000100750708503193
1.46146744264731e-06
1.17252844121703e-06
6.43495064051648e-05
0.000265101588666521
0.000531548965685674
0.00078996864301535
0.00098354617392245
0.00107451297073481
0.00104659708167477
0.000904606638625819
0.000671021663534206
0.000383238399569793
0.000109291150055924
1.94974649891869e-06
1.34364182811447e-06
7.00430914889821e-05
0.000283224061993093
0.000568122124717404
0.000853422034502309
0.0010853764079417
0.0012276958188414
0.00126121610745727
0.00118264718781619
0.00100300609339595
0.000744681369066375
0.000444971422099826
0.000290331867051104
0.000102764296614776
1.51199610971219e-06
7.53061948491543e-05
0.000299662492465689
0.000600889850889295
0.0009094120387114
0.00117381579075835
0.00135962330720189
0.0014471801710881
0.00142919303339144
0.00130998580516347
0.0011046982059663
0.000841418935068468
0.000617942705045055
0.000475320180609541
0.000236196981351827
1.67417764192429e-06
8.01335537897931e-05
0.000314485735764943
0.000630135905419147
0.000958806023291346
0.00125082492170712
0.00147338640592809
0.00160736856268689
0.00164373356637369
0.00158262154705233
0.00143380581857034
0.00121829978557781
0.000986083497479934
0.000783600229039083
0.000585197662584565
0.000302023539029598
1.82646772759084e-06
8.45623792062943e-05
0.000327748835923118
0.000656050535232302
0.0010022132647724
0.00131784055385473
0.00157151889786825
0.00174500782693191
0.0018287426659828
0.00182036338927838
0.00172532966504429
0.00155838451880473
0.00134839360360224
0.00112920929000169
0.000906986825765617
0.000647405946824964
0.000335031637494759
1.96595754223688e-06
8.83662178371414e-05
0.000339286440574774
0.000678690915286222
0.00104003657519542
0.00137589332186647
0.00165597867175799
0.00186298400813181
0.00198743277790011
0.0020256062756435
0.00197985601039565
0.00185974348533775
0.00168365944226742
0.00147489563854579
0.00124643862558933
0.000987277180206626
0.000681888945397274
0.000352205035943052
2.08452539033075e-06
9.15898153140413e-05
0.000349116137445449
0.000698094401456348
0.00107251774821465
0.00142568199470335
0.00172820024660489
0.00196362011499815
0.00212283361012966
0.0022014881043643
0.0021998751688332
0.00212377527774159
1.92524017534792e-10
4.99245079110594e-09
3.54376279115818e-09
3.2625964164366e-08
5.36851899130281e-07
1.9458921429514e-08
1.0943847151516e-07
4.97878359451602e-06
3.63855204488905e-06
5.24316408938197e-08
2.44785262876783e-07
1.44446940197908e-05
3.73975342115225e-05
8.93158627619534e-06
1.01345541085329e-07
4.39253842234995e-07
2.62056516663792e-05
9.08392689533916e-05
7.65991735011312e-05
1.51838766870458e-05
1.68167864855984e-07
6.99088035873956e-07
3.85514330079656e-05
0.000140984059324444
0.000183415690569329
0.00011063620254198
2.1933373593316e-05
2.55599406631227e-07
1.03481383885747e-06
5.10721934576827e-05
0.000185650476373232
0.000286074502040452
0.000262077190035081
0.000141046742809734
2.89910139166464e-05
3.64350049697178e-07
1.44160366107505e-06
6.37194860251914e-05
0.000226378916313581
0.000375758197272247
0.000417351047579043
0.000328442206519549
0.000168981710628732
3.61887207557925e-05
4.92851500497817e-07
1.87024661741881e-06
7.64037736355843e-05
0.000264739961815939
0.000454695633871703
0.000557363295693958
0.000529158734881707
0.000386194620726298
0.000194894132165158
4.33146836157066e-05
6.37443566940401e-07
2.1081206812737e-06
8.83597759188019e-05
0.00030167026227839
0.000526491447968577
0.000680666458889744
0.00071669983233825
0.00062483240186616
0.000437512401503294
0.000218886353908552
5.02037991284482e-05
7.94252810094725e-07
9.5990394412944e-07
5.67922291592392e-05
0.000241004143501939
0.000483562929212956
0.000707919278857035
0.000853963634989015
0.000884419758452513
0.00079112553233619
0.000594288199743781
0.000337820506844168
9.75287073128669e-05
1.35747282484171e-06
1.13119286803036e-06
6.30281727438076e-05
0.000261325305339934
0.000525052958990122
0.00078090317439887
0.0009724866592036
0.00106235926933653
0.001034402805433
0.000893399231206227
0.000661679713107848
0.000376548683193883
0.000106194247018708
1.84136982000994e-06
1.3049037359618e-06
6.88802850779347e-05
0.000279949373589466
0.000562479397697601
0.000845462337101493
0.00107546992666369
0.00121647186842318