/*--------------------------------*- C++ -*----------------------------------*\
  =========                 |
  \\      /  F ield         | OpenFOAM: The Open Source CFD Toolbox
   \\    /   O peration     | Website:  https://openfoam.org
    \\  /    A nd           | Version:  12
     \\/     M anipulation  |
\*---------------------------------------------------------------------------*/
/*   Windows 32 and 64 bit porting by blueCAPE: http://www.bluecape.com.pt   *\
|  Based on Windows porting (2.0.x v4) by Symscape: http://www.symscape.com   |
\*---------------------------------------------------------------------------*/
FoamFile
{
    format      ascii;
    class       volScalarField;
    location    "500";
    object      omega;
}
// * * * * * * * * * * * * * * * * * * * * * * * * * * * * * * * * * * * * * //

dimensions      [0 0 -1 0 0 0 0];

internalField   nonuniform List<scalar> 
10103
(
3.73734922155493
3.73735139990989
3.98683253486339
3.04791046762875
3.73734077550497
3.98685621615656
3.04790917893939
4.20371297736552
0.82854629314133
3.02834735616194
3.737337763125
3.98680068813873
3.04791210468647
4.20375907813518
0.827472987353806
3.02834794752523
4.33730861222848
0.714116078915778
0.562687482567802
2.99243724289199
3.73732114530662
3.98681679011599
3.04791498764207
4.203664915431
0.827831047122494
3.02835118919333
4.3373393973255
0.712917895050767
0.562437027023239
2.99244006801209
4.40627919263996
0.732202084996895
0.335166073568922
0.546426989589294
2.97494419100702
3.73728427170651
3.9867989189361
3.04790170369421
4.20369924186754
0.828845946469297
3.02835913660116
4.33728647904058
0.712475892427092
0.563233708919817
2.99244799032097
4.40629050079893
0.731398455526535
0.334795157393165
0.546465927722295
2.97495134666853
4.43507589818257
0.756021177119699
0.315504717821306
0.279951186144096
0.558852293258989
2.97384212483954
3.73722872139226
3.98676421136003
3.04792987876444
4.20369169356904
0.829966181672617
3.02836007758106
4.33729950117782
0.712156171768221
0.56436322846549
2.99246698653983
4.40628175629652
0.731001977177525
0.334587209994643
0.547124219668577
2.97496934782962
4.43508596841634
0.755713211413678
0.315261878386445
0.27976964477425
0.559056651611691
2.97385721902173
4.43971636349095
0.776731180764361
0.322745451217714
0.232243808719746
0.275197323186132
0.576360717786316
2.97198803640423
3.73714643361032
3.98670658375187
3.04794837432847
4.20367229261342
0.831091426688357
3.02840564255434
4.33730123297346
0.711718020508479
0.56542754949621
2.99250586118799
4.40627431959321
0.730413449165129
0.334255075985396
0.547762781562589
2.9750102350848
4.43508636903859
0.755358325354703
0.314876470945915
0.279519455808537
0.559381087665978
2.97389427764657
4.43972528214075
0.776608404016621
0.322611986736339
0.232084856270013
0.275027426282107
0.576426510088489
2.97201657546414
4.43310442460738
0.793856736622112
0.334150868032465
0.22358610867821
0.210886461772651
0.28148636259874
0.592938742463046
2.96211912703611
3.73702866342576
3.9866247707707
3.04797769752047
4.20363732171202
0.832164040426386
3.02845593145822
4.33729825297123
0.711135394990258
0.566364578275771
2.99257645964016
4.40627734069788
0.729576002570499
0.333696305205861
0.548149077442379
2.97509292121143
4.43507521138449
0.754694050704225
0.314252910883652
0.279087331727496
0.55951914221247
2.97397663997968
4.43973336842385
0.776259279916853
0.322217450918581
0.231723718824293
0.274698521222607
0.576481309830145
2.97208661131671
4.43310833819501
0.793802952953276
0.334065334287965
0.223469185451489
0.210731319475523
0.281294266429882
0.592912826175514
2.96216578014264
4.42456998660237
0.808349266734434
0.345556044420361
0.225183887734368
0.191386514146339
0.206695764174007
0.290133406308173
0.606925473820006
2.95324750513219
3.73686764118494
3.98651152396347
3.04801915079783
4.20358842097583
0.833177114148837
3.0285325872903
4.33728088860487
0.710417237133475
0.567161694857515
2.99269304030253
4.40628011236471
0.72850640269957
0.332887326339676
0.548290267341053
2.97524339474053
4.43507851029866
0.753707740189838
0.313361775591787
0.278397598494441
0.559340746864216
2.97414178543704
4.43971614115761
0.775536067812466
0.321542085414153
0.231137451016261
0.274159186842984
0.576296812592718
2.97224123066895
4.43311275021557
0.793477051649351
0.333677283287044
0.223114708617258
0.210366794933939
0.280902230693607
0.592794552494163
2.96228657760098
4.42456977819959
0.808339555288755
0.345496266257584
0.225093369424171
0.191265446450323
0.206532485028594
0.289923537267062
0.606851681841634
2.95331968323941
4.41827024575506
0.821322165206898
0.356198120511723
0.229950381684356
0.185819804457567
0.179888296734317
0.208169034265817
0.298617883616768
0.619419060949474
2.98372909100893
3.73665261468742
3.04807018476487
3.98635918382598
4.20352274260704
0.834133057551593
3.0286380357441
4.33726201484686
0.709584531200497
0.567817854802424
2.99286812541596
4.40627353604342
0.727225009743307
0.331820980216735
0.548185686893538
2.9754914056977
4.43507944353046
0.75242451463674
0.312192526715715
0.277433894814639
0.558868359857928
2.97444144727839
4.43972260943726
0.774436631176587
0.320571270855464
0.230300992340188
0.273349249301944
0.575744366296702
2.97254967116919
4.43310458148978
0.792751745489488
0.332981118528274
0.222518245503298
0.209783795934195
0.280280543978984
0.592395724630894
2.96255378015007
4.42457057845584
0.808035363525387
0.345115236514173
0.224752145781854
0.190928096120118
0.206155232350332
0.28948774213364
0.60659256493804
2.95350873117985
4.41827379458625
0.821337493179508
0.356156647963411
0.229877068374086
0.185721767351858
0.179760453036449
0.207997008456563
0.29839560464551
0.619297532663996
2.98382676028519
4.41468847815087
0.833393725703787
0.366065871644976
0.235717979202546
0.185604997291706
0.169226798736824
0.176235765784598
0.211411095542661
0.306277643370626
0.634858559634048
3.21034670515829
3.73636100712315
3.04812856616502
3.986177159555
3.02876727472946
0.835031846562488
4.20343550655953
4.33723769441154
0.7086483950491
0.568334704141173
2.99310457387179
4.4062689143869
0.725747500837365
0.330496774139908
0.547854521245126
2.97586066853844
4.43508062320651
0.750865497547287
0.310741820421307
0.276189442100265
0.558107586233828
2.97493357574233
4.43972415789802
0.772993577098236
0.319301424229442
0.229202453995347
0.272255256940373
0.574863871112963
2.97310666001544
4.43310349426461
0.791486624489154
0.331967013434981
0.221669666684318
0.20896071190547
0.279376519177221
0.591622242362184
2.96308620753859
4.42456961313311
0.807407194569219
0.344406792695416
0.224158535219838
0.190371218310079
0.205559195617444
0.288804976879805
0.606079871379812
2.95392509349629
4.4182697262471
0.821061296235143
0.355781211399456
0.229545196275708
0.185406569417554
0.179426258112794
0.207606412518156
0.297926838926449
0.618932460725594
2.98408378225068
4.41469615940661
0.83342919349676
0.366038444763658
0.235657412534886
0.185522575240026
0.169122583007089
0.176101298301443
0.211231586541641
0.306044167487365
0.634699199582194
3.21045868736685
4.41297865150931
0.844765093455287
0.375252122951694
0.241733384054497
0.187707839918402
0.165351082684772
0.161887590915952
0.175726466136222
0.214781005770145
0.312951697945579
0.664256544334561
4.87759952916195
3.73597001609313
3.04819214804633
3.98586592895936
3.02891045680058
0.835888647854112
4.2033414642153
2.99338842102497
0.568701160836471
0.707619065834582
4.33720574194912
4.40626270054063
0.724084256965057
0.328917050419854
0.547318387108014
2.97635217452197
4.43508457337518
0.749043597352872
0.309008967198047
0.274662149301465
0.557069181408716
2.97566089829504
4.43972696868825
0.771219413703403
0.317733126751333
0.227835797939112
0.270871553142445
0.573683632899301
2.97401593288769
4.43310881036563
0.78990457242601
0.33063635033594
0.220562321193641
0.207886336543124
0.278179564580536
0.590516451289713
2.96404445955458
4.42456137573636
0.806112611356596
0.343352258155972
0.223307098639403
0.189586018209584
0.204726067079044
0.287832659873958
0.605165945216304
2.95476459648408
4.41826801530798
0.82057249933239
0.355073114087524
0.22895278779759
0.184871477720508
0.178883333012295
0.206994094448288
0.297201298904255
0.618287477785041
2.98467273924207
4.41468665981303
0.833170636459258
0.365668701862294
0.235331934689336
0.185221967114479
0.168818614859771
0.175765057714499
0.210829570596291
0.305548717195181
0.634249726871074
3.21076452338719
4.41298208579994
0.844818167257618
0.375235815861979
0.241683065549676
0.187636954161034
0.165262862089421
0.161778141266182
0.175586488405147
0.214595664918411
0.31270916453577
0.66407370455342
4.87775595528554
4.41227332312209
0.855450627796531
0.383820273005997
0.247698618025014
0.190879549281939
0.164725438021432
0.155296388077575
0.158665472643381
0.176247647134716
0.217135556366746
0.316885418778452
0.712348387655096
3.73542850845234
3.04826009650922
3.98554453769171
3.0290614195225
0.836715968275728
4.20314921555509
2.99369149855641
0.568883383004112
0.706512666181195
4.33716393661953
2.9769277438473
0.546543046219713
0.327078472412053
0.722248237038987
4.40625490917017
4.43507805427943
0.746962550857876
0.306990972024947
0.272850429065671
0.555755620681259
2.97661598811017
4.439735406989
0.769124062697475
0.31586634988812
0.226196690169016
0.269193837077854
0.572208464559531
2.9753486863003
4.43311223617488
0.787951775316398
0.328988823994195
0.219192316800479
0.206553973155859
0.276685357809794
0.58911364223175
2.9656010962143
4.42457074454339
0.804342790284913
0.341969305961083
0.222194350356765
0.188565888448056
0.203645339064023
0.286561404460535
0.603906094613437
2.95628368553332
4.41825931584835
0.819302468780966
0.353994075788387
0.228095054720577
0.18411186800286
0.178124065554426
0.20614484931877
0.296178613077643
0.61724759358852
2.98588096766863
4.41468373781182
0.832766986854712
0.364967582493569
0.234740098111374
0.184700385833337
0.168312650907037
0.175225334129611
0.210203170947237
0.304787223653522
0.633504064440876
3.2115270184991
4.41297538578652
0.844564997263924
0.374870110625995
0.241362494842874
0.18734625465655
0.164978744852095
0.161478747595689
0.175247365642831
0.214185148906754
0.312193818890154
0.66358475880001
4.87817068871056
4.41226776602996
0.855518854119928
0.383813580737793
0.247656973167791
0.190817925731422
0.16464895619986
0.155203951125063
0.15855204292603
0.17610409159711
0.216947821276703
0.316643253555565
0.712171300426307
3.18378836646791
4.41201757233935
0.865429593705958
0.391805986389079
0.253478822592057
0.194539394742636
0.165787257204376
0.152616590264635
0.15005722944734
0.15721979465707
0.176517453895316
0.216633714985519
0.306371466447879
3.73469763655541
3.04834526558004
3.98511409370256
3.02922984717811
0.837542298549476
4.20299215625941
2.99398959432219
0.568897950923325
0.705354137708035
4.33710942990764
2.97751119685036
0.545491705148661
0.324974416126531
0.720256103457671
4.40624563905747
2.97770537882038
0.554136489087235
0.27074506363815
0.304683738724788
0.744633325730766
4.43507133324402
4.43972516836721
0.766718155799371
0.313697024389383
0.224280265631144
0.267217224152056
0.57043642401332
2.97707661850531
4.43312040385567
0.785634158680234
0.327023810019549
0.217556736910768
0.204958748111609
0.27488638946627
0.587434753739143
2.96786816926001
4.42457469765671
0.80215477708178
0.340253897115893
0.220817671716716
0.187306485496371
0.202311275660321
0.284985621060908
0.602343015272083
2.95875325819566
4.41826963566356
0.817473731506543
0.352559931477885
0.226971248373482
0.183123975656404
0.177142501874779
0.205049331488043
0.294850620887662
0.615878338929246
2.98812129146836
4.41467459517049
0.831519761608628
0.363874299581644
0.233875277131545
0.183954562837393
0.167600668156001
0.174475790274593
0.209339464075907
0.303725300901676
0.632366369744003
3.21320532689983
4.41297161728593
0.844243713478632
0.374172826571711
0.240771074218156
0.186832975214272
0.164496534778423
0.160987868759843
0.174707952587268
0.213548614370566
0.311406808665662
0.662788418907553
4.87934849469073
4.41226402572497
0.855258299811686
0.383450512376798
0.247340267040232
0.190534473510086
0.164378474722422
0.154929007572006
0.158255122258465
0.175763638520451
0.216533669660288
0.316123654278756
0.711769479136517
3.18392126296775
4.41200703796252
0.865511528924008
0.391808061391861
0.253444880363086
0.194485636445351
0.165720066084382
0.152536574829313
0.149961956812646
0.157104302809772
0.176373874803455
0.216452684902015
0.306170204981687
0.361355106649305
0.580363140015581
4.41193220525402
0.874701765676932
0.399235273436449
0.259006779032064
0.198389284812316
0.167760219822515
0.152081669921171
0.145835725975194
0.147167149285138
0.15626385004764
0.175383520532496
0.209735595729881
3.73376668954166
3.048482783321
3.98461401927223
3.02945354012724
0.838357605970064
4.20280529136216
2.9942910102377
0.568763139401114
0.704172199290435
4.33706569708152
2.97802345510432
0.544157263472632
0.322609215128517
0.718128967181535
4.40623384469903
2.97874411127788
0.552167737901657
0.268334846834181
0.302084497382062
0.742073761780243
4.43507478299561
2.97899934388573
0.568342742438916
0.264928759637325
0.222080276039355
0.31122087848411
0.764006534698877
4.43971475459327
4.43311048421536
0.78295624197888
0.324740092145459
0.215650715584509
0.203095951028923
0.272778657087942
0.585487796675659
2.9707810159132
4.42458348821906
0.799616053364755
0.338204642037856
0.219174718054656
0.185804490022515
0.200721455870284
0.283105508727499
0.600488711579909
2.96235524925807
4.41827419319998
0.81517502815793
0.350777076209859
0.225579336718262
0.18190501429816
0.17593504328807
0.203705156034617
0.293218129514511
0.614228567059487
2.9917960980358
4.4146859961745
0.829691563313909
0.362406007117528
0.232737138644475
0.18298226236223
0.166679424085199
0.173511670473149
0.20823172219336
0.302358707198714
0.630912370898993
3.21627900450719
4.41296243576115
0.842998864583486
0.373069044974391
0.239899591070198
0.186094053501967
0.16381353301978
0.160302267078077
0.173963229652372
0.212675650952296
0.310318442184172
0.661608807478686
4.88259044344408
4.41225584405502
0.854996057436026
0.382758578804421
0.246748631275899
0.190026486101035
0.163911855877982
0.154470173680658
0.157773823194518
0.175225802875454
0.215893889692602
0.315330421948422
0.711175645935045
3.18443161688371
4.41200226911478
0.865239174690813
0.391446651022826
0.253131434272848
0.194207812840548
0.165459514023385
0.152278597054925
0.149693286382599
0.156810345527221
0.176035601278054
0.216043704877102
0.305674798538057
0.360783204446309
0.579718523873659
4.4119211858135
0.874796089421304
0.399245722914721
0.258979953516184
0.198342495450438
0.167700798270873
0.152011339802364
0.145753642535121
0.147070841167289
0.156149480661485
0.175247354978789
0.209590811472437
0.24630683964122
0.266784801898631
0.364535052687433
4.4118995275966
0.883289277061749
0.406134426365736
0.264248694307538
0.202264457985358
0.17022333063047
0.152780845121495
0.1440915766797
0.141832543390411
0.145329694122586
0.15495107897628
0.17172436945983
3.73273214225141
3.04875147233586
3.98413707827086
3.02981072677852
0.839163855976503
4.20266882073121
2.9946608096763
0.568535128160626
0.702981017134864
4.33705768860459
2.97844811532053
0.542550811302458
0.319990742891922
0.715891859934138
4.40624125098417
2.97952090987583
0.549827698024162
0.265613198796691
0.299191695383912
0.739300771328446
4.43507790662619
2.98071858754717
0.565861484912464
0.262315062473934
0.219589441501204
0.308434463834387
0.760999272775567
4.43972288954153
2.97396486408835
0.583084418509654
0.270349303732191
0.200960695338092
0.213468659367934
0.322132039485986
0.779925136883003
4.43310355791921
4.4245732802205
0.796714185142182
0.335818556597803
0.217261697317625
0.184055452222059
0.198869055762278
0.280914299799505
0.598322807428652
2.96698405533615
4.418283770928
0.812456255354164
0.34865009874843
0.223916959544611
0.180452170677346
0.174498041101997
0.202106980479356
0.291283822626723
0.612325909826291
2.9972445107505
4.41469518915327
0.827371964932324
0.360573016276666
0.231325148455568
0.181781555252409
0.165546388214264
0.172329943486019
0.206878023254454
0.300699048256474
0.62921142880502
3.2219366922213
4.41297483687434
0.84115255449847
0.371577810945577
0.238747784250334
0.185127869002754
0.162927844279523
0.159419576104311
0.173010094768916
0.211563416539112
0.308935134959319
0.660121958797171
4.88752227851304
4.41225570098546
0.853756835094317
0.381651930173706
0.245870885965444
0.189290644412756
0.163246882556476
0.153825447868087
0.157105911348501
0.174487290789287
0.215021592358762
0.314242800552747
0.710260141335954
3.1861432496099
4.41199000804579
0.865033383580705
0.390763285456057
0.252539701947341
0.193703248419455
0.165003493037188
0.151841398235347
0.149250570063073
0.156337756869861
0.175503499432067
0.215412316164011
0.304922956114399
0.359918084910618
0.578815844060451
4.41191577026331
0.874507704005151
0.398885533169184
0.25866947044546
0.198069300908694
0.167447849451052
0.151765718452278
0.14550468411445
0.146808060512035
0.155860669003111
0.174916488568659
0.209196716383343
0.245829789053305
0.266251295656885
0.363879607145834
4.41188856594604
0.883395158228295
0.406152635517983
0.264228626710257
0.202224057961689
0.170170683375635
0.152718458437693
0.144019628052508
0.141750059287091
0.145235136459606
0.154843976914098
0.171618473503638
0.193005592856533
0.212603975204473
0.240913364905211
0.332661075220169
4.41190497621237
0.891224559573681
0.412531316037922
0.269189721886334
0.206069317294344
0.172933023675815
0.154203912871938
0.143819987855482
0.139200641559886
0.139287544887561
0.143794081623845
0.152755243044391
3.73151955475405
3.04933261594638
3.98391687682987
3.03044320290094
0.840046596581096
4.20274494385181
2.99522890948021
0.568320741107515
0.701811615820272
4.33716974658718
2.97889182525409
0.540717037873057
0.317129467521233
0.713571544222484
4.40630343576115
2.97994622591734
0.547076369403573
0.262573560042592
0.296003691963349
0.736336113422862
4.43509295505786
2.98174569539078
0.562874605446618
0.259366100294385
0.216801108409325
0.305333998026657
0.757707713021105
4.43972784740026
2.97665176294687
0.580131522026209
0.267579579328414
0.19854533540049
0.211004913929732
0.319194698889769
0.776547203518085
4.43310362571774
2.97203803679816
0.595771191799934
0.278389712272823
0.19674698018158
0.182054530067537
0.215073501025071
0.33309201288845
0.793417768206044
4.42456921235463
4.41827315177398
0.809342350823996
0.346174739363973
0.2219810783308
0.178762311672537
0.172827619446109
0.200249103097011
0.289041987344019
0.61016520777968
3.00434827639555
4.41469688854442
0.824588912586464
0.358379510042345
0.229637903584927
0.18035038313235
0.16419922703413
0.170927534302869
0.205274762754834
0.298750474234447
0.627314034051657
3.22967143266788
4.41298840925913
0.838793069137336
0.369710018780241
0.237315820454287
0.183933222730103
0.161837939472919
0.158337935128866
0.171846455800899
0.21021157788072
0.307277002814386
0.658488576615656
4.90074117467561
4.41226470640602
0.851894136081335
0.380143967475078
0.244706743159375
0.188325578184821
0.162382324368778
0.152993702468416
0.156250247693754
0.173547098576668
0.213918126010255
0.312881554962569
0.709119403854807
3.18875765259067
4.41199921231785
0.863798054348129
0.389651045982893
0.251656709431891
0.192968292977321
0.164349900808407
0.151223505019962
0.148632716154745
0.155685724344543
0.174776918134008
0.214557435733098
0.303904289280535
0.358741935460155
0.577610265365493
4.41190367474504
0.874358226527006
0.398210484459096
0.258078039150736
0.197567079060143
0.166999248774398
0.151343609260082
0.145088361708517
0.146378911966827
0.155398565466059
0.174396425131795
0.208589948748725
0.245126430134759
0.265443155826927
0.362900287584917
4.41188297337482
0.883087430609562
0.405793189620277
0.263920985130332
0.201954899616719
0.169923833490685
0.152482220546935
0.1437850116164
0.141509040862455
0.144979342931149
0.154563299392411
0.171297591050431
0.192615922620199
0.212163362698953
0.2403971566823
0.3319945986001
4.41189465792056
0.891341064548913
0.41255642327638
0.269176054734964
0.206034945124441
0.172886499386736
0.154148314876741
0.143756192001404
0.139128626515121
0.13920712388423
0.143706576116615
0.152675005589573
0.165344029376422
0.179583132918909
0.197174701888357
0.233254153269821
0.327561119941566
4.41190842946719
0.898536244188714
0.418453038772917
0.273826048069361
0.20974704568083
0.175741586635182
0.156047460043587
0.144447809739616
0.138203459488228
0.136060189883094
0.137464006644346
0.142153745162308
3.73119428472262
3.05053386832833
3.98428819725289
3.03160179573688
0.84108541751118
4.20336756119692
2.99619148125814
0.568219120635412
0.700724643263234
4.33759606027879
2.9795889926814
0.53879002215562
0.314047556925147
0.711212529371419
4.40650204661802
2.98021101692259
0.543945552715288
0.25922146312605
0.292519225016659
0.733205990867193
4.43516288998876
2.98180967585644
0.559217323582955
0.256072121645511
0.213708578261359
0.30191470486526
0.754147455568093
4.43974510435196
2.97777386801731
0.576455736822755
0.264447905846411
0.195841773488017
0.20825320048733
0.315922899112935
0.772828009807383
4.43311186194363
2.97617231439773
0.592624712284667
0.275505557113794
0.19434677568232
0.179796367518646
0.212604625472238
0.330019133673841
0.789729693548185
4.42456125810728
3.01230598021972
0.607584198106923
0.286461122493859
0.198122895227951
0.170919406458955
0.176831579806813
0.219767318897722
0.343343091220581
0.80580937184231
4.41826854400994
4.41468992709466
0.821352196951766
0.355824291123462
0.227672486654833
0.178686471752929
0.162635620237692
0.169301365052048
0.20341696448582
0.296497488976256
0.625195491239923
3.24161347205935
4.412981495787
0.835949119706221
0.367467891533164
0.235602696132176
0.182508664979334
0.160542508197957
0.157055990093161
0.170470862380547
0.208619618025845
0.30534423803966
0.656717908020334
4.91328183671417
4.41227823508888
0.849498919009428
0.378247136794132
0.2432565163224
0.187130528873752
0.161317386856605
0.151974196345042
0.155206217327454
0.172405311884965
0.212587427366842
0.311269934027319
0.708107299781692
3.19693607991513
4.41200460182899
0.86191951309818
0.388125657064828
0.250481451667439
0.192001638600348
0.163497847063327
0.150424439639042
0.147839704904286
0.154854790988294
0.173857697674265
0.213485299271168
0.302641896831627
0.357279953882485
0.576120161107886
4.41191349574454
0.873129769854882
0.397091979332853
0.257190124766699
0.196831816141254
0.166352866785032
0.150743733110446
0.144504091648611
0.145783578713757
0.154764581124209
0.173690893752087
0.207776709412469
0.244189176090244
0.264358229888747
0.361566689507582
4.41187097527514
0.88299163632138
0.405126243635888
0.263330146799886
0.2014544421473
0.169480607235213
0.15207093224771
0.143387305639649
0.141109735736788
0.144563677556755
0.154114564258072
0.170795342323907
0.192041741404569
0.211508683353573
0.239623831630716
0.331020859910399
4.4118896373895
0.891011402673065
0.412197138054197
0.268871218033447
0.205769519387125
0.172644795033633
0.153919494284752
0.143532397154318
0.138903392216805
0.138974315721108
0.143459335506321
0.152402036537852
0.1650180654129
0.179216074062453
0.196753825793042
0.232741213479266
0.326885448188988
4.411898946231
0.898664955099259
0.418483935976219
0.273818346166604
0.209718489775843
0.175700796547341
0.1559978964075
0.144390843260369
0.138139713241485
0.135990328426009
0.137390403604187
0.14209117573035
0.149696497462707
0.159359957496549
0.171389224587098
0.190779319114452
0.231562804637204
0.3286464878942
4.41191565696349
0.905247918557484
0.423921798232557
0.278159618408558
0.213263694453619
0.178556441830636
0.158122900637734
0.145628680938182
0.138227543630099
0.134552133886067
0.133920267188191
0.135957090508257
3.72980706632655
3.05303312703156
3.9858017671708
3.03371779020565
0.842414203432446
4.20505698251919
2.99783450459337
0.568294339248015
0.699815230755977
4.33872403581603
2.98084623152946
0.536937392178316
0.31077839993823
0.708890152443945
4.40704449504757
2.98079964889272
0.540581234998839
0.255573561898038
0.288742768260222
0.729949905471609
4.4353653944105
2.98127239084857
0.554933507381788
0.25243212777936
0.21030645537532
0.298172774901327
0.750340437409987
4.4398049416014
2.97658412991545
0.571796771517034
0.260953698215827
0.192843814466081
0.205206747124744
0.312310846221272
0.768777535772609
4.4331268676292
2.97712680683831
0.588429897957854
0.272223383866664
0.19166026432431
0.177275487270433
0.209849155762805
0.326592967020198
0.785654355522063
4.42457271021127
3.01909300005156
0.604262225688633
0.283495262449248
0.195718075373232
0.168768632863864
0.174655807042608
0.217270509508534
0.340149081563461
0.801861769984469
4.41825941046303
3.2535983286712
0.622703829114793
0.293900640547759
0.201294667396911
0.167447593418867
0.160852887510118
0.176786872609145
0.2254247842021
0.352899904974754
0.817671119902182
4.41468508493501
4.41297828644528
0.832631813649754
0.364849295764764
0.233605910206133
0.180852494973128
0.159040285277558
0.155572522582759
0.168881693963406
0.206783830695993
0.303127501400744
0.654943371683323
4.94475963855479
4.4122706148914
0.846601761049883
0.375964328671976
0.2415192522616
0.185704450393934
0.160051449523107
0.150766703944053
0.153974066590703
0.171063290996883
0.211033634263488
0.309417569478188
0.707051974231249
3.20514503594968
4.41201799720138
0.859490560631269
0.386201196510428
0.249014249233955
0.190802741892686
0.162447010599947
0.149444230544364
0.146872040290972
0.153846481069995
0.172749774129788
0.212206735161094
0.301180251406468
0.355604707187103
0.574595104153006
4.41191902232994
0.871237247024459
0.395550612952952
0.256004811287221
0.195862108217542
0.165507967032285
0.149965967669791
0.143752425590204
0.145023550546495
0.15396172861926
0.172805707511215
0.206767664828333
0.243034859242744
0.263008789805399
0.359873292960383
4.41188085684322
0.881776480815729
0.404002641347086
0.262438268169454
0.200718213453948
0.168838783360125
0.151483360515125
0.1428261083882
0.140552727929787
0.143990293454066
0.153502918205638
0.170121106999048
0.191283619839744
0.210643373221207
0.23859495225709
0.329713151917089
4.41187795539698
0.890951769543065
0.411537175674661
0.268281349560922
0.205270590425054
0.172205662960096
0.153516202313678
0.143148172939626
0.138525217235636
0.138590539432961
0.143057827555
0.151968003221708
0.164534631968011
0.178674410643076
0.196130205560441
0.231982142407474
0.325909650947497
4.4118952858957
0.898310708280463
0.418124038874645
0.273516369669567
0.209456721136033
0.175463698095002
0.155775217597075
0.144175520494485
0.137926319900678
0.13577412496948
0.1371664258418
0.141850603578139
0.149414850574912
0.159048073777764
0.171037648016078
0.190365471248567
0.231043629436021
0.327957425945567
4.41191028755742
0.90538735297339
0.423957646683278
0.278157513364519
0.213240881442903
0.178521229231943
0.158078936611593
0.14557768573483
0.138170598384069
0.134490479637023
0.133856951354637
0.135907196619981
0.140339240124181
0.14670474898422
0.155016165430148
0.167087527105627
0.18847498190874
0.231992847737634
0.331536460629383
0.91137166699433
0.428949614154223
0.282194227188591
0.216599049283743
0.181318260789261
0.160309095286722
0.147144096062312
0.138899306278363
0.134134401642884
0.132095790684967
0.132352904601361
3.73222390316149
3.05702376403129
3.98802086140757
3.03739650218479
0.84424399337614
4.20832058114266
3.00059479822098
0.568760329228529
0.699218085739953
4.34115802681052
2.9830000182944
0.535249253140637
0.307367140192409
0.706700256946664
4.40834345907444
2.98228923855998
0.537191139566195
0.25165550920748
0.284684530351455
0.726638849370094
4.43591004973567
2.9812211633034
0.550308000691788
0.248465095512939
0.206591462598221
0.294107241646404
0.746329808600652
4.43999119860972
2.97371997420901
0.566148499045063
0.257084970332052
0.189547233731295
0.201858915819793
0.308352820023383
0.764412188939896
4.43317923465626
2.97269085907046
0.582582312917151
0.268509121015831
0.188683283693586
0.174486930882011
0.206800733235658
0.322806150217949
0.781196980035425
4.42458602420099
3.02013570071261
0.599458337650195
0.28007167378842
0.193024233883756
0.166370884618389
0.172230766769058
0.21448488091102
0.33658557701196
0.797511690505693
4.41827085300465
3.26799751162666
0.619406487687154
0.290889924027559
0.198894354601488
0.165361933372388
0.15884822661211
0.174648334839821
0.222889919179676
0.3496001205956
0.813541626703264
4.41467513577452
4.96589621338643
0.65277648869663
0.300582084815758
0.20469444981777
0.16707626327185
0.15388612306555
0.157329793156976
0.178962472533928
0.231321728607788
0.361849962621189
0.828846472667483
4.41297355357068
4.41226721043568
0.843210863725236
0.373293745350855
0.239492533885357
0.184046035527872
0.158584001168085
0.14937122151677
0.152554319296762
0.16952237929414
0.209259387700786
0.307342830359892
0.706758633643524
3.22819544540167
4.41201010782603
0.85654097490214
0.383881378938703
0.247254452402344
0.189370804128113
0.161197234380819
0.148283373436443
0.145731032346906
0.152663590919841
0.171459321359023
0.210735560464319
0.299540220205779
0.353749850968198
0.572899523215686
4.41193244564022
0.868778248542205
0.393601415163119
0.254522066550759
0.1946574289384
0.164464519502001
0.149010827804381
0.142834570215381
0.144101225261299
0.152994756295353
0.17175054762216
0.205584232343974
0.241702462757254
0.261428608596744
0.357811004786663
4.41188593691433
0.879875906908897
0.402447565513321
0.261243429351907
0.199744708073693
0.167997660848869
0.150719562566473
0.142102274528467
0.139839956526221
0.143262823005483
0.152734773748641
0.169285024166063
0.19035553296236
0.20958656597361
0.237323049245453
0.328053503246474
4.41188734811947
0.889769654044124
0.410411383400806
0.267386143679574
0.20453322564226
0.171566742634063
0.152937178034963
0.142603153392458
0.137994784405864
0.138058143927826