/*--------------------------------*- C++ -*----------------------------------*\
  =========                 |
  \\      /  F ield         | OpenFOAM: The Open Source CFD Toolbox
   \\    /   O peration     | Website:  https://openfoam.org
    \\  /    A nd           | Version:  12
     \\/     M anipulation  |
\*---------------------------------------------------------------------------*/
/*   Windows 32 and 64 bit porting by blueCAPE: http://www.bluecape.com.pt   *\
|  Based on Windows porting (2.0.x v4) by Symscape: http://www.symscape.com   |
\*---------------------------------------------------------------------------*/
FoamFile
{
    format      ascii;
    class       volScalarField;
    location    "500";
    object      p;
}
// * * * * * * * * * * * * * * * * * * * * * * * * * * * * * * * * * * * * * //

dimensions      [0 2 -2 0 0 0 0];

internalField   nonuniform List<scalar> 
10103
(
83333.3310230176
83333.3310207167
83333.331023023
83333.3310230196
83333.331018416
83333.3310207151
83333.3310207189
83333.3310230332
83333.3310230252
83333.3310230169
83333.3310161171
83333.3310184082
83333.3310184196
83333.3310207142
83333.3310207163
83333.3310207215
83333.3310230541
83333.331023033
83333.3310230219
83333.3310230104
83333.3310138245
83333.3310161031
83333.3310161232
83333.3310183948
83333.3310184104
83333.3310184273
83333.3310207153
83333.3310207133
83333.3310207188
83333.3310207256
83333.3310230885
83333.3310230537
83333.3310230316
83333.3310230158
83333.3310230013
83333.3310115444
83333.3310138043
83333.331013833
83333.3310160746
83333.3310161073
83333.3310161369
83333.3310183746
83333.3310183957
83333.3310184192
83333.3310184405
83333.3310207187
83333.3310207134
83333.3310207159
83333.3310207238
83333.3310207309
83333.331023137
83333.3310230889
83333.3310230536
83333.3310230281
83333.3310230066
83333.3310229909
83333.3310092831
83333.3310115181
83333.3310115555
83333.331013761
83333.3310138105
83333.3310138528
83333.3310160305
83333.3310160775
83333.3310161222
83333.33101616
83333.3310183461
83333.331018373
83333.3310184032
83333.3310184333
83333.3310184593
83333.331020725
83333.3310207167
83333.3310207158
83333.3310207227
83333.33102073
83333.3310207377
83333.3310231986
83333.3310231378
83333.3310230896
83333.3310230516
83333.3310230215
83333.3310229964
83333.3310229807
83333.3310070458
83333.3310092505
83333.3310092966
83333.3310114603
83333.3310115265
83333.3310115815
83333.3310136927
83333.3310137657
83333.3310138312
83333.3310138862
83333.3310159689
83333.331016031
83333.33101609
83333.3310161459
83333.3310161934
83333.3310183105
83333.3310183433
83333.3310183781
83333.3310184182
83333.3310184534
83333.3310184832
83333.3310207352
83333.3310207233
83333.3310207186
83333.3310207235
83333.3310207321
83333.3310207377
83333.3310207462
83333.3310232729
83333.3310231997
83333.331023139
83333.3310230881
83333.331023048
83333.3310230136
83333.3310229864
83333.3310229716
83333.3310048378
83333.331007007
83333.3310070615
83333.3310091785
83333.331009261
83333.3310093288
83333.3310113676
83333.3310114669
83333.3310115535
83333.3310116257
83333.3310135967
83333.3310136947
83333.3310137833
83333.331013865
83333.3310139345
83333.3310158913
83333.3310159676
83333.3310160398
83333.3310161147
83333.3310161804
83333.3310162352
83333.3310182701
83333.3310183075
83333.3310183458
83333.3310183932
83333.3310184414
83333.3310184786
83333.331018511
83333.3310207498
83333.3310207338
83333.3310207251
83333.3310207259
83333.3310207357
83333.3310207425
83333.331020747
83333.3310207566
83333.3310233599
83333.3310232743
83333.3310232011
83333.331023138
83333.3310230866
83333.3310230432
83333.3310230058
83333.3310229779
83333.3310229637
83333.331002665
83333.3310047932
83333.3310048556
83333.3310069209
83333.3310070194
83333.3310070997
83333.3310090612
83333.3310091867
83333.3310092943
83333.3310093838
83333.3310112367
83333.3310113713
83333.3310114902
83333.3310115975
83333.3310116892
83333.3310134757
83333.3310135969
83333.3310137078
83333.331013818
83333.3310139144
83333.3310139947
83333.3310158007
83333.3310158893
83333.3310159723
83333.331016063
83333.3310161529
83333.3310162237
83333.3310162826
83333.3310182264
83333.3310182669
83333.3310183084
83333.3310183587
83333.3310184188
83333.3310184694
83333.3310185072
83333.3310185414
83333.3310207696
83333.3310207488
83333.3310207356
83333.3310207316
83333.3310207392
83333.331020749
83333.3310207537
83333.331020758
83333.3310207683
83333.3310234598
83333.3310233616
83333.331023276
83333.3310232009
83333.3310231378
83333.3310230841
83333.3310230381
83333.331022999
83333.3310229706
83333.3310229566
83333.3310005336
83333.3310026845
83333.3310026146
83333.3310046932
83333.3310048072
83333.3310048991
83333.3310067793
83333.3310069307
83333.3310070587
83333.331007165
83333.3310088955
83333.3310090665
83333.3310092155
83333.3310093486
83333.3310094625
83333.3310110718
83333.3310112385
83333.3310113891
83333.3310115353
83333.3310116621
83333.3310117681
83333.3310133336
83333.3310134748
83333.3310136044
83333.3310137397
83333.3310138716
83333.3310139764
83333.3310140626
83333.3310156992
83333.3310157977
83333.3310158911
83333.3310159915
83333.3310161026
83333.3310161992
83333.3310162724
83333.3310163333
83333.3310181803
83333.3310182229
83333.3310182669
83333.3310183189
83333.3310183839
83333.3310184491
83333.3310184997
83333.331018538
83333.3310185732
83333.3310207952
83333.331020769
83333.3310207507
83333.3310207415
83333.3310207447
83333.3310207541
83333.3310207623
83333.3310207659
83333.3310207699
83333.3310207806
83333.3310235734
83333.331023462
83333.3310233637
83333.3310232764
83333.3310232016
83333.331023137
83333.3310230809
83333.3310230335
83333.3310229935
83333.3310229643
83333.3310229499
83333.3309984499
83333.331000554
83333.3310004776
83333.3310027325
83333.33100263
83333.3310025014
83333.331004528
83333.3310047046
83333.331004852
83333.3310049741
83333.3310065793
83333.3310067862
83333.3310069648
83333.3310071231
83333.3310072586
83333.3310086865
83333.3310088988
83333.3310090891
83333.3310092711
83333.3310094283
83333.3310095603
83333.3310108773
83333.3310110723
83333.3310112493
83333.3310114302
83333.3310116042
83333.3310117431
83333.3310118571
83333.3310131729
83333.3310133313
83333.3310134788
83333.3310136308
83333.3310137936
83333.3310139365
83333.3310140459
83333.3310141345
83333.3310155881
83333.3310156951
83333.3310157976
83333.331015906
83333.3310160288
83333.3310161505
83333.3310162493
83333.331016324
83333.3310163855
83333.3310181329
83333.3310181768
83333.3310182223
83333.3310182752
83333.3310183417
83333.3310184148
83333.3310184806
83333.3310185312
83333.3310185695
83333.331018605
83333.3310208271
83333.3310207951
83333.3310207712
83333.3310207561
83333.3310207537
83333.33102076
83333.3310207688
83333.3310207756
83333.3310207786
83333.3310207822
83333.3310207928
83333.3310237011
83333.331023576
83333.3310234647
83333.3310233649
83333.3310232781
83333.331023202
83333.3310231353
83333.331023078
83333.3310230299
83333.331022989
83333.331022958
83333.331022941
83333.3309964211
83333.3309984708
83333.3309983887
83333.3310006055
83333.3310004938
83333.3310003519
83333.3310028157
83333.3310026795
83333.3310025142
83333.3310023136
83333.3310042945
83333.3310045363
83333.3310047438
83333.3310049258
83333.3310050814
83333.3310063266
83333.3310065839
83333.3310068135
83333.3310070303
83333.3310072176
83333.331007375
83333.3310084397
83333.3310086883
83333.3310089132
83333.3310091394
83333.3310093553
83333.3310095285
83333.3310096709
83333.331010657
83333.3310108765
83333.3310110785
83333.3310112833
83333.3310114984
83333.3310116878
83333.3310118338
83333.3310119513
83333.3310129953
83333.3310131691
83333.3310133327
83333.331013499
83333.3310136806
83333.3310138592
83333.3310140068
83333.331014119
83333.3310142082
83333.3310154686
83333.3310155832
83333.3310156931
83333.3310158086
83333.3310159386
83333.3310160758
83333.331016201
83333.3310163009
83333.3310163756
83333.3310164372
83333.3310180848
83333.3310181295
83333.3310181757
83333.3310182287
83333.331018295
83333.331018371
83333.3310184468
83333.3310185123
83333.3310185626
83333.3310186007
83333.3310186359
83333.3310208662
83333.3310208278
83333.3310207976
83333.3310207763
83333.3310207672
83333.3310207682
83333.3310207749
83333.3310207829
83333.331020789
83333.3310207915
83333.3310207943
83333.3310208025
83333.3310238438
83333.3310237043
83333.3310235794
83333.3310234668
83333.3310233675
83333.3310232795
83333.3310232015
83333.3310231334
83333.3310230754
83333.331023027
83333.3310229843
83333.331022949
83333.3309944552
83333.330996442
83333.3309963551
83333.3309985245
83333.3309984053
83333.3309982513
83333.3310006949
83333.3310005471
83333.3310003657
83333.3310001425
83333.3310029348
83333.3310027616
83333.3310025579
83333.3310023231
83333.3310020474
83333.3310039989
83333.3310043002
83333.3310045682
83333.3310048184
83333.3310050342
83333.3310052157
83333.3310060278
83333.3310063295
83333.3310066018
83333.3310068725
83333.3310071296
83333.3310073366
83333.3310075076
83333.3310081595
83333.3310084401
83333.3310086968
83333.3310089548
83333.3310092219
83333.3310094579
83333.3310096408
83333.3310097884
83333.3310104127
83333.3310106541
83333.3310108797
83333.3310111046
83333.3310113457
83333.3310115817
83333.3310117787
83333.3310119291
83333.3310120474
83333.3310128024
83333.3310129904
83333.3310131682
83333.3310133474
83333.3310135418
83333.3310137436
83333.331013929
83333.3310140792
83333.3310141916
83333.3310142806
83333.3310153414
83333.3310154631
83333.3310155799
83333.3310157007
83333.3310158356
83333.3310159816
83333.3310161254
83333.3310162517
83333.3310163518
83333.3310164261
83333.3310164868
83333.3310180369
83333.3310180818
83333.3310181279
83333.3310181803
83333.331018245
83333.331018321
83333.3310184016
83333.331018478
83333.3310185431
83333.331018593
83333.3310186307
83333.331018663
83333.3310209133
83333.3310208678
83333.3310208308
83333.3310208027
83333.3310207863
83333.3310207804
83333.3310207824
83333.3310207888
83333.3310207962
83333.3310208021
83333.3310208041
83333.331020804
83333.3310208059
83333.3310240026
83333.3310238478
83333.3310237087
83333.3310235827
83333.3310234705
83333.33102337
83333.3310232801
83333.3310232006
83333.3310231316
83333.3310230732
83333.3310230239
83333.331022977
83333.3309925604
83333.3309944756
83333.3309943846
83333.3309964966
83333.3309963716
83333.330996207
83333.3309986176
83333.3309984611
83333.3309982658
83333.3309980215
83333.3310008229
83333.3310006356
83333.331000413
83333.3310001529
83333.3309998449
83333.3310030847
83333.3310028819
83333.3310026405
83333.331002359
83333.3310020542
83333.3310017101
83333.3310036489
83333.3310040027
83333.3310043215
83333.3310046351
83333.3310049316
83333.3310051708
83333.3310053692
83333.3310056881
83333.3310060293
83333.3310063405
83333.3310066508
83333.3310069689
83333.3310072507
83333.3310074706
83333.3310076493
83333.3310078485
83333.3310081578
83333.331008445
83333.3310087292
83333.3310090297
83333.3310093228
83333.3310095697
83333.3310097589
83333.3310099083
83333.3310101459
83333.3310104081
83333.3310106549
83333.3310108985
83333.3310111576
83333.3310114246
83333.3310116706
83333.3310118722
83333.3310120234
83333.3310121415
83333.3310125948
83333.3310127965
83333.3310129875
83333.331013178
83333.3310133819
83333.3310135983
83333.3310138108
83333.3310139991
83333.3310141504
83333.3310142622
83333.3310143498
83333.3310152075
83333.3310153355
83333.3310154582
83333.3310155838
83333.3310157219
83333.3310158726
83333.3310160277
83333.3310161742
83333.3310163007
83333.3310164007
83333.3310164745
83333.3310165314
83333.3310179899
83333.3310180342
83333.33101808
83333.3310181309
83333.3310181933
83333.3310182671
83333.3310183485
83333.331018431
83333.3310185074
83333.3310185721
83333.3310186218
83333.3310186578
83333.3310186808
83333.3310209693
83333.3310209158
83333.3310208714
83333.331020836
83333.3310208118
83333.331020798
83333.3310207932
83333.3310207953
83333.3310208014
83333.3310208086
83333.3310208145
83333.3310208137
83333.3310208098
83333.3310208084
83333.3310241786
83333.3310240072
83333.3310238532
83333.3310237134
83333.3310235876
83333.3310234741
83333.3310233716
83333.33102328
83333.3310231994
83333.3310231297
83333.3310230706
83333.3310230181
83333.330990745
83333.3309925799
83333.3309924853
83333.3309945299
83333.3309944006
83333.3309942264
83333.3309965909
83333.3309964287
83333.3309962217
83333.3309959579
83333.3309987505
83333.3309985539
83333.3309983157
83333.3309980326
83333.3309976939
83333.3310009842
83333.331000765
83333.3310005018
83333.3310001919
83333.3309998527
83333.3309994672
83333.3310032571
83333.3310030337
83333.3310027656
83333.3310024328
83333.3310020785
83333.3310017147
83333.3310013101
83333.3310032503
83333.3310036513
83333.3310040161
83333.3310043773
83333.3310047443
83333.33100507
83333.3310053263
83333.3310055357
83333.3310053107
83333.3310056877
83333.331006036
83333.3310063789
83333.331006738
83333.331007087
83333.3310073832
83333.3310076116
83333.3310077943
83333.3310075078
83333.3310078445
83333.3310081601
83333.3310084685
83333.3310087925
83333.3310091243
83333.3310094311
83333.3310096847
83333.3310098757
83333.3310100254
83333.3310098574
83333.3310101401
83333.3310104064
83333.3310106673
83333.3310109406
83333.3310112274
83333.3310115091
83333.3310117603
83333.3310119643
83333.3310121149
83333.3310122313
83333.3310123735
83333.3310125882
83333.3310127912
83333.3310129923
83333.331013204
83333.3310134295
83333.3310136594
83333.3310138772
83333.3310140669
83333.3310142183
83333.3310143297
83333.3310144131
83333.3310150676
83333.3310152009
83333.3310153293
83333.3310154588
83333.331015599
83333.3310157518
83333.3310159128
83333.3310160726
83333.3310162202
83333.3310163465
83333.3310164461
83333.3310165192
83333.3310165628
83333.3310179446
83333.3310179875
83333.3310180323
83333.3310180816
83333.3310181408
83333.331018211
83333.3310182904
83333.3310183748
83333.3310184581
83333.3310185342
83333.3310185982
83333.3310186452
83333.331018672
83333.3310186868
83333.3310210351
83333.3310209727
83333.3310209203
83333.3310208771
83333.3310208445
83333.3310208221
83333.3310208091
83333.3310208047
83333.3310208067
83333.3310208125
83333.3310208196
83333.3310208235
83333.331020819
83333.3310208201
83333.3310208171
83333.3310243729
83333.3310241838
83333.3310240139
83333.3310238594
83333.3310237197
83333.3310235925
83333.3310234769
83333.3310233725
83333.3310232794
83333.3310231977
83333.3310231272
83333.3310230654
83333.3309890166
83333.3309907631
83333.3309906652
83333.3309926331
83333.3309925005
83333.3309923174
83333.3309946235
83333.3309944577
83333.3309942408
83333.3309939594
83333.3309967245
83333.3309965235
83333.3309962729
83333.3309959693
83333.3309956018
83333.3309989172
83333.3309986886
83333.3309984087
83333.3309980735
83333.3309977025
83333.3309972774
83333.3310011712
83333.3310009282
83333.3310006363
83333.331000271
83333.3309998792
83333.3309994726
83333.3309990187
83333.3310034469
83333.331003208
83333.3310029188
83333.3310025529
83333.3310021401
83333.3310017302
83333.3310013132
83333.3310008538
83333.3310028072
83333.3310032512
83333.3310036597
83333.33100406
83333.3310044756
83333.3310048783
83333.3310052223
83333.3310054891
83333.3310057072
83333.3310048964
83333.3310053074
83333.3310056912
83333.3310060642
83333.3310064522
83333.3310068476
83333.3310072142
83333.33100752
83333.3310077517
83333.3310079364
83333.3310071385
83333.3310075024
83333.3310078439
83333.3310081756
83333.3310085184
83333.3310088754
83333.3310092259
83333.3310095404
83333.3310097983
83333.3310099887
83333.331010137
83333.3310095481
83333.3310098507
83333.3310101353
83333.3310104126
83333.3310106983
83333.3310109984
83333.3310113033
83333.3310115931
83333.3310118471
83333.3310120521
83333.331012202
83333.3310123139
83333.3310121391
83333.3310123661
83333.331012581
83333.3310127913
83333.3310130098
83333.3310132413
83333.3310134818
83333.3310137197
83333.3310139401
83333.33101413
83333.3310142812
83333.3310143928
83333.3310144585
83333.3310149222
83333.3310150603
83333.3310151937
83333.3310153269
83333.3310154685
83333.3310156216
83333.3310157847
83333.331015952
83333.3310161142
83333.3310162618
83333.3310163869
83333.3310164822
83333.3310165407
83333.3310165739
83333.3310179018
83333.3310179426
83333.3310179857
83333.3310180329
83333.3310180887
83333.3310181543
83333.3310182296
83333.3310183124
83333.3310183985
83333.3310184819
83333.3310185572
83333.3310186187
83333.3310186577
83333.3310186907
83333.3310187042
83333.3310211124
83333.3310210395
83333.3310209782
83333.3310209265
83333.3310208852
83333.3310208535
83333.3310208314
83333.3310208187
83333.3310208143
83333.3310208163
83333.331020822
83333.3310208277
83333.3310208264
83333.3310208254
83333.3310208289
83333.3310208253
83333.3310245868
83333.3310243787
83333.3310241916
83333.3310240217
83333.3310238673
83333.3310237259
83333.3310235965
83333.3310234787
83333.3310233725
83333.3310232781
83333.3310231952
83333.3310231222
83333.3309873827
83333.3309890331
83333.3309889321
83333.3309908148
83333.3309906795
83333.3309904881
83333.3309927248
83333.3309925565
83333.3309923313
83333.3309920337
83333.3309947542
83333.3309945524
83333.330994292
83333.3309939705
83333.3309935764
83333.3309968897
83333.3309966593
83333.3309963679
83333.3309960112
83333.330995611
83333.3309951483
83333.3309991107
83333.3309988575
83333.3309985492
83333.3309981562
83333.3309977307
83333.3309972834
83333.330996782
83333.3310013793
83333.3310011156
83333.3310008009
83333.3310003996
83333.3309999452
83333.3309994896
83333.3309990224
83333.3309985063
83333.3310036454
83333.331003391
83333.3310030884
83333.3310027004
83333.3310022478
83333.3310017789
83333.3310013232
83333.3310008556
83333.331000346
83333.3310023203
83333.3310028047
83333.3310032558
83333.3310036922
83333.3310041425
83333.3310045991
83333.3310050231
83333.3310053803
83333.3310056528
83333.331005877
83333.3310044466
83333.3310048914
83333.3310053078
83333.33100571
83333.3310061216
83333.3310065476
83333.3310069658
83333.331007343
83333.3310076563
83333.3310078874
83333.3310080717
83333.3310067413
83333.3310071317
83333.3310074981
83333.3310078521
83333.3310082118
83333.3310085861
83333.3310089656
83333.3310093273
83333.3310096464
83333.3310099075
83333.3310100964
83333.3310102397
83333.3310092186
83333.3310095405
83333.3310098433
83333.3310101356
83333.3310104327
83333.3310107425
83333.3310110623
83333.3310113785
83333.3310116727
83333.3310119278
83333.331012133
83333.3310122841
83333.3310123725
83333.3310118921
83333.3310121308
83333.331012357
83333.3310125764
83333.3310128009
83333.3310130366
83333.3310132831
83333.3310135334
83333.3310137756
83333.3310139967
83333.3310141852
83333.3310143312
83333.3310144227
83333.3310144748
83333.3310147721
83333.3310149142
83333.331015052
83333.3310151885
83333.3310153313
83333.3310154837
83333.3310156465
83333.3310158167
83333.3310159877
83333.3310161507
83333.3310162969
83333.3310164172
83333.3310165001
83333.3310165665
83333.3310165995
83333.3310178625
83333.3310179003
83333.331017941
83333.3310179856
83333.3310180375
83333.3310180981
83333.331018168
83333.3310182468
83333.331018332
83333.3310184188
83333.3310185017
83333.3310185752
83333.3310186301
83333.3310186715
83333.3310187065
83333.3310187206
83333.3310212022
83333.3310211175
83333.3310210461
83333.3310209852
83333.3310209346
83333.3310208932
83333.3310208612
83333.331020839
83333.3310208265
83333.3310208222
83333.3310208242
83333.3310208288
83333.3310208293
83333.3310208286
83333.3310208308
83333.3310208355
83333.3310208319
83333.3310248226
83333.3310245929
83333.3310243876
83333.331024201
83333.3310240312
83333.3310238752
83333.3310237313
83333.3310235995
83333.3310234796
83333.3310233717
83333.3310232758
83333.3310231902
83333.3309858499
83333.3309873974
83333.3309872935
83333.3309890833
83333.3309889458
83333.3309887462
83333.3309909042
83333.330990734
83333.3309905013
83333.3309901885
83333.3309928511
83333.3309926498
83333.3309923818
83333.3309920441
83333.3309916253
83333.3309949122
83333.3309946859
83333.3309943869
83333.3309940122
83333.3309935856
83333.3309930875
83333.3309970789
83333.3309968274
83333.3309965105
83333.3309960953
83333.33099564
83333.3309951548
83333.3309946079
83333.3309993276
83333.3309990504
83333.3309987198
83333.3309982902
83333.3309977995
83333.3309973015
83333.3309967861
83333.3309962152
83333.3310016024
83333.3310013145
83333.3310009832
83333.3310005575
83333.3310000603
83333.3309995419
83333.3309990335
83333.3309985085
83333.3309979351
83333.3310038459
83333.3310035786
83333.3310032661
83333.3310028604
83333.3310023833
83333.331001869
83333.3310013593
83333.3310008612
83333.3310003444
83333.3309997877
83333.3310017908
83333.3310023157
83333.331002806
83333.3310032776
83333.3310037565
83333.3310042493
83333.3310047326
83333.3310051704
83333.3310055407
83333.3310058141
83333.3310060393
83333.3310039619
83333.3310044401
83333.3310048878
83333.3310053181
83333.3310057513
83333.3310061989
83333.3310066515
83333.3310070841
83333.3310074683
83333.3310077881
83333.3310080169
83333.3310081966
83333.3310063168
83333.3310067334
83333.3310071245
83333.3310074992
83333.331007875
83333.3310082628
83333.3310086612
83333.3310090552
83333.3310094235
83333.331009745
83333.3310100075
83333.3310101986
83333.3310103108
83333.3310088695
83333.3310092099
83333.3310095306
83333.3310098377
83333.3310101455
83333.3310104633
83333.3310107926
83333.3310111258
83333.3310114484
83333.3310117443
83333.331011998
83333.3310121973
83333.3310123227
83333.3310123945
83333.3310116332
83333.3310118829
83333.3310121198
83333.3310123481
83333.3310125785
83333.3310128174
83333.331013067
83333.3310133243
83333.3310135808
83333.3310138247
83333.331014044
83333.3310142261
83333.3310143545
83333.331014456
83333.3310145093
83333.3310146176
83333.3310147635
83333.331014905
83333.3310150444
83333.3310151881
83333.3310153396
83333.3310155005
83333.3310156705
83333.3310158455
83333.3310160184
83333.3310161804
83333.3310163226
83333.3310164336
83333.3310165191
83333.3310165882
83333.3310166233
83333.3310178276
83333.3310178614
83333.331017899
83333.3310179404
83333.3310179881
83333.3310180434
83333.3310181071
83333.3310181802
83333.3310182617
83333.3310183482
83333.3310184351
83333.331018517
83333.3310185853
83333.3310186389
83333.3310186821
83333.3310187179
83333.3310187333
83333.3310213057
83333.3310212076
83333.331021125
83333.331021054
83333.3310209935
83333.3310209419
83333.3310208995
83333.331020867
83333.3310208449
83333.3310208325
83333.3310208285
83333.3310208296
83333.3310208293
83333.3310208285
83333.3310208302
83333.3310208351
83333.3310208402
83333.3310208371
83333.3310250809
83333.331024829
83333.3310246027
83333.3310243986
83333.3310242124
83333.331024041
83333.3310238822
83333.3310237356
83333.3310236014
83333.3310234795
83333.3310233698
83333.3310232708
83333.3309844258
83333.3309858627
83333.3309857569
83333.3309874457
83333.3309873067
83333.3309870992
83333.3309891701
83333.3309889988
83333.3309887589
83333.3309884317
83333.3309910259
83333.3309908251
83333.330990551
83333.3309901982
83333.3309897564
83333.3309929999
83333.330992779
83333.3309924748
83333.330992085
83333.3309916342
83333.3309911029
83333.3309950875
83333.3309948476
83333.3309945278
83333.3309940958
83333.3309936144
83333.3309930941
83333.330992504
83333.3309972894
83333.3309970165
83333.3309966811
83333.3309962312
83333.3309957097
83333.3309951732
83333.3309946121
83333.3309939884
83333.3309995673
83333.3309992567
83333.3309989082
83333.330998454
83333.330997919
83333.3309973559
83333.330996798
83333.3309962178
83333.3309955826
83333.3310018354
83333.3310015245
83333.3310011779
83333.3310007288
83333.3310002046
83333.3309996378
83333.3309990722
83333.330998515
83333.3309979341
83333.3309973067
83333.3310040401
83333.3310037674
83333.3310034483
83333.3310030243
83333.3310025298
83333.3310019853
83333.3310014292
83333.3310008855
83333.3310003463
83333.3309997832
83333.3309991796
83333.3310012193
83333.3310017843
83333.3310023126
83333.3310028182
83333.3310033235
83333.3310038423
83333.3310043656
83333.3310048668
83333.3310053149
83333.3310056926
83333.3310059678
83333.3310061893
83333.3310034428
83333.331003954
83333.331004433
83333.3310048899
83333.3310053439
83333.3310058088
83333.3310062844
83333.3310067549
83333.3310071968
83333.3310075852
83333.3310079085
83333.3310081411
83333.3310082822
83333.3310058655
83333.3310063077
83333.3310067233
83333.3310071185
83333.3310075098
83333.3310079092
83333.3310083205
83333.3310087359
83333.3310091388
83333.3310095101
83333.3310098308
83333.3310100858
83333.3310102468
83333.3310103395
83333.3310085012
83333.3310088597
83333.3310091977
83333.3310095195
83333.3310098379
83333.3310101627
83333.3310104984
83333.3310108423
83333.3310111842
83333.3310115098
83333.3310118038
83333.3310120499
83333.3310122259
83333.3310123635
83333.3310124383
83333.3310113629
83333.3310116231
83333.3310118701
83333.331012107
83333.3310123432
83333.3310125851
83333.3310128363
83333.3310130968
83333.3310133618
83333.3310136215
83333.3310138643
83333.331014078
83333.3310142469
83333.3310143783
83333.3310144833
83333.3310145404
83333.3310144595
83333.3310146087
83333.3310147535
83333.3310148952
83333.3310150397
83333.33101519
83333.3310153484
83333.3310155161
83333.3310156916
83333.3310158697
83333.3310160427
83333.3310162019
83333.3310163374
83333.3310164466
83333.3310165339
83333.3310166041
83333.3310166417
83333.3310177982
83333.331017827
83333.3310178607
83333.3310178982
83333.3310179413
83333.3310179908
83333.3310180479
83333.3310181142
83333.3310181901
83333.3310182736
83333.331018361
83333.3310184477
83333.3310185256
83333.3310185903
83333.3310186445
83333.3310186898
83333.3310187259
83333.3310187426
83333.3310214252
83333.3310213112
83333.3310212158
83333.3310211338
83333.3310210626
83333.3310210005
83333.3310209471
83333.3310209036
83333.3310208709
83333.331020849
83333.3310208371
83333.3310208324
83333.3310208289
83333.3310208266
83333.3310208275
83333.3310208317
83333.3310208381
83333.3310208435
83333.3310208408
83333.3310250879
83333.331024839
83333.3310246155
83333.3310244119
83333.3310242241
83333.3310240498
83333.331023888
83333.3310237388
83333.3310236021
83333.331023478
83333.331023365
83333.330983118
83333.330984436
83333.3309843309
83333.3309859085
83333.3309857693
83333.330985555
83333.3309875295
83333.3309873579
83333.3309871119
83333.3309867709
83333.3309892872
83333.3309890875
83333.330988808
83333.3309884408
83333.3309879775
83333.330991167
83333.3309909495
83333.3309906412
83333.3309902382
83333.3309897645
83333.3309892023
83333.3309931567
83333.3309929321
83333.3309926114
83333.3309921666
83333.3309916616
83333.3309911091
83333.3309904782
83333.3309952767
83333.3309950252
83333.3309946937
83333.3309942303
83333.3309936833
83333.330993112
83333.330992508
83333.330991834
83333.3309975308
83333.3309972187
83333.3309968672
83333.3309963958
83333.3309958306
83333.3309952281
83333.3309946243
83333.3309939912
83333.3309932964
83333.3309998309
83333.3309994828
83333.3309991126
83333.330998631
83333.3309980685
83333.3309974552
83333.3309968381
83333.3309962247
83333.3309955818
83333.3309948859
83333.3310020678
83333.3310017416
83333.3310013755
83333.3310009057
83333.3310003608
83333.3309997611
83333.3309991461
83333.3309985408
83333.3309979363
83333.3309973024
83333.3309966216
83333.3310042244
83333.3310039489
83333.3310036215
83333.3310031867
83333.3310026778
83333.331002112
83333.3310015219
83333.331000935
83333.3310003597
83333.3309997806
83333.3309991731
83333.3309985225
83333.3310006064
83333.3310012112
83333.3310017773
83333.3310023154
83333.3310028465
83333.3310033866
83333.331003937
83333.3310044816
83333.3310049952
83333.3310054503
83333.3310058347
83333.3310061145
83333.3310062937
83333.3310028898
83333.3310034334
83333.3310039436
83333.3310044269
83333.3310049012
83333.3310053815
83333.3310058734
83333.3310063694
83333.3310068516
83333.3310072983
83333.3310076873
83333.3310080016
83333.3310081997
83333.3310083153
83333.3310053878
83333.3310058551
83333.3310062947
83333.3310067105
83333.3310071172
83333.3310075276
83333.3310079485
83333.331008378
83333.3310088047
83333.3310092119
83333.3310095818
83333.3310098939
83333.3310101193
83333.3310102944
83333.3310103925
83333.3310081142
83333.3310084904
83333.3310088453
83333.3310091814
83333.3310095105
83333.3310098422
83333.3310101829
83333.3310105332
83333.3310108876
83333.3310112342
83333.3310115589
83333.331011846
83333.3310120749
83333.3310122536
83333.3310123958
83333.3310124765
83333.331011082
83333.3310113522
83333.3310116088
83333.3310118538
83333.3310120957
83333.3310123405
83333.3310125926
83333.3310128543
83333.3310131234
83333.3310133932
83333.3310136534
83333.3310138922
83333.3310140964
83333.3310142629
83333.3310143963
83333.3310145035
83333.3310145645
83333.331014299
83333.3310144507
83333.3310145982
83333.3310147419
83333.3310148867
83333.3310150356
83333.3310151911
83333.3310153556
83333.3310155291
83333.3310157086
83333.3310158882
83333.3310160598
83333.3310162145
83333.331016346
83333.3310164549
83333.3310165446
83333.3310166157
83333.3310166554
83333.3310177767
83333.3310177983
83333.3310178269
83333.3310178597
83333.3310178976
83333.3310179411
83333.3310179913
83333.3310180502
83333.3310181191
83333.3310181974
83333.3310182824
83333.3310183706
83333.3310184542
83333.331018528
83333.3310185924
83333.3310186479
83333.3310186949
83333.3310187311
83333.3310187488
83333.3310214308
83333.3310213198
83333.3310212255
83333.3310211429
83333.3310210696
83333.3310210048
83333.3310209498
83333.3310209057
83333.3310208731
83333.3310208519
83333.3310208396
83333.3310208305
83333.3310208247
83333.3310208236
83333.3310208266
83333.3310208325
83333.3310208401
83333.3310208458
83333.3310208436
83333.3310250982
83333.3310248541
83333.3310246311
83333.3310244258
83333.331024235
83333.3310240574
83333.3310238926
83333.3310237406
83333.3310236013
83333.3310234735