/*--------------------------------*- C++ -*----------------------------------*\
  =========                 |
  \\      /  F ield         | OpenFOAM: The Open Source CFD Toolbox
   \\    /   O peration     | Website:  https://openfoam.org
    \\  /    A nd           | Version:  12
     \\/     M anipulation  |
\*---------------------------------------------------------------------------*/
/*   Windows 32 and 64 bit porting by blueCAPE: http://www.bluecape.com.pt   *\
|  Based on Windows porting (2.0.x v4) by Symscape: http://www.symscape.com   |
\*---------------------------------------------------------------------------*/
FoamFile
{
    format      ascii;
    class       surfaceScalarField;
    location    "500";
    object      phi;
}
// * * * * * * * * * * * * * * * * * * * * * * * * * * * * * * * * * * * * * //

dimensions      [0 3 -1 0 0 0 0];

internalField   nonuniform List<scalar> 
28828
(
1.91165102508238e-06
-8.54004316601256e-09
2.97749094081751e-09
1.91453415792728e-06
-1.77662296737622e-09
-1.09447034617475e-09
1.824999266346e-06
-1.67432883756977e-08
4.50040291986832e-09
1.87776197946385e-06
-8.47014096975653e-09
1.03292641105067e-08
1.91481342901048e-06
5.1186881337703e-09
-5.40308894920788e-09
1.82781830150514e-06
-4.39832385971235e-09
-1.88580741525121e-10
1.87945100632845e-06
-2.5653390961906e-09
-2.10906873283412e-10
1.83297198997763e-06
-2.64910307313507e-08
4.54007434082544e-09
1.47688150870781e-06
-1.4165202951343e-08
1.16273213544826e-08
1.92589705461382e-06
-5.67276134584569e-09
1.64054353922107e-08
1.91181155814532e-06
1.30884576608545e-08
-1.01016389495693e-08
1.82816949195713e-06
9.43730275331174e-09
-4.67977876028684e-09
1.88042172566354e-06
3.94986580666392e-09
-1.03330061009111e-08
1.83527881955045e-06
-7.17991685752853e-09
4.68259015845211e-10
1.47973851546115e-06
-5.12546748758242e-09
-4.87737568483569e-10
1.92697296419204e-06
-5.07842830467152e-10
-7.69469086836458e-10
1.90311998379045e-06
-3.68739912545928e-08
2.65705362352524e-09
1.26331772848805e-06
-1.81310884544126e-08
7.67354764868228e-09
1.2231391929237e-06
-5.85006854309391e-09
1.54636942016756e-08
2.02556841569344e-06
-2.96894762991475e-09
1.92212213549717e-08
1.90547725015317e-06
2.1395480389026e-08
-1.50389611599497e-08
1.82610366110675e-06
2.53784678063502e-08
-1.02388964399165e-08
1.8796961498477e-06
1.16442078816307e-08
-2.1030376225971e-08
1.83413223459293e-06
1.39238147991567e-08
-3.35182230674466e-09
1.48262543900883e-06
6.87319518378705e-09
-1.05039053071585e-08
1.92770091438087e-06
5.27094577049455e-09
-1.63220801552343e-08
1.90567544080496e-06
-9.24083681548505e-09
-4.9481171181246e-10
1.26511420656094e-06
-4.79430265417836e-09
-1.63969950823056e-09
1.22303828256465e-06
-1.70234363407324e-10
-7.28558451722439e-10
2.02621233561414e-06
8.32384604910013e-10
-2.24737686486327e-09
1.97226989674954e-06
-4.66650239859133e-08
4.71058450822545e-10
1.06486415423415e-06
-1.99733140330288e-08
3.41742834160544e-09
3.10394514800835e-07
-1.8525311716332e-09
8.94156696854481e-09
8.9942920193764e-07
1.27172069450296e-09
1.49504449118607e-08
2.09197363493068e-06
4.2142495930735e-11
1.88834147323058e-08
1.89592039134415e-06
2.97783698808561e-08
-2.02382107591238e-08
1.82143208887474e-06
4.17981170515795e-08
-1.57281372767199e-08
1.87687406672472e-06
1.9826756701109e-08
-3.20635505955841e-08
1.83049123664275e-06
3.70879128097775e-08
-8.07433226438406e-09
1.48541494945802e-06
2.08308942899488e-08
-2.22133829678329e-08
1.92674436446419e-06
1.23760856588014e-08
-3.24280719631897e-08
1.9030286290883e-06
1.92131247921065e-08
-2.66448681043458e-09
1.26611245819651e-06
1.11998338858797e-08
-8.69406293247253e-09
1.22437119140742e-06
7.88673522233849e-09
-1.44642795789273e-08
2.02568258739609e-06
6.6368007697184e-09
-2.24391209706256e-08
1.97584183570017e-06
-1.12471763032588e-08
-1.57197644682239e-09
1.0664158817305e-06
-3.23398151316484e-09
-3.61980490586049e-09
3.08056899654437e-07
2.2378359223415e-09
-1.69967111017897e-09
8.97742182339672e-07
3.16608116220774e-09
-1.39191538165226e-09
2.09185600817317e-06
2.46847082514119e-09
-4.58691335665092e-09
2.01122756294659e-06
-5.54396059727e-08
-1.35877392856724e-09
9.24469299854076e-07
-2.03061701700992e-08
2.96144094506424e-10
1.40994914297658e-08
1.49591638445813e-09
3.80048378862561e-09
-8.50145032078244e-08
6.76618677551591e-09
7.65835381095235e-09
6.62969580508394e-07
5.66852728886006e-09
1.25472062134838e-08
2.08188074743684e-06
1.92655093330422e-09
1.71260644407547e-08
1.88327703607684e-06
3.81685942831696e-08
-2.55389027960218e-08
1.81424007858748e-06
5.83226899158882e-08
-2.13587009475247e-08
1.87187379425218e-06
2.83244362006467e-08
-4.35614090376841e-08
1.82432743349373e-06
6.10673514325935e-08
-1.31264450166784e-08
1.48787502067698e-06
3.55587954857064e-08
-3.39523148786331e-08
1.92414503484138e-06
1.97375353154498e-08
-4.92352974327555e-08
1.89750994239771e-06
4.91539641618225e-08
-6.5484992101178e-09
1.26732257060323e-06
2.89071474824894e-08
-1.74078671103996e-08
1.2264814243744e-06
1.69607633114965e-08
-2.89112662060357e-08
2.0233536955172e-06
1.30984012101957e-08
-4.32176635199108e-08
1.97253140825009e-06
2.39447877843096e-08
-1.43180342443564e-09
1.06820324405117e-06
1.47352118897429e-08
-7.97238790428746e-09
3.09451284503304e-07
8.07550001908084e-09
-1.02849148150189e-08
8.98419926651518e-07
7.67986388964005e-09
-1.62006429411999e-08
2.08969628816756e-06
7.25284164093391e-09
-2.7535213786432e-08
2.01594095766894e-06
-1.35791046908169e-08
-2.36805094816106e-09
9.25883471725699e-07
-1.53269361173343e-09
-4.68310587153229e-09
1.14730975876411e-08
4.92787547582624e-09
-3.6830902724481e-09
-8.86514311683929e-08
6.82259428797846e-09
-1.70814834001528e-09
6.61044797565431e-07
5.28395691558823e-09
-2.28305471535088e-09
2.08088451981655e-06
3.45048346994308e-09
-7.03189821383024e-09
2.02714896045411e-06
-6.37184977602483e-08
-2.68228373763174e-09
8.21245119228816e-07
-1.97371084414429e-08
-1.648870043254e-09
-7.23165077736271e-08
4.6945398496631e-09
4.38959753297887e-10
-3.06271572075107e-07
1.10114750043563e-08
2.95037464491414e-09
-2.15120033111849e-07
1.11552639095137e-08
5.97350285691597e-09
4.9011969994422e-07
7.78687770668982e-09
1.00567296760302e-08
2.00164333269094e-06
2.81976729836987e-09
1.51103954326327e-08
1.86752364541534e-06
4.65423610121164e-08
-3.07940922280784e-08
1.80465617588362e-06
7.48964465028137e-08
-2.7158585293835e-08
1.86485562509247e-06
3.68071913827163e-08
-5.53113798020397e-08
1.81597626874731e-06
8.54606587032464e-08
-1.88054914373704e-08
1.48993734806595e-06
5.08994158291743e-08
-4.60092115307517e-08
1.92005210481945e-06
2.72192966286047e-08
-6.66864015585983e-08
1.88932271893649e-06
8.01516594484972e-08
-1.09344272366295e-08
1.26878436013808e-06
4.75803707415398e-08
-2.65910087092186e-08
1.22952420026399e-06
2.65500969795898e-08
-4.37909974650797e-08
2.01952022833272e-06
1.93078509303539e-08
-6.47406144238765e-08
1.96546340702577e-06
5.96247627777065e-08
-3.429052297629e-09
1.07045418100759e-06
3.37273282807457e-08
-1.36090396545193e-08
3.13550198413123e-07
1.48389177069608e-08
-1.93959016422243e-08
9.0111250800913e-07
1.27521973903419e-08
-3.12611154579729e-08
2.08527898040221e-06
1.22868234193344e-08
-5.10995082111e-08
2.01283426733304e-06
2.74207020316421e-08
-3.91987139415949e-10
9.28388150121778e-07
1.75326435793936e-08
-6.75196894532497e-09
1.1665209655899e-08
9.13111868251405e-09
-9.23252922869459e-09
-8.95837602004102e-08
8.24233110945042e-09
-9.92141848134345e-09
6.61152754348635e-07
7.38268120678997e-09
-1.64408513504944e-08
2.07733271901566e-06
7.24543613379325e-09
-3.12517064981297e-08
2.0327768287569e-06
-1.63094634958897e-08
-2.91436129812656e-09
8.22367336656014e-07
3.81595590331114e-11
-5.06252059364876e-09
-7.50072370541839e-08
7.73612530214579e-09
-4.8047666662038e-09
-3.09795533067973e-07
1.00691419144419e-08
-3.4096724584609e-09
-2.19012754705999e-07
9.38758791720764e-09
-1.92344959925128e-09
4.87890339404966e-07
6.32839069587225e-09
-2.93078390446035e-09
1.99976371386492e-06
3.89995088467099e-09
-9.05507970641859e-09
2.03594265740625e-06
-7.17582434550504e-08
-3.76908709239584e-09
7.44431367011869e-07
-1.8673650686946e-08
-2.76248316321114e-09
-9.7070958870612e-08
7.97759427835918e-09
-1.51993332663759e-09
-3.47146355332788e-07
1.479725129025e-08
-3.49328511869714e-11
-3.96996678169104e-07
1.55491635498457e-08
2.04677777354423e-09
-2.63854824685635e-07
1.31335155794862e-08
4.58202667007094e-09
3.57206947701065e-07
8.59670590847774e-09
7.97109342737779e-09
1.87565364222748e-06
3.00052072295886e-09
1.34565682336559e-08
1.8485266558289e-06
5.48055256803671e-08
-3.58185953816974e-08
1.7927488829206e-06
9.14722093334834e-08
-3.30184376535077e-08
1.85595281915667e-06
4.52131336236182e-08
-6.7106355879784e-08
1.80563327841838e-06
1.09993346221027e-07
-2.47453992877433e-08
1.4917434512022e-06
6.63279258578625e-08
-5.8506531905449e-08
1.91457592255837e-06
3.47667608690836e-08
-8.46243712907209e-08
1.8788386748357e-06
1.11616922678825e-07
-1.56753947613619e-08
1.27055645371203e-06
6.69441166621902e-08
-3.66133870394352e-08
1.23339140054091e-06
3.65257718128922e-08
-5.92053220615972e-08
2.01439892496143e-06
2.54492932142114e-08
-8.70017360139592e-08
1.9555377651156e-06
9.63538632523599e-08
-6.27028300239612e-09
1.07329568848334e-06
5.37488557161398e-08
-1.99672536127667e-08
3.20085898302864e-07
2.21882669092088e-08
-2.87793533570107e-08
9.05676503552497e-07
1.77594477813457e-08
-4.68140389535406e-08
2.07916911751457e-06
1.70330718778101e-08
-7.56799562996413e-08
2.00495557297442e-06
6.81924845421016e-08
-7.02704498450307e-10
9.31357254289848e-07
3.70837316525809e-08
-9.79680024090814e-09
1.40008410237948e-08
1.38543876145398e-08
-1.49748071635687e-08
-8.81529544490957e-08
1.00972234224985e-08
-1.81652010498902e-08
6.63216552483983e-07
9.78410080699464e-09
-3.08277540861807e-08
2.07106412566075e-06
1.13090952557865e-08
-5.61542878854119e-08
2.02997700379256e-06
2.99805993630245e-08
2.38519434617906e-10
8.25342819003918e-07
1.97028312509126e-08
-5.54463924084859e-09
-7.53544016121732e-08
1.09336887514107e-08
-8.22050556720475e-09
-3.11594519950887e-07
9.59534790880479e-09
-8.79264848677712e-09
-2.21077757099332e-07
8.76852748933412e-09
-9.25003458103111e-09
4.87348229184467e-07
7.04815190111508e-09
-1.57113131218553e-08
1.99506256019746e-06
7.09745454375307e-09
-3.36453491369578e-08
2.04236637591311e-06
-1.93781394355444e-08
-3.36753249578787e-09
7.45209277082882e-07
1.47986788874909e-09
-5.14064820504431e-09
-9.98434492862053e-08
1.05699400141051e-08
-5.12905736506074e-09
-3.50525081031708e-07
1.30996539630533e-08
-4.46152579818746e-09
-4.00703288011004e-07
1.28386479727688e-08
-3.15578541377384e-09
-2.67915042662708e-07
1.04615157971299e-08
-1.99162378868054e-09
3.54649832657509e-07
6.70164145732181e-09
-3.16633422514503e-09
1.87291895919039e-06
4.04414157692931e-09
-1.03476034451199e-08
2.04986477767438e-06
-7.97607568309956e-08
-4.68691793756406e-09
6.89847189522344e-07
-1.74677006009948e-08
-3.43718282977516e-09
-9.81933277434972e-08
1.12270153801649e-08
-2.52284310637971e-09
-3.38478931501924e-07
1.84477225160715e-08
-1.7481468490215e-09
-4.2437158311499e-07
1.94197048323852e-08
-4.31764969725641e-10
-4.16530780406827e-07
1.75246953289963e-08
1.41483566602689e-09
-2.82386565362288e-07
1.38331181485839e-08
3.51284556175467e-09
2.53140789326801e-07
8.65401592344574e-09
6.2899565603942e-09
1.72894399842566e-06
2.94174362665032e-09
1.23957408116363e-08
1.8260558931522e-06
-4.04017679636269e-08
6.28742582757089e-08
1.77840901704767e-06
1.07877459184992e-07
-3.87346807240881e-08
1.84515832747968e-06
5.35068561620245e-08
-7.85339072877405e-08
1.79308870172038e-06
1.34382187905559e-07
-3.03862287589744e-08
1.49355945440518e-06
8.1555564009792e-08
-7.11656716240725e-08
1.9079789450223e-06
4.22960823298196e-08
-1.02770017300875e-07
1.86612604906027e-06
1.43154498015132e-07
-2.04365568046417e-08
1.27269342043391e-06
8.65267453220312e-08
-4.7084658517863e-08
1.23816205570583e-06
4.65947981561297e-08
-7.51085586888372e-08
2.00828980547877e-06
3.14339687319622e-08
-1.09965182575724e-07
1.94306661822642e-06
1.3357353160797e-07
-9.50908945578866e-09
1.07686327835528e-06
7.43988961055263e-08
-2.67000009055315e-08
3.28709591390844e-07
2.98090742665993e-08
-3.85210024341751e-08
9.12020047157272e-07
2.28052587282764e-08
-6.29321587084117e-08
2.07178407196903e-06
2.17156482534758e-08
-1.01325164698168e-07
1.99370764340311e-06
1.10052589112205e-07
-2.47046811445837e-09
9.34970384717331e-07
5.74725738738276e-08
-1.36502787078534e-08
1.81935824496613e-08
1.89573348385632e-08
-2.09392567035822e-08
-8.47195777220968e-08
1.20491574813866e-08
-2.64988624820559e-08
6.67246052386989e-07
1.18441493540848e-08
-4.56535128098394e-08
2.06279978164178e-06
1.48455851305153e-08
-8.22590338090941e-08
2.02179492748876e-06
7.58070241167273e-08
5.60540469608404e-10
8.2889596942307e-07
3.95928038996795e-08
-6.78143172765032e-09
-7.39238101216979e-08
1.42817132390194e-08
-1.16573453882459e-08
-3.11688033222837e-07
9.26451821753458e-09
-1.40516843454253e-08
-2.21278309003971e-07
8.32730863886211e-09
-1.6512695005768e-08
4.88616293412533e-07
7.92986771447185e-09
-2.87341056515767e-08
1.98733711267058e-06
1.04144031137027e-08
-5.88419803190844e-08
2.0399451157075e-06
3.19481157160289e-08
4.52523076709572e-10
7.48383136099089e-07
2.13477852459034e-08
-4.61082644613148e-09
-1.00440682048765e-07
1.30261091840949e-08
-7.03845723593437e-09
-3.5256839311788e-07
1.13921726583868e-08
-7.98239064709709e-09
-4.03286969150981e-07
1.04451398812285e-08
-7.88775785249913e-09
-2.70567119230442e-07
8.74061439494782e-09
-8.29128961421395e-09
3.53546002685023e-07
6.65817455983265e-09
-1.41775410699014e-08
1.86741936672293e-06
6.52140930593859e-09
-3.46632054992433e-08
2.05711513472588e-06
-2.27904892521809e-08
-3.84641645428866e-09
6.90244127763582e-07
2.79657530199434e-09
-5.09288205679283e-09
-1.01043836947886e-07
1.33409658707003e-08
-5.06966261178289e-09
-3.41797480398184e-07
1.60909052640694e-08
-4.80008018889915e-09
-4.27885876921427e-07
1.58897595146991e-08
-4.00332679079973e-09
-4.20368371190832e-07
1.39415239656315e-08
-2.79797331677588e-09
-2.86547682720374e-07
1.07141564510143e-08
-1.84514562420247e-09
2.50407075368689e-07
6.62579663480413e-09
-2.99892109153094e-09
1.72552527726403e-06
3.77395210427275e-09
-1.06928264371379e-08
2.07337261813648e-06
-8.78402316089316e-08
-5.4124168772776e-09
6.54756122512823e-07
-1.6291151469968e-08
-3.8390393883292e-09
-8.76300670824467e-08
1.43931922268963e-08
-3.06492949228784e-09
-3.14540487762457e-07
2.20407559609288e-08
-2.65037519525071e-09
-4.07768324261928e-07
2.30810098610006e-08
-1.87533461679973e-09
-4.37301125650396e-07
2.13611270572582e-08
-5.87050495928414e-10
-4.11776496078037e-07
1.82170777155551e-08
9.90858240767779e-10
-2.87719311098777e-07
1.38958093294774e-08
2.58680012160594e-09
1.75814710896092e-07
8.45386566553887e-09
4.89038463177109e-09
1.58190449928677e-06
2.62466029550515e-09
1.19834864545758e-08
1.79966128437868e-06
-4.42934599051917e-08
7.06916193087363e-08
1.8322908695504e-06
-8.91760860865029e-08
6.16364746822638e-08
1.76142962760906e-06
-4.40637284815545e-08
1.2393028841755e-07
1.77820567093894e-06
1.58428668266554e-07
-3.56613374022995e-08
1.49551063277731e-06
9.65892661309296e-08
-8.37858853029634e-08
1.90032678820513e-06
4.97448735666021e-08
-1.20610881152136e-07
1.85101559079109e-06
1.7447648847708e-07
-2.49988573690894e-08
1.2752087009025e-06
1.05996923013513e-07
-5.73318968045351e-08
1.24413399023065e-06
5.64888773473526e-08
-9.13564582220622e-08
2.00163650854298e-06
3.7322832067422e-08
-1.33439009122492e-07
1.92806311708566e-06
1.70899563025848e-07
-1.27460641588674e-08
1.08112197450921e-06
9.53552831849365e-08
-3.35416464084794e-08
3.39379165342393e-07
3.74158059359594e-08
-4.85616159767357e-08
9.20245481690686e-07
2.77356554665115e-08
-7.96423129897293e-08
2.06359408264542e-06
2.62704945853798e-08
-1.28071517384452e-07
1.97948641361974e-06
1.52412317046424e-07
-4.61552982516076e-09
9.39268201814008e-07
7.84156518979946e-08
-1.7838375331083e-08
2.41228836950278e-08
2.42253089739982e-08
-2.70440967871357e-08
-7.94152024305334e-08
1.39458802975001e-08
-3.49692895134884e-08
6.73310219299311e-07
1.37359400128573e-08
-6.10261337103816e-08
2.05308316903269e-06
1.82681670748533e-08
-1.09890119010927e-07
2.0096987661256e-06
1.22280616629928e-07
-1.49674902892582e-10
8.32853902945465e-07
5.99749360296901e-08
-8.95302303489202e-09
-7.10667566810627e-08
1.77664717198861e-08
-1.53181136747346e-08
-3.10214215124429e-07
8.90718569012766e-09
-1.92737135123231e-08
-2.19830664663518e-07
7.68628269772978e-09
-2.37882184016723e-08
4.9168467701932e-07
8.33545656295819e-09
-4.2208480697925e-08
1.97730256565056e-06
1.33234141448978e-08
-8.55564708597477e-08
2.03133734816683e-06
8.26805622811908e-08
1.72013492666954e-09
7.52114536974196e-07
4.11681309061748e-08
-4.78098586046148e-09
-9.94479615423305e-08
1.53935477807389e-08
-8.89375927072756e-09
-3.53229742238291e-07
9.56940185977979e-09
-1.13012951575671e-08
-4.0454990187314e-07
7.99419790096196e-09
-1.24623474671257e-08
-2.71693264489524e-07
7.04909256970085e-09
-1.45060929169801e-08
3.54085383627073e-07
6.67046559140045e-09
-2.55166914277229e-08
1.85853676722858e-06
9.79307153871645e-09
-5.97391638021811e-08
2.05514611481726e-06
3.32096787275829e-08
7.04367144533189e-10
6.93277243221875e-07
2.26205555735073e-08
-3.89345569278174e-09
-1.01822662874937e-07
1.51568430391353e-08
-5.97249910620377e-09
-3.4392149765187e-07
1.34723744575224e-08
-7.00137213899831e-09
-4.3055358078428e-07
1.22570295415114e-08
-7.12917223191809e-09
-4.23338976539109e-07
1.05853166105375e-08
-6.76440362177366e-09
-2.89510699279103e-07
8.37463134219311e-09
-7.04293752714667e-09
2.4876331050795e-07
6.21642317642156e-09
-1.22209918357702e-08
1.71935520057297e-06
5.72934782489271e-09
-3.42167396280485e-08
2.08150892806498e-06
-2.65593650611042e-08
-4.37036117366797e-09
6.54683044810177e-07
4.01432713506531e-09
-5.00311963225802e-09
-9.05907849357403e-08
1.60491852360374e-08
-4.84367441620227e-09
-3.17835178953753e-07
1.90653973621112e-08
-4.74963433657566e-09
-4.11179769527853e-07
1.88197173674122e-08
-4.31843114749186e-09
-4.40907179542853e-07
1.69739755879919e-08
-3.43037972282595e-09
-4.15689751514805e-07
1.41752005349219e-08
-2.34503420570343e-09
-2.91900573984929e-07
1.05571919018425e-08
-1.59470020706238e-09
1.72940457730092e-07
6.36880731700891e-09
-2.71825488450402e-09
1.57797177492465e-06
3.3010823023709e-09
-1.00379422829888e-08
2.10669129328744e-06
-9.60760413635502e-08
-6.05945661017473e-09
6.35934121602429e-07
-1.52880888283558e-08
-4.0798441932196e-09
-6.99578233478691e-08
1.74427436891102e-08
-3.30488099077908e-09
-2.85049879435501e-07
2.55409677643413e-08
-3.08746746975882e-09
-3.78256756611779e-07
2.66276171543287e-08
-2.65735204379357e-09
-4.19066754473124e-07
2.49287849486744e-08
-1.78486430625526e-09
-4.28166423750183e-07
2.2019777574894e-08
-5.78460970168438e-10
-3.98966920642115e-07
1.83017274039593e-08
6.49357150335016e-10
-2.86233443270103e-07
1.36690459974662e-08
1.73612291272699e-09
1.30773793144793e-07
8.15822643497534e-09
3.65758466224463e-09
1.44172904352583e-06
2.01251919615625e-09
1.25123915258219e-08
1.76873965700118e-06
-4.7286425067851e-08
7.82250764465229e-08
1.8169263411423e-06
-9.85552577394405e-08
6.96121700146788e-08
1.74142914230332e-06
-4.87247531877109e-08
1.39420664489655e-07
1.89156496721151e-06
-1.37426394019714e-07
5.70138092262e-08
1.49770860771688e-06
-9.59741589632921e-08
1.1135612199866e-07
1.7607637391742e-06
-4.06116280744215e-08
1.81983021165393e-07
1.83342153030974e-06
2.05407152109055e-07
-2.93942055470464e-08
1.27812294166073e-06
1.25371004433161e-07
-6.73314665984817e-08
1.25150412605863e-06
6.6262282283485e-08
-1.07691117636429e-07
1.99469372760557e-06
4.32069886450325e-08
-1.56884965398619e-07
1.91037266163364e-06
2.08016933710307e-07
-1.58600475602557e-08
1.08600966256331e-06
1.16414257098306e-07
-4.0300636725103e-08
3.52360668693987e-07
4.49002206277263e-08
-5.87084629845357e-08
9.30633638821664e-07
3.2449089045461e-08
-9.68419474655114e-08
2.0553252454342e-06
3.07154676372426e-08
-1.55873647012478e-07
1.96236628051006e-06
1.94760012340604e-07
-6.75182809804411e-09
9.4424743084257e-07
9.97117937880838e-08
-2.20775200272487e-08
3.18143835205592e-08
2.94089166276949e-08
-3.32243587259248e-08
-7.217277565799e-08
1.55726020814178e-08
-4.36326316640513e-08
6.81646016221395e-07
1.53745727625862e-08
-7.70852683274845e-08
2.04259425452561e-06
2.17205565411183e-08
-1.39323630280818e-07
1.9940565593727e-06
1.69137372484756e-07
-1.09537820294364e-09
8.37365876820204e-07
8.07466950990918e-08
-1.14473464461132e-08
-6.68550154041981e-08
2.12362694474429e-08
-1.90754795175634e-08
-3.07212289841854e-07
8.36695504580911e-09
-2.44677659471374e-08
-2.16722987469205e-07
6.77584242189876e-09
-3.11135765311049e-08
4.96747832574509e-07
8.45482868691601e-09
-5.62667966796231e-08
1.96555184749055e-06
1.62323073459893e-08
-1.14350268130942e-07
2.01848819553347e-06
1.33722860852957e-07
1.40242839569929e-09
7.5617838292597e-07
6.1489939647136e-08
-5.73138442542632e-09
-9.73078925119959e-08
1.76585305434585e-08
-1.09889669969263e-08
-3.5261495814531e-07
7.53361961457204e-09
-1.4560117977386e-08
-4.04492255751934e-07
5.27476363740545e-09
-1.69232620973036e-08
-2.71445989603874e-07
5.00507526973354e-09
-2.07047659558598e-08
3.5621729431956e-07
6.18199556567283e-09
-3.72069244335254e-08
1.84708836923319e-06
1.23411259287485e-08
-8.64438137242967e-08
2.04607830452487e-06
8.84647514994393e-08
3.23940786849894e-09
6.97156165504871e-07
4.22620314569317e-08
-3.26315710627643e-09
-1.0114499893899e-07
1.67291738412166e-08
-6.79736509336947e-09
-3.44836941886439e-07
1.05633455224058e-08
-8.97429758660634e-09
-4.32168784343542e-07
8.36227805940936e-09
-1.00544271451394e-08
-4.25233975619252e-07
7.06403295260661e-09
-1.05835073312375e-08
-2.91187744276158e-07
5.96725794477388e-09
-1.21306498356297e-08
2.48741151402659e-07
5.74472866007208e-09
-2.14537230944674e-08
1.70974092071383e-06
8.27527772371751e-09
-5.83855575676052e-08
2.0799475925689e-06
3.38937498572739e-08
8.87175392863611e-10
6.57424719151064e-07
2.38446085428124e-08
-3.27873394538641e-09
-9.15644743422216e-08
1.73060947851055e-08
-5.06840162772156e-09
-3.20009455842019e-07
1.57129143000751e-08
-6.04227312232858e-09
-4.1384351011447e-07
1.42487581362091e-08
-6.330685408635e-09
-4.43863503526659e-07
1.24435108969669e-08
-6.02965163784986e-09
-4.18852762382407e-07
1.02900152256539e-08
-5.51475315242304e-09
-2.95015968030304e-07
7.86488851373245e-09
-5.57581595394485e-09
1.71109096501821e-07
5.50917206680832e-09
-1.01605580151064e-08
1.57137703784213e-06
4.73372454529146e-09
-3.23469349798268e-08
2.115773746036e-06
-3.06622549318645e-08
-4.96086534031322e-09
6.35357475917685e-07
5.12455174990346e-09
-4.89912750332653e-09
-7.30617360367004e-08
1.87060504752305e-08
-4.55859935335467e-09
-2.88341001471441e-07
2.20299779420714e-08
-4.51951136151602e-09
-3.8160166304031e-07
2.17256866441552e-08
-4.30996561204568e-09
-4.22529360646899e-07
1.98244572009665e-08
-3.70730829345188e-09
-4.31819798739285e-07
1.71942877024508e-08
-2.79495097137848e-09
-4.02892710056885e-07
1.40099100563374e-08
-1.87057023819695e-09
-2.9032829208934e-07
1.01984974844266e-08
-1.33042139980404e-09
1.27892715978267e-07
5.94546293502364e-09
-2.47275173766658e-09
1.4373584149575e-06
2.49218220048705e-09
-8.13321815636794e-09
2.14844184492131e-06
-1.0462046077662e-07
-6.57619688368457e-09
6.29956268327681e-07
-1.45044837749375e-08
-4.27733131820882e-09
-4.7439790378951e-08
2.03399452500908e-08
-3.3800032537617e-09
-2.52776257151262e-07
2.89465048774444e-08
-3.24669658266816e-09
-3.44514161763079e-07
3.00817676908815e-08
-3.03793664806367e-09
-3.89186748484092e-07
2.83359150709952e-08
-2.464469038735e-09
-4.09858925304822e-07
2.54981195283142e-08
-1.54619601136239e-09
-4.12206585986897e-07
2.20872035882124e-08
-5.02600562274891e-10
-3.83914190039866e-07
1.80721618120333e-08
3.36614323631265e-10
-2.81939433543742e-07
1.33172824402926e-08
9.68490741345952e-10
1.40043042818496e-07
7.81939292446217e-09
2.5474182088459e-09
1.15933677483921e-06
1.57630517439559e-09
1.73251081767667e-06
-4.9247286950937e-08
8.54771271830794e-08
1.79835264318983e-06
-1.06106387401006e-07
7.74166642033401e-08
1.71781050482142e-06
-5.2428216771421e-08
1.54269729792429e-07
1.8813884615802e-06
-1.52213240951458e-07
6.38452349048404e-08
1.50009071879301e-06
-1.0718543590118e-07
1.2571783849247e-07
1.74044555695706e-06
-4.51757631899422e-08
2.04911156323352e-07
1.98774307618198e-06
-1.79253447669107e-07
4.88007554626065e-08
1.26027753096581e-06
-1.2362471356717e-07
7.58697661078671e-08
1.28135739711736e-06
-7.70649404568346e-08
1.44580649372662e-07
1.81317839220192e-06
-3.36367342995453e-08
2.35859396276317e-07
1.88982604725737e-06
2.44751559203057e-07
-1.88024625009145e-08
1.0914880188037e-06
1.3750379107284e-07
-4.70045919256857e-08
3.67842042772487e-07
5.23003870413925e-08
-6.88454843633205e-08
9.43482209733048e-07
3.69382420286413e-08
-1.14272973411885e-07
2.04766267679539e-06
3.50223725750826e-08
-1.84244164368046e-07
1.94235785334031e-06
2.36932530427443e-07
-8.9055677048558e-09
9.49880110369721e-07
1.21189287192205e-07
-2.62438263960881e-08
4.14077647420002e-08
3.43919293545933e-08
-3.93760424736101e-08
-6.28041228468858e-08
1.68095555548546e-08
-5.24391326136408e-08
6.92675206176156e-07
1.66796975935391e-08
-9.38219145851692e-08
2.03233028668991e-06
2.51592331788812e-08
-1.70758880029265e-07
1.97528101908163e-06
2.16078067655521e-07
-2.54789070117343e-09
8.42462282622068e-07
1.01871973763433e-07
-1.40137349458115e-08
-6.12207837106222e-08
2.45282387750485e-08
-2.28240983624762e-08
-3.0263749360195e-07
7.43224737949903e-09
-2.96610402617959e-08
-2.11842313060817e-07
5.43799432107041e-09
-3.85739255785326e-08
5.04218674188676e-07
8.26219444810928e-09
-7.10925558412497e-08
1.95286609397061e-06
1.9340609190333e-08
-1.45967625590759e-07
2.00190022365676e-06
1.8487612210814e-07
8.31803514435207e-10
7.60718353167046e-07
8.21228529954331e-08
-7.01687012481354e-09
-9.40894091349856e-08
1.97438054034183e-08
-1.3177057535444e-08
-3.50729970022289e-07
5.15831180565527e-09
-1.77536829878421e-08
-4.03058978358539e-07
2.16313624645683e-09
-2.12877808783092e-08
-2.69751757184229e-07
2.56608913240131e-09
-2.69239939976197e-08
3.60198767528146e-07
5.37142628413524e-09
-4.9401701839067e-08
1.83358056409668e-06
1.47533470647113e-08
-1.1560427206014e-07
2.03237578298471e-06
1.4397485857125e-07
3.43956721561436e-09
7.01200599561535e-07
6.23024785337725e-08
-3.45790655336923e-09
-9.94798962089758e-08
1.80804965602659e-08
-7.8327742693162e-09
-3.44677245010644e-07
7.27900850765114e-09
-1.08954740231121e-08
-4.3268058293299e-07
4.06683410541802e-09
-1.28421219144658e-08
-4.26018095608024e-07
3.13863721317661e-09
-1.42722146599014e-08
-2.91709217438157e-07
3.13528098796453e-09
-1.71389697605938e-08
2.50167570684905e-07
4.6846046937497e-09
-3.09803030689126e-08
1.69735512031251e-06
1.01698314939646e-08
-8.42202384972497e-08
2.07052326440541e-06
9.35325160776301e-08
4.33841267941356e-09
6.61364835614634e-07
4.34474529493345e-08
-1.87867572610336e-09
-9.11288269509242e-08
1.8210137017616e-08
-5.18829242301809e-09
-3.21098610134344e-07
1.19580940716063e-08
-7.10397298145963e-09
-4.15602861560921e-07
9.27626937995667e-09
-8.12965070472321e-09
-4.4597278747866e-07
7.57387151473942e-09
-8.45957093148756e-09
-4.21105546468245e-07
6.17012250920642e-09
-8.53251672456523e-09
-2.97003408830909e-07
5.02773353739369e-09
-9.42978610702672e-09
1.70668942077224e-07
4.69974476928811e-09
-1.74328231735948e-08
1.56130086608173e-06
6.70961393563045e-09
-5.50100581770343e-08
2.1146544608305e-06
3.40502119842581e-08
9.67427941677852e-10
6.37750553313648e-07
2.50789469178363e-08
-2.75722978653976e-09
-7.42645474635794e-08
1.95267710428554e-08
-4.30026568980045e-09
-2.90589206221506e-07
1.80764697020718e-08
-5.18565166428362e-09
-3.84260629019269e-07
1.64104439325955e-08
-5.54604898719947e-09
-4.25424316516771e-07
1.43933928577444e-08
-5.38455687934048e-09
-4.34913783834164e-07
1.21980357434802e-08
-4.84361146167848e-09
-4.06140286340668e-07
9.8128408434987e-09
-4.2156651089309e-09
-2.93518487385295e-07
7.22966199654354e-09
-4.10909496660114e-09
1.26025444304926e-07
4.64153047688166e-09
-8.20258680461565e-09
1.43040023926472e-06
3.68814043064854e-09
-2.90674543201882e-08
2.15847965176314e-06
-3.51818790144351e-08
-5.52364557485897e-09
6.28844306727192e-07
6.12720038761196e-09
-4.85504385476589e-09
-5.06992977419113e-08
2.13247172096415e-08
-4.2583780466137e-09
-2.56093490261189e-07
2.49984891723625e-08
-4.20806987142436e-09
-3.47820112080497e-07
2.46415815691925e-08
-4.13056599537764e-09
-3.92547813946159e-07
2.26173075156571e-08
-3.7415386215095e-09
-4.13335270152812e-07
1.99924063117291e-08
-3.02776900804991e-09
-4.15860094607944e-07
1.70275612417534e-08
-2.15920368935127e-09
-3.87790223270891e-07
1.36367167509111e-08
-1.43118678083426e-09
-2.85919340998244e-07
9.71751620185813e-09
-1.12009405371245e-09
1.36999205059861e-07
5.26608306540123e-09
-2.19554377116181e-09
1.15461006027124e-06
1.44746890986377e-09
-4.84229396976553e-09
2.19724237171091e-06
-1.13572296242401e-07
-7.04756278422968e-09
6.33835143662008e-07
-1.39763801982293e-08
-4.36660611489535e-09
-2.14593487918717e-08
2.30564133388725e-08
-3.36443330647644e-09
-2.18748188865987e-07
3.22467347324942e-08
-3.23850643598744e-09
-3.08795095236798e-07
3.34568245723402e-08
-3.16664059832927e-09
-3.55364025309779e-07
3.1632295367501e-08
-2.81208762863371e-09
-3.80846541895065e-07
2.8773779054782e-08
-2.13151593821872e-09
-3.94141541859979e-07
2.54978983677013e-08
-1.23986399130752e-09
-3.94529245413842e-07
2.18302080633993e-08
-4.05890478424236e-10
-3.70275308806329e-07
1.76553386230667e-08
8.2947785560914e-11
-2.82199613317478e-07
1.28971632144616e-08
4.26745333301166e-10
2.20480929022483e-07
7.67287215858857e-09
1.6903415024209e-06
-5.02835953516683e-08
9.24576718694101e-08
1.7755346143957e-06