/*--------------------------------*- C++ -*----------------------------------*\
  =========                 |
  \\      /  F ield         | OpenFOAM: The Open Source CFD Toolbox
   \\    /   O peration     | Website:  https://openfoam.org
    \\  /    A nd           | Version:  12
     \\/     M anipulation  |
\*---------------------------------------------------------------------------*/
/*   Windows 32 and 64 bit porting by blueCAPE: http://www.bluecape.com.pt   *\
|  Based on Windows porting (2.0.x v4) by Symscape: http://www.symscape.com   |
\*---------------------------------------------------------------------------*/
FoamFile
{
    format      ascii;
    class       volVectorField;
    location    "500";
    object      U;
}
// * * * * * * * * * * * * * * * * * * * * * * * * * * * * * * * * * * * * * //

dimensions      [0 1 -1 0 0 0 0];

internalField   nonuniform List<vector> 
10103
(
(-3.71290291449668e-07 -1.78618614745266e-07 -2.50450240284822e-05)
(-7.27322846859971e-07 -5.65328852652728e-08 -2.65530555141486e-05)
(-1.23436467318422e-06 -1.53848245201916e-06 -0.000170791802831993)
(-2.34398548381641e-06 5.53411239950547e-07 -0.000213973871719044)
(-5.45293398562767e-07 -2.23595679555262e-07 -2.79194718840783e-05)
(-1.50032817535922e-06 -2.09278659659002e-06 -0.000173008623948037)
(-1.96770830522002e-06 1.7642709020324e-07 -0.000216890079652433)
(-1.99142022472389e-06 -2.7596990819198e-06 -0.000184461693400678)
(-3.7043023732148e-06 -4.19178308882009e-07 -0.000484252745747751)
(-4.87040338546041e-06 1.31463144245227e-06 -0.000258871693393118)
(-1.66049124454826e-07 -2.93170580771318e-07 -2.76742574133527e-05)
(-8.66987763498385e-07 -2.40529684570548e-06 -0.000174237084696428)
(-1.09976464325045e-06 -7.70694708127379e-07 -0.000218403416683634)
(-1.8572589216498e-06 -4.13606420186413e-06 -0.00018666538555314)
(-2.3156909236989e-06 -2.83606520386568e-06 -0.000488198594481963)
(-2.77354878878547e-06 9.43137365582049e-08 -0.000262327189418167)
(-1.9260264892469e-06 -4.13541263884563e-06 -0.000169854230397681)
(-3.32546073131168e-06 1.31842465301355e-07 -0.000435273422749312)
(-5.50144706979399e-06 2.34833133724128e-06 -0.000460252212239255)
(-5.91325602339349e-06 1.53901162320064e-06 -0.000259424150805819)
(6.57919449345342e-08 -2.95227105811507e-07 -2.64242000209427e-05)
(-1.62963740714674e-07 -2.12269619116764e-06 -0.000173149120068784)
(1.65737209245719e-07 -1.25115669173717e-06 -0.000217238616890394)
(-8.77407484409643e-07 -4.37818422264495e-06 -0.000188294324715046)
(-7.15631482432142e-07 -4.50274623327114e-06 -0.000489090418334159)
(-1.06360990285627e-06 -1.59716768633503e-06 -0.000263849062569408)
(-1.64323790764861e-06 -5.16303969490975e-06 -0.00017175354425781)
(-2.31894930146846e-06 -3.24626823145828e-06 -0.000439418749997183)
(-2.43693497301244e-06 -2.5183759885607e-08 -0.000465451634326885)
(-2.81029264533993e-06 1.10707815387876e-07 -0.000262939465764566)
(-1.5512666464118e-06 -4.81825935686291e-06 -0.000149554774212624)
(-2.11866212556126e-06 6.9037189832667e-07 -0.000376723892703087)
(-3.14109671604528e-06 3.63766669952751e-06 -0.00044132719886618)
(-5.05296045217789e-06 4.04345361154289e-06 -0.000410629557657449)
(-5.98793235290451e-06 2.12523303308888e-06 -0.000243655600330045)
(2.94028745847209e-07 -2.5461785598146e-07 -2.47588438719801e-05)
(1.54973808050574e-07 -1.73072055501147e-06 -0.000170574086244242)
(1.30456186755413e-06 -1.50751627559479e-06 -0.000214093756541571)
(-1.26946357136308e-08 -3.60243459138949e-06 -0.000187382347934089)
(1.60031300350825e-06 -5.54085499290288e-06 -0.000486630513380025)
(7.97397568250502e-07 -2.42550831178759e-06 -0.000262770859793163)
(-5.89637332755949e-07 -5.0656619400099e-06 -0.000173715571913799)
(-7.20498525025988e-07 -5.20381307339277e-06 -0.000441801083751844)
(3.49049232768566e-08 -2.33221810843164e-06 -0.000468073315025483)
(-6.00105672720638e-07 -1.3407526973886e-06 -0.0002647036536189)
(-1.30916826055713e-06 -4.96812514607072e-06 -0.000151060750969467)
(-1.3979986484536e-06 -2.22212079079633e-06 -0.000381064886325359)
(-1.28485182142653e-06 6.87941332983148e-07 -0.000446745024011201)
(-1.86306581018861e-06 1.85293382812518e-06 -0.000415907650720221)
(-2.60469820243473e-06 7.54862744260479e-07 -0.000247242730080754)
(-9.90943733719725e-07 -4.73805768379907e-06 -0.000131744964583358)
(-1.0988672683491e-06 2.11730503687584e-06 -0.000334961237759703)
(-1.39002464373685e-06 4.9413917681382e-06 -0.000393963905477497)
(-2.50118649946475e-06 5.48196963983124e-06 -0.000401838195788174)
(-4.27476330854049e-06 4.82721029660229e-06 -0.000374136810792621)
(-5.65890357962056e-06 2.33933565989057e-06 -0.000225098871468024)
(5.10551121664291e-07 -1.98643569317131e-07 -2.27286508952271e-05)
(4.70250848651594e-07 -1.33324886094043e-06 -0.000167098853157863)
(2.37701391063608e-06 -1.6887748445564e-06 -0.000210038604311185)
(5.13820352329302e-07 -2.73105732947964e-06 -0.000185359739707603)
(3.27789826971285e-06 -6.096979471523e-06 -0.00048194661972587)
(2.63204670120954e-06 -2.9685073726203e-06 -0.000259659446430444)
(2.84476113017902e-07 -4.25076153346873e-06 -0.000173247776964485)
(9.35344994020041e-07 -6.06516822278319e-06 -0.000441082185034375)
(2.56420881919394e-06 -3.90128794820539e-06 -0.000467634726029579)
(1.65847768406692e-06 -2.06792250398962e-06 -0.000264182765601423)
(-3.72765171515305e-07 -4.70523917487365e-06 -0.000152978898981642)
(-2.40896446270662e-07 -4.04289937788768e-06 -0.000383513985097323)
(3.60897309394642e-07 -1.70328186650186e-06 -0.000449472046333996)
(4.94484596645136e-07 -3.65143248717958e-07 -0.00041900818795747)
(8.1292215169569e-10 -5.52958516774727e-07 -0.000249339602247298)
(-9.39072590034771e-07 -4.2807905906483e-06 -0.000133047402088304)
(-7.03816112776138e-07 -4.93856702434564e-07 -0.000339186822928728)
(-2.3477707125805e-07 1.77958061623965e-06 -0.000398707135762432)
(-5.51247564646052e-07 2.82323599338294e-06 -0.000406720533493247)
(-1.38060821102414e-06 2.80946442544347e-06 -0.000378926014966554)
(-2.24806638953132e-06 1.20020352726817e-06 -0.000228718680601848)
(-6.73671875728006e-07 -4.17319097232259e-06 -0.000116374994827342)
(-4.69018433694026e-07 4.08776747618542e-06 -0.000304061051940745)
(-2.93153836125861e-07 6.68804331923629e-06 -0.000352667059448457)
(-7.92216557551741e-07 6.88082394421028e-06 -0.000357221913463964)
(-1.96246849291708e-06 6.28941743901338e-06 -0.000363200775180189)
(-3.58384139637569e-06 5.01078576257537e-06 -0.000347186312085882)
(-5.09848355550785e-06 2.35933978284232e-06 -0.00020870057082341)
(7.00865451699611e-07 -1.02147063411866e-07 -2.02438556414369e-05)
(7.49002397267325e-07 -9.3745690910679e-07 -0.00016291626938927)
(3.48903731984971e-06 -1.82642435744348e-06 -0.00020508882529124)
(9.73872297234081e-07 -1.88795833193415e-06 -0.000182421873574842)
(4.76988920325141e-06 -6.48273209087643e-06 -0.000475850838565658)
(4.55561585760579e-06 -3.46632460738205e-06 -0.000255539347619515)
(8.82143637434083e-07 -3.26279757949055e-06 -0.000171985212773809)
(2.08331972948089e-06 -6.75376299914778e-06 -0.000438993411716244)
(4.91762308089262e-06 -4.9807578631596e-06 -0.000465488523109951)
(4.06770847326336e-06 -2.70749392718605e-06 -0.00026170499660298)
(5.16202925410244e-07 -3.92544610273631e-06 -0.000153027793350352)
(1.11847501697577e-06 -5.309536343708e-06 -0.000383522762134949)
(2.18139297290035e-06 -3.64968108518101e-06 -0.00044948846666506)
(2.86980506296941e-06 -2.12288985493985e-06 -0.000419485913696613)
(2.57735972336931e-06 -1.56148750215767e-06 -0.00024964495990514)
(-5.29728226760293e-07 -3.85601539732403e-06 -0.000134703864243422)
(-3.4542266529936e-08 -2.56898340054571e-06 -0.000341359221137494)
(8.04694721494384e-07 -9.13245134673239e-07 -0.000401281338636969)
(9.65302738804442e-07 3.65772003297831e-07 -0.000409509461666417)
(8.77604490341354e-07 7.42736850919136e-07 -0.000381967342694162)
(5.60060844162572e-07 8.2184334948549e-08 -0.000231085652949486)
(-7.04362059132143e-07 -3.44471346349289e-06 -0.000117565044297905)
(-2.94568845311537e-07 1.43414708585158e-06 -0.000308129051152964)
(4.13612301392963e-07 3.32501842513014e-06 -0.00035686636425863)
(4.26151414309017e-07 3.86484259845209e-06 -0.000361287696047679)
(-1.66391139336192e-07 3.8131636137125e-06 -0.000367483216541367)
(-1.07562850993338e-06 3.14698725526353e-06 -0.000351563944816404)
(-1.88028974078448e-06 1.39996570266053e-06 -0.000212312488900798)
(-4.17668221180943e-07 -3.39090341821162e-06 -0.000102425356795444)
(-9.08461193088961e-08 6.25327312830997e-06 -0.000279588710085118)
(3.18893789342007e-07 8.67319821785182e-06 -0.000319410063490954)
(2.3750753341168e-07 8.51556807979057e-06 -0.000319782137872999)
(-4.32008891679725e-07 7.73337858284534e-06 -0.000323405452632903)
(-1.58099311766451e-06 6.49890606393262e-06 -0.000332638191448917)
(-2.9961671094809e-06 4.91844852202458e-06 -0.000326188342815935)
(-4.41953850743591e-06 2.26292258205512e-06 -0.000195504702864111)
(9.0088616319986e-07 2.08206778412911e-08 -1.7311560486132e-05)
(1.02655823725541e-06 -5.2406126012773e-07 -0.000157842100749713)
(4.67265741288218e-06 -1.94351921767485e-06 -0.000199086029335494)
(1.43780208081885e-06 -1.04055056888126e-06 -0.000178595978281356)
(6.39359278166735e-06 -6.95043585396582e-06 -0.00046835254347428)
(6.54308901017774e-06 -3.89313389908274e-06 -0.00025038847442781)
(1.43539431313299e-06 -2.23098798695009e-06 -0.000169854629499347)
(3.57751571121605e-06 -7.21682883849666e-06 -0.000436019736537369)
(7.26668242657438e-06 -6.00323743308495e-06 -0.000462441877452978)
(6.58225095904437e-06 -3.38673417502053e-06 -0.00025828009255104)
(1.04006737446459e-06 -2.95424315521838e-06 -0.000152344206933715)
(2.16959549352118e-06 -6.44929661314229e-06 -0.000382494778039518)
(3.83589983730655e-06 -5.42368734042804e-06 -0.000448274217546083)
(5.26164595057561e-06 -3.65559045441705e-06 -0.00041845443959366)
(5.3026214609228e-06 -2.2987267442625e-06 -0.000248140923929855)
(1.09646446578513e-07 -3.29707372647888e-06 -0.000135111542786219)
(9.4605191360213e-07 -4.38602438083794e-06 -0.000341662474961347)
(1.9823022366068e-06 -3.43712969953204e-06 -0.000401776279406672)
(2.55781565219919e-06 -1.98978765511872e-06 -0.000410182482231012)
(3.08860832388899e-06 -1.10275482132582e-06 -0.000382914780688461)
(3.19248290095078e-06 -7.56759923531112e-07 -0.00023201128053799)
(-4.8182747107827e-07 -2.9853487732041e-06 -0.000118983722517215)
(3.14014299183138e-08 -1.04252887451473e-06 -0.000310081020974964)
(9.8845707295174e-07 1.79005124067526e-07 -0.000359269487200108)
(1.38867235239274e-06 1.01395381287424e-06 -0.000363752371009643)
(1.27281209166014e-06 1.41614362069266e-06 -0.000370173159349694)
(9.94809788254213e-07 1.24556167394351e-06 -0.000354482194891273)
(8.42332389650005e-07 4.57675245992817e-07 -0.000214831617536845)
(-5.15142792878924e-07 -2.55461489507045e-06 -0.000103565853573057)
(-3.60449347812412e-08 3.34085085370617e-06 -0.000283529335044998)
(7.31726761534331e-07 5.03007907831762e-06 -0.00032326851287568)
(9.8623911408119e-07 5.19599601339668e-06 -0.000323321346972757)
(6.97441049796839e-07 4.84837499549974e-06 -0.000326926893266074)
(-4.61891143893005e-08 4.15506224835733e-06 -0.000336515512298243)
(-9.31179364846732e-07 3.17982118363649e-06 -0.000330257399718379)
(-1.56059260902735e-06 1.44713878049019e-06 -0.00019908458500579)
(-2.28679020804248e-07 -2.53972040597727e-06 -8.87671539285743e-05)
(1.29579090015493e-07 8.45141961815946e-06 -0.000258826739612353)
(6.30061184112641e-07 1.07252030329596e-05 -0.000291891852885001)
(7.90506923534762e-07 1.0267338445261e-05 -0.000289392725291095)
(4.94791700496579e-07 9.29237593223776e-06 -0.00029035744355271)
(-2.73864356721024e-07 8.00145611458421e-06 -0.000296421225907827)
(-1.31872181172038e-06 6.43367757083516e-06 -0.000308334680122112)
(-2.45113545816638e-06 4.6358112078645e-06 -0.000308964767953973)
(-3.74655944395455e-06 2.15588759283458e-06 -0.000184595211477709)
(1.13388394012695e-06 1.3865066571038e-07 -1.39306106762123e-05)
(1.30611140518907e-06 -7.66586189862048e-08 -0.000151857225566937)
(5.91617132294902e-06 -2.01953802917802e-06 -0.000192001629354663)
(1.81507524207868e-06 -2.05268370990225e-07 -0.000173798363758563)
(8.10370127085772e-06 -7.49589534167948e-06 -0.00045927364079099)
(8.66141631177135e-06 -4.26527554449358e-06 -0.000244083145488852)
(1.93538551051428e-06 -1.20649330268601e-06 -0.000166875867693065)
(5.24832946835313e-06 -7.72172152006958e-06 -0.000431849067302498)
(9.68143325619223e-06 -7.09125756706178e-06 -0.000458313340231464)
(9.21463022220025e-06 -4.20162164220662e-06 -0.000253860123135713)
(1.54103911728162e-06 -1.95433094913238e-06 -0.000150922788319596)
(3.1024137890788e-06 -7.59996809805359e-06 -0.000380630096485205)
(5.42968277393879e-06 -7.13666320205656e-06 -0.000446236442838207)
(7.66752850601139e-06 -5.12828941523461e-06 -0.000416630608998169)
(8.11297995985482e-06 -2.93817473334532e-06 -0.00024571430154807)
(5.52348413358246e-07 -2.48877474930921e-06 -0.000134822292385488)
(1.72084493192564e-06 -6.11890877696792e-06 -0.000341030536264644)
(3.02051650260732e-06 -5.92947364033921e-06 -0.00040128518909379)
(4.08881261459296e-06 -4.30320394601813e-06 -0.000409822135053095)
(5.3261888828744e-06 -2.8908417579791e-06 -0.000382535012592081)
(5.8788519897781e-06 -1.58623977771938e-06 -0.000231314012738397)
(-4.91014472167892e-08 -2.57626038855591e-06 -0.000119674186771039)
(6.63379372001725e-07 -3.47637062949955e-06 -0.000310445552620744)
(1.70012232812334e-06 -2.92809184179136e-06 -0.000360000509330796)
(2.37999196050754e-06 -1.85248381054174e-06 -0.000364634967240493)
(2.67924691283354e-06 -1.03932689929651e-06 -0.000371223588585131)
(2.94088841917979e-06 -5.85455707215909e-07 -0.000355699453072077)
(3.25665616186606e-06 -2.71315120906033e-07 -0.000216163293769679)
(-4.320491473832e-07 -2.12732205157012e-06 -0.00010477537373724)
(8.5830542248082e-08 3.94594992215224e-07 -0.000285374169326082)
(9.96236661516086e-07 1.41087862104935e-06 -0.000325528285586117)
(1.53281877123606e-06 1.91336454024922e-06 -0.000325579250150757)
(1.60067807380892e-06 2.00890383242779e-06 -0.00032925513598991)
(1.2338276246767e-06 1.84266631398206e-06 -0.000339091031219166)
(8.00961490719741e-07 1.41175469392386e-06 -0.000333022877501852)
(8.25507857211332e-07 6.69238637782659e-07 -0.000201644741017222)
(-3.65796013948071e-07 -1.6735045081344e-06 -8.9908107065922e-05)
(1.04582580263468e-07 5.17068761244205e-06 -0.000262704532272987)
(8.6318328399248e-07 6.75073846947913e-06 -0.000295527908944871)
(1.23808221272485e-06 6.64097731354205e-06 -0.000292621270307811)
(1.18612283167489e-06 6.06298006316166e-06 -0.000293408805143972)
(6.89650472534195e-07 5.21155537963707e-06 -0.000299599292920331)
(-8.84967725671686e-08 4.17868089884881e-06 -0.000311930870710459)
(-8.86759663969384e-07 2.99736741782735e-06 -0.000312776443543629)
(-1.35771418257185e-06 1.46449126448011e-06 -0.000188123621538609)
(-9.14533716050189e-08 -1.68827500162411e-06 -7.5117530573662e-05)
(2.44994552310323e-07 1.06029184531095e-05 -0.000240152693695816)
(7.61260972273333e-07 1.27714634826081e-05 -0.000268123234636077)
(1.05168876122216e-06 1.20570708721631e-05 -0.000263941873999189)
(9.9815255408919e-07 1.08844371514636e-05 -0.000263172613862569)
(5.31029168333258e-07 9.53750404495271e-06 -0.000266653842222838)
(-2.266849750717e-07 7.98565839542896e-06 -0.000274712034116184)
(-1.10991038687712e-06 6.25265735103231e-06 -0.000288272090316571)
(-1.98251165854835e-06 4.39115238604975e-06 -0.00029372663987829)
(-3.11282110851192e-06 2.00361132812265e-06 -0.000174105484361716)
(1.37614410669948e-06 2.67648179443903e-07 -1.01086683568345e-05)
(7.23195465835402e-06 -2.06561605898337e-06 -0.000183787941548846)
(1.60924398642554e-06 4.07349461660748e-07 -0.000144963531212254)
(2.17736689969279e-06 6.08798722864268e-07 -0.00016805326920651)
(9.97915655568427e-06 -8.07872991816352e-06 -0.00044852295684227)
(1.09396091506534e-05 -4.55539423305384e-06 -0.000236558560022049)
(2.34531594829133e-06 -2.2575443536508e-07 -0.000163046018237618)
(6.6367525268034e-06 -8.45728260696573e-06 -0.000426438577899213)
(1.22249607759679e-05 -8.26295992707894e-06 -0.000452916381831986)
(1.20114999542759e-05 -4.99931239077139e-06 -0.00024831516404323)
(1.97313813201131e-06 -1.0021979657525e-06 -0.000148776297946211)
(3.94850407721884e-06 -8.8288662813499e-06 -0.000377814634111131)
(7.00487254766008e-06 -8.95321407562112e-06 -0.000443241179816371)
(1.0113485097388e-05 -6.66967081330775e-06 -0.000413886493312534)
(1.10222066160182e-05 -3.65199162201759e-06 -0.000242397462923414)
(9.65555277107081e-07 -1.65805795175119e-06 -0.00013394460743582)
(2.37093300915339e-06 -7.92775023137178e-06 -0.000339649225034718)
(3.93606621775814e-06 -8.47090705741021e-06 -0.000400061509290313)
(5.53470418415909e-06 -6.63246726454842e-06 -0.000408756778573891)
(7.54431583185634e-06 -4.64239143692358e-06 -0.00038138306241673)
(8.63594510849068e-06 -2.36930934851639e-06 -0.000229834315443312)
(3.25735039391159e-07 -1.98340768417965e-06 -0.000119703713759144)
(1.21485431053537e-06 -5.87382350599414e-06 -0.000309971858397784)
(2.3313939809867e-06 -6.10249787600306e-06 -0.000359877988415275)
(3.29461782403261e-06 -4.79559852460325e-06 -0.000364691985935615)
(4.0341205487353e-06 -3.57193390292129e-06 -0.000371379648429218)
(4.86098250410181e-06 -2.47224106929255e-06 -0.00035573511185382)
(5.66113303575393e-06 -1.0050169362321e-06 -0.000216098622853286)
(-1.51666181266329e-07 -1.79577205996616e-06 -0.000105744942524829)
(4.79302577133917e-07 -2.62946828108135e-06 -0.000285766955278742)
(1.39139090096557e-06 -2.2761270823207e-06 -0.000326358004807124)
(2.09779781563552e-06 -1.45859427222413e-06 -0.000326579852206568)
(2.46305598524541e-06 -9.45177141947229e-07 -0.000330367903311079)
(2.42115644805103e-06 -6.09614647267399e-07 -0.0003403489068654)
(2.35636073420851e-06 -3.9314698334028e-07 -0.000334352358689722)
(2.84239577665916e-06 -7.3482717869428e-08 -0.000203212952575701)
(-3.98626311211294e-07 -1.29020263994319e-06 -9.09340284405173e-05)
(9.31166675232625e-08 1.74191653626198e-06 -0.000264537802561062)
(9.42613903513232e-07 2.67452842487656e-06 -0.000297692044736767)
(1.50455889790435e-06 2.93728212726278e-06 -0.000294737891686155)
(1.70295163707168e-06 2.79450290169854e-06 -0.000295526694092822)
(1.48466651555092e-06 2.41597084142519e-06 -0.000301823212272096)
(9.51518937507432e-07 1.93109139251403e-06 -0.000314386236634653)
(3.57194130720554e-07 1.42190461126458e-06 -0.000315376989187247)
(4.9700475775108e-07 7.59350160560134e-07 -0.000190651473864222)
(-2.36539162442633e-07 -8.24336514906455e-07 -7.62804785794553e-05)
(1.8385410965749e-07 6.92448510590171e-06 -0.000244018089275639)
(8.88848676055032e-07 8.44412052934093e-06 -0.000271620515458423)
(1.31205871546077e-06 8.12040155689907e-06 -0.000266971900116843)
(1.40784035460186e-06 7.34471811483727e-06 -0.000265947270861645)
(1.11877669449312e-06 6.38137854068028e-06 -0.000269404760809234)
(5.40032539193986e-07 5.26227599566573e-06 -0.000277659364384078)
(-2.10473355462925e-07 4.05581574934043e-06 -0.000291648245987163)
(-9.42853894208666e-07 2.81233746446923e-06 -0.000297319531333195)
(-1.36918122168169e-06 1.41295063396375e-06 -0.000177518737390118)
(7.79955476906539e-09 -8.83011112726609e-07 -6.14131971884159e-05)
(3.04281724321971e-07 1.2680476091021e-05 -0.000222742616016473)
(7.9082416877336e-07 1.4782298634436e-05 -0.000246773637060529)
(1.14149185791717e-06 1.38475239944326e-05 -0.00024169407838169)
(1.23439509402014e-06 1.24782614517242e-05 -0.000240032150449908)
(9.82680785669482e-07 1.10453091034898e-05 -0.000241985578515819)
(4.57715724225605e-07 9.52424672616133e-06 -0.000247360298282264)
(-2.17747935839471e-07 7.83943452119487e-06 -0.000256652320821375)
(-9.17872408909261e-07 6.02788085460306e-06 -0.00027097966380878)
(-1.52847440365908e-06 4.1464972925504e-06 -0.00027893674641704)
(-2.66676170131991e-06 1.62975669700184e-06 -0.000159292951954583)
(1.62203725027589e-06 4.16750858281103e-07 -5.82944544582817e-06)
(8.60399946243926e-06 -2.07712598029851e-06 -0.000174384424168864)
(1.89816722216768e-06 9.14908422795139e-07 -0.000137103500746651)
(1.33613602064784e-05 -4.72660700909653e-06 -0.00022773661242132)
(1.19520847794021e-05 -8.6514417485198e-06 -0.00043590062925662)
(2.53499937092565e-06 1.41244005190215e-06 -0.000161354487352427)
(2.71376394859398e-06 6.81301852432541e-07 -0.000158349424527135)
(7.90339630061029e-06 -9.31258683920585e-06 -0.000419668020331936)
(1.49125651526057e-05 -9.46662490319511e-06 -0.000446087171590853)
(1.50390450432651e-05 -5.5786659033586e-06 -0.00024157486488627)
(2.39986545051436e-06 -1.55937751642717e-07 -0.000145861419788974)
(4.64577526711385e-06 -1.02242491736593e-05 -0.00037400043561909)
(8.57077745989102e-06 -1.09533134604364e-05 -0.000439193821887579)
(1.26718685067674e-05 -8.33151397287759e-06 -0.000410108083144683)
(1.41262502671968e-05 -4.40483006176088e-06 -0.000238081691440493)
(1.38576322047234e-06 -9.08848078911875e-07 -0.000132474145386495)
(2.89350211653523e-06 -9.89551356165921e-06 -0.000337450239094488)
(4.76231928239658e-06 -1.11674820862038e-05 -0.000398019893799069)
(6.95194127813807e-06 -9.09343003177851e-06 -0.000406906485080642)
(9.79540310425159e-06 -6.4738712317582e-06 -0.000379436509377081)
(1.14631142820258e-05 -3.15052365055498e-06 -0.000227626988080533)
(6.64010962910399e-07 -1.40860878299449e-06 -0.000119286158169849)
(1.65697068983476e-06 -8.40264056040997e-06 -0.000308861225063998)
(2.84672686743108e-06 -9.40741470661343e-06 -0.000359104024712435)
(4.09895701812603e-06 -7.85504308292801e-06 -0.000364115944783291)
(5.30751347734013e-06 -6.1842597316596e-06 -0.000370903782125456)
(6.74920587338591e-06 -4.38412551732483e-06 -0.000355068802236798)
(8.07945023977858e-06 -1.7783222585612e-06 -0.000215377362143905)
(9.1560360797601e-08 -1.44836548248067e-06 -0.000106060566527992)
(8.55258577494165e-07 -5.68820559354395e-06 -0.000285374798139714)
(1.76480053751877e-06 -6.09269056071327e-06 -0.000326426037674867)
(2.61020897804264e-06 -4.98310807404882e-06 -0.000326863342822232)
(3.25910596725061e-06 -4.06229375177503e-06 -0.000330768537365758)
(3.53990798932309e-06 -3.2178569008301e-06 -0.000340829398714453)
(3.83985107804136e-06 -2.32374753019949e-06 -0.000334671783039023)
(4.77875773937867e-06 -8.91524307138052e-07 -0.000203630816648459)
(-2.60320992180652e-07 -1.04879733624842e-06 -9.21843834229563e-05)
(3.08606983872626e-07 -1.83077344966892e-06 -0.000264976539741197)
(1.1448366810876e-06 -1.53651204891536e-06 -0.000298566007154278)
(1.79009515059921e-06 -9.11538796782279e-07 -0.000295791190196075)
(2.17861855576903e-06 -6.32259864231187e-07 -0.000296688834853616)
(2.20513277563848e-06 -5.46258984376188e-07 -0.000303072788638527)
(1.86581805498772e-06 -5.01700547381159e-07 -0.000315736086792246)
(1.40752468675911e-06 -3.62086604048226e-07 -0.000316757266600008)
(1.95013436386124e-06 1.69790078130769e-08 -0.000192362335897928)
(-3.85007952671081e-07 -4.64188318973537e-07 -7.71459505208006e-05)
(8.15329670309704e-08 3.03726523376803e-06 -0.000245890381382534)
(8.5953809184455e-07 3.94461777421405e-06 -0.000273742083729004)
(1.40669271695271e-06 4.03286221308528e-06 -0.000268990971402448)
(1.66471137161738e-06 3.68651072161894e-06 -0.000267929861290777)
(1.57413244358986e-06 3.15110636013571e-06 -0.000271424291826211)
(1.1761585323074e-06 2.50466639079287e-06 -0.000279788937179222)
(5.1928563508715e-07 1.84774748159126e-06 -0.000293976976423951)
(-2.28704017114585e-07 1.24326931770626e-06 -0.000299751939112844)
(-2.42613046580612e-07 7.26460874423892e-07 -0.000179946816813442)
(-1.17710116497126e-07 -2.57085502337721e-08 -6.26132422050033e-05)
(2.20609959122792e-07 8.61350160556824e-06 -0.000226608527839688)
(8.5709658089977e-07 1.01067930728748e-05 -0.000250185761634437)
(1.29145531034902e-06 9.60753669704936e-06 -0.000244594696103011)
(1.46807971940248e-06 8.65359180331388e-06 -0.000242629961463405)
(1.32595022951255e-06 7.5808170210841e-06 -0.000244481134818292)
(9.22019294047317e-07 6.42338780820254e-06 -0.000249911367527805)
(3.34310846933276e-07 5.16140555961074e-06 -0.000259422574288265)
(-3.61651826848042e-07 3.8550904978246e-06 -0.000274162081963793)
(-1.01945916437418e-06 2.53704590383141e-06 -0.000282329557371885)
(-1.73577828985828e-06 1.04733868292173e-06 -0.000162788617551281)
(9.9118259063909e-08 -1.54953043800366e-07 -4.76674732040654e-05)
(3.60165334960079e-07 1.46581673235181e-05 -0.000206185487989022)
(7.59910104053775e-07 1.67418744109677e-05 -0.000227044708051107)
(1.13205395188997e-06 1.56187667757303e-05 -0.000221462794867735)
(1.31213103528835e-06 1.40644379438156e-05 -0.000219476159584528)
(1.20733089865737e-06 1.25175680396922e-05 -0.000220722286432469)
(8.55696733455075e-07 1.09898539404692e-05 -0.000224608557482129)
(3.4781902484178e-07 9.3819720616273e-06 -0.000231154548658399)
(-2.1147802873055e-07 7.62769460745654e-06 -0.000241006476440681)
(-7.09675979391848e-07 5.77101204647146e-06 -0.000255548547270948)
(-1.03436465591388e-06 3.78009825432382e-06 -0.000262195730592696)
(-1.95494531921225e-06 5.59922252923457e-07 -0.000144591629833611)
(1.84179468905319e-06 5.69091552526842e-07 -1.14725587317579e-06)
(9.96533944999918e-06 -2.04231752400103e-06 -0.00016374364319989)
(2.16409860544177e-06 1.44226815133609e-06 -0.000128222566001433)
(1.58813673863835e-05 -4.82833444054719e-06 -0.000217530434752486)
(1.39092505603342e-05 -9.09724963280546e-06 -0.00042116585772157)
(2.88136148661873e-06 2.21115436910879e-06 -0.000153634662022538)
(1.82681808288107e-05 -6.08518997093188e-06 -0.000233534520437415)
(1.77750650738073e-05 -1.06956907007965e-05 -0.000437677084011225)
(9.20774368307911e-06 -1.02304727331847e-05 -0.000411383909196793)
(3.10363587518089e-06 1.55430696055911e-06 -0.000152723942172872)
(2.78005229027618e-06 5.85643631370201e-07 -0.000142193287855341)
(5.31622482774408e-06 -1.1776927706163e-05 -0.000369124326738239)
(1.01469789449642e-05 -1.30703131032817e-05 -0.000433985037828926)
(1.54338731571561e-05 -1.00608662844178e-05 -0.000405181087672331)
(1.74706039686418e-05 -5.12574861179983e-06 -0.000232667252189571)
(1.91559916195008e-06 -3.05982258187044e-07 -0.000130365133895875)
(3.31063472597773e-06 -1.20794379064188e-05 -0.000334404687876602)
(5.52632036271363e-06 -1.40833651113126e-05 -0.000395104602149916)
(8.37355280312274e-06 -1.17521447486e-05 -0.000404197057198598)
(1.21310127655535e-05 -8.46173170920647e-06 -0.000376607948032754)
(1.44548144292743e-05 -4.04026756170549e-06 -0.000224549948257722)
(9.29718824390826e-07 -9.55749067715652e-07 -0.000118417845440568)
(2.00584373931167e-06 -1.11420353381804e-05 -0.000307032011689847)
(3.25921129452236e-06 -1.293665043968e-05 -0.000357625827200687)
(4.82969530447933e-06 -1.11188394785856e-05 -0.00036286222041929)
(6.54026343051958e-06 -8.96237362622585e-06 -0.000369764837726748)
(8.62941213937974e-06 -6.40477882075459e-06 -0.000353695213707912)
(1.05412956935967e-05 -2.65892969251701e-06 -0.00021404359469114)
(3.27184933807306e-07 -1.12737990890886e-06 -0.000106100394053058)
(1.16946585187865e-06 -8.91369659165698e-06 -0.000284451673142251)
(2.0394743724889e-06 -1.01137003424376e-05 -0.000325913909752202)
(3.02077323298328e-06 -8.70202164952751e-06 -0.000326572303313107)
(3.96171133627064e-06 -7.35691609762897e-06 -0.00033060551495836)
(4.57587719942351e-06 -5.96152445109059e-06 -0.00034075329217194)
(5.25621431285781e-06 -4.3288156941788e-06 -0.000334358474586259)
(6.67503458048601e-06 -1.79104280751863e-06 -0.000203490040382572)
(-9.914408662781e-08 -8.48438789288666e-07 -9.27611379126968e-05)
(5.56414277592723e-07 -5.50837384846325e-06 -0.000264646810121889)
(1.35260459460997e-06 -5.92956314906861e-06 -0.000298760094474534)
(2.04710970463955e-06 -4.96176582769627e-06 -0.000296206248808619)
(2.5988218677314e-06 -4.27220490668971e-06 -0.000297233315677055)
(2.85276804072981e-06 -3.7272265444444e-06 -0.000303705493474849)
(2.68659807346517e-06 -3.14128032835235e-06 -0.000316419452722993)
(2.34533069836253e-06 -2.37693957112046e-06 -0.000317255901779046)
(3.2609181864906e-06 -8.36932847291322e-07 -0.000193097219366391)
(-3.7711080188629e-07 -2.98452559831177e-07 -7.8691394245128e-05)
(1.80490681284074e-07 -1.03347185808814e-06 -0.000246404768978886)
(9.38606884596498e-07 -7.42096011880506e-07 -0.000274660354197698)
(1.52111502605906e-06 -2.41138625042512e-07 -0.000270071945571274)
(1.88728472093763e-06 -1.61183044708834e-07 -0.000269113527127614)
(1.96387374755029e-06 -2.72463528403198e-07 -0.000272680383021466)
(1.72154596166474e-06 -4.51492722881574e-07 -0.000281104442700439)
(1.10673095683587e-06 -5.81198762853348e-07 -0.000295352755933236)
(2.47850843495183e-07 -5.93005749900047e-07 -0.000301102885237275)
(4.59006993161564e-07 -8.25366449970709e-08 -0.000181703972712901)
(-3.62397791898923e-07 3.25201192978451e-07 -6.33181079681494e-05)
(5.22082277372365e-08 4.31550695985716e-06 -0.000228577844665619)
(7.62809666643732e-07 5.222756047286e-06 -0.000252309030196085)
(1.28431292543849e-06 5.17479603931047e-06 -0.000246559642737764)
(1.56413587139468e-06 4.65916948743549e-06 -0.000244521360218629)
(1.55444736317924e-06 3.98026869551754e-06 -0.000246366746173932)
(1.282638985465e-06 3.22685410921874e-06 -0.000251846282938715)
(7.71785854910303e-07 2.42747834859454e-06 -0.000261461879903553)
(1.80502992353919e-08 1.64196709822169e-06 -0.000276366264243367)
(-8.79479375315713e-07 8.92049941406918e-07 -0.000284588480089078)
(-1.59329144631783e-06 2.67330111162656e-07 -0.000165072490073132)
(-2.65005311990874e-08 7.2152735751367e-07 -4.89283426359572e-05)
(2.89628689697972e-07 1.02453951480554e-05 -0.000210071402339614)
(7.95268197785016e-07 1.17455433288119e-05 -0.000230406913565117)
(1.21801270950673e-06 1.10958062643347e-05 -0.000224277916412413)
(1.4399365068351e-06 9.97913984156132e-06 -0.000221956068876025)
(1.39519757370427e-06 8.78946528266282e-06 -0.00022305329157418)
(1.12115171708471e-06 7.58621472108605e-06 -0.000226920206085891)