/*--------------------------------*- C++ -*----------------------------------*\
  =========                 |
  \\      /  F ield         | OpenFOAM: The Open Source CFD Toolbox
   \\    /   O peration     | Website:  https://openfoam.org
    \\  /    A nd           | Version:  12
     \\/     M anipulation  |
\*---------------------------------------------------------------------------*/
/*   Windows 32 and 64 bit porting by blueCAPE: http://www.bluecape.com.pt   *\
|  Based on Windows porting (2.0.x v4) by Symscape: http://www.symscape.com   |
\*---------------------------------------------------------------------------*/
FoamFile
{
    format      ascii;
    class       volScalarField;
    location    "700";
    object      k;
}
// * * * * * * * * * * * * * * * * * * * * * * * * * * * * * * * * * * * * * //

dimensions      [0 2 -2 0 0 0 0];

internalField   nonuniform List<scalar> 
10228
(
2.0788529050211e-10
2.09223719600269e-10
3.29222938062691e-09
3.2690014584082e-09
3.39162151733471e-09
2.20620976811835e-10
3.44823486581296e-09
1.62540321268472e-08
8.70751755807236e-08
1.71413862206073e-08
8.92377403525427e-08
3.48270900716807e-09
1.74263217179485e-08
2.05990450402668e-10
3.53058055352007e-09
1.65348465462985e-08
3.79868312653253e-08
4.47493517277392e-07
4.75266121785281e-07
4.79008606720768e-08
4.81485502287309e-07
4.5072600293253e-07
9.03518570642481e-08
3.41276160411764e-09
1.7802685809888e-08
5.04469109287552e-08
1.99770127352933e-10
3.47218847668963e-09
1.6702888223746e-08
3.96908455232735e-08
6.97092250704041e-08
1.09612254772471e-06
2.38355323168796e-06
1.34271457408419e-06
1.03239346444331e-07
2.37739732682588e-06
4.84401248234851e-07
1.3593307970121e-06
4.49842075569412e-07
1.09405565126967e-06
8.85779159662632e-08
3.14453800606538e-09
1.74617698846333e-08
5.20579180194394e-08
1.05466821685485e-07
1.55859556263141e-10
3.20298445557953e-09
1.63629526742661e-08
4.00510466153261e-08
6.9628525210734e-08
1.02660822049914e-07
1.92005872869301e-06
5.14759309681542e-06
5.53997588991253e-06
2.62438127515251e-06
1.71844960862629e-07
2.34745887869476e-06
5.10828016080172e-06
5.52335804011534e-06
1.36689537416834e-06
4.70333860334993e-07
2.64053921568778e-06
4.35797146218645e-07
1.08054829471735e-06
1.89036992326032e-06
8.06486366383755e-08
2.56864774576086e-09
1.57933445398907e-08
5.10062846573858e-08
1.08230531409495e-07
1.77960173353841e-07
1.11665081025127e-10
2.5980039771373e-09
1.49257575123229e-08
3.87917779279731e-08
6.88683977699243e-08
1.0336778723976e-07
1.44958455608914e-07
2.83734564519135e-06
7.9462381971301e-06
1.00875996030945e-05
8.97402508416814e-06
4.13491582774196e-06
2.61614284392616e-07
5.0134294959795e-06
5.45268420308783e-06
2.2528108828149e-06
1.00366035569505e-05
7.87081024126566e-06
8.94850587794341e-06
2.65338294839281e-06
1.32581356562734e-06
4.23711595656319e-07
4.15051177662358e-06
3.94978255277249e-07
1.03654777493495e-06
1.85116104549795e-06
2.7797458368896e-06
6.53465596717303e-08
1.89554784942505e-09
1.28802142450173e-08
4.61709829556511e-08
1.06445031629084e-07
1.83792162694543e-07
2.68067238775432e-07
2.90684696887656e-11
1.62543154715895e-09
1.21777083905625e-08
3.51442595008654e-08
6.56283029720068e-08
1.01916601663969e-07
1.43556444742931e-07
1.90312962973324e-07
3.83466914823686e-06
1.06002277571902e-05
1.42168351398367e-05
1.48101988296557e-05
1.23724779373964e-05
5.771792347225e-06
3.60157455469219e-07
7.71030257497574e-06
4.80162462633333e-06
9.87661393050394e-06
8.84862252434098e-06
5.25306162969352e-06
2.0409629782464e-06
1.41421405841132e-05
1.47601220467551e-05
1.05025281102607e-05
1.23450661019793e-05
4.17374544029408e-06
2.5866768700471e-06
1.20065256167872e-06
3.40745108759155e-07
5.79146440748157e-06
3.20332709587888e-07
9.36524177143635e-07
1.76334799666932e-06
2.71012467507335e-06
3.75321489063558e-06
4.20916671624786e-08
4.91451955026836e-10
9.78923770925953e-09
3.8019027759688e-08
9.75777500686496e-08
1.81929401834237e-07
2.76865157892947e-07
3.70227179510698e-07
2.83609007547693e-12
4.19849552070161e-10
7.35792864455411e-09
2.86143917203254e-08
5.88378139162657e-08
9.64600255050017e-08
1.40915102610091e-07
1.88190602237102e-07
2.417477802228e-07
4.84994293191875e-06
1.31249346053214e-05
1.8020751372218e-05
1.99035909423439e-05
1.93063873969915e-05
1.56536489421807e-05
7.41920090863278e-06
4.72370563289362e-07
1.39072230101048e-05
1.02861407035389e-05
7.38546168488065e-06
9.52324668840662e-06
4.39440477316649e-06
1.45625003062783e-05
1.22310966195516e-05
8.57826714940875e-06
4.83734710129846e-06
1.67177329595278e-06
1.98254952885746e-05
1.79145693275446e-05
1.92490038769454e-05
1.30064426091229e-05
1.5625735677937e-05
4.09302446649213e-06
5.82986914902861e-06
2.38445702320249e-06
9.80444492335438e-07
2.30434853331442e-07
7.45777121160674e-06
2.00680426533685e-07
7.62393622125901e-07
1.58747991279215e-06
2.57027313975741e-06
3.65666857755539e-06
4.76601255236548e-06
1.06738429827063e-08
4.36379648982968e-11
2.2954303916194e-09
2.94787175971319e-08
8.32589309126398e-08
1.69415670340508e-07
2.7601728688384e-07
3.84184306904859e-07
4.84673050196759e-07
3.04974750229624e-11
2.07468316500645e-09
1.78069765281858e-08
4.76797696755132e-08
8.58931153195508e-08
1.32986884414505e-07
1.84838351102378e-07
2.38104992501733e-07
2.95847482844794e-07
5.88954249271572e-06
1.5534334713782e-05
2.15824195428966e-05
2.45670767349947e-05
2.52361376134456e-05
2.3612875629335e-05
1.88051094003434e-05
9.04584284150185e-06
5.89636819415552e-07
1.95489254622617e-05
1.76078832039634e-05
1.34252143116657e-05
1.2739167114698e-05
9.86185207015925e-06
6.79986634712274e-06
1.41299983636915e-05
8.88070376934327e-06
3.70880598161183e-06
1.90258058453811e-05
1.55045628730089e-05
1.1930444423089e-05
8.03934522342612e-06
4.1173428626574e-06
1.09374736856297e-06
2.51488402160657e-05
2.44544051548057e-05
2.14478207755388e-05
2.35479713228299e-05
1.540080304603e-05
1.87793491484524e-05
3.84544645479065e-06
5.75164020450842e-06
7.51851994929615e-06
2.03546836556368e-06
6.89748471732726e-07
9.1031382481218e-06
6.05462905075391e-08
4.83885551097925e-07
1.29169350302599e-06
2.30900463613099e-06
3.46820612145299e-06
4.65082970793187e-06
5.79966210983286e-06
5.71018346782875e-10
1.6338980124631e-10
9.47889703245449e-09
6.85706987284007e-08
1.49323770172468e-07
2.60288813241729e-07
3.85454279614488e-07
5.04074955420808e-07
6.06817416491523e-07
1.54054894788197e-10
5.07542615483261e-09
2.99344100811643e-08
6.93884253506866e-08
1.1819603076931e-07
1.74736540031636e-07
2.33401689284373e-07
2.92043315599208e-07
3.52719188876333e-07
6.93065912152728e-06
1.78459632801225e-05
2.49412186373351e-05
2.89213385109168e-05
3.06214710672545e-05
3.03208678810961e-05
2.77410873104552e-05
2.18312368932098e-05
1.06389035792127e-05
7.10959316082229e-07
2.41009968328054e-05
1.89829551983834e-05
2.48425637394044e-05
1.70073391982662e-05
2.10765315586282e-05
1.25970271450288e-05
1.5092426308299e-05
1.22236413829201e-05
9.11863618478518e-06
5.83642951844757e-06
1.85511395014783e-05
1.33719909692376e-05
7.8444947174775e-06
2.60792018099584e-06
2.33057433247807e-05
1.86571718399122e-05
1.51917232588053e-05
1.13538195550808e-05
7.14603675447669e-06
2.9349193757914e-06
4.34739584989808e-07
3.04967015835463e-05
3.02217726402861e-05
2.87760705371548e-05
2.47847758421398e-05
2.76718217323879e-05
1.77001688340964e-05
2.18102751201025e-05
5.48085120721504e-06
3.43669269920541e-06
7.45118715765945e-06
9.18970030700456e-06
1.56594054115346e-06
1.07106340814266e-05
3.17361004645878e-09
1.43394936117382e-07
8.22243368319015e-07
1.88284016716941e-06
3.11999253422494e-06
4.4186636718695e-06
5.67148838428109e-06
6.83399813939374e-06
2.57732270055547e-09
2.60768731996782e-10
4.63054530482049e-09
4.92280338514564e-08
1.24979077572286e-07
2.33970176396315e-07
3.67055760406771e-07
5.07700754935388e-07
6.3307979423849e-07
7.33079088464345e-07
3.20628151296642e-10
8.76377380309372e-09
4.36265640583894e-08
9.53717643700207e-08
1.55521523125186e-07
2.20756944260085e-07
2.86709049036269e-07
3.48610189452318e-07
4.11249520970356e-07
7.9623508732403e-06
2.00623299339158e-05
2.81232175781672e-05
3.30188541710174e-05
3.56368898398625e-05
3.63614372327246e-05
3.51940798616672e-05
3.17002204416817e-05
2.47364515753759e-05
1.21914207806875e-05
8.34427300844731e-07
2.83517081026329e-05
3.01095636841593e-05
2.34129676529854e-05
2.42305940373955e-05
1.80477306619296e-05
2.98887873872727e-05
1.60103125462841e-05
2.03690617775145e-05
2.43592731964916e-05
1.13165716084532e-05
1.73570055820638e-05
1.44995206748156e-05
1.13359711428118e-05
7.91055074421583e-06
4.23893259354532e-06
1.77539711510643e-05
2.28062583341849e-05
1.22161250618608e-05
6.28988634280188e-06
9.58628567019869e-07
2.74151853719774e-05
2.16899187772093e-05
1.83378711278e-05
1.46104493477243e-05
1.04712069067772e-05
5.75816988448447e-06
1.77709868567082e-06
1.81625239550749e-08
3.5476320979887e-05
3.62209778543995e-05
3.50855011681579e-05
3.28483465761581e-05
2.79500536504444e-05
3.16296233512343e-05
1.99055450702636e-05
2.47203725995644e-05
7.16997591629352e-06
5.03708654629046e-06
2.92451740198045e-06
9.13884256545587e-06
1.08191773429779e-05
1.14173514521497e-06
1.227440712517e-05
6.49992821352216e-09
2.43044027662378e-07
1.20668935300799e-06
2.55113404831484e-06
3.98773009796687e-06
5.39956891183195e-06
6.69142663893593e-06
7.85897482991517e-06
2.98736194976177e-09
3.14426588068581e-10
4.52704162457723e-09
3.24463242665928e-08
9.96828452503541e-08
2.03223900332216e-07
3.34962143434831e-07
4.86336156952568e-07
6.40415541959013e-07
7.66376970118784e-07
8.61619456376819e-07
5.64213978925156e-10
1.28240051994456e-08
5.98863145473701e-08
1.25647281636058e-07
1.96621719581744e-07
2.711207142188e-07
3.42712913641712e-07
4.06889491504294e-07
4.70905401859463e-07
8.97529966572064e-06
2.21827173367965e-05
3.11449575628282e-05
3.6892014211687e-05
4.03544183708903e-05
4.19652718282243e-05
4.18541967210305e-05
3.98728234500886e-05
3.54991933834356e-05
2.75241511575098e-05
1.36972194731974e-05
9.59261506430708e-07
2.75525756686862e-05
3.50141926364513e-05
3.23640678026019e-05
3.58011818943097e-05
2.93733752053085e-05
2.23151506152184e-05
2.9243247782666e-05
2.32575721677977e-05
1.66927053948531e-05
3.47284763141885e-05
1.44958805187653e-05
1.92159361281527e-05
2.35582175811364e-05
2.7478894448946e-05
9.36497235989847e-06
1.95309768634397e-05
1.66942714055126e-05
1.34842098982544e-05
9.90988345335688e-06
5.89129878722012e-06
1.6144049086554e-06
1.66146447883217e-05
2.19956683550237e-05
2.68947018695041e-05
1.06525441779357e-05
3.81846504782474e-06
3.49518229901458e-08
3.13612912671289e-05
2.46014120179972e-05
2.13644919979261e-05
1.77469913599656e-05
1.37628327128499e-05
9.33450215083077e-06
4.34418761431779e-06
6.44361636349545e-07
2.60351387483554e-08
4.01662763495226e-05
4.17860241236312e-05
4.16999017982836e-05
3.97579189263752e-05
3.67027211937527e-05
3.0957805964728e-05
3.54283553526403e-05
2.20156793172075e-05
2.75119535186354e-05
6.70268132602236e-06
8.85252094530946e-06
4.48707668513483e-06
2.39338676784472e-06
1.07793538287653e-05
1.24019805883773e-05
7.53230016719846e-07
1.3788273917701e-05
1.10798618471793e-08
3.55358123320502e-07
1.64216909265866e-06
3.28143625969022e-06
4.88968525392858e-06
6.38487080396909e-06
7.7032008035812e-06
8.86386534958886e-06
4.8041908475946e-09
2.34242169679552e-10
3.47662468510765e-09
2.30696314776795e-08
1.05350007404701e-07
7.73794917334444e-08
1.72224149191482e-07
2.9781145616781e-07
4.48268634189385e-07
6.17167716293365e-07
7.77502789763778e-07
9.01865680282164e-07
9.91271851977853e-07
8.04700449740828e-10
1.76020393919775e-08
7.89822570526959e-08
1.59103750625763e-07
2.4125271094741e-07
3.24457820038901e-07
4.00459199119949e-07
4.66203952716323e-07
5.31000092222455e-07
9.95793882803617e-06
2.42045149455721e-05
3.4015427533819e-05
4.0562879451229e-05
4.48142978154657e-05
4.72299888532774e-05
4.80046148606142e-05
4.7129793831418e-05
4.43690188737519e-05
3.91448564728485e-05
3.01966301314853e-05
1.51491115307283e-05
1.08455659108144e-06
3.14671936808191e-05
2.63036054022456e-05
3.41654320842808e-05
3.96412399422998e-05
4.12869981959497e-05
3.61686083151769e-05
4.12487081652965e-05
3.50255448212839e-05
2.82423708687378e-05
2.07571032075177e-05
3.40500040403735e-05
2.82481131142168e-05
2.19224556963781e-05
1.48798565265463e-05
3.93792360280044e-05
1.21965922449192e-05
1.74830728258278e-05
2.22640309507483e-05
2.65949616549576e-05
3.04464901150347e-05
6.04571312146081e-06
2.16120156710014e-05
1.88049348013752e-05
1.55610663271058e-05
1.18606908031916e-05
7.53397491624025e-06
2.35598165749223e-06
6.10043108441693e-08
1.51901114184163e-05
2.08825740477475e-05
2.60637875587499e-05
3.08184632295464e-05
8.76199614227357e-06
1.44318711418575e-06
5.09258488813527e-08
3.51488616621274e-05
2.73926960556028e-05
2.42670115353987e-05
2.07561537396361e-05
1.68947167928122e-05
1.27098955344551e-05
8.08560373289647e-06
3.04623344782128e-06
4.9167313337832e-07
2.24500986730658e-08
4.70213372603538e-05
4.46060124383332e-05
4.78085978009946e-05
4.69648562267466e-05
4.42493694750039e-05
4.03584823839915e-05
3.38155696425877e-05
3.90735141161195e-05
2.40274782026922e-05
3.01869235911394e-05
6.12453178481298e-06
8.35906618221633e-06
1.04819904001418e-05
3.89949287250555e-06
1.8965408567706e-06
1.23698852779005e-05
1.39316149978534e-05
5.44224628891077e-07
1.52509958634966e-05
1.60959231467466e-08
4.85107450187393e-07
2.13801442767319e-06
4.04942562103088e-06
5.80346214462135e-06
7.36170250233994e-06
8.69536320508364e-06
9.83993306258889e-06
3.75481317086683e-09
1.794085016591e-10
2.72930816292589e-09
1.72243849605582e-08
8.76285158032928e-08
6.1418234184815e-08
1.43546058271496e-07
2.60154786112988e-07
4.03811464362013e-07
5.72310074263358e-07
7.52258693845536e-07
9.16587441912257e-07
1.03820660979056e-06
1.12112810276508e-06
1.1314311381743e-09
2.30714305354246e-08
1.00406438118543e-07
1.95390811389621e-07
2.89022683536514e-07
3.7952035375533e-07
4.59171777471075e-07
5.25917455096339e-07
5.90838356859033e-07
1.09048045552895e-05
2.61242545419912e-05
3.67378908515331e-05
4.40445279581152e-05
4.90423409326055e-05
5.22076577790008e-05
5.37708932523756e-05
5.38012170807986e-05
5.22057423853678e-05
4.86909770887912e-05
4.264167679999e-05
3.27556184490832e-05
1.65475946502824e-05
1.20957526557916e-06
3.00804252525275e-05
3.51856067129534e-05
3.86941005757626e-05
2.45521002856239e-05
3.2889016783742e-05
4.03955139287089e-05
4.40293133745105e-05
4.64568375804793e-05
4.72732365782988e-05
3.97812163644604e-05
4.64841664491824e-05
4.04312629827e-05
3.38682166041904e-05
2.67232347515977e-05
1.86845240703238e-05
3.30218123142057e-05
3.86652310582236e-05
2.69245554131883e-05
2.02758998059739e-05
1.2625184751618e-05
4.38499805290777e-05
1.48685723203613e-05
8.24430928070736e-06
2.03309679289551e-05
2.51720748411706e-05
2.94874162680517e-05
3.32674329377998e-05
2.44504218064776e-06
2.35963322986976e-05
2.08268507332223e-05
1.75631618107572e-05
1.3753662100563e-05
9.15411393850914e-06
3.18169744046596e-06
8.9696143695137e-08
8.6033341361745e-08
1.95243590493442e-05
1.35850289054666e-05
2.49375389784287e-05
2.99554245384826e-05
3.45810408729787e-05
6.66627369255271e-06
1.17344833986253e-06
4.81556513440108e-08
3.87820114183325e-05
3.00652356632744e-05
2.70461563983352e-05
2.36340119806731e-05
1.98761029517523e-05
1.58409696601834e-05
1.1525736564718e-05
6.83246201821484e-06
2.4225038351637e-06
4.16375942209167e-07
1.71558545621159e-08
5.19778557656334e-05
5.35438699734375e-05
4.88182101501007e-05
5.35916209195916e-05
5.20319336839916e-05
4.85667347299624e-05
4.38267677700429e-05
3.65259792428091e-05
4.25689946921422e-05
2.59374986892537e-05
3.27474039226728e-05
5.49406052627667e-06
7.74321020747897e-06
9.96003319934165e-06
1.20578381456366e-05
3.32863071733855e-06
1.52609217758205e-06
1.39039174489574e-05
1.54078214204738e-05
4.47252238599026e-07
1.66565873194129e-05
2.23964822761493e-08
6.35251386446144e-07
2.67423828307976e-06
4.83572979435826e-06
6.71009914810115e-06
8.32043568185849e-06
9.65885069951421e-06
1.07818508984744e-05
2.90261733812456e-09
1.34467184902638e-10
2.05326815182655e-09
1.34955661955254e-08
6.97520276108706e-08
4.89642183117063e-08
1.18791577438074e-07
2.23607737529862e-07
3.58228466746811e-07
5.19176085854002e-07
7.01062091822073e-07
8.89039303509137e-07
1.05620168017973e-06
1.17453168569499e-06
1.25083500331991e-06
1.4829034642188e-09
2.92801673784956e-08
1.23706445769012e-07
2.33800545552859e-07
3.38441477379026e-07
4.35519029681122e-07
5.18223703322826e-07
5.85276540112745e-07
6.49655558504192e-07
1.18098839371001e-05
2.79384780734114e-05
3.93120365421073e-05
4.73426717890051e-05
5.30534640180662e-05
5.69294404798277e-05
5.92199358299169e-05
6.00400596524793e-05
5.93809779602958e-05
5.70926579946641e-05
5.28435438278104e-05
4.59922589958755e-05
3.52028199826547e-05
1.78917677284099e-05
1.33381135908778e-06
2.81487585356857e-05
3.72854942220113e-05
3.36727635457479e-05
3.87204298232437e-05
4.29961015083242e-05
4.54655585277748e-05
2.2236427004837e-05
3.11956287704775e-05
3.90924445041978e-05
4.63342936022517e-05
4.81972483606257e-05
5.13602563917314e-05
5.29401220535009e-05
5.30212946747679e-05
4.32103040244186e-05
5.1522723576174e-05
4.56208823014285e-05
3.92311406478413e-05
3.23592984504177e-05
2.4864325922373e-05
1.61028365764131e-05
3.75902755350438e-05
3.16703850822692e-05
4.30977211578855e-05
2.53286837373411e-05
1.83940468600463e-05
1.00415858869266e-05
4.81463366121446e-05
1.74283749637402e-05
1.03889820453885e-05
3.58054442827824e-06
2.3054327169381e-05
2.79457028287711e-05
3.22386985089749e-05
3.59432776590709e-05
1.9957180624798e-06
2.27555936419151e-05
2.5480124156151e-05
1.9483530616948e-05
1.55848308926197e-05
1.07527925613195e-05
4.0890348509902e-06
1.27095680149731e-07
1.22883849987149e-07
7.99761533301039e-08
2.35668139651121e-05
1.79893306583937e-05
1.18915803148257e-05
2.8787977620854e-05
3.36774154892231e-05
3.81864815092394e-05
5.38598228401859e-06
9.85990917441644e-07
3.96833122217879e-08
4.22640987022965e-05
3.26213687348954e-05
2.97035400656524e-05
2.63830667845819e-05
2.27135944359887e-05
1.87846866675313e-05
1.46455259908641e-05
1.02795401644517e-05
5.7935518682122e-06
2.10217332811004e-06
3.34739728130466e-07
1.32527166963902e-08
5.66831755778738e-05
5.89709779800237e-05
5.9797863575112e-05
5.28154848625013e-05
5.91595664215659e-05
5.69103186846971e-05
5.27142179241887e-05
4.71123984877914e-05
3.90885929826417e-05
4.59174232993159e-05
2.77423469513109e-05
3.51949991868374e-05
7.06312635335329e-06
4.84784547640056e-06
9.30238762967589e-06
1.15005863351641e-05
1.3574243496158e-05
2.8151792587018e-06
1.24340541714985e-06
1.53811490284731e-05
1.68234154869879e-05
3.58013541743847e-07
1.80061979753839e-05
2.95614393111361e-08
8.03391584273577e-07
3.23311749663543e-06
5.62445385315869e-06
7.60189165400937e-06
9.25193979447314e-06
1.05878381378483e-05
1.16807932559616e-05
2.14510128305438e-09
9.37914200008879e-11
1.01674292692536e-08
1.45515832826943e-09
5.24226876497073e-08
3.83531087018629e-08
9.68889628217608e-08
1.88978643920768e-07
3.12702820106739e-07
4.64032285053334e-07
6.39623857168835e-07
8.31150844437902e-07
1.02598879684118e-06
1.19556795790226e-06
1.3105804501299e-06
1.37960905695019e-06
1.89821077961039e-09
3.60419140707197e-08
1.48421231061563e-07
2.74100153467747e-07
3.88771715899572e-07
4.91819523727015e-07
5.76899730316168e-07
6.43600744911939e-07
7.06706929403308e-07
1.26673084318468e-05
2.96433168144869e-05
4.17357041030934e-05
5.04580842714438e-05
5.68540108289748e-05
6.14123098988918e-05
6.4390389610483e-05
6.59293610059934e-05
6.60732671451223e-05
6.4758574250883e-05
6.17959647252571e-05
5.68289605971018e-05
4.91981828959824e-05
3.75395171670032e-05
1.91802074744068e-05
1.45649582052756e-06
2.56068748504307e-05
3.1573099384369e-05
3.54289077298462e-05
4.40318035205104e-05
4.14666935862783e-05
3.70907774024578e-05
4.20775351120643e-05
4.7086606068902e-05
5.02825253941109e-05
5.18981370712958e-05
1.93608991995143e-05
2.91355216087066e-05
3.74133247783939e-05
4.4982674414169e-05
5.20292816767004e-05
5.60204068617547e-05
5.21545035440744e-05
5.83124477981535e-05
5.915574667693e-05
5.85549837123208e-05
4.64592627622501e-05
5.63724988592031e-05
5.06104581707067e-05
4.43619133131445e-05
3.76833003000132e-05
3.05547824626686e-05
2.27352299591326e-05
1.31289490057866e-05
4.19669822156942e-05
3.6181437765591e-05
3.00452064994118e-05
4.73535024851036e-05
2.35195921393501e-05
1.63637513727667e-05
8.29849809615263e-06
5.22719532050102e-05
1.988749055999e-05
1.24735874619679e-05
4.8320463316244e-06
2.93220814464687e-06
2.56561794111723e-05
3.05860753604153e-05
3.48492173544591e-05
3.8473211523712e-05
1.68201284823476e-06
2.45870300183603e-05
2.13171058206872e-05
2.72599715196478e-05
1.73461776449583e-05
1.23072059878069e-05
5.03675445375523e-06
1.68858631002157e-07
1.7119816473204e-07
1.17147297488847e-07
6.62188599990187e-08
2.73639380642878e-05
2.20032384885504e-05
1.63416160132492e-05
1.03508486374157e-05
3.24535533328561e-05
3.72366438646417e-05
4.16384407070894e-05
4.55051355272662e-06
7.88300486985247e-07
3.0579950624995e-08
4.55978506888488e-05
3.22420106137108e-05
3.50629937154738e-05
2.9006330501199e-05
2.54140426337846e-05
2.15669331959168e-05
1.75363223276521e-05
1.33579082848104e-05
9.06705581588632e-06
4.93490073072845e-06
1.73068741352918e-06
2.53368003947317e-07
9.78415941656623e-09
6.41245168343717e-05
6.11516789734176e-05
6.56644691089705e-05
6.58175696729653e-05
5.66030918549459e-05
6.45256929493535e-05
6.16047851958849e-05
5.66939922499383e-05
5.02158919016549e-05
4.15012936914103e-05
4.91205452703269e-05
2.94381681738541e-05
3.75313549601048e-05
8.56790958873581e-06
6.34511931753994e-06
4.21014274999638e-06
1.07926457599663e-05
1.29787321169725e-05
1.50309288183527e-05
2.35055518340263e-06
9.96037342882447e-07
1.67960311836036e-05
1.81811411461126e-05
2.71959063472656e-07
1.92991808344007e-05
3.78332486900679e-08
9.8545749320397e-07
3.80250144068351e-06
6.40150602481576e-06
8.47014135720606e-06
1.01495792189591e-05
1.14752078080857e-05
1.25319637290247e-05
1.49774119716591e-09
6.13045002457541e-11
2.89909104144909e-08
7.24397108264162e-09
9.58088196628618e-10
3.70919956981298e-08
7.69151763637645e-08
1.56194950022401e-07
2.67615474488606e-07
4.07923421223244e-07
5.75192217728093e-07
7.61051999386241e-07
9.61067056489824e-07
1.16247068492054e-06
1.33447609318473e-06
1.44557573354251e-06
1.50648653340383e-06
2.34009158794212e-09
4.32594514285094e-08
1.74172045684581e-07
3.15303487009767e-07
4.39420264732887e-07
5.47824551878244e-07
6.34494459629575e-07
7.00203097316557e-07
7.61295420641316e-07
1.34718474503401e-05
3.12348923049593e-05
4.4005794921763e-05
5.33887960414541e-05
6.0444604698094e-05
6.56629141380983e-05
6.93024540152306e-05
7.15167495813296e-05
7.238177543572e-05
7.18906604524649e-05
6.99410421587346e-05
6.63175591444771e-05
6.06480091855358e-05
5.22604803196599e-05
3.97665342222705e-05
2.04112511885429e-05
1.57382695761185e-06
2.88196523293028e-05
3.31782506132398e-05
2.24623841161422e-05
3.48335805244686e-05
3.94569775258179e-05
4.21949929175999e-05
4.87301978736875e-05
5.04127647699899e-05
4.54451546612752e-05
4.03385224515189e-05
4.52589347827809e-05
5.09722312427111e-05
5.48652807393428e-05
5.71821470812213e-05
5.80559377280954e-05
1.60316406885478e-05
2.67775127000966e-05
3.54154785544473e-05
4.32585254906781e-05
5.06101101133441e-05
5.75060077571725e-05
6.34196914200685e-05
6.04481227733481e-05
5.59046556008055e-05
6.4965480983671e-05
6.51374093914445e-05
6.38866979603764e-05
4.95281020245969e-05
6.10377782358435e-05
5.54090326339808e-05
4.92828817993849e-05
4.2742641628726e-05
3.58370897744992e-05
2.85070362810923e-05
2.04127920942526e-05
1.10102266779662e-05
4.61616133405312e-05
4.04849760156477e-05
3.44842345832651e-05
2.81908799240573e-05
5.1436683723763e-05
2.15504349335676e-05
1.44207822261693e-05
7.06746128925249e-06
5.62290474700529e-05
2.22435601620736e-05
1.44996414830799e-05
6.14392262525112e-06
3.97364885853503e-06
2.48176568902882e-06
2.813591945108e-05
3.30925629268276e-05
3.73176985698276e-05
4.08550838077207e-05
1.34564487195727e-06
2.63176133076317e-05
2.3059426633254e-05
1.90306792176131e-05
2.8932267836355e-05
1.38100058779096e-05
5.99487208704251e-06
2.16963532722077e-07
2.23161317232414e-07
1.62667709943685e-07
9.79188856833127e-08
5.12742341985296e-08
3.09563161719549e-05
2.57279137676352e-05
2.02923611210048e-05
1.46649311769014e-05
8.99655119800691e-06
3.59477512331548e-05
4.06385778760765e-05
4.49402321284101e-05
3.78563426306304e-06
5.98454484393792e-07
2.25780788333261e-08
4.87853802077601e-05
3.46642131388925e-05
3.15078191136979e-05
3.73923048177085e-05
2.7983596876648e-05
2.42017084021102e-05
2.02460958155983e-05
1.61683666667745e-05
1.20231361414769e-05
7.90430983278629e-06
4.13580441352337e-06
1.35114105285575e-06
1.80695171861419e-07
6.85525897488816e-09
6.90218215776455e-05
7.12345412478176e-05
6.53888029858074e-05
7.2102518710928e-05
7.16217162853058e-05
6.0181325541021e-05
6.96964110097756e-05
6.6117130722505e-05
6.05069847102961e-05
5.31352858257531e-05
4.37610619744461e-05
5.21796133430893e-05
3.10212791319383e-05
3.97575339324907e-05
7.77792205806798e-06
9.99526059250486e-06
5.60187634290301e-06
3.58406746799089e-06
1.22177395936429e-05
1.4394870149929e-05
1.64247475978527e-05
1.91509598256101e-06
7.66002072041867e-07
1.81508394789494e-05
1.94807879872344e-05
1.94818241260671e-07
2.05339031364672e-05
4.67673361749046e-08
1.17798351849601e-06
4.37265840664692e-06
7.1606980676903e-06
9.30812042564811e-06
1.10088461320978e-05
1.23146027092802e-05
1.33308913814948e-05
9.74216306366602e-10
3.65018203129856e-11
5.86677863257673e-08
2.07378879067595e-08
4.77218093341072e-09
5.61893314589645e-10
2.42743231848044e-08
1.25150331085265e-07
2.23330120096333e-07
3.51495206745023e-07
5.08742453451431e-07
6.87032709389976e-07
8.82033888413146e-07
1.09027879579611e-06
1.29830751004173e-06
1.47218861766825e-06
1.57855508689931e-06
1.62711244670487e-06
2.80990591910636e-09
5.08046776300684e-08
2.00581965543929e-07
3.56836658583411e-07
4.89819781613327e-07
6.02799062470253e-07
6.90401124545303e-07
7.54337738596273e-07
8.12743142997202e-07
1.42190798627036e-05
3.27095844262605e-05
4.61188582515554e-05
5.61315286329855e-05
6.38226958456573e-05
6.96812991748974e-05
7.3963608933848e-05
7.68268332009045e-05
7.83638028045554e-05
7.86034854387224e-05
7.75019515422823e-05
7.49304921820194e-05
7.06573633892277e-05
6.43008348363595e-05
5.51799264944448e-05
4.18841357829927e-05
2.15805287146724e-05
1.68504137833667e-06
3.18812821879872e-05
3.70254126818414e-05
2.54259925796872e-05
4.00149435818147e-05
3.06042270310557e-05
1.88160360866065e-05
4.32910236883222e-05
3.79330454476148e-05
4.67460269050434e-05
4.85277936006066e-05
5.32032741349786e-05
5.55766183831438e-05
5.64970479824857e-05
4.92255991074946e-05
4.3417023062941e-05
4.82641077150679e-05
5.46550088074532e-05
5.92214355918361e-05
6.22107795474204e-05
6.37741737629459e-05
6.39750103965177e-05
1.35842557660696e-05
2.41886194323063e-05
3.31474877165276e-05
4.12117176350405e-05
4.88041403310695e-05
5.60083514005031e-05
6.27783377959589e-05
6.82752337059005e-05
7.04878155654364e-05
6.46469730641423e-05
5.94473924444442e-05
7.1363026569659e-05
7.09031465624455e-05
6.9022492024617e-05
5.24148034198771e-05
6.55204158155078e-05
6.00215882364427e-05
5.40075805424463e-05
4.75757710504128e-05
4.08082797340458e-05
3.37314125856893e-05
2.62575372087713e-05
1.81249210243746e-05
9.45429315762895e-06
4.45982924603328e-05
5.01803963588674e-05
3.86958597331986e-05
3.2536801251533e-05
2.61445862998791e-05
5.53500910965667e-05
1.94942366836213e-05
1.26509040935673e-05
5.93913526359983e-06
6.00188767919073e-05
1.645460909316e-05
2.44935885289792e-05
7.4914802544659e-06
5.07966502752273e-06
3.3775362355326e-06
1.98971336945807e-06
3.04917773206144e-05
3.54634571269895e-05
3.96418977067283e-05
4.30859930804087e-05
1.02506694038683e-06
2.79439670670216e-05
2.4706718076641e-05
2.0633587742819e-05
1.52537764944827e-05
3.04934191959119e-05
6.94643530353844e-06
2.67880782060638e-07
2.82657033938984e-07
2.14911488735318e-07
1.36190678973522e-07
7.60029687474421e-08
3.79079552765299e-08
2.92270406750234e-05
3.43667649719104e-05
2.39153362660885e-05
1.84796035527574e-05
1.30084743072567e-05
7.71267631340866e-06
3.9279554925373e-05
4.38879311483786e-05
4.80946742109826e-05
3.0279399770409e-06
4.29949686237979e-07
1.58867349172303e-08
5.18283591764889e-05
3.69729818849381e-05
3.38913816864499e-05
3.0428320652832e-05
3.96107896337384e-05
2.66999017755182e-05
2.27975675185455e-05
1.87819531347205e-05
1.47077139770464e-05
1.06599036138593e-05
6.7611309553001e-06
3.3459201332009e-06
9.93712187756636e-07
1.19253651728636e-07
4.47705028232677e-09
7.36690563248537e-05
7.65295490391192e-05
7.80667546178447e-05
6.93942352328109e-05
7.8309999264669e-05
7.72194366842653e-05
6.35476323223787e-05
7.46737690363785e-05
7.04474233490943e-05
6.41535264926442e-05
5.58673755659921e-05
4.58645269411698e-05
5.50955827579373e-05
3.248815236388e-05
4.1874025905928e-05
6.93771288834678e-06
9.12824865513429e-06
1.13554802059192e-05
4.83936220585471e-06
2.96595727635856e-06
1.35791103823596e-05
1.57485494748939e-05
1.77569371731186e-05
1.49996667440179e-06
5.55810298175256e-07
1.94462864404327e-05
2.07208449987208e-05
1.28618825958922e-07
2.17055873966511e-05
5.62588318275602e-08
1.37754903319613e-06
4.93593706173056e-06
7.89604327847553e-06
1.01104418143156e-05
1.18217834741183e-05
1.31025695905265e-05
1.40729565767727e-05
5.65221453505823e-10
1.71795876708166e-11
9.61741981789066e-08
4.23275560387436e-08
1.36709216810999e-08
2.77171167230257e-09
2.68356923288552e-10
1.4051205075486e-08
1.80412814560702e-07
2.95261692391366e-07
4.40341846414791e-07
6.10043438653603e-07
7.98216564724671e-07
1.00207304504324e-06
1.21866410256191e-06
1.43285417131428e-06
1.60775554153913e-06
1.70410555676499e-06
1.74061311887635e-06
3.29653105400657e-09
5.85759166921413e-08
2.27317280368616e-07
3.98236840295675e-07