/*--------------------------------*- C++ -*----------------------------------*\
  =========                 |
  \\      /  F ield         | OpenFOAM: The Open Source CFD Toolbox
   \\    /   O peration     | Website:  https://openfoam.org
    \\  /    A nd           | Version:  12
     \\/     M anipulation  |
\*---------------------------------------------------------------------------*/
/*   Windows 32 and 64 bit porting by blueCAPE: http://www.bluecape.com.pt   *\
|  Based on Windows porting (2.0.x v4) by Symscape: http://www.symscape.com   |
\*---------------------------------------------------------------------------*/
FoamFile
{
    format      ascii;
    class       volScalarField;
    location    "700";
    object      nut;
}
// * * * * * * * * * * * * * * * * * * * * * * * * * * * * * * * * * * * * * //

dimensions      [0 2 -1 0 0 0 0];

internalField   nonuniform List<scalar> 
10228
(
7.08697238791342e-11
7.06683331934774e-11
1.11092300924421e-09
1.32097407745477e-09
1.38859687045374e-09
7.49906030684238e-11
1.1521019502256e-09
5.49743669225558e-09
1.30805087414553e-07
6.99034698054341e-09
1.33862519141344e-07
1.44842648551706e-09
7.18494824479279e-09
6.81549921457722e-11
1.17672915521956e-09
5.44870822390573e-09
1.24801668627898e-08
8.70989349002082e-07
9.98707849984152e-07
1.91126238817321e-08
1.01816885406299e-06
8.70755341504991e-07
1.36406102657334e-07
1.43474926267872e-09
7.52695073222863e-09
2.08563797271182e-08
6.71742697357005e-11
1.15777595304461e-09
5.4856621908386e-09
1.28919727802512e-08
2.30948177111175e-08
2.16413684979244e-06
1.04023661997406e-05
2.9744113830297e-06
4.173782000716e-08
1.04240857583913e-05
1.04371237321429e-06
3.07168651808396e-06
8.72542391274864e-07
2.15764837827331e-06
1.34495332138316e-07
1.33372240830134e-09
7.55702796816232e-09
2.23291368972542e-08
4.38534528724361e-08
5.09994247796503e-11
1.07313236136146e-09
5.41629962474716e-09
1.30323819629667e-08
2.25393370663299e-08
3.35808143471513e-08
3.78606829026028e-06
2.66849269361045e-05
3.0727531150318e-05
6.00361859022063e-06
6.88751293076589e-08
1.04063545501902e-05
2.66137903446552e-05
3.10159368445391e-05
3.17709127243853e-06
1.02714741627627e-06
6.16505192389984e-06
8.53134948881531e-07
2.14658599928256e-06
3.70454054412934e-06
1.22847011842573e-07
1.08077389596163e-09
6.88601448759276e-09
2.2515797289073e-08
4.67375394198367e-08
7.39621004473452e-08
3.62816801040135e-11
8.66996950224176e-10
4.97103316683531e-09
1.27472167286778e-08
2.22706705073423e-08
3.32970451630552e-08
4.76627006690158e-08
5.53203514915542e-06
4.15620611507567e-05
7.65965703519345e-05
5.29468412358615e-05
9.59178781411203e-06
1.05611577344451e-07
2.63882423169238e-05
3.11558906720282e-05
1.00779179169495e-05
7.66924507889165e-05
4.1309419380817e-05
5.35627601044866e-05
6.39694804365574e-06
3.13978743837599e-06
9.25308687758578e-07
9.86641572101625e-06
7.77812864776695e-07
2.08372329578874e-06
3.65107613723314e-06
5.39788215164888e-06
9.88774983304574e-08
8.26536486226674e-10
5.55400008002312e-09
2.05749419587372e-08
4.7387796867202e-08
7.95062917630455e-08
1.11698313001339e-07
8.51806379922394e-12
5.2814363894367e-10
4.05733578064864e-09
1.16256580524274e-08
2.14201402454256e-08
3.28455635497511e-08
4.62914708587923e-08
6.24496000696656e-08
7.45005535790784e-06
5.40327156215448e-05
0.000115274554034386
0.000127489756841525
7.33449188001851e-05
1.35308899602278e-05
1.45374361899115e-07
4.0868932868805e-05
2.55555870812528e-05
7.62788521936442e-05
5.40594908464901e-05
3.03949297640824e-05
9.1431580511964e-06
0.000115165363237035
0.00012792764026004
5.38522724728506e-05
7.44263254106851e-05
1.02710538893639e-05
6.37528773208023e-06
2.84270177889711e-06
7.27173897662805e-07
1.39207959712869e-05
6.31286837724565e-07
1.89615371284649e-06
3.51854255440308e-06
5.29780008570612e-06
7.25319693315528e-06
6.22361531539416e-08
2.0923470088052e-10
4.45526048169574e-09
1.67741032674634e-08
4.39383235448329e-08
8.11346747564702e-08
1.19928441307948e-07
1.54561219422794e-07
7.15980549977924e-13
1.23949035805962e-10
2.3817416207652e-09
9.435993764768e-09
1.92989155994236e-08
3.13384239178206e-08
4.5397332439732e-08
6.0743245003008e-08
7.94775736366737e-08
9.32647176741797e-06
6.51902750000604e-05
0.000145754781635171
0.000194187028670978
0.000171777209963346
9.1516361171254e-05
1.73718549105483e-05
1.91178677615209e-07
0.000114147663995301
5.33136829824649e-05
3.95952614066306e-05
7.42997041159181e-05
2.35308739780336e-05
0.00012755706453318
7.54067995677064e-05
5.32440128809833e-05
2.80185051337806e-05
7.36271746624121e-06
0.000194014585745924
0.000145489531880057
0.000172477738563201
6.49539427246141e-05
9.28934321851481e-05
1.03182170661488e-05
1.45092779806047e-05
5.89177326602997e-06
2.25732807326368e-06
4.6098026716423e-07
1.79676862950052e-05
3.89408433573846e-07
1.54020436855922e-06
3.18666928935946e-06
5.07791712892724e-06
7.11141221358641e-06
9.16487317199833e-06
1.27361237980443e-08
1.76378097546603e-11
9.48004845108935e-10
1.37235075612612e-08
3.73765182673456e-08
7.64846653219541e-08
1.2323341627804e-07
1.66815990120452e-07
2.0282833322388e-07
7.65394090455954e-12
6.1303317689337e-10
5.68233024763167e-09
1.55214885991001e-08
2.79937660328225e-08
4.31580422787905e-08
5.96494089208539e-08
7.70052891905792e-08
9.72923543252518e-08
1.12449476555113e-05
7.53445941732725e-05
0.000171258878066254
0.000247982111670853
0.000265224414399199
0.000209771717572579
0.000107718528615612
2.10140568508946e-05
2.38848068388994e-07
0.000192365044629486
0.000143992649484917
0.000111053429149636
6.42811767122732e-05
5.17105715575019e-05
3.66803672366299e-05
0.000124999165413145
6.95443487785664e-05
1.96016874948692e-05
0.000172335877909749
9.42847237543905e-05
7.49311817754629e-05
5.01228890441439e-05
2.32789956338165e-05
4.33788190123756e-06
0.000264965921053174
0.00024731944793046
0.000170870632875605
0.000210705992064096
7.51640861316437e-05
0.000109414271705692
9.75565593081959e-06
1.46836752159394e-05
1.87697972937819e-05
4.93463142354644e-06
1.49562192882931e-06
2.18032506134248e-05
8.85018521800612e-08
9.38678166190874e-07
2.57591102850639e-06
4.58291890651619e-06
6.8143082265033e-06
9.00919064247209e-06
1.10889282352096e-05
2.35661140952595e-10
4.88779226654774e-11
3.94833362082762e-09
3.1714137583795e-08
6.73920375570352e-08
1.17629478662363e-07
1.72515969022454e-07
2.19436790800275e-07
2.54352280114697e-07
3.91415517614227e-11
1.47560017677304e-09
9.38638003720191e-09
2.24011412257751e-08
3.84397122162027e-08
5.67870940324007e-08
7.54845368416726e-08
9.45764796979292e-08
1.16037320918246e-07
1.31397624411873e-05
8.48312980509996e-05
0.000193479544765649
0.000292034961195722
0.000343563678263451
0.000326481937401757
0.000242710704107865
0.000122260057437284
2.44767380573416e-05
2.88162942100388e-07
0.000244579784042188
0.000187707230589186
0.000262959336180703
0.000139935270055989
0.000168992753655692
0.000104311293527719
7.44333936368974e-05
6.23595213210672e-05
4.80885307412899e-05
3.10222464332564e-05
0.000169796814867057
0.000118725121678626
6.02628850639345e-05
1.21195592395033e-05
0.000210890321742017
0.000111221925676094
9.42080517838125e-05
7.1948186356533e-05
4.38796984598702e-05
1.50991597617588e-05
8.79354501041672e-07
0.000342451668850986
0.000326230010706588
0.000291043704478753
0.000193053052742598
0.00024390632617967
8.46842714333311e-05
0.00012425447606501
1.41231366871348e-05
8.63120361146062e-06
1.91022967932203e-05
2.28304843449361e-05
3.68808894683164e-06
2.54087509759207e-05
1.35509957204289e-09
2.10556049233916e-07
1.56686742297484e-06
3.70752321319305e-06
6.15559326399949e-06
8.64868748155298e-06
1.0942224348476e-05
1.29730319330367e-05
7.74247267609338e-10
5.73020513774949e-11
1.97378707361789e-09
2.29205609485342e-08
5.59308664290102e-08
1.05671893849707e-07
1.66278018675704e-07
2.27884885206216e-07
2.76150483277678e-07
3.07571752190355e-07
7.94713682872711e-11
2.50945601997539e-09
1.35544360183721e-08
3.06966128771708e-08
5.06239485567897e-08
7.18987750155601e-08
9.28922548315983e-08
1.12993274563521e-07
1.35290379672131e-07
1.49979150906573e-05
9.36823409084504e-05
0.000213369837320182
0.000329288833444165
0.000408224890685879
0.000427807154587311
0.000379257781718664
0.000271669103794202
0.000135442938447885
2.77701902470533e-05
3.38249996034962e-07
0.000287485897909271
0.000338735399280482
0.000238052342293965
0.000257590359844456
0.000178142028107176
0.000324185042950505
0.000131489794874559
0.000164143298091046
0.000190918882551922
9.14499065516497e-05
8.39321624054405e-05
7.22723799469234e-05
5.81242082740372e-05
4.10609866687079e-05
1.97677772230598e-05
0.000163407179622133
0.000208713115269026
0.000106976571632959
4.34290146523233e-05
2.06052196557364e-06
0.000244479019714436
0.000126459734873164
0.00011154950067079
9.16943625478323e-05
6.61391291935822e-05
3.3378139005502e-05
7.03905280916273e-06
6.01673277905261e-09
0.000406515885901853
0.000426412194640367
0.000379122452972743
0.000328098755276606
0.000212926378364532
0.000273126935165971
9.35449993636965e-05
0.000137676991814719
1.85905693500033e-05
1.29297593436454e-05
7.20176962560634e-06
2.33592584893193e-05
2.66214471843637e-05
2.60722235484035e-06
2.88256017602046e-05
2.67657197726476e-09
3.54519797797929e-07
2.27009041864834e-06
4.99049403678511e-06
7.83853396056744e-06
1.05305507595459e-05
1.28177996126715e-05
1.48197300768409e-05
5.95674414303469e-10
1.01360004095791e-10
1.99068586316113e-09
1.50590351189183e-08
4.40775464249175e-08
9.13603855743123e-08
1.51682935976052e-07
2.21003630024814e-07
2.88124694171682e-07
3.34712671971979e-07
3.61665781484427e-07
1.40444119577719e-10
3.63848250409916e-09
1.85460686108349e-08
4.04579049901062e-08
6.41269710262383e-08
8.84680496217451e-08
1.11167655819251e-07
1.31937331309674e-07
1.54911978352504e-07
1.68019124110453e-05
0.000101945421094602
0.000231412380163614
0.000361692995546948
0.000462460624175195
0.000512989534171323
0.00050108982010055
0.000425230853522473
0.000297451713032229
0.000147479489341961
3.08902032959618e-05
3.8887027132881e-07
0.000279460469388334
0.000401489110124003
0.000323954595073112
0.000422191074927757
0.000330688197564309
0.000225506379508377
0.000318807131375041
0.000247141879090869
0.000161167719330303
0.000377261011748335
0.000115604876762572
0.000154270608510257
0.000185448574490162
0.00021060662215198
6.71414091321726e-05
9.27566093173442e-05
8.15757574689446e-05
6.7511540717467e-05
5.00326278471644e-05
2.68683248852096e-05
3.51429207940458e-06
0.000152202222309963
0.000202909858249192
0.000242775104808431
8.79542869332015e-05
1.71207532808698e-05
1.05799025572536e-08
0.000274087484906189
0.000140210434333349
0.000127180286989021
0.000109418015573805
8.67931336177658e-05
5.79084679666201e-05
2.27214122518789e-05
1.00916440210008e-06
5.58855378142453e-09
0.000460367102680989
0.000510765754850696
0.000499617326083466
0.000425267923062239
0.000360372791959249
0.000230952319129076
0.000299140860646877
0.000101815591805874
0.000149915129532702
1.73860540987505e-05
2.29458380534324e-05
1.14052361237795e-05
5.78094336586239e-06
2.72933754625926e-05
3.02042712690628e-05
1.64790995796087e-06
3.20543948359696e-05
4.5953099507604e-09
5.14043987709874e-07
3.06744978072113e-06
6.39787868064829e-06
9.5808585264333e-06
1.23785829377065e-05
1.46586285447248e-05
1.66121815350532e-05
1.50925733801523e-09
7.94082912497936e-11
1.4714864076144e-09
1.05039272078001e-08
1.50977373966072e-07
3.41592228364313e-08
7.71646006192013e-08
1.3443480104659e-07
2.03669585034022e-07
2.8119445615475e-07
3.50323137366788e-07
3.94148639885762e-07
4.16167772845074e-07
1.9791054065062e-10
4.98705048903699e-09
2.44652586067457e-08
5.13167852055028e-08
7.88243696686856e-08
1.06006524730072e-07
1.29983312687175e-07
1.51197275894795e-07
1.74674379003121e-07
1.85368184831175e-05
0.000109644698989743
0.000247903516409124
0.00039044166524799
0.000508979956733634
0.000584792558480009
0.000605498208873413
0.000565086498178102
0.000465766324287242
0.000320625750584311
0.000158513574559423
3.3836762579107e-05
4.39660734524355e-07
0.0003147606911695
0.000264439911504001
0.000391249063198784
0.000454389057517419
0.000504828450680658
0.00035578946162643
0.000495282702466371
0.000413607999199408
0.000316340307742473
0.000203756212484063
0.00037221462402005
0.000308724505551652
0.000230017282643735
0.000133232718397406
0.000423679902122486
8.58010338688336e-05
0.000135919056058049
0.000174390338192949
0.000204633401082657
0.00022847397188284
2.76332905333814e-05
0.000100993589847016
9.02518620512716e-05
7.63565732160015e-05
5.84360755879369e-05
3.36035379147119e-05
5.08780914922997e-06
1.88208403035721e-08
0.000135903715373464
0.000193129380004995
0.000237627154829465
0.000272839885914383
6.18142676533165e-05
2.37101910666435e-06
1.00821218070164e-08
0.000300438230399757
0.000152724332385019
0.000141233659462704
0.000125371369635933
0.000105014481553553
8.01515540280994e-05
4.86260038874733e-05
1.30444004001112e-05
9.12346087103285e-07
7.13802539168905e-09
0.000582027997390742
0.000506625031283135
0.000603037570803074
0.000563662187390855
0.00046597797792745
0.000389021437738783
0.000247426389229049
0.000322510347362929
0.000109523013278358
0.000161121056555261
1.58356585647997e-05
2.17313544831515e-05
2.69292082253626e-05
9.8202005788612e-06
4.50324324171133e-06
3.09998653599441e-05
3.35810587677899e-05
1.17101742201221e-06
3.51061474156402e-05
6.65243076839761e-09
6.99057607396323e-07
3.98295323843164e-06
7.8752850854541e-06
1.13243689327191e-05
1.41798595138972e-05
1.64462412388903e-05
1.83373329222022e-05
1.26280910632851e-09
6.16749375852196e-11
1.1591851025864e-09
7.53935890430649e-09
1.33650047942519e-07
2.73538920488561e-08
6.43561360419467e-08
1.17286459899283e-07
1.82925234020555e-07
2.60769407825971e-07
3.43334212581505e-07
4.13330002539282e-07
4.53874541269768e-07
4.70718259766232e-07
2.79688125902942e-10
6.53681193991166e-09
3.11469971345958e-08
6.31254321820922e-08
9.45498949703083e-08
1.24086548915439e-07
1.49086557797016e-07
1.70573690661471e-07
1.94353811349566e-07
2.01959574447344e-05
0.000116808325217891
0.000263027320192887
0.000416273402609448
0.00054966403671181
0.000646197990635255
0.000694404922077774
0.000686979882828002
0.00062143760010058
0.000501862806700807
0.000341595154630864
0.000168665485484971
3.66220090840123e-05
4.90336976884565e-07
0.000297731072290858
0.000345660422897209
0.000442430415718954
0.00023876899318057
0.000373575534195396
0.000493545381097083
0.000499934540340323
0.000574834760596558
0.000596713524847354
0.000384082131317545
0.000559421491835005
0.000486749138434515
0.000399193427147231
0.000293576225503882
0.000168287207512993
0.000362864156805423
0.000419043143032469
0.000293158606937092
0.000204974854004035
9.38284675879249e-05
0.000464658161423845
0.000101815786337525
3.72509891841532e-05
0.000153955198237291
0.000192572867508191
0.000222077220249097
0.000244806780494974
4.08291432349037e-06
0.000108671249180887
9.83399699327411e-05
8.46541911022612e-05
6.63835653400296e-05
3.99556331609186e-05
6.85374144926466e-06
2.7547570737952e-08
1.73056787241637e-08
0.000179726089405015
0.000115439288029698
0.000228957797155401
0.000268223460750841
0.000299560378195042
3.49506904624925e-05
2.26506374560406e-06
1.47634414026295e-08
0.000324084696599541
0.000164162332889626
0.00015398750081535
0.000139634179300051
0.000121243460665345
9.9073628600831e-05
7.24787041662349e-05
3.94915974558054e-05
1.04694880360593e-05
8.24123727830891e-07
5.73038263418823e-09
0.000643063927531699
0.000691300709958363
0.000547109077725178
0.000684465888116719
0.000620102204774186
0.000502225143172927
0.00041476731742509
0.000262533057113759
0.000343641318019182
0.000116691343528753
0.00017141925306644
1.41686261883501e-05
2.01332554139444e-05
2.57149403943693e-05
3.06675265771859e-05
8.32923747241777e-06
3.61539592971464e-06
3.44834499394613e-05
3.67655552531268e-05
9.7813921835193e-07
3.79817190332054e-05
9.29505918095565e-09
9.13521712495648e-07
4.97427828975457e-06
9.37755115878197e-06
1.30136034549509e-05
1.59294222422253e-05
1.81660259798115e-05
1.99882916136427e-05
9.96790301787382e-10
4.641987795512e-11
8.73919307724957e-10
5.92671325721285e-09
1.08107227159618e-07
2.19380525935087e-08
5.34665074694157e-08
1.0089380087947e-07
1.62067371179159e-07
2.35873753286611e-07
3.20044334487555e-07
4.06150097394806e-07
4.76476569511994e-07
5.13537440505094e-07
5.25188553096635e-07
3.66039567560269e-10
8.30786461149197e-09
3.84326246858068e-08
7.56241888375853e-08
1.10797216101459e-07
1.42447269702134e-07
1.68281733331347e-07
1.89829271442851e-07
2.13699133549284e-07
2.17709938001151e-05
0.000123457193997639
0.000276913712260695
0.000439655997330072
0.000585753904034068
0.000699545320702388
0.000770680959596217
0.00079194010096343
0.000759019285867322
0.000671448592551587
0.000534244564454977
0.000360665387722245
0.000178033353934031
3.92541455053662e-05
5.40696732933332e-07
0.000268868794592148
0.00042203825213133
0.000326973135206338
0.000373173382465266
0.000486609054678244
0.000561410560764722
0.000197399409017044
0.000346016467349852
0.000475310757592255
0.000585175046124248
0.000539848890607966
0.000634930354429687
0.000683514499351623
0.000678066244049317
0.000409522396455003
0.000616012063729197
0.000551156793245775
0.000472951456191607
0.000377875702138555
0.000260631539569418
0.000118873561342877
0.000410361393864936
0.000348888205189937
0.000460377103249162
0.000272003128144563
0.000172807191332624
5.41275202430935e-05
0.000501125769204526
0.000116208090277312
4.62327784876846e-05
5.98072155862008e-06
0.000170341803273707
0.000209154459501533
0.000238030734536032
0.000259785343129572
3.85470832113368e-06
0.000105879067826358
0.000115809896132278
9.2385097263884e-05
7.3883038937354e-05
4.60645636806403e-05
8.79114852411603e-06
3.93956895696203e-08
2.45659072888193e-08
2.44830323698547e-08
0.000217359332955089
0.000163609197408564
9.40439154555181e-05
0.000260260148197968
0.000295311505543278
0.000323487157019073
2.82517366246721e-05
2.00889883022381e-06
1.31770960464074e-08
0.000345436689555423
0.000174655310303148
0.000165615757849154
0.000152521351852196
0.000135655953568146
0.000115601075807893
9.22090735322915e-05
6.44643419002546e-05
3.35399037071138e-05
9.46563694505846e-06
6.72569122984861e-07
4.49495100150273e-09
0.000696127491938957
0.000767140230166556
0.000788723115724715
0.000583030896423753
0.000756524420688453
0.000670195372650019
0.000534727036427899
0.000438072740935493
0.000276401331369032
0.000362844112041256
0.000123341124047254
0.000180912495210936
1.8388302530572e-05
1.24960223526856e-05
2.4083108929364e-05
2.94093430912326e-05
3.41709215061104e-05
7.04356398752414e-06
2.9726335841396e-06
3.77589722332386e-05
3.97574256412382e-05
7.92120001513002e-07
4.06946790563464e-05
1.22898728287667e-08
1.15454706643857e-06
6.00344643288269e-06
1.08678640759905e-05
1.46564472571884e-05
1.76134693239052e-05
1.98100335487701e-05
2.15523892258988e-05
7.36911620928283e-10
3.21447796958458e-11
4.47512763287626e-09
6.19555160298352e-10
8.1455499416421e-08
1.72197962489743e-08
4.37747435825065e-08
8.54221367223201e-08
1.41513237748442e-07
2.1052054334328e-07
2.91182298002547e-07
3.79840286108951e-07
4.68933619483884e-07
5.39439544903605e-07
5.73048882834187e-07
5.79259812969307e-07
4.69455142098813e-10
1.02383128877741e-08
4.61605230812504e-08
8.87215945752146e-08
1.27321289778672e-07
1.60887628493448e-07
1.87344675251745e-07
2.08746920645032e-07
2.32464687977161e-07
2.32537960943597e-05
0.000129605994035641
0.000289657952264229
0.00046090279523162
0.000618067857025049
0.000746497478322166
0.000836867051779008
0.000882522603854184
0.000878730089211857
0.00082302266815054
0.000716114243517231
0.000563454653901382
0.000378076214156847
0.00018669687136261
4.17383429718731e-05
5.90429472627703e-07
0.000222756187101071
0.000295459294916562
0.00039054124338094
0.00053999169556621
0.00046398799355952
0.000353081510522752
0.000397939023280764
0.000525397030837802
0.000619798510575898
0.000669565882049404
0.000140358907104586
0.000306613632015769
0.000448887270968298
0.000567334988802045
0.000666627645529707
0.000687243771229368
0.00057528950246005
0.000758259592686503
0.000780736326437756
0.000750163220199657
0.000432557411436781
0.00066623187254248
0.000608021885390781
0.00053804061696942
0.00045343988297015
0.000349316320825131
0.000218701291015402
6.97692865959574e-05
0.000452174704220464
0.000397515317822748
0.000330628269114862
0.000497103818916339
0.000246396686260752
0.000139721035719812
4.43019154590185e-05
0.00053379047142492
0.000129434349839391
5.4524094579974e-05
8.11331960608214e-06
5.63756156903795e-06
0.000185349181301822
0.000224337785489329
0.000252666884678476
0.000273535396251784
3.40746104238408e-06
0.000112890014017788
9.95929474788055e-05
0.000122429645399436
8.09153725900324e-05
5.18580458145199e-05
1.08197394484423e-05
5.24633339706103e-08
3.45355775400363e-08
3.57935074594119e-08
2.1843836921229e-08
0.000249630637943923
0.000203636874283257
0.000146725498016937
8.13635709828321e-05
0.000287746846410237
0.00031946677095586
0.00034504161769707
2.45584959233227e-05
1.62361036314834e-06
1.02654001818215e-08
0.00036481294804063
0.000176258643676822
0.000184313044777137
0.000164229960863239
0.000148578225838838
0.000130129300688134
0.00010902565636028
8.48677012996423e-05
5.73566290775605e-05
2.90930683791891e-05
7.93242863097745e-06
5.0890962989243e-07
3.31425629046983e-09
0.000832990358237416
0.000742840668468889
0.00087883572456574
0.000875495620500355
0.00061519711197813
0.000820553558440715
0.00071491964848489
0.000564029207160935
0.000459249114865459
0.000289126916377183
0.000380364385628688
0.000129488627622542
0.000189685092199053
2.22761226677955e-05
1.65656648994147e-05
1.08693025925683e-05
2.76911794616865e-05
3.2858834275716e-05
3.74553531261565e-05
5.90282923372549e-06
2.39795548193664e-06
4.08305216042493e-05
4.25751416683649e-05
6.04820596929069e-07
4.32526312603682e-05
1.57796215297062e-08
1.41531246361942e-06
7.04451069481973e-06
1.23063499779986e-05
1.624111965047e-05
1.9222466634542e-05
2.1368327038889e-05
2.30242106188573e-05
5.12262815642532e-10
2.09009975687683e-11
1.30369235138246e-08
3.19279668037154e-09
4.08333198112556e-10
5.76333988247953e-08
3.48179087596125e-08
7.07148977026939e-08
1.21202234425069e-07
1.85056175292147e-07
2.61476281439937e-07
3.46864068451234e-07
4.39445909467754e-07
5.31421631927161e-07
6.02154616220213e-07
6.32084649191686e-07
6.32531555982055e-07
5.7888750317047e-10
1.22986992083743e-08
5.42035864953036e-08
1.02095219591447e-07
1.43932729531204e-07
1.79220030901974e-07
2.06051621054761e-07
2.27106652511928e-07
2.5042122959509e-07
2.46371193820289e-05
0.000135266304620493
0.000301332191119639
0.000480235795815345
0.00064716190144832
0.000788208220854754
0.000894906203577684
0.000961276118132513
0.000982736607855577
0.000956115930503156
0.000880135785499487
0.00075620325879723
0.000589916035282101
0.000394019505603873
0.000194719102933675
4.40783971934947e-05
6.37992800204827e-07
0.00024541363953957
0.000345924622914391
0.000159575577276713
0.000319307564315975
0.000429243357270676
0.000509253819093835
0.000595747912395469
0.000648284114030252
0.000500911386696977
0.000376626534922869
0.000420378514754886
0.000559878839841055
0.000670707499336277
0.000742375772454808
0.00076673077464214
8.36708350886879e-05
0.000257015066302712
0.00041391994150677
0.000542700709966064
0.00064938641396612
0.000738895624605732
0.000823234622928877
0.000733325032956271
0.000607036167079215
0.000869663246369532
0.000867467998447676
0.000814229985897491
0.000453491234083305
0.000711030769634715
0.000658430625619596
0.000595415258327401
0.000519917953445447
0.000428453039256498
0.000315041873750732
0.000176267009124939
5.76486021628404e-05
0.000489187153514271
0.000440000086100648
0.000380978828169542
0.000309074064172171
0.000529930351286054
0.000219918907686908
0.000121067737528121
3.86363369027961e-05
0.000563203355066466
0.000141627902278643
6.23664130115333e-05
1.03441715344789e-05
7.6303606753589e-06
4.99960763025029e-06
0.000199133576191871
0.000238278152043955
0.000266106131963288
0.000286151735450827
2.75171910566703e-06
0.000119392001339237
0.000106300313422305
8.74647830748732e-05
0.000128547582391008
5.73229352693684e-05
1.28392891152968e-05
6.77840698629505e-08
4.51578344306375e-08
4.98923316161943e-08
3.22491411777053e-08
1.70956777926038e-08
0.000277569431363503
0.000237029582473972
0.000188873454737684
0.000132472089157837
7.20921517223733e-05
0.000312077920543258
0.000341143623833099
0.000364557749370996
2.0836559064e-05
1.23091744617223e-06
7.56044360425955e-09
0.000382469045248263
0.000186034952525376
0.000174914662490208
0.000193226496298472
0.000160259988757884
0.000143018501410379
0.000123618950701999
0.00010180061869394
7.74454523782348e-05
5.07948733217293e-05
2.48099322615428e-05
6.24369674975639e-06
3.62037699322162e-07
2.31442399862872e-09
0.000890743778000709
0.000957227953120376
0.000784341481540096
0.000979016180893987
0.000952878400455171
0.000644159393317815
0.00087767335518111
0.000755042414864527
0.000590560018581814
0.000478517969762935
0.00030078311915864
0.000396399151228927
0.000135147705287157
0.000197803143834185
2.03415940130725e-05
2.57702875747248e-05
1.46770716536846e-05
9.27499192331306e-06
3.10463170621839e-05
3.60831272106419e-05
4.05307855893297e-05
4.82670092861665e-06
1.85035085190671e-06
4.37170769730364e-05
4.52281841009713e-05
4.35438194233563e-07
4.56594158313367e-05
1.95427890998474e-08
1.69047273057876e-06
8.07749439566169e-06
1.36962711434228e-05
1.77579614834895e-05
2.07506845084911e-05
2.28327681179269e-05
2.43978532517762e-05
3.32269171112543e-10
1.24843721915865e-11
2.65817789505619e-08
9.34025922984378e-09
2.10688471239112e-09
2.3952806035445e-10
3.77659671157729e-08
5.67044787835545e-08
1.01200000196214e-07
1.59505135770802e-07
2.31233755213461e-07
3.12693049626838e-07
4.0223732504087e-07
4.98643621958951e-07
5.93566635301378e-07
6.64309321526424e-07
6.90235033156969e-07
6.831780896439e-07
6.95299493359927e-10
1.44500441928095e-08
6.2442555699852e-08
1.15562641177688e-07
1.60452290656939e-07
1.97209566468004e-07
2.2421080596617e-07
2.44661785076192e-07
2.67344628111478e-07
2.59156979907445e-05
0.000140448192596161
0.000311993127887063
0.000497819625731559
0.000673430405526235
0.00082548870010652
0.000946219053677973
0.00103028675043012
0.00107347995592018
0.00107250718664564
0.00102527456572301
0.000931287226471931
0.000792326535186679
0.000613967236467347
0.00040864946403846
0.00020214801368692
4.62694940392641e-05
6.83076953463883e-07
0.000265897326732909
0.000380354441940914
0.000177114585292889
0.000468929473428221
0.000290229974215708
9.66547021135128e-05
0.000463440738184983
0.000340884585117712
0.000561406170015611
0.000619179430903446
0.000644455506608408
0.00071820841537898
0.000745912945456584
0.00053379962403603
0.000397988300970312
0.000440781137578369
0.00059079175094778
0.000715598891942314
0.00080575102348402
0.000853581820848568
0.000853535021674683
6.95853312748434e-05
0.000207271745660633
0.000372370401323421
0.000511563645324596
0.000626213102891333
0.000722124605258004
0.000803066311191551
0.000880247300602333
0.000947103908481931
0.000774276870737751
0.000635627435142448
0.00096974736793345
0.000944826506776778
0.000871340848001572
0.000472541839737323
0.000751175686117537
0.000703311989499524
0.000646109557721237
0.000578144024140058
0.000497180785059391
0.000399247658723175
0.000280049127256219
0.000152720398916499
5.06071468484741e-05
0.00047733011238455
0.000522139751234338
0.000424334407445116
0.000361506134356317
0.000286123332305306
0.000559423933885827
0.000198446770160695
0.000107794582584767
3.31149420880059e-05
0.000589803568435159
6.96853702662201e-05
0.000152880879437883
1.26464331093842e-05
9.74340819618403e-06
6.79225922699201e-06
4.0450554273639e-06
0.000211805728041258
0.000251087074266849
0.000278439885720021
0.000297707680443136
2.09381401093143e-06
0.000125401884614085
0.000112524961991192
9.35624769505354e-05
6.24531975720018e-05
0.000134178533223161
1.48128468288659e-05
8.39092927265988e-08
5.75567209718062e-08
6.62057052594107e-08
4.49767578270249e-08
2.52997098332845e-08
1.26040165911426e-08
0.000265390627585068
0.000302028509503539
0.000223064649616831
0.000174296851462202
0.000119787366056133
6.33785166576826e-05
0.000333784316407043
0.000360705238212516
0.000382306343242257
1.68995806422516e-05
8.82293119981302e-07
5.30478671050903e-09
0.000398610942589159
0.000195043345290239
0.000184705644077062
0.000170880495109365
0.000201466765756335
0.000154596724313571
0.00013640866829923
0.000116324230334251
9.40533152748499e-05
6.98730547769095e-05
4.42097846810963e-05
2.03502786653909e-05
4.62131223095308e-06
2.3870085915457e-07
1.5098158109976e-09
0.000941803294977135
0.00102592756285877
0.00106938705439199
0.000821435469292095
0.00106877246579227
0.00102201553185494
0.000670310268871437
0.000928808156957594
0.000791179115765333
0.000614663400543639
0.000496043884113749
0.000311427788814588
0.000411106569318793
0.000140328800315678
0.000205317511765623
1.8249205230729e-05
2.36902603349207e-05
2.90066943707837e-05
1.27209175935665e-05
7.68573343066422e-06
3.41731522330872e-05
3.90984243926786e-05
4.34148599058859e-05
3.78401249253349e-06
1.34599026880478e-06
4.64309446501411e-05
4.77213640402026e-05
2.88879064394144e-07
4.79096336827554e-05
2.35364427509158e-08
1.97478881045293e-06
9.08890075665051e-06
1.50317743124147e-05
1.91993979795565e-05
2.21868212664313e-05
2.41997480862094e-05
2.566730078803e-05
1.92524685221686e-10
5.80953240594409e-12
4.35944640758435e-08
1.92066188361583e-08
6.17071975520941e-09
1.22207192209969e-09
1.13441631534392e-10
2.18822436037178e-08
8.17620955249095e-08
1.34002494408471e-07
2.00174978105731e-07
2.77609118548519e-07
3.63519026180023e-07
4.57096209405237e-07
5.57411982022834e-07
6.55097486421291e-07
7.25490184995954e-07
7.45127622528207e-07
7.30834077955309e-07
8.156578009657e-10
1.66638166038642e-08
7.07757293127044e-08
1.2897895350325e-07