/*--------------------------------*- C++ -*----------------------------------*\
  =========                 |
  \\      /  F ield         | OpenFOAM: The Open Source CFD Toolbox
   \\    /   O peration     | Website:  https://openfoam.org
    \\  /    A nd           | Version:  12
     \\/     M anipulation  |
\*---------------------------------------------------------------------------*/
/*   Windows 32 and 64 bit porting by blueCAPE: http://www.bluecape.com.pt   *\
|  Based on Windows porting (2.0.x v4) by Symscape: http://www.symscape.com   |
\*---------------------------------------------------------------------------*/
FoamFile
{
    format      ascii;
    class       volScalarField;
    location    "700";
    object      omega;
}
// * * * * * * * * * * * * * * * * * * * * * * * * * * * * * * * * * * * * * //

dimensions      [0 0 -1 0 0 0 0];

internalField   nonuniform List<scalar> 
10228
(
2.93334415774853
2.96064319258036
2.96350813983652
2.47469008983647
2.44248103211299
2.94198163215907
2.99299455672107
2.95665653589876
0.665686459921557
2.45215098310825
0.666637240393759
2.4044775775588
2.42539279675091
3.02238242449047
3.00033405126374
3.03463607644713
3.04377591124882
0.513776107354353
0.475881031467634
2.50624199840298
0.472893568061868
0.517626457683862
0.662374008963669
2.3786467035682
2.36519228612206
2.41877600948943
2.97390843456781
2.99901588693287
3.04482624752959
3.07872551391626
3.01839252174946
0.506494100791194
0.229135677971749
0.451421945782267
2.47352033303656
0.228067706073131
0.464113735418367
0.442535652323016
0.515553261443437
0.507059288383775
0.658594722641891
2.35771550848452
2.31066630402846
2.33138962150574
2.40498329726222
3.05610419993074
2.9847058675185
3.02105751304886
3.07319465690437
3.08920022828655
3.05712723308697
0.507137901773297
0.192902649092539
0.180293557032329
0.4371332448446
2.49502197077574
0.225579367623205
0.191941098755503
0.178081289880103
0.430234845950521
0.457902977588261
0.428307700937813
0.510818536727372
0.503379922853542
0.51028458205324
0.656496527092785
2.37667448793753
2.29353925530468
2.2653554747599
2.31570880181079
2.40609950606438
3.07772629892005
2.99655492036684
3.0025463543276
3.04315669480242
3.09233607255872
3.10441322146061
3.04133952911207
0.512893640168669
0.191189704675785
0.131697797391522
0.16949122694953
0.431089167929509
2.47713641790772
0.189987246432257
0.175012945721473
0.223539316491753
0.130868207414242
0.190533063868737
0.167065809537956
0.414788885306695
0.422262204575574
0.457913776517864
0.420670676564202
0.507806277272933
0.497449818327532
0.507017924556567
0.514969715676449
0.660884030999007
2.29336258109869
2.31908787530369
2.2440395238172
2.24625407100867
2.31166815378968
2.39992200036377
3.41256773533604
3.07763158978861
3.00140512122358
3.02299098617712
3.06385963023852
3.10290312143972
3.10114243681814
3.04746487985544
0.514716866387651
0.19618165837594
0.12333021158855
0.116167754936307
0.168688958141777
0.426564133193782
2.47744822927689
0.188659258604253
0.187889427508231
0.12948036902064
0.16368305335076
0.172826904699778
0.223222979064584
0.122798558408622
0.115378678264932
0.195024789632704
0.165869617153059
0.406359998229213
0.405734921897097
0.422363179490654
0.468588201328921
0.416029688203683
0.507428145884536
0.49390730867369
0.501158638670629
0.511556614298354
0.51745663673892
0.67632180058373
2.34880711927163
2.19723128411419
2.26653116136666
2.22078910154788
2.2423138119467
2.30858631091537
2.39534328787845
3.96112726185701
3.38727566003355
3.08930598533613
3.03247251255776
3.04876269410822
3.07801138174501
3.10403926920519
3.09813218289182
3.0417106255399
0.520019043949935
0.201332708065877
0.123637462661942
0.102497015781974
0.112392018714888
0.171047545398884
0.427081675896786
2.47083288357145
0.121835371161667
0.192936224400817
0.186523877416399
0.128173413363114
0.186750597418044
0.114164592604672
0.162201508215045
0.161112333298089
0.172648293625997
0.227059275820106
0.102185591935534
0.123133046728844
0.11160283081919
0.200241002524919
0.168211415063155
0.396679430201193
0.401802843451044
0.404709569689399
0.434338501322893
0.499880081091076
0.415065751324916
0.515346893470988
0.494995104343898
0.498162742551564
0.506166814955566
0.514197246303526
0.520030388082969
0.83807625867655
2.47411472882944
2.42132770044612
2.14804542246507
2.22757321367142
2.21502793569627
2.23979254345338
2.30304245191035
2.38957271152932
3.98454539997751
3.38429181846274
3.13374544459249
3.07185547127727
3.06829439164569
3.08139288514158
3.09874572852234
3.09206023384252
3.04080916631707
0.523750102992179
0.206177163527581
0.126022193924143
0.099067939092327
0.0951501303928292
0.112564629315032
0.174576367148947
0.430466278153082
2.46866898858589
0.101624104836275
0.122283208670369
0.120889687193506
0.19817881013161
0.190712494043755
0.185381632175488
0.113040741648069
0.127698424463215
0.189208504756676
0.110399564363173
0.164444061090934
0.159218687606443
0.160392694370545
0.176869437471619
0.252138576721264
0.0949134896899394
0.0988778090822912
0.12552081311218
0.111757482984473
0.204895766564058
0.171635279892608
0.394176104821645
0.391703038913916
0.400564792022922
0.412486402905613
0.461178362283456
0.417512893353469
0.684124558030208
0.515496757596394
0.501451132718261
0.503828386063726
0.508959384602516
0.516231689671038
0.523013765335568
2.42304838411072
3.34281394003908
2.40073356072367
2.16214924801986
2.21574796645809
2.21278557213407
2.23431072380504
2.29713054762819
2.38573609883853
3.93584024790839
3.43956732638239
3.18913254764056
3.09753974814673
3.07484171849469
3.07704669536246
3.09204638526071
3.08790638573115
3.03970469229328
0.527456957654176
0.210370036650786
0.128908813939711
0.0990338225002236
0.0891289533923705
0.0928715019348354
0.114296925685348
0.178563934540998
0.434653651736148
2.46721285846169
0.0985404289532291
0.101130655110081
0.0944730242334228
0.121537187811632
0.124718552143187
0.120763789988678
0.202764183800664
0.196018845622385
0.189621850454161
0.188136907847873
0.109254932231815
0.112629835877817
0.130171244027814
0.215182757842828
0.110511203796686
0.167747247015365
0.161257164023167
0.157805500458593
0.162855192840763
0.194376337630693
0.494384897643466
0.0890540311450973
0.092639461877919
0.0988719910251676
0.128383237094862
0.113452660969539
0.209013651939264
0.175529090064259
0.388076057651396
0.398170736540397
0.390067604870635
0.402518850154962
0.424594027890441
0.421533277711164
2.34197553591902
0.681029762094741
0.524768947431373
0.507843122996347
0.506854887971883
0.510905693065472
0.518312200852563
0.526784962425824
3.32881084425849
4.55077481046686
2.34602068617911
2.14776741119003
2.23452782965404
2.2141192693024
2.20748216348818
2.22788253146304
2.29251742283539
2.383440882473
4.03451152542943
3.49230021699271
3.21861890817565
3.10691491441224
3.07209389150517
3.07038533288376
3.08646882946308
3.08522954838644
3.03975435627424
0.530897183049149
0.21415273934627
0.131805028917774
0.100273227687862
0.0872971997860963
0.0849949255004888
0.092797251785263
0.116686881205658
0.182633748638684
0.439011064462592
2.46689522727588
0.0986194742379348
0.0888881520742029
0.0983521835045561
0.0940663852949581
0.101310908232568
0.0921966883951398
0.121760875523138
0.1240931674604
0.127589648917345
0.123746125449146
0.206798026937749
0.20062326279367
0.195030117044629
0.192653693590962
0.214436481437097
0.108648660310514
0.109270844358718
0.11419439672992
0.144831431087175
0.465235791239426
0.112137169905212
0.171516402426147
0.164392229615797
0.159338578095276
0.158320906768051
0.172513209425346
0.252462757966182
3.01866887263268
0.0872692118813096
0.0849435787945698
0.0925439812204432
0.100117254478656
0.131266280228528
0.115805580771497
0.21279111877346
0.179553404484841
0.385678124284678
0.389573109012739
0.40608316483523
0.391229994292605
0.406408309362407
0.43791245617978
0.425816162565444
2.4284526135421
0.685558406531952
0.531560039677396
0.511198696864546
0.50873417376611
0.512752754829778
0.522041757644649
0.530304856374986
5.01509193282196
3.10207749963617
2.27411150516158
2.15460844671457
2.26153344129887
2.22442034427398
2.2083047198382
2.20057994928845
2.22270272182021
2.28965627624323
2.38236377475462
4.01735566160841
3.52454771597719
3.22905710121138
3.10562995456102
3.06613140204756
3.06461728700934
3.08284735444034
3.08396029740266
3.03982562786664
0.534183219513774
0.217594052764878
0.134586393091018
0.101998143911798
0.0872602255443109
0.0818053177166946
0.0835263360820859
0.0937674750545384
0.11934439046108
0.186630366570428
0.443416294219985
2.46679053956172
0.0985920324580845
0.0872108153210854
0.0999030984428476
0.0847985284872159
0.0888249880753492
0.0989557398059748
0.0917270816889747
0.0941061557569784
0.103573503827045
0.0920542415799789
0.125391600464544
0.124559929553108
0.127033694628837
0.130474978270704
0.139481319813572
0.210561565447258
0.204647458062133
0.199731923682282
0.19806841814563
0.219265578051096
0.459382678553266
0.109161643871964
0.108401181415301
0.110780312053521
0.121114553359133
0.223031369308462
3.30360537831067
0.114420734233316
0.175460636256983
0.167985876614435
0.162194418048048
0.158570524408773
0.161194078838546
0.191193556375817
0.638510073292938
4.65865405731481
0.0872483635681409
0.0818105437312371
0.0834636823449898
0.0934891083251452
0.101846537842688
0.134044144182965
0.118433687982405
0.216230922265653
0.183516857867465
0.38552056078694
0.38580072450155
0.39342251545143
0.414013183726749
0.394943961531586
0.410603536099222
0.457082022643941
0.430152370314866
2.4111239428683
0.691299055755255
0.535353211967697
0.512894417584941
0.510359822184837
0.5157998161906
0.525506242284402
0.533576239272689
3.1831489081328
2.94984523647159
2.3626617732365
2.19628630523527
0.697786725502162
2.26525913964641
2.23190618249149
2.21528543092499
2.20096011937425
2.19480755322473
2.21938749352354
2.28813596957624
2.3819044064877
4.06598075623168
3.52954906525851
3.22834343679974
3.10042318490173
3.06063609466772
3.06073442993323
3.08085084801398
3.08341502819609
3.03994263642391
0.537197838836551
0.220754082674224
0.137212364013757
0.103889730686056
0.0880472742051775
0.0807636625473441
0.0792811839194889
0.0834027958257177
0.0952602551110781
0.1220889351573
0.190498701549156
0.447711612342084
2.46680339160775
0.0999718025904128
0.0994691204237815
0.0873239971616807
0.0872407450982249
0.0817842143014773
0.101657334508556
0.0832831592136962
0.0846829483208266
0.0892784453245503
0.10187224700764
0.091479490173227
0.0914994197293829
0.0953078631501481
0.111683201435272
0.0929457258433274
0.142149711896997
0.128628562711332
0.127667800759208
0.129963933132379
0.13326021281167
0.21878368463421
0.213993934701589
0.208360629619943
0.203794718276394
0.202968640242501
0.224201836585243
0.463064078936373
3.2413170644985
0.111771126909031
0.108127380967139
0.109683540071229
0.112954391277004
0.141747147946732
0.608677977385046
5.05110430682481
0.1169919740752
0.179360391548779
0.171821728812507
0.165557366086931
0.160879876212088
0.158573288922125
0.166281476709614
0.23352805452026
0.538910771173898
3.14514132987044
0.0807887893213946
0.0880454175849918
0.0792796338333069
0.0833209274585954
0.0949602160853475
0.103743594745262
0.136669211994537
0.121154296088829
0.219382917648779
0.187355546422859
0.386755736097197
0.384654632949695
0.389242428237068
0.397088923101992
0.421149992344156
0.399030290431004
0.414865269561311
0.464745117075979
0.434425221398749
2.41955515316451
0.693944883876168
0.536791245009714
0.514194162762475
0.512475545357202
0.51916610987048
0.528714317075795
0.53660655583534
2.97338144938118
2.90893689857734
2.35450589973612
2.2845954383097
0.655656448705356
2.24531975468491
2.23049528918166
2.2181144041383
2.2075219229548
2.19469790967696
2.19103912828657
2.21756813268145
2.28743081047476
2.38173913908047
4.0453313293927
3.52946218240698
3.2236314044868
3.09527879074151
3.05682712421073
3.05851324799081
3.07990059101268
3.08322727295677
3.04001425419102
0.539949867944122
0.223650621591052
0.139673288784572
0.105806731061889
0.0892223934205078
0.0807920459914727
0.0774344932514075
0.0783155641462484
0.0840080200762205
0.0970204933274107
0.124831035282306
0.194204631462683
0.451848357426857
2.46682449539986
0.10103220003568
0.101792407756837
0.0874580480930189
0.102827841917716
0.0880384655129468
0.0818476182249245
0.0880701568340091
0.0808177249619818
0.0792226665054925
0.103574764668161
0.0830932796248242
0.0830638614230222
0.0848416188769036
0.0910265628823691
0.111027595896623
0.0910032354943032
0.0922702869647664
0.0918429641022475
0.0989189620575352
0.134556015633391
0.0943704085487466
0.14603405675296
0.221317861921759
0.132057690560205
0.130714545443947
0.132780013343902
0.135892612412681
0.598847290667015
0.217135005593069
0.211784188539682
0.207469489485064
0.207184745653748
0.229106967261451
0.464227818341079
3.25604549847162
4.9713936525135
0.108633972474335
0.117681156366555
0.108917622759546
0.111680851684741
0.115439301690503
0.190733676626694
0.518064156975675
3.26181748758348
0.119666284231415
0.183143326084971
0.175638647650804
0.169256639736375
0.163935463757621
0.159890879983884
0.159022387297142
0.173010525235424
0.231387038871437
0.505234745885884
2.99384101504179
0.0808284426171163
0.0774538044039654
0.0892293916106853
0.0782969931007765
0.0839086416455161
0.0967031129169091
0.105665914185628
0.139129066809221
0.123876240894193
0.222274402752615
0.191036907096896
0.387762402172348
0.384598021943137
0.387324763215184
0.39317934934494
0.399632106583741
0.422109281320816
0.403205522456915
0.419083060609114
0.457248038119361
0.438542218293251
2.40950399993545
0.695387288289736
0.537613323441883
0.5156708518545
0.515621916045734
0.522331290823773
0.531698606522329
0.539408324977379
2.9119638633319
2.89675869102122
2.34949397922304
2.27707425850259
0.645211513083054
2.23193093840036
2.22179422334675
2.21626834930114
2.21036760293226
2.20107612067863
2.19051555136757
2.18894273129998
2.21669174889646
2.28713934575008
2.38168748337086
4.05121084068223
3.52439149501707
3.21878733967125
3.09161062282575
3.05460271735625
3.0574052461084
3.07950062709683
3.08317329389817
3.04004769562796
0.542459570083458
0.226300932078091
0.141964932762513
0.107681169087892
0.0905729584603511
0.081380632240763
0.0768410521792884
0.0758138899386935
0.0782338197012239
0.0850290828337357
0.0989126466484878
0.127520578801132
0.197731600314056
0.455793076070503
2.46683820679242
0.104693289447684
0.0883462435779607
0.102983272691497
0.10375989189649
0.0883586137474448
0.0809845088518539
0.112646877290889
0.0901564859308736
0.082246075603728
0.0791802280516483
0.0892791468115216
0.0808911655166727
0.0774528149786428
0.0781948594847195
0.105513897160363
0.0836391470392109
0.082772965625201
0.0829496138224122
0.0856347689657817
0.0954002956182918
0.135461883992575
0.0916028556707165
0.0907751669765608
0.0936139544163222
0.0931190898800235
0.106442600670715
0.185517197939765
0.0960763536239033
0.149975573319811
0.224710311281766
0.598681010841838
0.135341570456062
0.133612751530007
0.135439226248721
0.13835760411296
0.517735168582835
0.214920608096346
0.22001681209564
0.210894735124825
0.210939223897304
0.233428729204236
0.465130902950063
3.22613162856628
5.00221093169546
3.26659509009907
0.108423289879996
0.10995305241594
0.126447099285762
0.110612315485797
0.114040309493758
0.118046360359796
0.190642520690747
0.490811634019318
3.01153699434461
0.122349767642489
0.186775705120415
0.179352136846224
0.172979497389644
0.167435293760097
0.162495777277608
0.158829553641869
0.159460871877932
0.172736091278145
0.222084719740649
0.497703086107924
2.94835620943578
0.0814264286847679
0.0768711842516985
0.0758160403605858
0.0905877976389684
0.0781991496952993
0.0849160125646169
0.0985815459721879
0.107544693119193
0.1414196986282
0.126548624534646
0.224923740282133
0.194541560801544
0.384109753557203
0.38795108872054
0.386261908998539
0.39105213263307
0.397245461868235
0.39968107959098
0.418284118091111
0.407350839251216
0.42315152995062
0.451968819194083
0.442470573375264
2.40534948758315
0.695850007009064
0.538543573725696
0.51753075064532
0.518672193923458
0.525276402072378
0.534468460731388
0.541972081773894
2.91093425878155
2.91778076839671
2.27198643331627
2.34871472552772
0.643574565563822
2.22726843844899
2.21335306371686
2.21229123002479
2.20970719829482
2.20421379160452
2.19664403212877
2.18815874680418
2.18791904485415
2.21631500544867
2.28703080904378
2.3816757628641
4.04343377968761
3.52029816492115
3.21532818855446
3.08944124347738
3.05346982091834
3.05691325263735
3.07934949066984
3.08316282186678
3.04006141987784
0.544741528671066
0.228718718104465
0.144086167069985
0.109476628897611
0.0919866810460435
0.0822672703957722
0.0769421970593803
0.0747055777586482
0.0751917658861371
0.0786838282308865
0.0862934444953128
0.100858090715226
0.130127686042614
0.201072020612989
0.459534473789055
2.46684132153064
0.114954718805687
0.106861080113541
0.0907174551479785
0.0815416308844171
0.0893701866467779
0.105048767202631
0.105738650020198
0.0896209976554631
0.0811272123700167
0.0775101277747998
0.137938514903709
0.0950235689690673
0.0833468160005726
0.0792876788881858
0.0780484908263257
0.0815146083631188
0.0906578397851022
0.0769030136388428
0.0757691741421055
0.0780563244579444
0.107406003304697
0.0846139327499806
0.0832378889424003
0.0824508632136705
0.0831053943759372
0.0874702401264682
0.103955627575749
0.188176626798808
0.0928114328908426
0.0910189774918919
0.0908730719845796
0.0952587783138175
0.0954541739025671
0.117117306556341
0.187316914182394
0.0979259765830467
0.153649248322934
0.228772023782478
0.595569577710468
0.520119932836007
0.138420786274712
0.136339383460082
0.137925543344572
0.140651674521487
0.49362643543473
0.217796323548034
0.214042322878573
0.222658257570787
0.214374315902181
0.237324908690659
0.465515318345337
3.21860275019408
4.9571536637421
3.27286443279374
3.03146650644804
0.109617706743332
0.108051346623716
0.111375433950565
0.127217236318201
0.112785087787157
0.116558738654502
0.120676575147657
0.185292843948358
0.485523192557513
2.97893409739132
0.124989671922967
0.182924422548195
0.190236094020747
0.176620211980406
0.171048230588991
0.165734643019436
0.160845831275737
0.157396843324973
0.158082090278098
0.169624622140526
0.21817875634841
0.497864432238927
2.95214327410365
0.0769811033228012
0.0823213934954057
0.0747175692492671
0.0751774973304262
0.092008058478919
0.0786367840168418
0.086170222522828
0.100516057555441
0.109343470191262
0.143540055735487
0.129140758510126
0.227341726562012
0.197861384492567
0.384623020644539
0.383028351476802
0.387342491768974
0.389750309296106
0.394984557518655
0.401302552607788
0.398208230380928
0.415369405472876
0.411359701607525
0.427036539014548
0.449652450418368
0.446196688433249
2.3976017814397
0.696282636191751
0.539782194309071
0.520179097478979
0.521524472419052
0.528006078092014
0.537019476873486
0.54429504387702
2.92377496751797
2.93308967880842
2.22375396954262
2.26884822549948
2.34633921772024
0.643585081818425
2.20906938710183
2.20879835928053
2.20800776287713
2.2043221231567
2.19978735570407
2.1940929274813
2.18699738872036
2.18747340168471
2.21616850097634
2.28699705868687
2.3816780667407
4.04239437736319
3.51740055558508
3.21329374947673
3.08832762465776
3.0529558229327
3.05671497276932
3.07929855820425
3.08314657264292
3.04005943055333
0.546810982300426
0.230914065351255
0.146037483609878
0.11117204612124
0.09339951032782
0.0833065583443062
0.0774410253702243
0.074397718025354
0.0736532809067364
0.0751903175743892
0.0794661952292307
0.0876980605055282
0.102807866811984
0.132634246722293
0.204225130575995
0.463067000801818
2.46684125135358
0.11743296902068
0.0959117923833098
0.140763295358106
0.10909099694863
0.091922162236134
0.0828565075715712
0.0817966741633153
0.0777633813307314
0.0907249383188147
0.107104833863551
0.107662340472301
0.0910415390179447
0.0818020982226034
0.0770258798884795
0.0757188046289026
0.191603689284981
0.104186548614851
0.0855611798395755
0.0797097271042508
0.0779352770937159
0.0778269702000972
0.0770372013684701
0.0824301913295693
0.0920944395616387
0.0747018817397122
0.0750891208759368
0.0784627182330516
0.109215125458189
0.0858440743249424
0.0841531825495508
0.0827706060772224
0.0822103590489125
0.0836429818229038
0.0904864992761176
0.115806084165097
0.190988614899378
0.0943639116622561
0.0920112911213997
0.0905148318843559
0.0912107588178395
0.0970631019697864
0.0979926426528468
0.119113337050837
0.182922654055774
0.099837912832421
0.157056341329628
0.232491188492731
0.593950187772154
0.520768156001764
0.496392091653916
0.141291689674524
0.138882069728
0.140236146737783
0.142774195457365
0.489019707420709
0.220430288565594
0.216927174444393
0.217581048606982
0.225070493728545
0.240915888431296
0.46691620020459
3.20080415886425
4.94180733080082
3.26037498497836
3.03632537510818
2.99925132074685
0.111526388262167
0.108543049770846
0.107438925968648
0.110702045012882
0.124792380072835
0.115188383627326
0.119124541796972
0.123273287170413
0.181682313832882
0.486185719647407
2.98634313211537
0.127553800271845
0.186331722444276
0.180132520996984
0.193515410846914
0.174613745411681
0.16922082222541
0.163778253258307
0.158823854650471
0.155246509281878
0.155612354473674
0.166699544759909
0.216400813013295
0.499105955539248
2.96197195455537
0.0774878514813387
0.0744175313890562
0.0833677735078005
0.0736479336277034
0.0751635426420554
0.0934261398115308
0.079410421426538
0.0875674391542203
0.102456960861656
0.11104135932884
0.145490418800283
0.131634018845199
0.229536114327842
0.200995460243133
0.382365416056849
0.387859877912581
0.381675341994852
0.386422705014135
0.393532655392635
0.398936324612229
0.405241284101258
0.396771213067449
0.413976663535206
0.415188771430083
0.430722311197457
0.447407333211962
0.449718919145138
2.39307377959013
0.69683674701615
0.541338463694313
0.52282099213033
0.524166044300882
0.530529300254795
0.539339016875991
0.546396080176615
2.93200931974705
2.92380103322977
2.20706772240039
2.22026898787758
2.26504132159882
2.34583502975879
0.64275656202291
2.20706254197263
2.20681936426209
2.20366074763948
2.20012191983731
2.19714736291666
2.19281959555475
2.18648900293336
2.18729866678326
2.21611916311142
2.2869819859467
2.3816812502769
4.04128860432204
3.51588389296065
3.21226386870012
3.08782020683262
3.05274408740355
3.05664209534203
3.07925000122194
3.08318578792908
3.04005787862063
0.548666675610351
0.232894306588282
0.14782010925654
0.112754752387471
0.0947725189149793
0.0844121781023845
0.0781675328205978
0.0745683987189309
0.0729997820382055
0.0732894720123616
0.075591411445605
0.0804590571545629
0.0891770756769874
0.104730075185012
0.135029973976062
0.207195386286908
0.466409438070779
2.46683974593466
0.119900724763629
0.0973444992331471
0.143556740613095
0.0853325411373185
0.105448195396626
0.194672744058624
0.0934122102814416
0.111278265734768
0.0832659657155951
0.078374363195172
0.0825553875937422
0.0773822990556543
0.0757421470248154
0.09221737313208
0.109091204332108
0.109496762906482
0.0925114623211523
0.0827578637399709
0.0772084399948071
0.0747136035530212
0.0749529999026813
0.195217232097601
0.116700032390861
0.0890175148151409
0.0805602939374063
0.077935354762991
0.0775605082456541
0.0781732926921208
0.07756369563324
0.0744245852373454
0.0834933542604017
0.0935255295126172
0.073589296480108
0.0750435620231778
0.0792141125747986
0.11092097886827
0.0872238239687324
0.0853413408737052
0.0835888896813809
0.0822905176978657
0.0820793581738502
0.0844874399353147
0.093760467908004
0.118680419596629
0.186817351824568
0.0934328074077238
0.096105297940333
0.0911918973674167
0.0900034554308926
0.0913752335023896
0.098941228188251
0.0982340839704048
0.117361223451271
0.17934910614719
0.101760789530566
0.236127167442724
0.160213550700637
0.592378909505076
0.521343756234309
0.4972625635533
0.491887788730435
0.143961060933512
0.141239676437107
0.142371476716484
0.144725836485896
0.489569243034549
0.222835303895289
0.219566553406834
0.220532722254965
0.244243322800193
0.227260042746154
0.468946677420702
3.19250435030447
4.91093010801365
3.24611735337975
3.02802348486956
3.00410436515963
3.00760912225152
0.110128382983891
0.113786493296282
0.107212578537966
0.106023737076885
0.108596379864976
0.121692281866836
0.117679450455283
0.121672563908044
0.125801402621526
0.179172491977143
0.487309349354431
2.99479239867607
0.130022419454519
0.189562898595281
0.183488608893348
0.178067839944855
0.196612029210047
0.172706775606463
0.167126970762123
0.161462088171585
0.156376348181523
0.152561007213643
0.152932908496863
0.164416428306271
0.215028143110706
0.499594564305334
2.96529566700496
0.0782212769033074
0.0745954702940896
0.0730014023427938
0.0844792291384911
0.0732709737302397
0.0755560304882194
0.0948033101586974
0.0803974087404443
0.0890410552368388
0.104371801600524
0.112625873143879
0.147271786874728
0.134017762959203
0.231514502303133
0.203947659144285
0.380165207231309
0.385316519366347
0.39147791405548
0.380425560519485
0.385904260551779
0.397361949220828
0.402792432675186
0.409005976562215
0.396395804020596
0.41293782804894
0.418821684265982
0.434204793083127
0.445234154398382
0.453052668704997
2.39028609475708
0.697567773275049
0.543073050733758
0.52529016963448
0.52660202289057
0.532829075970636
0.541434131621941
0.548283463578516
2.93583886583162
2.95713776434728
2.20611034491874
2.20380049189387
2.2154500971396
2.26804300318133
2.36559470856337
0.642128171587429
2.20655810498079
2.20340444925853
2.1997846613087
2.19749063663045
2.19580409067606
2.19225848831062
2.18628974953034
2.18723808442888
2.21609551002829
2.28699823391728
2.38168029020506
4.0415613632379
3.51515610646832
3.21179707473268
3.0876110363668
3.05266369820651
3.05660239668989
3.07930793832664
3.08316840323303
3.04005788247027
0.550322175257705
0.234666063370757
0.149435522263179
0.114216972953551
0.0960809678696869
0.0855299652743464
0.0790179135934347
0.0750292749623629
0.0728906950963026
0.0723422105456614
0.0733831271341613
0.076259340337966
0.0815829642154364
0.0906862687652976
0.106603593607755
0.137309908981909
0.209989409008277
0.469571394359791
0.146263886302661
0.0990034945629606
0.12228205375353
0.0859291316968945
0.107123535886779
0.19738623889657
0.0794511148035634
0.0890833664770069
0.118325982847084
0.198823437984816
0.0950102514217686
0.0841401667313027
0.113373649652306
0.0781317459384808
0.0759155464168337
0.0776420341214732
0.083576004571228
0.0748337027597621
0.0748171480453765
0.09374472153266
0.110977287657815
0.0939693034026151
0.11122301685083
0.0838530456073559
0.0777728122945823
0.0744820249693064
0.0735127599636121
0.0748459019684213
0.191203620966571
0.120163931264136
0.092762503588118
0.0817605727220287
0.0780799013046268
0.0773057806061825
0.0778056623954264
0.0788835612646774
0.0746211997100898
0.0783134010520639
0.072964245776778
0.084618348192948
0.0949130111674898
0.0731798153244282
0.0754140110312293
0.0801858901177013
0.112511620701325
0.0886847213414381
0.0866919014986375
0.0847135978860783
0.0829656634435135
0.0818086821829774
0.0819888938505115
0.0852003582380822
0.0946635454829658
0.117437660055516
0.182935940630125
0.0924442539642265
0.0950936523262815
0.0979398175358714
0.0902920715023781
0.08930238780545
0.0907020102467693
0.100838281895041
0.0968076674262043
0.114527457771747
0.176444658202663
0.103660847752656
0.239682432875111
0.592532457919559
0.163134851478831
0.523509444090052
0.497705998411037
0.492341363862212
0.492487165630185
0.146429757989671
0.143414338911257
0.144333162570642
0.14650771712593
0.49028779575922
0.225018400936764
0.221974507554606
0.22323320301417
0.24731590760286
0.471108013471646
0.229233267492629
3.1868734284807
4.89532847186856
3.23124748330002
3.01425699106073
2.99546181130858
3.01213344477139
3.01563607774666
0.108497869927519
0.112230938979911
0.116194049641917
0.105462534265407
0.103911915681345
0.10586609656477
0.118570355511843
0.120175742526761
0.124162226066348
0.128239097602645
0.176945836331789
0.48749021001993
2.9947625174394
0.132384099830873
0.192615253088381
0.186674175911664
0.181376016596204
0.176101422402528
0.19952928298888
0.170529719347921
0.164676380094492
0.158823101306886
0.153594975152548
0.149649493873174
0.150506775023994
0.162602334241047
0.213783143865862
0.500502662039267
2.96780581388503
0.0790774694892934
0.0750628778872185
0.0728989898027015
0.0723300709975685
0.0856017451688929
0.0733556659259289
0.07621841684317
0.0961150570860896
0.0815174901471597
0.0905462513789855
0.106239052311411
0.114089375633995
0.148885678606685
0.136286791950485
0.233283466126257
0.206725567513578
0.378368414741415
0.3824469235626
0.388745996727834
0.395166040412969
0.37967333660651
0.386147923444291
0.401119463471232
0.406482483836383
0.412579633106435
0.396579653230767
0.412263263130236
0.422254195550651
0.437504303663654
0.444206678310689
0.456205769112949
2.38919053843879
0.698403314582442
0.544873368840948
0.527579712273478
0.528840536514874
0.534907949103128
0.543318312170053
0.549962376953388
2.9510659589547
2.91143612923146
2.20623425346863
2.20312084357587
2.19825999168993
2.21803832303274
2.29446168428478
2.39560718893061
0.645698308351097
2.20370316187432
2.19980729744495
2.19720843720386
2.19611674667654
2.19520613584776
2.19203835150045
2.18621991745766
2.18721997174059
2.21611171255147
2.28699767400933
4.04174786257808
3.51485085449415
3.21161791127631
3.08753132328139
3.05263844675118
3.05662068956516
3.07929230522201
3.08316912669374
3.04005785227368
0.551768628186756
0.236231614152064
0.150885190140836
0.115553824565852
0.0973086220871417
0.0866244867684389
0.0799254434637292
0.0756629780819726
0.0731238035715401
0.0719934327343195
0.0721850325152642
0.0737885982331297
0.0771042230337322
0.0827835219691403
0.0921950155169032
0.108414567428088
0.139472485806207
0.212613829625787
0.148862052110112
0.199998960695197
0.108955836439993
0.0869424635985821
0.100733564299899
0.124541908421005
0.0793758682071185
0.0898857984449156
0.120210355964683