/*--------------------------------*- C++ -*----------------------------------*\
  =========                 |
  \\      /  F ield         | OpenFOAM: The Open Source CFD Toolbox
   \\    /   O peration     | Website:  https://openfoam.org
    \\  /    A nd           | Version:  12
     \\/     M anipulation  |
\*---------------------------------------------------------------------------*/
/*   Windows 32 and 64 bit porting by blueCAPE: http://www.bluecape.com.pt   *\
|  Based on Windows porting (2.0.x v4) by Symscape: http://www.symscape.com   |
\*---------------------------------------------------------------------------*/
FoamFile
{
    format      ascii;
    class       volScalarField;
    location    "700";
    object      p;
}
// * * * * * * * * * * * * * * * * * * * * * * * * * * * * * * * * * * * * * //

dimensions      [0 2 -2 0 0 0 0];

internalField   nonuniform List<scalar> 
10228
(
83333.3353666128
83333.335366616
83333.3353665058
83333.3353666991
83333.3353667036
83333.3353666205
83333.3353665074
83333.3353662793
83333.3353665915
83333.3353668839
83333.3353665941
83333.3353667085
83333.3353668881
83333.3353666267
83333.3353665116
83333.3353662809
83333.3353659258
83333.3353663565
83333.3353667817
83333.3353671813
83333.3353667824
83333.3353663592
83333.3353665979
83333.3353667141
83333.3353668916
83333.3353671837
83333.3353666337
83333.3353665176
83333.335366286
83333.335365929
83333.3353654542
83333.3353659943
83333.3353665449
83333.3353670837
83333.3353675922
83333.3353665455
83333.3353667838
83333.3353670827
83333.3353663634
83333.3353659967
83333.3353666029
83333.3353667202
83333.3353668943
83333.3353671834
83333.3353675905
83333.3353666417
83333.3353665245
83333.3353662933
83333.3353659355
83333.3353654607
83333.3353648943
83333.3353655169
83333.3353661634
83333.335366865
83333.3353674942
83333.3353680971
83333.3353665471
83333.3353661644
83333.3353668632
83333.3353670802
83333.3353667852
83333.3353674925
83333.3353663692
83333.335366002
83333.3353655201
83333.3353666087
83333.3353667277
83333.3353668967
83333.3353671795
83333.3353675839
83333.335368093
83333.3353666507
83333.335366532
83333.3353663018
83333.3353659453
83333.3353654696
83333.3353649002
83333.3353642623
83333.3353649509
83333.3353656564
83333.3353664756
83333.3353673059
83333.3353680033
83333.3353686825
83333.3353661679
83333.3353668603
83333.335366549
83333.3353664742
83333.3353656597
83333.335367301
83333.3353674856
83333.3353670755
83333.3353667872
83333.3353679996
83333.3353663766
83333.3353660099
83333.3353655272
83333.3353649554
83333.3353666165
83333.3353667386
83333.3353669017
83333.335367173
83333.335367572
83333.3353680821
83333.3353686753
83333.3353666588
83333.3353665373
83333.335366312
83333.3353659568
83333.3353654813
83333.33536491
83333.3353642692
83333.3353635796
83333.3353643187
83333.3353650723
83333.3353659476
83333.3353669232
83333.3353678283
83333.3353685932
83333.3353693294
83333.3353656664
83333.3353661725
83333.3353664735
83333.3353672925
83333.335366855
83333.3353665519
83333.3353659501
83333.3353669182
83333.3353650776
83333.3353678207
83333.3353679888
83333.3353674736
83333.3353670682
83333.3353667904
83333.3353685865
83333.3353663887
83333.33536602
83333.3353655387
83333.3353649646
83333.3353643247
83333.3353666207
83333.3353667437
83333.3353669181
83333.3353671688
83333.3353675549
83333.3353680637
83333.3353686616
83333.3353693214
83333.3353666682
83333.3353665369
83333.335366321
83333.335365971
83333.3353654967
83333.3353649246
83333.3353642812
83333.3353635866
83333.3353628536
83333.3353636357
83333.3353644346
83333.3353653457
83333.3353663848
83333.3353674531
83333.335368419
83333.335369246
83333.3353700295
83333.3353659546
83333.3353650871
83333.3353656754
83333.3353664706
83333.3353661788
83333.3353669104
83333.3353678069
83333.3353672791
83333.3353668471
83333.3353665584
83333.3353663845
83333.3353653511
83333.3353674436
83333.3353644414
83333.335368408
83333.33536797
83333.3353685719
83333.3353674551
83333.3353670594
83333.3353667977
83333.3353692359
83333.3353664035
83333.335366034
83333.335365553
83333.3353649792
83333.3353643354
83333.3353636428
83333.335366598
83333.3353667437
83333.3353669563
83333.335367175
83333.3353675357
83333.3353680384
83333.3353686391
83333.3353693058
83333.3353700195
83333.33536655
83333.3353663249
83333.3353659866
83333.3353655166
83333.3353649445
83333.3353642987
83333.3353635996
83333.335362862
83333.3353620931
83333.3353629105
83333.3353637517
83333.3353646973
83333.3353657601
83333.3353669166
83333.3353680482
83333.3353690675
83333.335369949
83333.3353707723
83333.3353663824
83333.3353653592
83333.3353659563
83333.3353644529
83333.3353650996
83333.3353656863
83333.3353668971
83333.3353664657
83333.3353661875
83333.3353674272
83333.3353683893
83333.3353677861
83333.3353672593
83333.3353668349
83333.3353665681
83333.3353669108
83333.3353657641
83333.3353647042
83333.3353680337
83333.3353637595
83333.3353690527
83333.3353679433
83333.3353685483
83333.3353692182
83333.335367431
83333.3353670543
83333.3353699361
83333.3353663925
83333.335366049
83333.3353655704
83333.3353649976
83333.3353643526
83333.3353636552
83333.3353629184
83333.3353666128
83333.3353669112
83333.335367229
83333.3353675282
83333.3353680103
83333.3353686081
83333.3353692806
83333.3353700019
83333.3353707609
83333.335366338
83333.3353660009
83333.3353655409
83333.3353649707
83333.3353643226
83333.3353636196
83333.3353628758
83333.3353621017
83333.3353613009
83333.3353621486
83333.3353630275
83333.335364008
83333.3353650881
83333.3353662782
83333.3353675193
83333.3353686981
83333.335369766
83333.3353706945
83333.3353715529
83333.3353657681
83333.3353663731
83333.3353668989
83333.3353653651
83333.3353647145
83333.3353659549
83333.3353637725
83333.3353644683
83333.3353651148
83333.3353656981
83333.3353674049
83333.3353668781
83333.3353664554
83333.335366191
83333.3353680104
83333.3353690299
83333.3353683628
83333.3353677578
83333.33536723
83333.3353668139
83333.3353665319
83333.3353662782
83333.3353675071
83333.3353650941
83333.3353640156
83333.3353686796
83333.3353630359
83333.3353697479
83333.3353685163
83333.3353679099
83333.335369191
83333.3353699157
83333.3353674183
83333.3353706798
83333.3353664027
83333.3353660568
83333.335365591
83333.3353650213
83333.3353643752
83333.3353636735
83333.335362932
83333.335362157
83333.3353667525
83333.3353671639
83333.3353673108
83333.3353675539
83333.3353679939
83333.3353685733
83333.3353692465
83333.3353699744
83333.3353707415
83333.3353715407
83333.3353660163
83333.3353655653
83333.3353650025
83333.3353643541
83333.3353636472
83333.3353628971
83333.3353621159
83333.3353613093
83333.3353604794
83333.3353613538
83333.3353622657
83333.3353632781
83333.3353643779
83333.3353655831
83333.3353668764
83333.335368177
83333.3353693973
83333.335370509
83333.3353714782
83333.3353723684
83333.3353651005
83333.3353662726
83333.3353657633
83333.3353668767
83333.3353663553
83333.3353674855
83333.3353653674
83333.3353647234
83333.3353640269
83333.335365947
83333.33536305
83333.3353637899
83333.3353644869
83333.3353651328
83333.3353657113
83333.3353673753
83333.3353679806
83333.3353668493
83333.3353664338
83333.3353661842
83333.3353686508
83333.3353697214
83333.335368999
83333.3353683289
83333.335367721
83333.3353671912
83333.3353667685
83333.3353665383
83333.3353655862
83333.3353668702
83333.3353681601
83333.3353643848
83333.3353632863
83333.3353693758
83333.3353622747
83333.3353704882
83333.3353691552
83333.3353684786
83333.3353678877
83333.3353698856
83333.335370657
83333.3353674595
83333.3353714622
83333.3353660682
83333.3353656128
83333.3353650494
83333.3353644047
83333.3353636996
83333.3353629524
83333.3353621712
83333.3353613623
83333.3353669874
83333.3353672408
83333.3353673614
83333.3353675761
83333.3353679908
83333.3353685417
83333.3353692051
83333.3353699369
83333.3353707117
83333.3353715197
83333.3353723559
83333.3353655836
83333.3353650351
83333.3353643916
83333.3353636823
83333.3353629268
83333.3353621382
83333.3353613238
83333.3353604876
83333.3353596307
83333.3353605292
83333.3353614697
83333.3353625089
83333.3353636283
83333.3353648479
83333.3353661644
83333.3353675347
83333.3353688826
83333.3353701418
83333.3353712922
83333.3353722976
83333.3353732183
83333.3353651005
83333.335365585
83333.3353643921
83333.3353668541
83333.3353662543
83333.335365749
83333.335367454
83333.3353668466
83333.3353663258
83333.3353681313
83333.3353653645
83333.3353647293
83333.3353640381
83333.3353632984
83333.3353659311
83333.3353622894
83333.3353630687
83333.3353638113
83333.3353645101
83333.3353651545
83333.3353657294
83333.3353673359
83333.3353679439
83333.3353686155
83333.3353668049
83333.3353664057
83333.335366184
83333.3353693427
83333.3353704586
83333.3353696868
83333.335368961
83333.3353682885
83333.3353676802
83333.3353671641
83333.3353668429
83333.3353667507
83333.3353648517
83333.3353661624
83333.3353675233
83333.3353688626
83333.3353636377
83333.3353625186
83333.3353701182
83333.3353614791
83333.3353712694
83333.3353691121
83333.3353698463
83333.335368442
83333.3353678851
83333.3353706242
83333.3353714373
83333.3353674724
83333.3353722805
83333.3353656306
83333.3353650782
83333.3353644385
83333.3353637335
83333.3353629812
83333.3353621935
83333.3353613772
83333.3353605378
83333.3353671076
83333.3353672794
83333.3353673894
83333.3353675924
83333.3353672278
83333.3353679822
83333.3353685137
83333.3353691604
83333.3353698905
83333.3353706711
83333.3353714877
83333.3353723338
83333.3353732055
83333.3353650576
83333.3353644283
83333.3353637228
83333.3353629645
83333.3353621693
83333.3353613467
83333.3353605022
83333.3353596386
83333.3353587573
83333.3353596775
83333.3353606428
83333.3353617048
83333.3353628424
83333.3353640745
83333.3353654053
83333.3353668124
83333.3353682429
83333.3353696329
83333.3353709291
83333.3353721127
83333.335373151
83333.3353741021
83333.3353643948
83333.3353650902
83333.3353655716
83333.3353648527
83333.3353661509
83333.3353636458
83333.3353674993
83333.3353668254
83333.3353662261
83333.3353657219
83333.3353680931
83333.3353674149
83333.3353668041
83333.3353662781
83333.3353688287
83333.3353653565
83333.3353647312
83333.3353640471
83333.3353633112
83333.3353625313
83333.3353659243
83333.3353614943
83333.3353623097
83333.335363093
83333.335363838
83333.3353645363
83333.3353651828
83333.3353657337
83333.3353672856
83333.335367899
83333.3353685738
83333.3353693031
83333.3353667496
83333.3353664723
83333.3353663713
83333.3353700816
83333.3353712373
83333.3353704207
83333.3353696449
83333.3353689163
83333.335368245
83333.3353676454
83333.3353671688
83333.3353669546
83333.3353668562
83333.3353654052
83333.3353640803
83333.3353668054
83333.3353682281
83333.3353696108
83333.3353628532
83333.3353617153
83333.3353709035
83333.3353606523
83333.3353720887
83333.3353690646
83333.3353697982
83333.3353705814
83333.3353684097
83333.3353678686
83333.3353714019
83333.3353722539
83333.3353674638
83333.3353731333
83333.3353651012
83333.335364471
83333.3353637719
83333.3353630178
83333.3353622241
83333.3353614005
83333.335360553
83333.335359686
83333.335367157
83333.3353673011
83333.3353674052
83333.3353676087
83333.3353672644
83333.335367966
83333.3353684807
83333.3353691134
83333.3353698363
83333.3353706197
83333.3353714438
83333.3353722996
83333.3353731822
83333.3353740886
83333.3353644502
83333.3353637625
83333.3353630074
83333.3353622084
83333.3353613784
83333.3353605254
83333.3353596531
83333.3353587646
83333.3353578608
83333.3353588009
83333.3353597876
83333.3353608686
83333.3353620229
83333.3353632669
83333.3353646067
83333.3353660341
83333.3353675147
83333.3353689966
83333.335370426
83333.3353717565
83333.3353729694
83333.335374038
83333.3353750183
83333.3353643888
83333.3353636498
83333.3353648442
83333.3353650676
83333.3353655474
83333.3353661275
83333.3353640827
83333.3353653971
83333.335366786
83333.3353628627
83333.3353681987
83333.3353674632
83333.3353667871
83333.3353661841
83333.3353656784
83333.3353680482
83333.3353687859
83333.3353673655
83333.3353667476
83333.3353662236
83333.3353695732
83333.3353647276
83333.3353653571
83333.3353640523
83333.3353633226
83333.3353625457
83333.3353617288
83333.3353659847
83333.3353606677
83333.3353615157
83333.3353623356
83333.3353631216
83333.3353638663
83333.3353645665
83333.3353651947
83333.3353658853
83333.3353678471
83333.3353672287
83333.335368525
83333.3353692573
83333.3353700385
83333.3353667447
83333.3353665615
83333.3353664704
83333.3353708642
83333.3353720548
83333.3353711964
83333.3353703749
83333.3353695957
83333.3353688662
83333.3353682012
83333.3353676081
83333.3353671954
83333.3353670061
83333.3353669108
83333.3353646074
83333.3353660293
83333.3353632734
83333.3353675043
83333.3353689797
83333.3353704023
83333.3353620338
83333.3353608794
83333.3353717292
83333.335359797
83333.335372945
83333.335369014
83333.3353697423
83333.3353705285
83333.3353713557
83333.3353683707
83333.3353678432
83333.3353722162
83333.3353731055
83333.3353674853
83333.33537402
83333.3353644941
83333.3353638057
83333.3353630583
83333.3353622623
83333.3353614319
83333.3353605765
83333.3353597012
83333.3353588093
83333.3353671849
83333.3353673123
83333.3353674109
83333.3353676133
83333.3353672858
83333.3353679541
83333.3353684437
83333.3353690608
83333.3353697754
83333.3353705579
83333.3353713876
83333.3353722524
83333.3353731458
83333.3353740641
83333.3353750044
83333.3353637855
83333.335363049
83333.3353622527
83333.3353614183
83333.3353605573
83333.3353596762
83333.3353587788
83333.3353578677
83333.3353569432
83333.3353579014
83333.3353589063
83333.335360003
83333.3353611715
83333.3353624263
83333.3353637734
83333.3353652112
83333.3353667221
83333.3353682653
83333.3353697938
83333.3353712605
83333.3353726227
83333.3353738627
83333.3353749588
83333.3353759658
83333.3353643707
83333.3353648245
83333.3353636469
83333.3353628685
83333.3353640777
83333.3353653792
83333.3353650301
83333.3353655092
83333.3353660927
83333.335366755
83333.3353632769
83333.3353646029
83333.3353660143
83333.3353674794
83333.3353620446
83333.3353689465
83333.3353681575
83333.3353674183
83333.3353667367
83333.3353661286
83333.3353656327
83333.3353687368
83333.3353679947
83333.3353695269
83333.3353673065
83333.3353666854
83333.3353662152
83333.3353703616
83333.335364051
83333.3353647295
83333.3353654093
83333.3353633299
83333.335362559
83333.3353617443
83333.3353608936
83333.3353660666
83333.3353606895
83333.3353598125
83333.3353615424
83333.3353623654
83333.3353631506
83333.3353638947
83333.3353645799
83333.335365317
83333.3353659803
83333.3353684693
83333.335367792
83333.3353671795
83333.3353692045
83333.3353699888
83333.3353708179
83333.3353667818
83333.335366622
83333.3353665389
83333.3353716879
83333.3353729097
83333.3353720112
83333.3353711467
83333.3353703208
83333.3353695389
83333.3353688121
83333.335368154
83333.3353675925
83333.335367225
83333.3353670382
83333.3353669494
83333.3353637743
83333.3353652079
83333.3353667138
83333.3353624329
83333.3353682527
83333.3353697752
83333.3353712353
83333.3353611824
83333.3353600139
83333.3353725941
83333.3353589156
83333.3353738377
83333.3353696794
83333.3353689584
83333.3353704653
83333.3353712979
83333.3353721665
83333.3353683301
83333.3353678339
83333.3353730657
83333.3353739912
83333.3353674949
83333.3353749404
83333.335363828
83333.3353630924
83333.3353623039
83333.3353614711
83333.3353606082
83333.3353597246
83333.3353588242
83333.3353579096
83333.3353672011
83333.3353673157
83333.3353676079
83333.3353674087
83333.3353672965
83333.3353679368
83333.3353684058
83333.3353690039
83333.3353697076
83333.3353704863
83333.3353713188
83333.3353721914
83333.3353730954
83333.3353740257
83333.3353749788
83333.3353759512
83333.3353630723
83333.3353622949
83333.3353614631
83333.3353605975
83333.335359708
83333.3353588015
83333.3353578813
83333.3353569497
83333.3353560062
83333.3353569807
83333.3353580014
83333.3353591106
83333.3353602905
83333.3353615541
83333.3353629072
83333.3353643505
83333.3353658787
83333.3353674617
83333.335369061
83333.3353706329
83333.3353721351
83333.3353735269
83333.3353747922
83333.3353759129
83333.3353769405
83333.3353643393
83333.3353636331
83333.3353647914
83333.335365349
83333.335364062
83333.335362867
83333.3353620521
83333.3353632746
83333.3353645892
83333.3353659888
83333.3353649934
83333.335365459
83333.335366045
83333.3353667131
83333.335367443
83333.3353637721
83333.3353624377
83333.3353651972
83333.3353666935
83333.3353682238
83333.3353611939
83333.3353697388
83333.3353689015
83333.3353681081
83333.3353673632
83333.3353666763
83333.3353660708
83333.3353656209
83333.335369474
83333.3353686799
83333.3353679333
83333.3353703123
83333.3353672452
83333.335366636
83333.335366255
83333.3353711919
83333.3353633301
83333.3353640519
83333.3353647709
83333.3353654912
83333.3353625678
83333.3353617588
83333.3353609097
83333.3353600283
83333.335366133
83333.3353598342
83333.3353607165
83333.3353589309
83333.3353615731
83333.3353623945
83333.3353631764
83333.3353639094
83333.3353646827
83333.3353654102
83333.3353660557
83333.3353691442
83333.3353684099
83333.33536774
83333.3353671756
83333.3353699315
83333.3353707643
83333.3353716387
83333.3353668229
83333.3353666662
83333.3353665905
83333.3353725512
83333.3353728637
83333.3353738013
83333.3353719578
83333.3353710876
83333.3353702575
83333.3353694753
83333.3353687545
83333.3353681136
83333.3353675905
83333.3353672434
83333.3353670596
83333.3353669762
83333.3353643487
83333.3353629085
83333.3353658715
83333.3353674511
83333.3353615608
83333.3353690467
83333.3353706129
83333.3353721085
83333.3353603013
83333.3353591214
83333.3353734974
83333.3353580106
83333.3353747668
83333.3353703924
83333.3353696095
83333.3353688998
83333.335371228
83333.335372104
83333.3353730127
83333.3353682931
83333.3353678223
83333.3353739494
83333.3353749108
83333.3353674939
83333.3353758943
83333.3353631134
83333.3353623381
83333.3353615134
83333.3353606477
83333.3353597562
83333.3353588472
83333.3353579241
83333.3353569886
83333.3353672093
83333.3353673134
83333.3353679097
83333.3353675918
83333.3353674004
83333.3353672993
83333.3353683618
83333.335368943
83333.335369633
83333.3353704052
83333.3353712378
83333.3353721161
83333.3353730299
83333.3353739722
83333.3353749384
83333.3353759244
83333.3353769249
83333.3353623193
83333.3353615053
83333.3353606421
83333.335359748
83333.3353588328
83333.3353579034
83333.3353569627
83333.3353560124
83333.3353550514
83333.3353560406
83333.3353570752
83333.3353581943
83333.3353593824
83333.3353606526
83333.33536201
83333.3353634566
83333.3353649923
83333.3353666008
83333.3353682487
83333.3353698995
83333.3353715127
83333.3353730492
83333.3353744695
83333.3353757579
83333.3353768958
83333.3353779497
83333.3353636071
83333.3353647477
83333.3353643096
83333.3353628569
83333.3353640339
83333.3353653061
83333.3353645636
83333.3353659513
83333.3353632622
83333.335362052
83333.3353612026
83333.3353624369
83333.3353637618
83333.3353651763
83333.3353666625
83333.3353649787
83333.3353654091
83333.335365988
83333.3353666597
83333.3353673961
83333.3353681834
83333.3353643412
83333.3353629074
83333.3353615665
83333.335365856
83333.3353674269
83333.3353690146
83333.3353603133
83333.3353705734
83333.3353696907
83333.3353688483
83333.3353680494
83333.3353672996
83333.3353666156
83333.3353660266
83333.3353656624
83333.3353702557
83333.3353694133
83333.3353686152
83333.3353678689
83333.3353711398
83333.3353671923
83333.3353666379
83333.3353663066
83333.3353720627
83333.3353625689
83333.3353633302
83333.3353640838
83333.3353648554
83333.3353655638
83333.335361769
83333.3353609251
83333.3353600448
83333.3353591359
83333.3353661901
83333.3353589524
83333.3353598612
83333.3353607476
83333.3353580255
83333.3353616021
83333.3353624183
83333.3353631913
83333.3353639995
83333.335364778
83333.33536549
83333.3353661198
83333.3353698657
83333.335369078
83333.3353683506
83333.3353677049
83333.3353671837
83333.3353707021
83333.3353715811
83333.3353724994
83333.335366855
83333.335366702
83333.3353666317
83333.3353734533
83333.3353737532
83333.3353728068
83333.3353747296
83333.3353718935
83333.3353710176
83333.3353701849
83333.3353694059
83333.3353686967
83333.3353680796
83333.3353675855
83333.3353672516
83333.335367074
83333.3353669951
83333.3353634553
83333.3353649877
83333.3353620117
83333.335366591
83333.3353682364
83333.3353606594
83333.3353698837
83333.3353714912
83333.3353730215
83333.3353593932
83333.3353582048
83333.3353744394
83333.3353570839
83333.3353757324
83333.33537031
83333.335371146
83333.3353695337
83333.3353688389
83333.3353720276
83333.3353729455
83333.3353738933
83333.3353682538
83333.3353678007
83333.3353748672
83333.3353758641
83333.3353674838
83333.3353768775
83333.3353623581
83333.3353615477
83333.3353606902
83333.3353597953
83333.3353588782
83333.3353579464
83333.3353570026
83333.3353560481
83333.3353672118
83333.3353673076
83333.3353683118
83333.3353678755
83333.3353675716
83333.3353673894
83333.3353672967
83333.3353688761
83333.3353695516
83333.3353703149
83333.3353711449
83333.3353720265
83333.3353729484
83333.3353739023
83333.335374882
83333.335375882
83333.3353768968
83333.3353779359
83333.3353615303
83333.3353606837
83333.3353597922
83333.335358872
83333.3353579339
83333.3353569838
83333.3353560247
83333.3353550574
83333.3353540804
83333.3353550827
83333.3353561289
83333.3353572561
83333.3353584499
83333.335359724
83333.3353610837
83333.3353625316
83333.33536407
83333.3353656914
83333.3353673724
83333.33536908
83333.3353707794
83333.3353724327
83333.3353740029
83333.3353754513
83333.3353767553
83333.3353779063
83333.3353789978
83333.3353628354
83333.3353639962
83333.3353635831
83333.335365255
83333.335364706
83333.335364293
83333.3353632388
83333.3353620444
83333.3353645262
83333.3353659021
83333.3353637404
83333.3353651435
83333.3353666197
83333.3353624277
83333.3353612044
83333.3353603228
83333.3353615672
83333.3353629
83333.3353643241
83333.3353658297
83333.3353673917
83333.3353650224
83333.3353653732
83333.3353659329
83333.3353665982
83333.3353673386
83333.3353681325
83333.3353689709
83333.3353634501
83333.3353649756
83333.3353620114
83333.3353606658
83333.3353665717
83333.335368209
83333.3353698486
83333.3353594053
83333.3353714489
83333.3353705224
83333.3353696339
83333.3353687861
83333.3353679827
83333.3353672345
83333.3353665661
83333.3353660332
83333.3353657212
83333.3353701906
83333.3353710793
83333.3353693442
83333.3353685457
83333.3353678085
83333.3353720079
83333.3353671619
83333.3353666556
83333.3353663532
83333.3353729734
83333.3353625693
83333.3353617714
83333.335363355
83333.3353641709
83333.3353649335
83333.3353656316
83333.3353609367
83333.3353600609
83333.3353591526
83333.3353582188
83333.3353662412
83333.3353580464
83333.3353589791
83333.3353598923
83333.3353607765
83333.3353570983
83333.3353616248
83333.3353624336
83333.3353632743
83333.3353640968
83333.3353648622
83333.3353655639
83333.3353661766
83333.3353697917
83333.33537063
83333.3353690084
83333.3353682962
83333.3353676803
83333.3353671909
83333.3353715137
83333.3353724379
83333.3353733993
83333.3353668794
83333.335366732
83333.335366666
83333.3353743948
83333.3353746798
83333.335373693
83333.3353727375
83333.3353756949
83333.3353718167
83333.3353709363
83333.3353701039
83333.3353693322
83333.3353686391
83333.3353680451
83333.3353675708
83333.3353672528
83333.3353670836
83333.3353670084
83333.3353625307
83333.335364067
83333.3353656841
83333.335361086
83333.3353673607
83333.335369066
83333.335359731
83333.335370762
83333.3353724097
83333.3353739741
83333.3353584604
83333.335357266
83333.335375421
83333.3353561373
83333.3353767304
83333.3353702187
83333.3353710522
83333.3353719371
83333.335369452
83333.335368774
83333.3353728627
83333.3353738216
83333.3353748082
83333.3353682084
83333.3353677721
83333.3353758189
83333.3353768467
83333.3353674685
83333.3353778897
83333.3353615671
83333.3353607248
83333.3353598376
83333.3353589166
83333.3353579765
83333.335357024
83333.3353560614
83333.3353550896
83333.3353672107
83333.3353673005
83333.3353688029
83333.3353682563
83333.3353678374
83333.3353675495
83333.3353673778
83333.3353672903
83333.3353694628
83333.3353702154
83333.3353710404
83333.3353719228
83333.3353728508
83333.335373815
83333.3353748079
83333.3353758226
83333.3353768523
83333.335377908
83333.3353789847
83333.335360709
83333.3353598328
83333.3353589154
83333.335357972
83333.3353570132
83333.3353560447
83333.3353550689
83333.3353540861
83333.3353530947
83333.3353541086
83333.3353551644
83333.3353562974
83333.3353574949
83333.3353587707
83333.3353601305
83333.3353615774
83333.3353631156
83333.3353647422
83333.335366442
83333.3353681901
83333.3353699536
83333.3353716996
83333.3353733927
83333.3353749964
83333.3353764687
83333.3353777782
83333.3353789539
83333.3353628168
83333.3353632066
83333.3353620278
83333.3353644818
83333.3353639624
83333.335363566
83333.3353658456
83333.3353652074
83333.3353646788
83333.3353643393
83333.335362408
83333.3353637084
83333.3353611991
83333.3353650996
83333.3353665657
83333.3353642958
83333.3353628824
83333.3353657914
83333.3353673445
83333.3353615608
83333.3353603265
83333.3353606678
83333.3353594156
83333.3353620062
83333.3353634362
83333.3353649532
83333.3353665411
83333.3353681703
83333.3353650866
83333.3353653846
83333.3353658903
83333.3353665368
83333.335367273
83333.3353680711
83333.3353689161
83333.3353698017
83333.3353640576
83333.3353625268
83333.3353656684
83333.3353610864
83333.3353597378
83333.3353673383
83333.3353690359
83333.3353707238
83333.3353584725
83333.3353723646
83333.335371395
83333.3353704617
83333.3353695674
83333.3353687151
83333.3353679122
83333.335367176
83333.3353665406
83333.3353660581
83333.3353657792
83333.3353701157
83333.3353710091
83333.3353719434
83333.335369268
83333.3353684754
83333.3353677573
83333.3353729162
83333.3353671465
83333.3353666759
83333.3353663957
83333.3353739248
83333.3353617722
83333.3353625899
83333.3353609403
83333.3353634446
83333.3353642539
83333.3353650102
83333.3353656966
83333.3353600737
83333.335359169
83333.3353582354
83333.3353572795
83333.3353662883
83333.3353571184
83333.3353580724
83333.3353590098
83333.3353599211
83333.3353607985
83333.335356151
83333.3353616398
83333.3353625123
83333.3353633736
83333.3353641849
83333.3353649442
83333.3353656345
83333.335366228
83333.3353697113
83333.3353705477
83333.3353714348
83333.3353689378
83333.3353682465
83333.3353676584
83333.3353671929
83333.3353723652
83333.3353733342
83333.335374339
83333.3353668987
83333.335366758
83333.3353666949
83333.3353753762
83333.3353756438
83333.3353746165
83333.3353736189
83333.3353726541
83333.3353766929
83333.3353717267
83333.3353708442
83333.3353700155
83333.3353692549
83333.3353685795
83333.335368005
83333.3353675502
83333.3353672498
83333.3353670895
83333.3353670177
83333.3353615771
83333.3353631133
83333.3353647369
83333.3353664327
83333.3353601333
83333.3353681766
83333.3353699378
83333.3353587778
83333.3353716805
83333.3353733683
83333.3353749668
83333.3353575052
83333.3353563068
83333.3353764382
83333.3353551724
83333.3353777557
83333.3353701188
83333.3353709471
83333.3353718327
83333.3353727641
83333.3353693642
83333.3353687037
83333.3353737329
83333.3353747323
83333.3353757571
83333.3353681576
83333.3353677392
83333.3353767997
83333.3353778591
83333.3353674509
83333.3353789373
83333.3353607439
83333.3353598721
83333.3353589583
83333.3353580138
83333.3353570529
83333.3353560817
83333.3353551021
83333.335354115
83333.3353672077
83333.3353672933
83333.3353693668
83333.3353687244
83333.3353681976
83333.335367799
83333.3353675287
83333.335367367
83333.3353672829
83333.3353701069
83333.3353709248
83333.3353718056
83333.3353727374
83333.3353737101
83333.3353747152
83333.3353757445
83333.3353767898
83333.3353778624
83333.3353789564
83333.3353598581
83333.335358955
83333.3353580141
83333.33535705
83333.3353560726
83333.3353550876
83333.3353540968
83333.3353530999
83333.3353520959
83333.3353531199
83333.3353541834
83333.3353553201
83333.3353565194
83333.3353577947
83333.3353591523
83333.3353605962
83333.3353621313
83333.3353637581
83333.3353654672
83333.33536724
83333.3353690511
83333.335370868
83333.3353726599
83333.3353743924
83333.3353760265
83333.3353775075
83333.335378829
83333.3353620131
83333.3353628006
83333.3353631804
83333.3353636707
83333.3353623814
83333.335361186
83333.3353650495
83333.3353644422
83333.3353639442
83333.3353636151
83333.3353657906
83333.3353665042
83333.3353651727
83333.335364695
83333.335364408
83333.3353615444
83333.3353628554
83333.3353642575
83333.3353603232
83333.3353657423
83333.335367286
83333.3353649195
83333.3353634121
83333.3353619922
83333.3353664981
83333.3353681189
83333.3353606637
83333.3353594207
83333.3353597412
83333.335361083
83333.3353584832
83333.3353625158
83333.3353640387
83333.3353656418
83333.3353673039
83333.3353689937
83333.3353651534
83333.3353654147
83333.335365872
83333.3353664836
83333.335367205
83333.3353680008
83333.3353688502
83333.3353697429
83333.3353706739
83333.335363106
83333.335364724
83333.3353615742
83333.3353664139
83333.3353601345
83333.335358785
83333.3353681515
83333.3353699051
83333.3353716395
83333.335357517
83333.3353733207
83333.3353723079
83333.3353713302
83333.3353703901
83333.3353694909
83333.335368638
83333.3353678431
83333.3353671295
83333.3353665351
83333.3353660894
83333.3353658365
83333.3353709275
83333.3353700316
83333.3353718678
83333.3353728479
83333.3353691871
83333.3353684072
83333.3353677151
83333.3353738653
83333.3353671377
83333.3353666946
83333.3353664353
83333.3353749169
83333.3353609419
83333.335361791
83333.3353626808
83333.3353600785
83333.3353635317
83333.3353643381
83333.3353650871
83333.3353657599
83333.3353591826
83333.3353582519
83333.3353572956
83333.3353563197
83333.3353663322
83333.3353561701
83333.3353571434
83333.3353581024
83333.3353590383
83333.3353599426
83333.3353608137
83333.3353551853
83333.3353617163
83333.3353626127
83333.3353634648
83333.3353642735