/*--------------------------------*- C++ -*----------------------------------*\
  =========                 |
  \\      /  F ield         | OpenFOAM: The Open Source CFD Toolbox
   \\    /   O peration     | Website:  https://openfoam.org
    \\  /    A nd           | Version:  12
     \\/     M anipulation  |
\*---------------------------------------------------------------------------*/
/*   Windows 32 and 64 bit porting by blueCAPE: http://www.bluecape.com.pt   *\
|  Based on Windows porting (2.0.x v4) by Symscape: http://www.symscape.com   |
\*---------------------------------------------------------------------------*/
FoamFile
{
    format      ascii;
    class       volScalarField;
    location    "400";
    object      k;
}
// * * * * * * * * * * * * * * * * * * * * * * * * * * * * * * * * * * * * * //

dimensions      [0 2 -2 0 0 0 0];

internalField   nonuniform List<scalar> 
10116
(
3.12311484071005e-05
3.30256966896164e-05
0.000152313599815743
3.20897111714722e-05
3.4724012081119e-05
0.000157788684993216
3.39270113151754e-05
0.000245030065872625
0.000152655828611627
3.32210750452858e-05
3.63283256066018e-05
0.000162883012967526
3.56654715684248e-05
0.00025288143133997
0.000158138056199008
3.51136189753201e-05
0.000317867223088498
0.000244872521703249
0.00015287789142491
3.35650111296629e-05
3.78377393380519e-05
0.000167614680354559
3.7307520709987e-05
0.000260171924057539
0.000163238377104832
3.69042992592336e-05
0.000327591400797906
0.000252720991594097
0.000158356253792483
3.54721289952601e-05
0.000380152155545239
0.000317444764035272
0.000243718334372372
0.000151766895916241
3.26544259391191e-05
3.92511155127796e-05
0.000171997516722592
3.88522424490687e-05
0.000266927263811882
0.000167978161419022
3.85953723017953e-05
0.000336621360803025
0.000260006304943519
0.000163454660495954
3.72768750284855e-05
0.000391467264922908
0.000327162197048214
0.000251528893190598
0.000157198030290813
3.45117272564125e-05
0.000435800766685219
0.000379433397148901
0.000315388410586743
0.000240879049386261
0.000148573795336081
3.08156318287504e-05
4.05673506479771e-05
0.000176045746729825
4.02981327425828e-05
0.000273168622968487
0.000172369369005814
4.01858333242863e-05
0.000344982893516803
0.000266756589693416
0.000168193692702478
3.89813501108916e-05
0.000401979445900043
0.000336181592556189
0.0002587798213455
0.000162254710347832
3.62701390502607e-05
0.000448515024740234
0.000390736520975994
0.000325047892501062
0.000248599295466041
0.000153894012706078
3.25743272157429e-05
0.000486712082545801
0.000434731181351968
0.000376623078676185
0.000311190271011986
0.000235851379782842
0.000143475103863632
2.85585806189394e-05
4.17859548756173e-05
0.000179769721238156
4.16441622632411e-05
0.000278915594907136
0.000176422567439067
4.16741662728168e-05
0.000352700543346588
0.000272993316562474
0.000172584537504887
4.05845282719155e-05
0.000411713122575681
0.000344532351830906
0.000265498777716161
0.000166956266597909
3.79314464739527e-05
0.000460333484039703
0.000401231792887363
0.000334013337707281
0.000255768480548291
0.000158849755638659
3.42403120052004e-05
0.000500681044867813
0.00044742671785506
0.000387851716632452
0.000320727730856493
0.000243416330463778
0.000148625212906209
3.01949814492281e-05
0.000533981201664487
0.000485338568929836
0.000431199325401286
0.000371262903029474
0.000304572401544305
0.000228698710614387
0.000137032001736262
2.6129721198522e-05
4.29065832258473e-05
0.000183179343569058
4.28898330750058e-05
0.000284186139013126
0.000180150409974966
4.30594375937498e-05
0.000359798164876308
0.00027873570553377
0.000176636932386976
4.20847824772245e-05
0.000420694272154808
0.000352239879134777
0.000271706970361024
0.000171313390325619
3.94946746632329e-05
0.000471279029898494
0.000410948413048279
0.000342314259530629
0.000262412921218848
0.000163458593794371
3.58151654672929e-05
0.000513672890740533
0.000459220849860397
0.000398276922008977
0.000329581690120027
0.000250443628486505
0.000153424648533585
3.17461576327923e-05
0.000549089995074692
0.00049928328756243
0.000443804721345458
0.000382343141073594
0.000313917453804971
0.00023604523983093
0.000141967260635044
2.76326782833224e-05
0.000578327907771582
0.000532398872478597
0.000481184049132379
0.000424797101383134
0.000363222884945149
0.000295646420568494
0.000219773432068775
0.000129622012608653
2.35629033548568e-05
4.39292414827393e-05
0.000186283969011464
4.4035802056242e-05
0.000288997172628635
0.000183564071792386
4.43411068243563e-05
0.000366298584391619
0.000284001968096508
0.000180363838071846
4.3481227339487e-05
0.000428949512739701
0.000359328150354645
0.000277423292146386
0.000175335242138364
4.09581534075057e-05
0.000481378197897235
0.000419913532187854
0.000349976123300966
0.000268553199194534
0.000167731640042362
3.72980097198313e-05
0.000525708950610021
0.000470142139068581
0.000407928466181907
0.000337780430757146
0.000256958121480536
0.000157888796462319
3.32133533373898e-05
0.000563149466411674
0.00051224476349315
0.000455513732310826
0.000392632083982314
0.000322594918911883
0.00024287194148503
0.000146568926137895
2.90587593108549e-05
0.000594482685303644
0.000547480392038614
0.000495025810535858
0.000437231210118963
0.000374078614296542
0.000304732245101077
0.000226847692120257
0.000134307964154682
2.49235627701944e-05
0.000620225775199165
0.000576611756225926
0.000527763777633286
0.000473894155541478
0.000415491580134267
0.000352696237210225
0.000284687503333135
0.000209351983802137
0.000121362577807904
2.0855485699236e-05
4.48543638801033e-05
0.000189092487814013
4.50810827378327e-05
0.000293364671259899
0.000186672771528334
4.55199704975998e-05
0.000372223643913553
0.000288809191252692
0.000183776755337109
4.47735569150767e-05
0.000436505071356162
0.000365820028413628
0.000282665894871563
0.000179034075107835
4.23208768832627e-05
0.000490659365514362
0.000428153999334274
0.000357022778389728
0.000274207734264599
0.000171677854257259
3.86872614655337e-05
0.000536815846547334
0.000480218528215194
0.000416833772963091
0.000345348840031996
0.00026297972849751
0.000162030314798879
3.45960327600646e-05
0.000576179245551031
0.000524250690424996
0.000466355741431787
0.000402158333615233
0.000330631714549428
0.000249202095457522
0.000150849922677469
3.04084213282747e-05
0.000609523176614045
0.000561505837487458
0.000507889889733188
0.000448782521325303
0.000384161057159065
0.000313170989506456
0.000233423763455551
0.000138680576872626
2.621589008614e-05
0.000637347575710288
0.000592738127100891
0.000542733452219266
0.000487546271934966
0.000427673817658678
0.000363257141921169
0.000293454741679317
0.000216107511539518
0.00012576908435129
2.20650467630328e-05
0.000659958403328958
0.000618415397313556
0.000571611863037965
0.00051975197353577
0.000463496772051269
0.00040353655677686
0.000339946437779124
0.000271902672659226
0.000197564395517111
0.00011226424307235
1.80362763056498e-05
4.56825299858333e-05
0.000191613414234109
4.60267529914392e-05
0.000297303727902685
0.000189485060819343
4.65951295609446e-05
0.0003775941995263
0.000293173334177471
0.000186885149125911
4.59617859813278e-05
0.000443386479330596
0.000371737354937564
0.000287451855934116
0.000182421597092008
4.3582356608909e-05
0.000499151186589331
0.000435696065361768
0.000363476934249128
0.000279394266898115
0.000175307334227744
3.99816325638243e-05
0.000547023085760683
0.000489478687098068
0.000425019643523443
0.000352310329454561
0.000268526276449866
0.000165857602035461
3.58926103868197e-05
0.000588205712810753
0.00053532928694934
0.000476359102066195
0.00041094879238141
0.000338051869314541
0.000255055049351071
0.000154824028051876
3.16816009119634e-05
0.000623467201791015
0.000574501844867363
0.000519804937276016
0.000459479205299757
0.000393497465772115
0.000320988279642396
0.000239523239137192
0.000142749630992665
2.74401411168965e-05
0.000653295839579106
0.000607742719480174
0.000556652892493858
0.000500235456105147
0.000438993037430383
0.00037306750872461
0.000301599454791067
0.000222389913388458
0.000129884669079087
2.32153494553322e-05
0.00067797807839865
0.000635508598767477
0.000587620623683243
0.000534518388914169
0.000476874868599155
0.000415393639704869
0.000350149293887772
0.000280297426868622
0.000203958487575758
0.000116362649143428
1.90875934390583e-05
0.000697669920615295
0.000658069666400412
0.000613120577236632
0.000563007636163683
0.000508426155134824
0.000450284973126276
0.00038920052495272
0.000325149170056802
0.000257406240338107
0.000184465380769495
0.000102339193691206
1.51590344010461e-05
4.64142139779281e-05
0.000193854689199105
4.68725719262049e-05
0.00030082852376801
0.000192009418301074
4.7567785533466e-05
0.000382430055468825
0.000297109438627799
0.000189697401306391
4.70457429762607e-05
0.000449618392500131
0.000377100956708643
0.000291797062056255
0.000185507633014177
4.47427085285211e-05
0.000506881987436394
0.000442565228626953
0.000369360266114311
0.0002841296442834
0.000178631822120722
4.11805260779584e-05
0.000556361082349042
0.000497951297718098
0.000432512156659133
0.000358687203267335
0.00027361468369324
0.000169378860582587
3.71014133946603e-05
0.000599259070995057
0.00054551039867556
0.000485552484903404
0.00041902984265187
0.000344878100820675
0.000260447904116752
0.00015849954374365
3.2876650200518e-05
0.000636340644792234
0.000586496564173101
0.000530799684794901
0.000469349128526473
0.000402113850770165
0.000328207198186843
0.000245164731762963
0.00014652850089114
2.8595973170641e-05
0.000668086635615185
0.000621650990611813
0.000569549825199412
0.000511989068930473
0.000449476017601906
0.000382153388556658
0.000309145961985524
0.000228218899969521
0.000133716384302148
2.43061245875267e-05
0.000694769736508136
0.000651420041252277
0.000602513482681744
0.000548250118886946
0.0004893111937809
0.000426412306507971
0.00035962854978543
0.000288097970757835
0.000209907637892138
0.000120195282186788
2.0088958037141e-05
0.00071652439810161
0.000676060919526149
0.000630092240029583
0.000578803162546507
0.000522901244040145
0.000463312858356642
0.000400666205377259
0.000334935235961443
0.000265377645750861
0.000190457217100236
0.000106099583067863
1.60484226143454e-05
0.000733413155729857
0.000695707944136287
0.000652515986866663
0.000604007992655296
0.000550880364873453
0.000494109650217006
0.000434540768348653
0.000372647448326787
0.000308405063625289
0.000241267950667998
0.00017008826678772
9.16151631344829e-05
1.22926313765614e-05
4.70498637546689e-05
0.00019582326147264
4.76201434621895e-05
0.000303952206855669
0.000194253820996349
4.8437789432661e-05
0.00038674983799857
0.000300631657493816
0.000192222041625632
4.80262741490838e-05
0.000455224385818855
0.000381930602445381
0.000295716406198881
0.000188300265560901
4.58017605119379e-05
0.000513879482242385
0.000448786095554179
0.000374693420620193
0.000288429592881151
0.000181661627246223
4.22839025976161e-05
0.000564860395117458
0.000505664655808037
0.000439336591432221
0.000364500770197118
0.000278261347201464
0.00017260494700646
3.82220101895828e-05
0.000609371104835872
0.000554824483521982
0.000493964398228018
0.000426427140237091
0.000351132057786553
0.000265396616049765
0.00016188304775943
3.39917761841298e-05
0.000648174165601509
0.00059752059004499
0.000540904017722975
0.000478420557394751
0.000410035873174159
0.000334849612370757
0.000250364619013732
0.000150026580976971
2.96820621905478e-05
0.000681745306266583
0.000634490794637603
0.000581453017660446
0.00052283537845576
0.000459149720807622
0.000390539789796166
0.000316116320634373
0.000233611976485704
0.000137275636801908
2.53370239620218e-05
0.000710347732826253
0.00066617398953622
0.000616317146777335
0.000560973545962239
0.00050083166420755
0.00043661816499207
0.000368409105777661
0.000295327208108677
0.000215429544810512
0.000123765272552702
2.10395654391216e-05
0.000734100405219995
0.000692815177614588
0.000645887924147927
0.000593498833679364
0.00053636380110233
0.000475425011641985
0.000411322336772653
0.000344028620008988
0.000272786758562927
0.000196035391287763
0.000109621956730532
1.68972687419533e-05
0.000753042818488127
0.000714534260039515
0.000670382703644092
0.000620758780132697
0.000566370986781485
0.000508214154843128
0.000447149391876791
0.000383659455943926
0.000317718029275201
0.000248767088381878
0.000175638300816394
9.50123588996103e-05
1.30207473987447e-05
0.000767187579984432
0.000731379908040667
0.000689913846911318
0.000642946138403905
0.000591168557413228
0.000535580812687489
0.000477105754745702
0.00041642960539072
0.000353970733130276
0.00028978650274371
0.000223539774901404
0.000154461031377995
8.01276898826822e-05
9.51421867391272e-06
4.75890183028049e-05
0.000197526083263342
4.82695109977819e-05
0.000306686744791492
0.000196225637355387
4.92068504226929e-05
0.000390570820297006
0.000303753108804473
0.000194467058647254
4.89043181908254e-05
0.000460226756789713
0.000386244886111437
0.000299223913937515
0.000190807896818018
4.67602545824351e-05
0.000520170285758853
0.000454382194397034
0.000379495974255416
0.000292308717660216
0.000184404474659318
4.32918842840031e-05
0.000572551016517054
0.00051264637134835
0.000445517316809833
0.000369771323444374
0.000282481679594533
0.000175545892068357
3.92540727206186e-05
0.000618573913690543
0.000563302010430914
0.000501622895131114
0.000433165532082039
0.000356834472073346
0.00026991681705477
0.000164983928048565
3.5026417627011e-05
0.000659000459842095
0.000607605704329847
0.00055014822427954
0.00048672156893555
0.000417288521510005
0.000340936334628849
0.000255137860199898
0.000153249715157717
3.06967351083562e-05
0.000694302666091416
0.000646293187613561
0.000592393141876263
0.00053280388833875
0.000468041687679952
0.000398251475538634
0.000322531449367979
0.000238584878010423
0.000140573574613719
2.63066835730236e-05
0.000724736808765669
0.000679797898571432
0.000629060200560332
0.000572717008586691
0.000511463649351236
0.000446037177649198
0.000376514919700809
0.000302006043582722
0.00022054029715904
0.000127082479560558
2.19389298917374e-05
0.000750410717832284
0.000708355557998915
0.000660533307232207
0.000607119993607762
0.000548838735881552
0.000486646203408309
0.000421193471991055
0.000352453010281143
0.000279654919275312
0.000201215227937251
0.000112905625869664
1.77040963089304e-05
0.000771347122637176
0.000732072396790491
0.000687018039057599
0.000636349944632197
0.00058078459426926
0.000521333223906099
0.000458872633884132
0.000393894896718412
0.000326373132187793
0.000255739369408292
0.000180808958155751
9.82003538599212e-05
1.37173843700698e-05
0.000787534582861355
0.000750981663414042
0.000708613079289683
0.000660585733933282
0.000607603462718844
0.000550684212058594
0.000490767871559816
0.000428553758167599
0.000364468796575404
0.000298571785295749
0.000230519292405348
0.000159531505414069
8.31397714696638e-05
1.00860560499479e-05
0.000798964368283911
0.000765084985315837
0.000725357145988866
0.000679919159854133
0.000629456505589436
0.000574978394538062
0.000517437238554745
0.000457590795115101
0.000396044202297887
0.000333242756069159
0.000269355245215876
0.000204261983260846
0.000137602866038916
6.78803397278563e-05
6.89520765602489e-06
4.80312321037876e-05
0.000198966360314186
4.88201755221015e-05
0.000309041651028388
0.00019793089520267
4.98748025760734e-05
0.000393908693483217
0.000306485603248962
0.000196439767360253
4.96802607623062e-05
0.000464646289055313
0.000390061050437008
0.000302332578778947
0.000193038477584161
4.76189402971459e-05
0.00052577980379798
0.000459375777232057
0.000383786334540064
0.000295780789841901
0.000186868391424176
4.42048066470726e-05
0.000579462195983982
0.000518923038792405
0.000451077627421054
0.000374518076601832
0.000286289880854387
0.000178210046117909
4.01977029617342e-05
0.000626899613871379
0.00057097297125775
0.00050855531036409
0.000439268952720039
0.000362005104991207
0.000274023362901345
0.000167811654982386
3.59802914619143e-05
0.000668853081222694
0.000616784045025051
0.000558562512499027
0.000494279750719373
0.000423896006198554
0.000346487327219158
0.000259499104672517
0.000156205150777624
3.16390589188798e-05
0.000705792164762347
0.000657090924946024
0.000602401812557096
0.000541924458033024
0.000476179316337613
0.0004053125891412
0.000328411209023704
0.000243151664518311
0.000143615805728255
2.7213784860736e-05
0.000737967869658759
0.000692323071255037
0.000640773819911544
0.000583510830988746
0.000521235940383771
0.000454695980328595
0.000383969748693943
0.000308154363985574
0.000225254898374268
0.000130157485657798
2.27861093386493e-05
0.000765479502721634
0.000722709072926223
0.0006740566789649
0.000619694851784152
0.000560353512958216
0.000497002826407071
0.000430304550745959
0.000360231241076283
0.000286001739055639
0.000206011313903392
0.00011595883286496
1.84682124648372e-05
0.000788337442070833
0.000748344434757702
0.00070244669399163
0.000650805798225492
0.000594145052090544
0.00053349067002379
0.000469734318210307
0.000403377244204898
0.00033439272535888
0.000262204364879926
0.000185612899747401
0.000101175509145435
1.43803793065565e-05
0.00080651262992406
0.000769247658225197
0.000726029560568007
0.000677010506329767
0.000622902063927966
0.000564738438904188
0.000503475997042176
0.00043982708353284
0.000374227362349294
0.000306737866687256
0.000237010830563212
0.000164259639572892
8.59721830035334e-05
1.06349022463834e-05
0.000819971581238549
0.000785404317269192
0.000744829524990388
0.000698385877373238
0.000646771013005495
0.000591012248822429
0.000532078923217314
0.000470742548181639
0.000407620372847944
0.000343168029525278
0.00027755978038783
0.000210675939397246
0.000142157845281927
7.04890294547616e-05
7.31782978797402e-06
0.000828701256004412
0.000796795098060294
0.000758843991119893
0.000714961547165286
0.000665824516489537
0.000612445933405735
0.000555790429937695
0.000496640637960786
0.000435661377445222
0.000373457696660562
0.00031052965675761
0.000247161743797199
0.000183458540604331
0.000119507498456308
5.48991700518761e-05
4.50288717500999e-06
4.83761109973439e-05
0.000200147810047304
4.92716637643133e-05
0.000311026257514057
0.000199373729649329
5.04412017016929e-05
0.000396777382609527
0.000308839183842393
0.0001981459982817
5.03541050884869e-05
0.000468502009358047
0.000393394748519535
0.000305054064699551
0.000194998996974245
4.83781041381678e-05
0.000530731843380922
0.000463787583175792
0.000387581560897411
0.000298858526584598
0.000189061018066291
4.50231200678584e-05
0.000585621972735885
0.000524519989531338
0.000456039547340864
0.000378759084462532
0.000289699288551388
0.00018060463338935
4.10531096711532e-05
0.000634379588703615
0.000577866532579481
0.000514787979349172
0.00044476026819372
0.000366662642211835
0.000277730049168559
0.000170374978148056
3.68531291448129e-05
0.000677765729061944
0.000625087613580711
0.000566176610463962
0.000501121958712635
0.000429881638685941
0.000351521645481904
0.000263462453527858
0.000158901363697118
3.25088419848846e-05
0.000716248503078569
0.000666917532967715
0.000611510938763871
0.000550226820242082
0.000483589523848087
0.000411746525991701
0.000333774638462482
0.000247325824805022
0.000146407093600165
2.80573886384346e-05
0.00075007494670049
0.00070378302012164
0.000651490622153784
0.00059338621414664
0.000530177718672844
0.00046262111360228
0.000390796754684411
0.000313791001940553
0.000229586562917249
0.000132997675635273
2.35797192267095e-05
0.000779337715244433
0.000735907171671428
0.000686489528866087
0.000631254277158725
0.000570937773684733
0.000506522797443195
0.000438681202129822
0.000367385966605661
0.000291845964595115
0.000210437550930733
0.000118790930062821
1.91888673641955e-05
0.000804037439327413
0.000763376961539454
0.000716696623428539
0.000664154314994778
0.000606479734300219
0.000544713026872594
0.000479759877711585
0.000412130372053124
0.000341798418566101
0.000268180264910304
0.000190062988952117
0.000103943433349204
1.50088892364263e-05
0.000824131890777557
0.00078619908521685
0.00074218711839131
0.000692243795125101
0.000637087198127573
0.000577766317342136
0.000515253083525886
0.000450272449003448
0.000383268734825823
0.000314305607667793
0.000243031956911527
0.00016865520614571
8.86183210805178e-05
1.11577566039783e-05
0.000839569383511927
0.000804343639683629
0.000762971390198235
0.000715586550057042
0.000662894360422666
0.000605938158423229
0.000545703640140577
0.000482975991449798
0.000418384468389504
0.000352394948822944
0.000285187569753519
0.000216644147823098
0.000146409992349803
7.29494901127521e-05
7.72515343359409e-06
0.000850311549709503
0.000817774859834385
0.000779031846880757
0.00073419659602834
0.000683958176185343
0.000629347645703858
0.00057134624736159
0.000510750064115151
0.000448236393308651
0.000384423565045709
0.000319824710438085
0.000254733756772388
0.000189262155403121
0.00012351294406016
5.70781437306084e-05
4.78690784014027e-06
0.000856350785665911
0.000826468663642103
0.000790346893645291
0.000748068585684581
0.000700298079105774
0.000648048805088797
0.000592289529993089
0.000533810153581287
0.000473293552832821
0.000411392070850766
0.000348738013302249
0.000285887171562773
0.000223235183717867
0.000161122532181767
0.000100132997396753
4.12197128091722e-05
2.4419485151832e-06
4.86230745038915e-05
0.000201072859226643
4.96232498434492e-05
0.000312647633802914
0.000200557735033942
5.09053858192352e-05
0.000399189006880892
0.000310822574455178
0.000199590026952258
5.09253898077251e-05
0.000471810995727233
0.000396259863699725
0.000307398407995376
0.000196694971297659
4.90373988217511e-05
0.000535048313604008
0.000467636594832534
0.000390897135508161
0.000301553313750944
0.000190988900292159
4.57470018221619e-05
0.000591056780722723
0.0005294609635464
0.000460423592425577
0.000382511059409764
0.000292722197058426
0.000182736719225009
4.18205434621924e-05
0.000641044083010001
0.000584010640503549
0.000520345961695395
0.000449661081140731
0.000370824621682796
0.00028104962108891
0.000172680608174147
3.76451569747822e-05
0.000685771638792967
0.000632547729092272
0.000573019391887871
0.000507274054127057
0.00043526767619419
0.00035605731706269
0.000267041164168856
0.000161346526483969
3.33055294281535e-05
0.000725706692750155
0.000675806649622497
0.000619752226568947
0.000557740206180012
0.000490298495819057
0.000417575814845458
0.000338639940161032
0.000251120519039832
0.000148955383485156
2.88368158961751e-05
0.00076109368346975
0.000714212405770455
0.000661243897278443
0.000602374599723607
0.000538318038441168
0.000469838651096631
0.000397018381280221
0.000318933949601493
0.000233547562160844
0.000135607129880882
2.43190094619624e-05
0.000792019874570523
0.00074798396849876
0.000697865254519544
0.000641830499908986
0.000580622063392975
0.000515234456149655
0.000446348975229691
0.000373939262037056
0.000297205319456961
0.000214506414765548
0.00012140904340502
1.98649922605712e-05
0.00081847812067964
0.000777201529378265
0.000729799524193811
0.000676426731547871
0.000617818872821353
0.00055502909283233
0.000488976234916503
0.000420178818770065
0.000348611660772816
0.000273684532541721
0.000194171911409666
0.00010651242113074
1.56022325284008e-05
0.000840415621170027
0.000801862169698248
0.000757113388945261
0.000706313302640222
0.000650186055547394
0.000589794358962276
0.00052612478258004
0.000459914306019932
0.000391615645974546
0.000321295276414933
0.000248599290667241
0.000172729119470472
9.10817086337734e-05
1.1653731169294e-05
0.000857766950085961
0.000821923425940341
0.00077980583375107
0.000731543649248099
0.000677848421173483
0.000619777984764315
0.000558333471159696
0.000494313285392599
0.000428358356693679
0.000360944521544898
0.000292257791804591
0.000222181919778367
0.000150365868977897
7.52499786065096e-05
8.11370942646995e-06
0.000870475082421953
0.000837333553518766
0.000797844772933194
0.000752117963649105
0.000700849719630623
0.000645086915160668
0.00058582682443947
0.000523878962705593
0.000459933046254009
0.000394620356294587
0.000328466632265921
0.000261775212683723
0.000194665538470457
0.000127256964404152
5.91428283088013e-05
5.06208209272415e-06
0.000878506542495298
0.000848051718132166
0.000811193258275287
0.000768014751386013
0.00071919301482879
0.000665759485244583
0.000608699218684693
0.000548815025291359
0.000486801715435747
0.000423324939293782
0.000359032330949012
0.000294495520028464
0.000230123709757979
0.000166271882492029
0.000103553114147464
4.2945226343967e-05
2.60248942184007e-06
0.000881864969865661
0.000854058719867842
0.000819825212838931
0.000779212519531631
0.000732868396374517
0.000681803442866299
0.000626986186879267
0.000569205272438224
0.000509145725011032
0.000447471630198911
0.00038484964578595
0.000321938633701369
0.000259342862974241
0.000197566641860242
0.000137213058214999
7.94762010364976e-05
2.70868437754808e-05
9.36573752155898e-07
4.87784239459917e-05
0.000201739762933282
4.98726510067392e-05
0.000313911813246643
0.000201484966913962
5.1266142694032e-05
0.000401153976260077
0.000312442970600592
0.000200775335570092
5.13933214392447e-05
0.000474588349734022
0.000398668505354635
0.000309374078357475
0.0001981306046591
4.95963183315349e-05
0.000538748922944545
0.000470939852479989
0.000393746790302536
0.00030387491936357
0.000192657073778047
4.63758459702772e-05
0.000595790952145582
0.000533767799144539
0.000464248539393059
0.000385789158231148
0.000295369526557464
0.000184612252128474
4.24997776141414e-05
0.000646921737635648
0.00058943161978507
0.00052525273213172
0.000453991505406252
0.000374507251239672
0.000283993780617484
0.00017473485185921
3.8356479644583e-05
0.000692902975964086
0.000639194557306811
0.000579118496469793
0.000512760622221749
0.000440075131586343
0.000360111218950971
0.000270247335816774
0.000163547882335846
3.40291997411658e-05
0.000734201658691041
0.000683791434116892
0.000627156688686566
0.000564492980273794
0.000496331430158754
0.00042282195588149
0.000343024356638818
0.000254548220557914
0.000151267596718283
2.95517943778465e-05
0.000771060346262756
0.000723646243327018
0.000670066997617348
0.000610507183438952
0.000545685439174585
0.00047637394921436
0.00040265623754376
0.000323600428332837
0.000237150042914463
0.000137991041723453
2.50029892263027e-05
0.000803562442598454
0.000758975075186043
0.000708218284361998
0.000651456352292735
0.000589437147663406
0.000523165998916135
0.000453332967612324
0.000379912499372349
0.000302096663072952
0.000218229194020331
0.000123818300335238
2.04959976497743e-05
0.000831694438361241
0.000789852759683069
0.000741789423563876
0.000687656091621494
0.000628194075910481
0.000564468589949279
0.000497410749543676
0.000427547037114412
0.000354853335982572
0.000278733703820378
0.000197951167959544
0.000108888823132927
1.61597806756392e-05
0.000855394906238721
0.000816268563056029
0.000770840227533179
0.000719250529541261
0.000662229291636702
0.000600852011647181
0.000536118982139246
0.000468778549974893
0.00039929145233196
0.000327727001046539
0.000253728891097629
0.000176492602749088
9.33695396743571e-05
1.21224510689207e-05
0.00087458724368449
0.000838169628284085
0.000795360228223584
0.00074628461964586
0.000691660170351276
0.000632558136439329
0.000569994154810353
0.000504779228535125
0.000437565466027421
0.00036883824274097
0.000298789240600565
0.000227304139246036
0.000154034383361464
7.7392714985053e-05
8.4826715265821e-06
0.000889200241542525
0.000855491108523988
0.00081530528107467
0.000768747384358369
0.00071652015837355
0.000659684708355037
0.000599253412510076
0.000536048802129876
0.000470772691177254
0.000404068834145807
0.00033647495896793
0.000268303402194017
0.000199681413949834
0.00013074284845107
6.10752158466703e-05
5.32476407449662e-06
0.000899181330105479
0.000868175796243721
0.000830623487130055
0.000786602940024728
0.000736798420976367
0.000682257022927028
0.000623979469765863
0.000562781522028375
0.000499370019742199
0.000434423696860473
0.000368604832424865
0.000302500021299225
0.00023653165991484
0.000171069645799351
0.000106757934311331
4.45907689329675e-05
2.75941196850148e-06
0.000904507717433303
0.000876187447626288
0.000841273131858614
0.000799813236040621
0.000752468121765262
0.000700266413804605
0.000644192665549179
0.000585047887481095
0.0005235282577393
0.000460310308566263
0.000396075667662458
0.00033150077409374
0.000267208488963071
0.000203720668411997
0.000141663292234735
8.22776824378344e-05
2.83307917173047e-05
1.00175677017833e-06
0.000905197738935972
0.000879517564952776
0.000847232799589172
0.000808353338722141
0.000763506360187434
0.000713696203375372
0.000659887981859364
0.000602864661947721
0.000543305568598723
0.000481872832872512
0.000419237946363676
0.000356080189572408
0.000293075565907078
0.000230866360521505
0.000170080937904673
0.000111692996295645
5.76788009031556e-05
1.34802990771651e-05
2.03331456028939e-07
0.000202158634587687
5.00292480120025e-05
0.00031482367022383
0.000202151256656073
5.15201102588809e-05
0.000402680865542085
0.000313706306783249
0.000201703452260387
5.17563956680544e-05
0.000476846873207872
0.000400630993339139
0.000310988165392241
0.000199309223735551
5.00539338768246e-05
0.000541851196670639
0.000473712349250606
0.000396142460049646
0.000305831570227484
0.000194069524388614
4.69091113845957e-05
0.000599846584018833
0.000537460193444575
0.000467531230667868
0.000388606805309833
0.00029765063527196
0.000186235791305549
4.30903306030433e-05
0.0006520391162873
0.000594153770550756
0.00052952989044719
0.000457769940348124
0.000377725207509734
0.000286572870137214
0.000176543011236326
3.89865969009278e-05
0.000699190328480436
0.000645056645320045
0.000584499946630572
0.000517604684884217
0.00044432355270917
0.000363698923529229
0.000273091980125737
0.000165510845530139
3.46799617085514e-05
0.000741767186322649
0.000690903972941688
0.000633754173734212
0.000570512269540544
0.000501712266688548
0.000427505228111851
0.000346943995838431
0.000257620434981511
0.00015335067558217
3.02020223788944e-05
0.000780011105642005
0.000732119296040905
0.000677992762954728
0.000617814448531539
0.000552307587852823
0.000482251392550476
0.000407730939016558
0.00032780676178358