/*--------------------------------*- C++ -*----------------------------------*\
  =========                 |
  \\      /  F ield         | OpenFOAM: The Open Source CFD Toolbox
   \\    /   O peration     | Website:  https://openfoam.org
    \\  /    A nd           | Version:  12
     \\/     M anipulation  |
\*---------------------------------------------------------------------------*/
/*   Windows 32 and 64 bit porting by blueCAPE: http://www.bluecape.com.pt   *\
|  Based on Windows porting (2.0.x v4) by Symscape: http://www.symscape.com   |
\*---------------------------------------------------------------------------*/
FoamFile
{
    format      ascii;
    class       volScalarField;
    location    "400";
    object      nut;
}
// * * * * * * * * * * * * * * * * * * * * * * * * * * * * * * * * * * * * * //

dimensions      [0 2 -1 0 0 0 0];

internalField   nonuniform List<scalar> 
10116
(
1.26603636758288e-05
1.3387842671067e-05
0.000224744162501715
1.34735454434869e-05
1.40763109126317e-05
0.000231106781413646
1.42449871098974e-05
0.000649004616978319
0.000230454511308803
1.45260552753393e-05
1.47266667007249e-05
0.000237033995241131
1.49749326303793e-05
0.000663003307022934
0.000236945676497916
1.53535913146139e-05
0.00115273494996081
0.00065642973418308
0.000237656852794097
1.51458976193136e-05
1.53385483865539e-05
0.000242508227575194
1.56643896451341e-05
0.00067594067389328
0.000242991866319769
1.61365935234154e-05
0.0011750935533177
0.000670555308358253
0.000244311557435532
1.60064799221445e-05
0.0016646633485908
0.00115814759148152
0.000665153253665932
0.000241820701501627
1.49296408617057e-05
1.59114976735263e-05
0.000247550969873545
1.63129759279168e-05
0.000687846177283378
0.000248595380060678
1.68760323730139e-05
0.00119559589177762
0.000683606618528823
0.00025051862024923
1.68208744775859e-05
0.00169553934475118
0.0011805987394843
0.000679412148152276
0.000248567326078008
1.57788012580453e-05
0.0021517175159506
0.00166638513803457
0.00116273290243658
0.000669332492469708
0.000240283166387451
1.40955505024312e-05
1.64450585127274e-05
0.000252201277217732
1.692006361562e-05
0.000698781733232167
0.000253763130815364
1.75714710855445e-05
0.00121438491869255
0.000695623171085681
0.000256276444499246
1.75900135598307e-05
0.00172372395596338
0.00120117820975374
0.000692601436505936
0.000254870716525154
1.6582773764214e-05
0.00219096397129225
0.00169729682137984
0.00118523756725029
0.000683635978765675
0.000246989408294003
1.49000124532814e-05
0.00260042143735384
0.00214950900453824
0.00166433241666574
0.00116158515806141
0.000665062016185374
0.000233962744281752
1.30289601184371e-05
1.69390689836158e-05
0.000256474348329552
1.74852130498369e-05
0.000708812871352744
0.000258508669320465
1.82222519884473e-05
0.0012315870686629
0.000706663116251369
0.000261587353195352
1.83134363808093e-05
0.00174945542407262
0.00122003690415091
0.0007047512400255
0.000260722415886181
1.73423336459527e-05
0.00222667189472014
0.00172550280810812
0.00120587439822784
0.000696888327399454
0.000253265749063968
1.56620772072998e-05
0.00264772917713752
0.00218872724653735
0.00169518760928352
0.00118402897105533
0.0006792507402883
0.000240516338853477
1.37755306671886e-05
0.00300740980522529
0.00259523186300372
0.00214048985715948
0.0016547936876937
0.00115110772804442
0.000652783954883115
0.000225089450069253
1.19049885071515e-05
1.73933452958792e-05
0.000260385329090153
1.80081654514133e-05
0.000717990634601949
0.000262864871374698
1.8827974263593e-05
0.00124731264148622
0.000716782778413257
0.000266460098994301
1.89904139959758e-05
0.0017729326318133
0.0012373029770078
0.000715915549976513
0.000266123018809624
1.80570476203578e-05
0.00225916335802663
0.00175125071782235
0.00122478921707876
0.000709103911030199
0.000259092825386654
1.63824557965373e-05
0.00269064974810273
0.0022243950294008
0.00172334539013102
0.00120462605728753
0.000692420656605735
0.000246659101921113
1.44832086456921e-05
0.00306237714933877
0.00264245821964187
0.00217952880494595
0.00168543831742488
0.00117331641308806
0.000666701711467539
0.000231425832093994
1.25897789669177e-05
0.00337411932623194
0.00300040379975814
0.00258045621168995
0.00212188272198461
0.00163513599086525
0.00113108480375256
0.000634975049717188
0.000214914916959574
1.07341716364199e-05
1.78078943445599e-05
0.000263947638675834
1.84894207002181e-05
0.000726359848998571
0.000266855539322404
1.93883060462931e-05
0.00126165534244216
0.000726039207527648
0.000270931195549136
1.96205550551585e-05
0.00179432536327213
0.00125308567992318
0.000726146890881619
0.000271079075934741
1.87261544146714e-05
0.00228871253775483
0.00177474253581326
0.00124210873221569
0.000720332842161203
0.000264477234373436
1.7060725839796e-05
0.00272958969353989
0.0022568460578577
0.00174905153691576
0.00122351179788713
0.00070456746769506
0.000252357864216944
1.51525825244609e-05
0.00311212381232523
0.0026852878384518
0.00221503492775349
0.00171341543721301
0.00119371619783279
0.000679644925668527
0.000237373837305115
1.32395048006905e-05
0.00343629670369071
0.00305525398090339
0.00262739182182203
0.0021605403459939
0.00166537238433743
0.00115287692443176
0.000648506315309871
0.000220998999714393
1.13540697247248e-05
0.00370365542125992
0.00336602038901731
0.00298146262225197
0.00255377724316827
0.00209189406541842
0.00160491214567899
0.00110312617305121
0.000613326208444492
0.000203610552028435
9.50219042721948e-06
1.81829050512907e-05
0.000267173991910571
1.89282794225774e-05
0.000733959472457174
0.000270493207016957
1.99038710085533e-05
0.00127469646398911
0.000734481239964905
0.000275027128497812
2.02037239976189e-05
0.0018137784287358
0.00126748002864895
0.000735504609234121
0.000275623810428858
1.93492102895484e-05
0.00231555548799639
0.00179614857724055
0.00125794094752817
0.00073062543075063
0.000269426988991174
1.76961952187736e-05
0.00276490052639348
0.00228635809837983
0.00177250758635004
0.00124080946803125
0.000715740451624939
0.000257634004938161
1.5783383446232e-05
0.00315714170771565
0.00272414077779653
0.00224734102008051
0.00173896370044658
0.00121243054754505
0.000691588425468904
0.000242888404147512
1.38544118172052e-05
0.00349244976505542
0.00310487482101492
0.00266995844973619
0.00219571044078896
0.00169299120032796
0.0011729135580136
0.000661116835338606
0.000226720221010741
1.19427719011494e-05
0.00377256526051845
0.00342805656256551
0.00303593230328702
0.00260016642008683
0.00212993815915192
0.00163453439363996
0.00112434510199042
0.000626385075382443
0.000209409996038585
1.00533298754474e-05
0.00399933460342913
0.0036947476487631
0.00334403403874938
0.00294817888350242
0.00251381189587595
0.00205006684644628
0.00156481216365981
0.00106846339034357
0.000588280569982132
0.000190993282772778
8.21771975265715e-06
1.85186371959281e-05
0.000270076595486049
1.93254131500676e-05
0.000740824050408287
0.000273788114219305
2.0373951981573e-05
0.00128650687660491
0.000742148198058341
0.000278762579966129
2.07399229866044e-05
0.00183141649154447
0.0012805684123915
0.00074403989192487
0.00027978703339378
1.99259566879631e-05
0.00233989400796471
0.00181561397250189
0.0012723813887914
0.00074003933732222
0.000273961684944114
1.8288272802515e-05
0.00279688741778068
0.00231316775532097
0.00179388312257552
0.00125662519679485
0.000725988761966976
0.000262494280652988
1.63749271945583e-05
0.00319786000072678
0.00275937247541562
0.00227672416972739
0.00176228123994086
0.0012295788721426
0.000702584212856746
0.000248002273217926
1.44345096851624e-05
0.00354315438934288
0.00314977372096965
0.0027085752200088
0.00222771846345966
0.001718222546421
0.00119130538984584
0.000672759856950536
0.00023202338703574
1.2500460435497e-05
0.00383468850092861
0.00348405961846361
0.00308520904865858
0.00264224900899058
0.00216456439723496
0.00166160797645845
0.00114387584741328
0.000638586638879507
0.000214880759483476
1.05774103782694e-05
0.00407447732282153
0.00376349670634897
0.00340561695416621
0.0030019541468089
0.00255937520593523
0.00208725917935097
0.00159362657025261
0.00108897369440112
0.000600788422225533
0.000196471376863432
8.69675450500414e-06
0.00426423613786656
0.00398968101845534
0.00367028021233103
0.00330528740447218
0.00289917924226433
0.00246013608027777
0.00199644620847464
0.00151530234500794
0.0010274116970588
0.000559662004652046
0.000176906261413597
6.90576290577432e-06
1.88152522161453e-05
0.000272666368564578
1.96804605536076e-05
0.000746984822280913
0.00027675265800341
2.07993191569864e-05
0.00129714860217042
0.000749074003994153
0.000282146794304767
2.12289842318735e-05
0.00184734755879038
0.00129242208440442
0.000751793370177694
0.000283586768950086
2.04564908995589e-05
0.00236190104851402
0.00183326357120994
0.00128551313769033
0.000748627357284289
0.000278114348584655
1.88366531610942e-05
0.00282581195536818
0.00233747670038337
0.00181332280737601
0.00127105335689938
0.000735363417184321
0.000266947895003795
1.6926387862269e-05
0.00323465322400149
0.00279128841720702
0.0023034197106912
0.0017835352850325
0.00124526467769626
0.000712679706997281
0.000252724307269377
1.4979024085719e-05
0.00358891543808145
0.00319038416377937
0.00274359630222954
0.00225683706019962
0.00174125938307217
0.00120816803845369
0.000683488604210371
0.000236941543096017
1.30270399270206e-05
0.00389068162030357
0.00353462288956023
0.0031297991436223
0.00268043528354181
0.00219608889216054
0.00168635354705931
0.00116181523004186
0.000649860551514409
0.000219949478294602
1.10743786998387e-05
0.00414212337765663
0.00382545044458758
0.00346121033274375
0.0030506151371623
0.00260072432904427
0.00212112622914409
0.00161997916748599
0.00110787641360043
0.000612515897778706
0.000201666041007175
9.15296980082725e-06
0.0043450946824665
0.0040646442968621
0.00373851213809699
0.00336604298415589
0.0029519219730558
0.002504590499516
0.00203255314889314
0.00154312608790462
0.00104708555321053
0.00057153761410508
0.000182023041515494
7.31095334605708e-06
0.00450116019363507
0.00425383786108864
0.00396297194848166
0.00362677154265935
0.00324816521119261
0.00283406270795753
0.00239247101528081
0.00193080581716665
0.00145621970546549
0.000979653807186685
0.000527099119047656
0.000161241785316131
5.60066323229216e-06
1.90729244993442e-05
0.000274952314372827
1.99943390521716e-05
0.00075246957130232
0.0002793977504197
2.11796246070487e-05
0.00130667612082753
0.000755290078633693
0.000285192827272564
2.16713751689185e-05
0.00186166533424779
0.00130310315683039
0.000758798716319722
0.000287031061711768
2.09406397751373e-05
0.00238172608471645
0.0018492054386438
0.00129740777086117
0.000756431911491498
0.000281908580652543
1.93413515041754e-05
0.00285189864812138
0.00235945769472134
0.00183095109390138
0.00128417686723718
0.000743917560366964
0.000271024686213752
1.74376182877302e-05
0.00326784381551092
0.00282014974552164
0.00232762799399684
0.00180286867459865
0.001259579085574
0.000721919075872878
0.000257055823374402
1.54870545040925e-05
0.00363017561590934
0.00322708088885868
0.00277532511412507
0.0022832980657357
0.00176226500181721
0.00122360157864199
0.00069335017539641
0.000241494928454577
1.35218487145179e-05
0.00394112213289629
0.00358025623506015
0.00317013428104571
0.00271507350004231
0.00222477734232691
0.00170895770644271
0.00117827404816407
0.000660255716098025
0.000224645639100988
1.15441208454976e-05
0.00420300332274617
0.00388128415256128
0.00351140622654351
0.00309465753251133
0.00263825789206243
0.00215197339614726
0.00164407973461859
0.00112525241086555
0.000623361213479434
0.000206478517345615
9.58607521803381e-06
0.00441780634275509
0.00413210220263547
0.00379999878902196
0.00342090275764448
0.00299966602142756
0.0025449511134523
0.00206544973606763
0.00156859218789779
0.00106524644422969
0.000582725725711441
0.000186906868167653
7.69761726489775e-06
0.00458720596348141
0.00433449812825039
0.00403735811892196
0.00369405299823234
0.00330768996709006
0.00288543329713645
0.00243553556835323
0.00196559619042591
0.0014828728432436
0.000998362402547041
0.0005382573138442
0.000165963365960959
5.93241097609174e-06
0.00471266771307107
0.00449002463827668
0.0042250072707275
0.00391512335050845
0.00356225059815843
0.00317226210494136
0.00275246413322473
0.0023101255908621
0.00185241202106897
0.001386831037529
0.000924460338612283
0.000490093038049
0.000143886116638143
4.34057629631062e-06
1.9291485797224e-05
0.00027694521631322
2.0267004316913e-05
0.000757302823996742
0.000281734674639839
2.15159185617494e-05
0.00131513677535879
0.000760824360067802
0.000287911988784142
2.20676097855824e-05
0.00187445118637233
0.0013126662993888
0.000765087679193919
0.00029013266715543
2.13788137435007e-05
0.00239949725767492
0.00186353331682009
0.00130812733079884
0.000763486216096607
0.000285351226081902
1.98024073493077e-05
0.00287533901879034
0.00237925956848209
0.00184687560350875
0.0012960672800211
0.000751695643325689
0.000274748924336408
1.79084619096304e-05
0.00329770647805739
0.00284617993259305
0.00234952055988025
0.00182040445696777
0.00127260359017554
0.000730352379567902
0.00026101982315101
1.59584222617351e-05
0.00366731576890034
0.00326018512449637
0.00280402062702082
0.00230729887612801
0.00178137881790198
0.00123769278336634
0.000702382931786728
0.000245683285825962
1.39840552603995e-05
0.0039865167559759
0.00362140210792073
0.00320658637007182
0.00274646219705107
0.00225085596491722
0.00172957845209081
0.00119334862234416
0.000669822743746041
0.000229005921419602
1.19859516402735e-05
0.00425776176438415
0.00393158055501924
0.00355671230039314
0.00313450561810284
0.0026723150268471
0.00218005760580422
0.00166610718708838
0.00114120555286784
0.000633366169016754
0.000210931909575909
9.99585184956958e-06
0.00448316771374668
0.00419280549799544
0.00385541391606993
0.00347044645416185
0.00304289276828812
0.00258160295147127
0.00209542874260402
0.00159189756527016
0.00108195553909348
0.000593084565197141
0.000191436663872891
8.06518334865691e-06
0.0046645199442251
0.0044070029936476
0.00410429500511077
0.00375469706497692
0.00336145734409412
0.00293195519638696
0.00247465427884959
0.00199731331429947
0.00150728959892305
0.00101566731959719
0.000548836863373552
0.000170501793778888
6.24979759094931e-06
0.004803368569541
0.00457585347981644
0.00430503275638484
0.00398844241705143
0.00362811101887563
0.003230152632191
0.00280212663304757
0.0023515174405727
0.001885651526125
0.00141213000549479
0.000942069515634383
0.000500445184485583
0.000148189192839901
4.60145531893265e-06
0.00490109960879557
0.00470082365974025
0.00445917871614889
0.00417312262837826
0.00384378692676129
0.0034762771330194
0.00307724487085356
0.00265345526868138
0.00221188496895019
0.00176000790120287
0.00130586578077621
0.000860682954156585
0.000447882768774757
0.000124602956754311
3.15398626587066e-06
1.94707426394125e-05
0.000278645972803908
2.04982292239446e-05
0.000761498790929546
0.000283771434310383
2.18080027184423e-05
0.00132257054472528
0.000765701179736063
0.000290316014841929
2.2417768003823e-05
0.00188577517927721
0.00132115903265054
0.000770688425252912
0.000292904088511728
2.17714164910518e-05
0.00241532581068295
0.00187632861405217
0.00131772649863994
0.000769821790336797
0.000288453817642838
2.02199841597677e-05
0.00289629862088587
0.00239701061827913
0.00186118967115378
0.00130678612149456
0.000758730475140347
0.000278134568255215
1.83389646438714e-05
0.00332447789950433
0.00286957050807184
0.00236924505017717
0.00183624905549419
0.00128440904295411
0.00073802381857947
0.000264639950014896
1.63930307034037e-05
0.00370066193608789
0.00328997134603355
0.00282990425877672
0.0023290084896942
0.00179872120187159
0.00125052005784768
0.000710631407630152
0.000249517783730587
1.44132941717852e-05
0.00402730264749
0.00365844037297805
0.00323947366011944
0.00277485614313759
0.00227451742430068
0.00174835042101543
0.00120712099586018
0.000678597267149055
0.000233031009164712
1.23992184662365e-05
0.00430696518972193
0.00397684638484222
0.00359756749331752
0.00317052506405311
0.00270318673562144
0.00220559763935058
0.00168621309527859
0.00115582863953581
0.000642585906251449
0.000215065657617977
1.03818720322699e-05
0.00454188378031267
0.00424740434395738
0.00390533759337515
0.00351517292591962
0.00308201507506702
0.00261487359780938
0.00212273653562954
0.00161321182810528
0.00109730788413719
0.000602645339470783
0.000195626571888499
8.4132854983161e-06
0.00473395563387564
0.00447217053328345
0.00416453163900968
0.00380936354182028
0.00341003009602629
0.00297409287406467
0.00251019614556255
0.00202623490993618
0.00152965161598886
0.00103160582359467
0.000558648486037846
0.000174721201245121
6.55185832372092e-06
0.00488482119384614
0.00465294230608576
0.0043769646719437
0.00405443347552185
0.00368749464931762
0.00328246595369503
0.00284712424937905
0.00238913920013003
0.00191597695477447
0.0014353307646082
0.000958399182102523
0.000510344489720581
0.000152355522902345
4.85185071910503e-06
0.00499592854724115
0.00479128985656077
0.00454431783504708
0.00425197019031296
0.00391550303306681
0.00354024698855409
0.00313310519446603
0.00270107118672173
0.00225131379358771
0.00179145427241772
0.00132961814307764
0.000877048543661729
0.00045734589142137
0.000128464794193591
3.34729703754247e-06
0.00506857380212788
0.00488859264637461
0.0046680880594892
0.0044035351598405
0.00409548592214992
0.00374846740355955
0.00336858927883488
0.00296210017676237
0.00253549527788797
0.00209602504057926
0.00165175682708113
0.00121141724873854
0.000786544412403556
0.000399172244795473
0.00010308178207587
2.0587311708899e-06
1.96105342383489e-05
0.000280058350911877
2.0687802389061e-05
0.000765073325262914
0.00028551221656703
2.20556877252091e-05
0.00132900894278333
0.000769937742765198
0.000292412678857201
2.27218540088713e-05
0.00189569647401816
0.00132862143678805
0.000775625298849747
0.000295355930646494
2.21185342173282e-05
0.00242930711361172
0.00188766141857953
0.00132625272023061
0.000775466965434098
0.000291228566458153
2.05942822220916e-05
0.00291492021431333
0.00241282177162091
0.00187397431732448
0.00131638757397711
0.000765052523628545
0.000281189374192688
1.8729221164327e-05
0.00334836097050702
0.00289048646308677
0.00238692889069153
0.00185049467299274
0.00129505595503382
0.000744968415212937
0.000267936050663037
1.67907121394405e-05
0.003730493725793
0.00331667508394961
0.00285316598228958
0.00234857234936873
0.00181439638486883
0.00126215236056281
0.000718138083732626
0.000253018945381758
1.4809551533079e-05
0.00406385460029106
0.00369169610410655
0.00326906821673464
0.00280047312416276
0.0022959267128322
0.00176538999592168
0.00121966520288989
0.000686615713779092
0.000236717888822212
1.27835576980276e-05
0.00435110318022183
0.00401751758817759
0.00363434817264697
0.00320302870556727
0.00273112140990794
0.00222877979036616
0.00170452627925425
0.00116919927497289
0.000651055380355661
0.000218896897544
1.07434332980307e-05
0.00459457523302281
0.0042964652442554
0.00395027259848917
0.00355551358407479
0.00311738907449885
0.0026450442310638
0.00214758280299962
0.00163267913735847
0.00111139228624353
0.000611462485959104
0.000199512467031087
8.7416057321225e-06
0.00479627076854238
0.00453071159037605
0.004218715139899
0.00385862234680647
0.00345389334835454
0.00301224464718702
0.00254247490262385
0.00205259484963235
0.0015501174971191
0.00104626185710155
0.000567709591789085
0.000178625273163341
6.83822497214785e-06
0.00495792624395478
0.00472216727082638
0.00444161923193645
0.00411383013292555
0.00374104174677227
0.00332974446386025
0.00288790131942456
0.00242334067726832
0.00194364833630554
0.00145659715281637
0.000973458168993729
0.00051954559498648
0.000156235321407302
5.09037603427324e-06
0.0050810622147649
0.00487249986449592
0.00462078411313964
0.00432285802566768
0.00398007295632261
0.00359795013787199
0.00318360925581694
0.00274424005984971
0.0022871761688294
0.00182016758268988
0.00135142704897408
0.000892274879027722
0.000466494937350004
0.00013223891571114
3.5336103692534e-06
0.00516701689314501
0.0049831707057414
0.00475781343340746
0.00448739229496333
0.00417255818850656
0.00381804615311037
0.00343021107367786
0.00301553409537464
0.00258071744309367
0.0021331896636827
0.00168115545206566
0.00123341482291767
0.000801509632823937
0.000407672696762826
0.000106439527180745
2.18858490069993e-06
0.00521697683936705
0.00505545841804282
0.00485411250912616
0.00460896999769164
0.00432009129220645
0.00399154269779043
0.00362897987133735
0.00323817159261295
0.00282510556337422
0.00239652686301869
0.00196025816669463
0.00152511651487358
0.00110070711208144
0.000699248456867532
0.000341816034448706
7.8619224058658e-05
1.10190368700346e-06
1.97106766264581e-05
0.000281181730274938
2.08354165518467e-05
0.000768033758550683
0.000286961453687782
2.22586692512815e-05
0.00133447608791606
0.000773546901566831
0.000294207272871498
2.29796668715012e-05
0.00190426342819724
0.001335085038456
0.000779916049564388
0.000297495858948134
2.24199764336285e-05
0.00244152178596059
0.00189759087161563
0.00133374587699893
0.000780445270820575
0.000293685461149225
2.0925412762546e-05
0.00293132612064252
0.00242678816804936
0.00188529921338206
0.00132491857524595
0.000770689322332167
0.000283924126844129
1.90793421107488e-05
0.00336953013725494
0.00290906992999471
0.00240268207695547
0.00186322127267209
0.00130459729445604
0.000751214606035236
0.000270915161006816
1.71515789152822e-05
0.00375705124900607
0.00334049863590447
0.00287396928133062
0.00236611596901129
0.00182849459964338
0.0012726491035337
0.00072493956937404
0.000256206187931138
1.51724948186898e-05
0.00409649340100007
0.00372144795942314
0.00329560326032452
0.00282349999654721
0.00231522583901155
0.00178079813605486
0.00123104725763169
0.000693917038916529
0.000240088129157331
1.31386648601143e-05
0.00439059605687627
0.00405396770539847
0.00366737636718838
0.00323228398271914
0.0027563314141698
0.00224976360644728
0.00172115802489031
0.0011813860370999
0.000658802614548028
0.0002224212073517
1.10802583867821e-05
0.0046417794737307
0.00434047644783966
0.00399065084711797
0.00359183826968211
0.00314931951891892
0.00267235487067321
0.0021701459994971
0.00165042170959079
0.00112428212590443
0.0006195757417229
0.000203118758999631
9.04959758314215e-06
0.00485213390687896
0.00458324685527556
0.00426740760260102
0.00390296755911186
0.0034934669874607
0.00304675418751933
0.00257175963754297
0.00207659215969217
0.00156882289114544
0.00105971845162282
0.000576070845480447
0.000182246410259086
7.10857132093881e-06
0.00502348605422247
0.00478429225223202
0.00449970390018409
0.00416726811324159
0.00378930627642183
0.00337245567597531
0.00292483864823113
0.0024544192477619
0.00196888503301661
0.00147607496036006
0.00098731720637867
0.000528049726884538
0.000159826219775306
5.31665279743767e-06
0.00515743852199968
0.0049453781036635
0.00468945179135639
0.0043865856465212
0.0040382084022557
0.00365000311855407
0.00322927510397699
0.00278338228967596
0.00231979946566918
0.00184638750546321
0.00137143598591807
0.000906336408015161
0.000475017979915225
0.000135753340799915
3.71133948006589e-06
0.00525538620621914
0.00506804571308101
0.00483835456291359
0.00456272196803811
0.00424187248315727
0.00388071771228077
0.00348582431658226
0.00306387349398372
0.00262174466219934
0.00216701928288033
0.00170802353787609
0.00125364022863359
0.000815491118922685
0.000415995356195768
0.000109766560264848
2.314392620892e-06
0.00531854010692959
0.00515363634114451
0.00494790351594318
0.00469731759628636
0.00440201236553074
0.00406624389730909
0.00369590359274507
0.0032969915403871
0.00287570954022277
0.00243899680860148
0.00199484317003993
0.00155219266682444
0.00112071669784031
0.000712638425115325
0.000349225959862818
8.14017121869487e-05
1.17435192861882e-06
0.00534796200442721
0.00520331068045552
0.00501938901697533
0.00479181479478191
0.00452020747302463
0.00420824193928597
0.00386118238559805
0.00348434834301074
0.00308322526555497
0.00266401342468419
0.00223397757743631
0.00180163302691546
0.00137665773028806
0.000969787474458081
0.000594594085689569
0.000272292994692187
5.11071836165157e-05
4.09519504110233e-07
1.97736535456801e-05
0.000281990674527059
2.09400257205288e-05
0.000770383765141276
0.000288118015236174
2.24164014064683e-05
0.0013389904668108
0.000776537113757081
0.000295704513900845
2.31908346683791e-05
0.00191151521355399
0.00134057396347411
0.000783572942998906
0.000299329516584826
2.26755475346611e-05
0.00245203604048804
0.00190616530050606
0.00134023730447725
0.000784773917317776
0.000295831354649008
2.12130554488245e-05
0.00294561895063252
0.00243899015246038
0.00189522303348888
0.00133241815453493
0.000775663171939667
0.000286347896148726
1.93891994444794e-05
0.00338813456342625
0.00292544256013662
0.00241659887736498
0.00187449748476985
0.00131307875048959
0.000756788174326921
0.000273585533722215
1.7475686803779e-05
0.00378054048232834
0.0033616157861457
0.00289245480390875
0.0023817475803536
0.00184109396038095
0.00128206136905621
0.000731063363076726
0.000259094015281506
1.55021792072404e-05
0.00412549584090188
0.00374793521492239
0.00331927908590066
0.00284409748083797
0.00233253731864283
0.00179466233215152
0.00124132480715905
0.000700536618023032
0.000243155914432526
1.34644335699184e-05
0.00442580437080367
0.00408651687310016
0.00369692801894937
0.00325852006239063
0.00277899892852042
0.00226868643440494
0.00173620504512942
0.00119245098970652
0.000665863267785597
0.000225643689689821
1.13918801377389e-05
0.00468395863752791
0.0043798569060719
0.00402684231022688
0.00362446339353973
0.00317806694616274
0.00269701066477464
0.00219057893577644
0.00166654479584088
0.00113604026213913
0.000627010586197505
0.000206453307286797
9.33704553621031e-06
0.00490212503566323
0.00463031227478247
0.00431109276712419
0.00394282351400952
0.00352911105985831
0.00307791561856606
0.00259828005020963
0.00209839613133629
0.00158588269928834
0.00107204558442333
0.000583774238893451
0.0001856038259158
7.36259466475877e-06
0.00508221025878912
0.00483998578365381
0.00455183451520822
0.0042152997086468
0.00383276886132573
0.00341100433317316
0.0029582647096582
0.00248262991653759
0.00199187383390033
0.00149389002908684
0.00100005202513418
0.000535901382958123
0.000163157104809247
5.53050061820735e-06
0.0052258960757203
0.00501073333261997
0.00475108109359551
0.00444384801375412
0.0040905270529639
0.00369693924896048
0.00327054893663942
0.0028188580497108
0.00234946216287839
0.001870316895563
0.0013897762320503
0.000919288568783442
0.000482900592010066
0.000139008337960886
3.88010414037261e-06
0.00533464711021461
0.00514418037855518
0.00491063400967971
0.00463038067205554
0.00430420433878291
0.00393716693402961
0.00353601704194221
0.00310760746967512
0.00265896934251209
0.00219781551216329
0.00173257775950805
0.00127221384482353
0.000828421942590043
0.000423762475116794
0.000112862847136199
2.43448867499916e-06
0.00540971710065465
0.0052417327022217
0.00503206746523809
0.00477663657537756
0.00447562596826113
0.00413345334572632
0.00375621446510651
0.00335010884648395
0.00292152155716367
0.00247755783329082
0.00202635176348519
0.00157696184696858
0.0011391421943696
0.000725207653667504
0.000356607453535207
8.42061152477888e-05
1.24516106255026e-06
0.0054521769882141
0.00530459663793962
0.00511673925534958
0.00488414187762887
0.00460647186251625
0.00428757455120356
0.00393293794187225
0.00354810771386264
0.00313878546452028
0.00271137482623146
0.00227332394636665
0.00183330321183801
0.00140110788931988
0.000987539597990031
0.000606174981088022
0.000278439915000219
5.31901378160929e-05
4.38023213038895e-07
0.00546295450123031
0.00533380215575552
0.00516580874072137
0.00495420922166269
0.00469821738717276
0.00440115886911763
0.00406794968511348
0.00370348932291622
0.00331276660418446
0.00290142980492726
0.00247612854402356
0.00204472802620126
0.00161647413335888
0.00120197507554967
0.000813486120403949
0.000467089017558118
0.00018707194503894
2.34181720441719e-05
8.53731377520504e-08
0.000282503162580379
2.10059962199612e-05
0.000772116531458053
0.00028894181584778
2.25273178164818e-05
0.00134256478230995
0.000778911417763635
0.000296902243790108
2.33546853696851e-05
0.00191748109673546
0.00134510629971123
0.000786604300943267
0.000300861690821836
2.28847705081476e-05
0.00246090438961404
0.00191342323413681
0.00134575065303758
0.000788464848521588
0.000297671902518205
2.14569991514873e-05
0.00295788451316899
0.00244949413211355
0.00190379359120669
0.00133891679409472
0.000779990033937992
0.00028846672781934
1.96586278308126e-05
0.00340430028821502
0.002939706993063
0.00242875889089079
0.00188438087406121
0.00132053784261899
0.000761709668595042
0.000275954782011819
1.77627341242042e-05
0.00380113740631388
0.00338017507300056
0.00290874285939684
0.00239555982984725
0.0018522613140554
0.00129043288084214
0.000736532889520574
0.000261687176444715
1.57986723458741e-05
0.00415109796435726
0.00377136306153433
0.00334026763208811
0.00286240372727533
0.00234796670103482
0.00180705809640695
0.00125054687659704
0.00070650368521882
0.000245937357795497
1.376070610145e-05
0.00445703787764065
0.00411544023322663
0.00372323993403389
0.00328193367835353
0.00279928059291023
0.00228566676369435
0.00174975129672158
0.00120244893981877
0.000672269062629444
0.000228580346602092
1.16782385506346e-05
0.0047215095805578
0.00441496601753234
0.00405916407805847
0.00365365999966732
0.00320385456405294
0.00271918760088707
0.0022090131802869
0.00168114000454773
0.0011467242580743
0.00063379318799399
0.000209509370908941
9.60347524274314e-06
0.00494674378007183
0.00467236843321632
0.00435018554952319
0.00397855362395928
0.00356113359132493
0.00310598038808496
0.00262223249270305
0.00211815166641005
0.001601395480079
0.00108330152231746
0.000590848052694889
0.000188716703969436
7.59998796876612e-06
0.00513471580531258
0.00488982626608045
0.00459854207620345
0.00425840008343192
0.00387184236376406
0.00344573754239813
0.00298846060409835
0.00250819029894697
0.00201277362352443
0.00151014939169762
0.00101172843441166
0.000543139878507789
0.000166251937845494
5.73171201517804e-06
0.00528717862504495