/*--------------------------------*- C++ -*----------------------------------*\
  =========                 |
  \\      /  F ield         | OpenFOAM: The Open Source CFD Toolbox
   \\    /   O peration     | Website:  https://openfoam.org
    \\  /    A nd           | Version:  12
     \\/     M anipulation  |
\*---------------------------------------------------------------------------*/
/*   Windows 32 and 64 bit porting by blueCAPE: http://www.bluecape.com.pt   *\
|  Based on Windows porting (2.0.x v4) by Symscape: http://www.symscape.com   |
\*---------------------------------------------------------------------------*/
FoamFile
{
    format      ascii;
    class       volScalarField;
    location    "400";
    object      omega;
}
// * * * * * * * * * * * * * * * * * * * * * * * * * * * * * * * * * * * * * //

dimensions      [0 0 -1 0 0 0 0];

internalField   nonuniform List<scalar> 
10116
(
2.46684449252647
2.46684230619094
0.677719937729552
2.38168278023543
2.46684037434543
0.682752293238846
2.38168073115369
0.37754749267186
0.662411977724629
2.2869990796252
2.46683966880391
0.687171529137952
2.38167826518772
0.381418054271066
0.667402159584873
2.28699711069542
0.27575048635361
0.373036913094729
0.643271547306744
2.21611237401089
2.46683965030362
0.691171108009467
2.3816772664089
0.38490348947194
0.671785354699964
2.28699441463174
0.278778995828035
0.376883142142062
0.648173403889289
2.21611054821525
0.228365786912443
0.274096985885186
0.366409294443259
0.627600924874579
2.18722112886702
2.46683978580382
0.694796375915847
2.3816771765463
0.388062436962433
0.675709103596461
2.28699326054341
0.28155111866647
0.380344920450118
0.652465115500556
2.21610803161023
0.230880672946198
0.277115489036625
0.370215478004999
0.632416306564281
2.18722111344267
0.202536236032214
0.227698500477762
0.271247515165199
0.35987950995396
0.618327940195816
2.1861956951192
2.4668413685838
0.698036697799272
2.38167737770093
0.390921241894753
0.679253004374495
2.28699311108596
0.28408035064222
0.383478585506403
0.656297901397541
2.21610688236824
0.233204072212002
0.27987653274622
0.373634543195584
0.636615742129868
2.18721786632177
0.20471127349287
0.230211072131945
0.274247038300652
0.363642791175055
0.623079401538106
2.18619463023127
0.187166616746966
0.20224673654966
0.226290778756024
0.267901383598372
0.354630657056051
0.613239104815982
2.19193092613174
2.46683893406624
0.700926710250043
2.38167885884751
0.393496797504306
0.682462866343417
2.28699319377416
0.286378894615631
0.386313237926751
0.659758720736021
2.21610665677382
0.23533787538138
0.282395024821554
0.376726939432636
0.640360231514555
2.18721697139099
0.206736109227067
0.232530362165728
0.276988497473824
0.367015015881712
0.627205835079331
2.18619226249515
0.189098284368004
0.204423241206918
0.228795747744039
0.270878279752419
0.35836005178362
0.617942272091344
2.19192873064037
0.177555184111161
0.187011640789623
0.201448899166243
0.224356006304874
0.264590701742342
0.350343645709455
0.6087890911551
2.19485480249103
2.46683904079181
0.70349333508585
2.38168808425956
0.395807584831072
0.685334670368229
2.28699258831112
0.288458685424366
0.388870539204092
0.662901999412503
2.21610663601871
0.237287229421986
0.284683610789175
0.379523772559401
0.643737588322532
2.18721661999197
0.208607769873779
0.234659954092287
0.279488302768603
0.37006271878773
0.630888151960346
2.18619027037833
0.190910352082333
0.206447525637611
0.231106848510905
0.273596680169903
0.361692890148869
0.622010894139451
2.19192848832118
0.179301884875039
0.188946521027718
0.203624159652464
0.226850865511211
0.267547142700212
0.354049248368284
0.61344604165616
2.19485015232858
0.171401142596054
0.177442407092509
0.186472472174698
0.200198199920219
0.222136193548614
0.261383071886068
0.346113492438263
0.603131762291937
2.19513010905381
2.46684086466175
0.705761074226723
2.38167559547836
0.397870522478734
0.68787806413346
2.28700262511247
0.290331734879814
0.391166159006217
0.665718237821513
2.21610587556009
0.239058936311009
0.286754653821178
0.382048447263288
0.646804780242698
2.18721647277543
0.210327068146992
0.236605323709916
0.281759651328329
0.372818207745184
0.634200673036112
2.18619125997732
0.192596327519192
0.208318213566973
0.233228385540451
0.276074518725896
0.364703358105868
0.625654353797303
2.19192690643811
0.180953426139854
0.190759722722494
0.205646297764168
0.229151713854614
0.270244233510076
0.357351217249406
0.617460322510181
2.19485243204409
0.173000976506234
0.179193086879387
0.188409587951206
0.202371231312427
0.224621602840718
0.264323310357934
0.349800282225261
0.607731095291172
2.19512151805097
0.167463142396809
0.171303702766419
0.177015057540669
0.185565971663823
0.198619799636537
0.219760463624013
0.258073382980026
0.341338721417257
0.596052496291821
2.19480822437472
2.46684255093326
0.707750355720651
2.3816788484251
0.399701458007979
0.69011999815815
2.2869908309815
0.292009630864351
0.393215204879149
0.668213191698182
2.21610416576437
0.240660636624951
0.288619954669872
0.38431559955267
0.649559538521967
2.18721468473173
0.211897045032128
0.238373375543382
0.28381521333833
0.375305488590623
0.637196202578216
2.18619092902473
0.194153764818279
0.210036445539957
0.235166143249879
0.278325439102225
0.367423313717241
0.628916648009143
2.19192753429074
0.182500279966187
0.192446254869782
0.207514452530697
0.231263213551816
0.272701570592143
0.360332946995982
0.621066794880229
2.19485473143737
0.174525968193668
0.180846530007259
0.190223892728882
0.2043905758193
0.22691261306299
0.267002617001742
0.35307490443198
0.611681552948275
2.19512608154368
0.168942756903482
0.172907919190602
0.178769945440366
0.187505795078565
0.200791659523563
0.222238909951737
0.26100059595565
0.345007440363377
0.600587778666098
2.19479983611408
0.165017051277253
0.167376897180132
0.170934821958852
0.176295942028561
0.184380053579849
0.196840682281349
0.217244245458862
0.254480102094836
0.335833623611115
0.587791578020623
2.19480304129596
2.46684081028803
0.709478042291181
2.38166980617841
0.401314897564184
0.692086511350761
2.28699515946082
0.293503444398813
0.395033411041744
0.670409741324027
2.21610205645478
0.242100298527224
0.290290898432622
0.386339306606885
0.652001613081413
2.18721526355803
0.213322135485745
0.239971751683198
0.285666654236734
0.377539750669314
0.63989726980802
2.18618964161154
0.195582804757563
0.211605356322352
0.236927165529732
0.2803622992386
0.369876629663424
0.631852250734258
2.19192488371781
0.183937293276463
0.194003996096506
0.209230045694658
0.233191378917024
0.274933049821741
0.363024168041015
0.624284713373688
2.19485120055929
0.175963882258782
0.182394640301496
0.191910836899086
0.206255508869906
0.229014260458726
0.269442480810006
0.356030813465737
0.615238113779781
2.195130432074
0.170364773936893
0.174435223857671
0.180426312679164
0.189321844535861
0.202808952226674
0.224521977512268
0.263664501242066
0.348253314191906
0.604449972120816
2.19480464736688
0.166396331279409
0.168861207635809
0.172544543790923
0.178056813253582
0.186324719991533
0.199013924008247
0.219718534080583
0.257395957597278
0.339484717132571
0.592262603342535
2.19479501555152
0.163609588695139
0.16494292735593
0.167050072955393
0.170335455670788
0.175368996757072
0.18303254715708
0.194946662374682
0.214577091580425
0.25053855341047
0.329601400910146
0.57849390334434
2.19512812818563
2.46683985124048
0.710959295125508
2.38168064200168
0.402723743234076
0.693794306028701
2.28698762562563
0.294823626860435
0.396635628847852
0.672335837711079
2.21610899807564
0.243385923975526
0.291778484180282
0.388134657249352
0.654147701251985
2.1872132785729
0.214607630474315
0.241408401703451
0.287325158557257
0.379534145417962
0.642296318150405
2.18619123714684
0.196885387681981
0.213029416565491
0.23851911799698
0.28219681048034
0.372080902176097
0.634501577846039
2.19192740332767
0.185262230445133
0.195433189674251
0.210796357541675
0.234943399308321
0.276951644897452
0.365448744449441
0.627163827081764
2.19484594005444
0.177307227147265
0.183832583809697
0.193468581497779
0.207967662709756
0.230932768936871
0.271656911737964
0.358696151263854
0.618416251437012
2.1951243974717
0.171714547941617
0.175874770813007
0.181976478062499
0.191009673717604
0.204671140228621
0.226615225035737
0.26608874973552
0.351181341039534
0.607941356983111
2.1948070628902
0.167732747956241
0.170285839716976
0.174075951692922
0.179717891060139
0.188144198259073
0.201031084642254
0.221995786738128
0.260045224558542
0.342697452675709
0.596011512828337
2.19480217615547
0.164904208185142
0.166327203600096
0.168540910596138
0.171953586234923
0.17713924988974
0.18498547305285
0.197124589630263
0.21704981763107
0.253444090539853
0.333236540167975
0.582890947126779
2.19512037004046
0.162938692288035
0.163548298467173
0.164653193449089
0.16654150545485
0.169597397008999
0.174346759805151
0.181628435861176
0.193000997310867
0.211784706983281
0.246278786340715
0.322687442724301
0.568184995935527
2.19485279987643
2.46684056009798
0.712208085679574
2.38168130178913
0.403939532504431
0.695259073147686
2.28699943135633
0.295979877365202
0.398034696864619
0.674007279439473
2.21611567215928
0.244525359872368
0.293093144962039
0.389716534620862
0.656027485101906
2.18721877668313
0.215759270362764
0.24269131280693
0.288801585003214
0.38130278284061
0.644399070172765
2.18619172442462
0.19806468069598
0.214313931942635
0.239949932521728
0.283840006385815
0.374048633916105
0.636860610071255
2.19192836767607
0.186474978376713
0.196735823834545
0.212217931517406
0.236527011781389
0.278769361771786
0.367626545577663
0.629758336669336
2.19485094309879
0.178551738037374
0.185158231424535
0.194897532894447
0.209530487751103
0.232675490207965
0.273659022851531
0.361094044391913
0.621241124760059
2.19511864222229
0.172982537276909
0.1772193812343
0.183415895388711
0.192567670248195
0.20638007771483
0.228525134544784
0.26828760348828
0.353820452878927
0.611076348293574
2.19479891982451
0.169009557756458
0.171637520818106
0.175518611922043
0.181271607623415
0.189834233307658
0.202891990102554
0.224082261961053
0.262454188284305
0.345593437884982
0.599409924789109
2.19480496038054
0.16616853439578
0.167666515405333
0.169970560520669
0.173491875018402
0.178807839696458
0.186811058620712
0.19914420069876
0.219323175687909
0.256078544115852
0.336411080956528
0.586505770522048
2.195129760349
0.164161545063177
0.164848210541952
0.166044894680558
0.168042737998004
0.171228559029597
0.176130966308418
0.183593866452596
0.195187321695406
0.214258444830801
0.249175136951491
0.326309176482892
0.572489948908126
2.19484918546941
0.162792631837071
0.162889954279043
0.163292937195945
0.164221170278175
0.165953669210932
0.168832459289296
0.173337682764547
0.180262755859656
0.191086393903885
0.208955882080661
0.241805695241573
0.31516675281266
0.556882705259148
2.19192522476786
2.4668404913453
0.713231612709799
2.38167961298062
0.404972403473847
0.696490900902548
2.28699742850727
0.296981141136785
0.399242091535296
0.675439253045671
2.21611305737228
0.245526135935501
0.294244535942821
0.391097546169834
0.657657404416988
2.18722400332669
0.216783029901393
0.243828318117964
0.290106295710272
0.382860504220588
0.646236840091201
2.18619299766685
0.199124698957387
0.215464667302107
0.241227571561087
0.285302568118497
0.375792625782376
0.638932044929191
2.1919287607558
0.187577007779944
0.197915108591785
0.21350010878674
0.237950160154826
0.280397191103416
0.369570668359375
0.632074323156353
2.19485467000062
0.179695587009596
0.1863715344765
0.196199777911069
0.210948643875882
0.234250299440221
0.275461196195677
0.363246099319179
0.623769397427696
2.19512398490616
0.174162736190845
0.178464906230652
0.184742612082828
0.19399643982387
0.207939421702252
0.230259272169589
0.270274288107371
0.356191067320462
0.613842531853795
2.19479306796396
0.170215443904832
0.172907025319262
0.176865640915291
0.182713664725644
0.191393471283467
0.204598803472744
0.225984812152926
0.26463772702804
0.348203468937108
0.602481055692639
2.19480342665164
0.167384038641095
0.168945484911613
0.17132617187457
0.174940026197404
0.180367425892014
0.188505441214718
0.201005867404315
0.221404327747262
0.258471729355554
0.339269034712388
0.589780575912199
2.19512632801815
0.165364738892829
0.166115702178039
0.167390023914486
0.169481034986269
0.172777618401038
0.177810774376272
0.185428986103647
0.19721237218937
0.216529811139799
0.251794425668551
0.329440258521207
0.575949095217557
2.19485258049552
0.163954643800447
0.164118380696964
0.164601088862502
0.165624989622299
0.167471022677565
0.170482412060221
0.175141218020565
0.182245621815685
0.193285340120284
0.211433638640894
0.244694567205179
0.318779179737846
0.561038020899982
2.19192741227953
0.163017369989804
0.162755517052965
0.162666085430034
0.162928152465618
0.163759468873527
0.165400620415626
0.168149516944753
0.17245091730621
0.179052802409457
0.189341625024186
0.206265643208578
0.237325466101522
0.307229649435603
0.544773105679193
2.18618823126722
2.46684130098681
0.714047141295688
2.38167770438791
0.405833409992874
0.697501126861759
2.28699543098901
0.297835676935507
0.400267900011082
0.676641167960406
2.21611093280268
0.246395378495439
0.295241557448582
0.392288983294037
0.659050129907733
2.18722288082255
0.217684836336557
0.244826931589546
0.291248855461417
0.384219820164478
0.647827763040929
2.18619393060793
0.200069907089466
0.216487584508471
0.242359838125162
0.286594776636821
0.377327509879487
0.640733179035784
2.1919287016657
0.188570847159143
0.198975062523
0.214648674828322
0.239220791648994
0.281845652657977
0.371293386477388
0.634113084486829
2.19485292944908
0.180738768570081
0.187473986899204
0.197378590023564
0.212227543569097
0.235665208014163
0.277074585925084
0.365166951370622
0.626028126902107
2.19513031107177
0.175251831446596
0.179609576200674
0.185956694130023
0.195298217305153
0.209353998017411
0.231825716555035
0.272061549877757
0.358315124874947
0.616294828070474
2.19479840078954
0.171342891607258
0.174088462127637
0.178113078101184
0.184042333430666
0.19282276489269
0.206155452933145
0.227711283804556
0.266609039995178
0.350544411545379
0.60519883601778
2.1947977462854
0.168537888626674
0.170153113384271
0.172598824774673
0.176291427148504
0.181814007819553
0.190067629587693
0.202712180020185
0.2233006445901
0.260639464265329
0.341845029589547
0.592756044056495
2.19512489722755
0.166528270022131
0.167333608856877
0.168673636048704
0.170843709475549
0.174234547895311
0.179379290632129
0.187130523262371
0.199077235431505
0.218607114105985
0.254171078606618
0.332253473134493
0.579068300952746
2.19485504661975
0.165105865275089
0.165324993868733
0.165875124654729
0.166980297103686
0.168922838720115
0.172047005778832
0.176836679028667
0.184094373198892
0.195319344221102
0.213705352278843
0.247298656957596
0.321860317650978
0.564286619649742
2.19192692893591
0.164127964098156
0.163923356921045
0.163903483872992
0.164249946757466
0.165182099858805
0.166940965060692
0.169824787293168
0.174279948820222
0.181058888373955
0.191558352791301
0.20875149894192
0.240210123966071
0.310832234307647
0.548703089412476
2.18619074014018
0.163497916446735
0.162990691943048
0.162559913491205
0.162360812668334
0.16257521797072
0.163385690062065
0.164992043829674
0.167665037751567
0.171824961081419
0.178174253375023
0.187999620565429
0.204026931310885
0.233246257568229
0.299388296692674
0.532578783043051
2.18721474599503
2.46684309613265
0.714664673971042
2.38167703063359
0.406531305227736
0.698301922231484
2.28699292128804
0.298551326357939
0.401122281307071
0.677624510182283
2.2161089965998
0.247139779906326
0.296092429059829
0.393300818258439
0.660216967871338
2.18722016851673
0.218470460324741
0.245694264135988
0.292238089306251
0.385391692884429
0.649184317203501
2.18619515758417
0.200904974983626
0.217388617634601
0.243354214155914
0.287726116494865
0.378665881889235
0.642288258252564
2.19192828740503
0.189459736955289
0.199920165674249
0.215669591732173
0.240346689285208
0.283124942043343
0.372807817750467
0.635879261959875
2.19485206099429
0.181682581148925
0.188468148901802
0.198438020773548
0.213373013118941
0.236928182987434
0.278509676379447
0.366868795146574
0.628021603114998
2.19512669997278
0.17624855550375
0.180653421668662
0.187059705769826
0.196476379471266
0.210629338099187
0.233232615423729
0.273660868303557
0.360209968752033
0.618487661953275
2.19480283198186
0.172387304008325
0.175178578481566
0.17925927599812
0.185257850832014
0.194124551456947
0.207566990512901
0.229270008588772
0.268381112319649
0.352637532604107
0.60758136422897
2.1948029621994
0.169621276335419
0.171282002724303
0.173782824286264
0.17754236124596
0.183146139298161
0.191498800471657
0.204267421734378
0.225020310604359
0.262594916491227
0.344154475152557
0.595406050712166
2.19511928954686
0.167638041747123
0.168489418563077
0.169885047855044
0.172122134612229
0.175593069365952
0.180832930479692
0.188697979758412
0.200785056109316
0.220498393961319
0.256322318442576
0.33478910996228
0.581907764273394
2.1948516314625
0.166225121195061
0.166491155464568
0.167098321498336
0.16827233326545
0.170296735842963
0.173516713853867
0.178417828912712
0.18580649977411
0.197190370123401
0.215780737357666
0.249658346555098
0.324620606493832
0.56721054037129
2.19193170187303
0.165235013472626
0.165078227204187
0.165117298604939
0.165535519743681
0.166553318920854
0.168412049973992
0.171410369894953
0.17599626159391
0.182926210097597
0.193605771344509
0.211026980679435
0.242799783917672
0.313851192429886
0.551649185267836
2.18619276783091
0.164565273792233
0.164107334089956
0.163737367550125
0.163613196210281
0.163918187664663
0.164835002109956
0.166563000086463
0.169373002579729
0.173686737580741
0.180210682430387
0.190241009565839
0.206527238070489
0.236132103286518
0.302970851472097
0.536249504694659
2.18721596708876
0.164146940274668
0.163480459198805
0.162820060754539
0.16230710680678
0.162102611203872
0.1623554735986
0.163211026512202
0.164849248507719
0.167531280589577
0.171661781555235
0.177904124684907
0.187452675762593
0.202810703471997
0.230422435114919
0.292944119951107
0.524295594400907
2.21611792753311
2.46683944064222
0.715099302611285
2.38167783782806
0.407075379593855
0.698901306975366
2.28699142992586
0.299135376418976
0.401814775323387
0.678399364516843
2.21610652985059
0.247765613066411
0.296804961695916
0.394142944188762
0.66116877052716
2.18721901724206
0.219145418517533
0.246436996418719
0.293082169736652
0.386386240042028
0.650317858925659
2.18619352178532
0.201634603724395
0.21817353921417
0.244217782067399
0.288705333713626
0.379818674758106
0.643611098697962
2.1919279616372
0.190247321406136
0.20075510543145
0.216568794800661
0.241335308766554
0.284244512278721
0.37412693900114
0.637397359130455
2.19485081581848
0.182529221280755
0.189357278070256
0.199382573644827
0.214391036099142
0.238047012159118
0.279776504045022
0.368363344270802
0.629752652685092
2.19512544417726
0.17715314580343
0.181597769736717
0.188054258238572
0.197535047587058
0.211771347553888
0.234488012083473
0.275082811047004
0.361888388606119
0.620419610115519
2.1948056521113
0.173346323280588
0.176176145858136
0.180304345960922
0.18636190475345
0.195302363015482
0.208839119696926
0.230669337468605
0.269965904103979
0.354503089398134
0.60968615131405
2.19480526654263
0.170628501214419
0.172327618289703
0.17487504701734
0.178691369632795
0.184364292001812
0.192801660364762
0.205676933871328
0.226571948165764
0.264351191403913
0.346214998942751
0.597724424878157
2.19512437741721
0.168684157607289
0.169574442293822
0.171017065196442
0.173310877249975
0.176849781331532
0.182170617868006
0.190132945465955
0.202340559174774
0.22221224762872
0.258261552511999
0.337062555644047
0.584441805900699
2.19484785676178
0.167297293572383
0.167603090995153
0.168258491167449
0.169490727125499
0.171584455865455
0.174885725901114
0.1798816433509
0.187382129780522
0.198902241323119
0.217668672014163
0.251792725844478
0.327107676940888
0.569879640285694
2.19193007580079
0.166316466289816
0.166200320523817
0.166289337953833
0.166768349736487
0.167858702090473
0.169802042528072
0.172897462489983
0.177594463838507
0.18465318361909
0.195486873950843
0.213103487735119
0.245142882723796
0.316547742055432
0.554314009239888
2.1861943565254
0.165634845521314
0.165218232218692
0.16490002180674
0.164839753313416
0.16522177939422
0.166228765653129
0.168059767571377
0.170985833368868
0.175430145004349
0.182102835637932
0.192308024439971
0.208812071202474
0.238709575068852
0.305909579298921
0.538805517510066
2.18721838595093
0.165178136261618
0.164554047277583
0.163946862678598
0.163500707721614
0.163378235931438
0.163728369979273
0.164695643003121
0.166459336813137
0.169280557937724
0.17356518786776
0.179980229193569
0.1897287149481
0.205336201558735
0.233318716241159
0.296521811231162
0.527571536153174
2.21610690834468
0.164897388787659
0.164137560164498
0.163331674446097
0.162613237969915
0.162131583726649
0.16201621786555
0.162381914207908
0.163360610479717
0.165134131034499
0.167968984710337
0.172271042320667
0.178692679858647
0.188385869100503
0.203721585464529
0.230767613599568
0.291877509101332
0.530000713377746
2.28700646185534
2.46683921275885
0.715412888286572
2.38169005484296
0.407474595715393
0.699314018072774
2.28699253570821
0.299594348282064
0.402354201834494
0.678972846648582
2.2161048610001
0.248278614979811
0.297386430153755
0.394824861069644
0.661914691606942
2.18721590981314
0.219714928348816
0.247061391976321
0.293788860366123
0.387213326867645
0.651239534790445
2.18619359583332
0.202263416324656
0.218847869724317
0.244957206191418
0.289540604740412
0.380796120329971
0.644713143038385
2.19193049903059
0.190937439326923
0.201484598541406
0.217352055010655
0.242193712765634
0.285213092588723
0.375261916414148
0.638684544032312
2.19484819539617
0.183281459146642
0.190145036782947
0.200216956091136
0.215287558787243
0.239029153892442
0.280884540820434
0.369663355416173
0.631229872902123
2.19512362012124
0.177966888588727
0.182444838265714
0.188943644826537
0.198478773697825
0.212786061852825
0.235599727205838
0.276337308865903
0.363361762981454
0.622101243440077
2.19480412780748
0.17421925635695
0.177081427973656
0.181249673832647
0.187357196441826
0.19636043525397
0.209977871772001
0.231917444701207
0.271374195775107
0.356154265279015
0.611543987395086
2.19480796181073
0.171556263575922
0.173287641916761
0.175874352607092
0.179738703790993
0.185470337047212
0.193979951858978
0.206946647851173
0.22796416893232
0.265920736386679
0.348047064633754
0.599739970080664
2.19512666724052
0.169659980582017
0.170583043390994
0.172065289158392
0.174407018010858
0.178003487352903
0.183393133503853
0.191438466959535
0.203749440217536
0.223757618480744
0.260001727417507
0.339088563302763
0.586673375915887
2.19484861131747
0.168311593318952
0.168651024929212
0.169347155516685
0.170628562440263
0.172780909988827
0.176151054926461
0.181227521793068
0.188823371076056
0.200460212658198
0.21937826390532
0.253715691504735
0.329337837821701
0.572267691214054
2.19192653717667
0.167356417160275
0.167274842352433
0.167406157157733
0.167936575989107
0.169088276741775
0.171103200199244
0.17428088246129
0.179072241181819
0.186240694973078
0.197206282858254
0.214990898325962
0.247260922157276
0.318977416698328
0.55674872543854
2.18619686990347
0.166683985495482
0.166302704331738
0.166028516779618
0.166022501993795
0.166469828562126
0.167553146566702
0.169471302146476
0.172495660201871
0.177050815761752
0.18385020576549
0.194204824067157
0.21089489262022
0.241038296650539
0.308528612437984
0.541145446853444
2.18722072079405
0.166215961643662
0.16562763604404
0.165066047478112
0.164677158835881
0.164624663946757
0.165057390482569
0.166119234022003
0.167989025974196
0.170928062645209
0.175343514094058
0.181905648894292
0.191824565623275
0.207640153339888
0.235890568631234
0.299371012167561
0.529543119306153
2.21610846298858
0.165898451093676
0.165175131575435
0.164415869145386
0.163757166781754
0.163350204717029
0.163324603558913
0.163794261458017
0.164890114580029
0.166793259258104
0.169770075355479
0.174227552696785
0.180821574932707
0.190712286327056
0.206291138934212
0.233700328542864
0.295495286434669
0.532632417973038
2.28699470794799
0.165697469882298
0.164895048460641
0.164007775377077
0.163164957827689
0.162509798348622
0.162160972734542
0.162216357855703
0.162782881056887
0.164003575715976
0.166081161796224
0.169311866855846
0.174145502487165
0.181305447367781
0.192072502348627
0.209076631596636
0.239125717148226
0.308324163150972
0.575634129416174
2.38167954678526
0.71559777505205
2.38166509639098
0.40774113413855
0.699626172359109
2.2870059666485
0.299934029886626
0.402749657572031
0.679359811113382
2.21610331497916
0.248684002162895
0.297843370018525
0.39535528221663
0.662461289741196
2.1872158979704
0.220183766162334
0.24757321892995
0.29436542286306
0.387882314349122
0.651957819152061
2.18619160365415
0.202795809419947
0.219416811985104
0.245578739642426
0.29023969751054
0.381608254363443
0.645605795557066
2.19192972031874
0.191533960310295
0.202113262292064
0.218024890174659
0.242928564309581
0.286038911812326
0.376223227763134
0.639753404341312
2.19485337270252
0.18394239769366
0.190835276690989
0.200945898239962
0.216068360487252
0.23988167832343
0.281842573084374
0.370780428153722
0.632475950020825
2.1951187384178
0.178691804600064
0.183197417397572
0.18973155553348
0.199312299695614
0.213679464222141
0.236575253978761
0.277433819020466
0.364641318044533
0.623535509028623
2.19480178969246
0.175006613597573
0.177895742508913
0.182097521236072
0.188247085127412
0.197303403328576
0.21098937089631
0.233022224232954
0.272615951437394
0.357603101292932
0.613158145245416
2.19479981465496
0.172403067726707
0.174161412622317
0.176781068932223
0.180685854017965
0.186467115901396
0.195038071967656
0.208082766435929
0.229205327952997
0.267314589910331
0.349667251413334
0.601509081218191
2.19513151782003
0.170561406360029
0.171511963706263
0.173027495840711
0.175409569969576
0.179054646435289
0.184502596069192
0.192618558253514
0.205017910992728
0.225143407410894
0.261555482815361
0.340884913746056
0.588600647179709
2.19485277722098
0.169260604959751
0.169628385985681
0.17035881944831
0.171681657847156
0.173883465992316
0.17731185142685
0.182456636359431
0.190133686498458
0.201870393758824
0.220918784399243
0.255440081664741
0.331325483588614
0.574358802285025
2.19192291506548
0.168343371024007
0.168291125963266
0.168458197163567
0.169032012036353
0.170235497108248
0.172310890462986
0.175558176883847
0.180429582535615
0.187691468210589
0.198769866062607
0.21669891643302
0.249168496582863
0.321157224515333
0.558936923467269
2.18619178273486
0.167696222703434
0.167345168872461
0.167108390834523
0.167148335786268
0.167650896892657
0.16879873114082
0.170790556072832
0.173898100662205
0.178547296835955
0.185454559515038
0.195936931411701
0.212786745952702
0.243142709582833
0.310890008142058
0.543304992573029
2.18722284463987
0.167237442404046
0.166679950746027
0.166157378221044
0.165817311130395
0.165824282916129
0.166326992310502
0.167468813310885
0.169428296155907
0.172467067098555
0.176993590730573
0.183681084267544
0.193745672303515
0.209738616016085
0.238211960051953
0.30190597827835
0.53142628658595
2.21609857667638
0.166909371901068
0.166217110564859
0.165498166201907
0.16489105263281
0.164548137368688
0.164598990668029
0.16515676679664
0.16635165210552
0.168364349567888
0.171461442682362
0.176051136828535
0.182792399676237
0.192851823445832
0.208632264480749
0.236287168799211
0.298245115861952
0.533729455063385
2.28699512467784
0.166673388738008
0.165902594415132
0.165056303525663
0.164267079487559
0.163680245626911
0.163414795471396
0.163567822428652
0.164245235480671
0.165589122416171
0.167801410588655
0.171178212455387
0.176170863091957
0.183506923179402
0.194475507103428
0.211727740416389
0.242156325781775
0.311928235178684
0.577028460131155
2.38167999921591
0.166507078745761
0.165701237020514
0.164781725280575
0.163875911983389
0.163124246656112
0.162639774474758
0.162511477498898
0.162834048435977
0.163733219564522
0.165384868147318
0.168042021823532
0.172084030794109
0.178108504491183
0.187131196501478
0.201087547011787
0.224317367331263
0.269324388937487
0.382463725967892
0.842646929498201
3.68516613460284
0.407871550704832
0.699857676239607
2.28698296712007
0.300159155505634
0.403015701550564
0.679666930785333
2.21610783658697
0.248986263089805
0.298181555100623
0.395743584853467
0.662825235776894
2.18721390899975
0.220556287803621
0.247977662452247
0.294818390069741
0.388401844168596
0.652479009326173
2.18619189888378
0.203235885508675
0.219885163272972
0.246088151734706
0.290809852529445
0.382264332693208
0.646296751214028
2.19193000242875
0.192040645041953
0.202645499082011
0.21859249727867
0.243546120777011
0.286729797500786
0.377021032817613
0.640614420725248
2.1948535198862
0.1845152814402
0.191431873037314
0.201574019980825
0.216738965892457
0.240611274327714
0.282658920632729
0.37172533228512
0.633505674556756
2.19512437369111
0.179330360141285
0.183858624142672
0.190421861128594
0.200040380270909
0.214457362379887
0.23742170326032
0.278381212455714
0.365738954894922
0.624733866380262
2.19479665210587
0.175709748416709
0.178621125908058
0.182850711347123
0.189035309742302
0.19813607051371
0.211879666842527
0.233991227578242
0.273700526168252
0.358860166370835
0.614537871186436
2.19479696219786
0.173168742571575
0.174949468393173
0.177596564981875
0.181535160755656
0.187358093694808
0.195980778360816
0.209091539587954
0.230303435338993
0.268542881740034
0.351087604904589
0.603041090459499
2.19512546559696
0.171386249353296
0.172359741599727
0.17390309458834
0.17631897754256
0.180004910104646
0.185502040547195
0.193677827540817
0.206152387289785
0.226378183389227
0.26293436154019
0.342470668174876
0.590261705647753
2.19485595507918
0.170139547718077
0.170531113046272
0.171290324643401
0.172647954594121
0.174891365847674
0.178368854106966
0.183571419232316
0.191317419218228
0.203139320358816
0.222299409134226