/*--------------------------------*- C++ -*----------------------------------*\
  =========                 |
  \\      /  F ield         | OpenFOAM: The Open Source CFD Toolbox
   \\    /   O peration     | Website:  https://openfoam.org
    \\  /    A nd           | Version:  12
     \\/     M anipulation  |
\*---------------------------------------------------------------------------*/
/*   Windows 32 and 64 bit porting by blueCAPE: http://www.bluecape.com.pt   *\
|  Based on Windows porting (2.0.x v4) by Symscape: http://www.symscape.com   |
\*---------------------------------------------------------------------------*/
FoamFile
{
    format      ascii;
    class       volScalarField;
    location    "400";
    object      p;
}
// * * * * * * * * * * * * * * * * * * * * * * * * * * * * * * * * * * * * * //

dimensions      [0 2 -2 0 0 0 0];

internalField   nonuniform List<scalar> 
10116
(
83333.3327416097
83333.3327453407
83333.3327419307
83333.3327415406
83333.3327494766
83333.3327456639
83333.3327452699
83333.332742238
83333.3327418506
83333.332741379
83333.3327540177
83333.3327498008
83333.3327494054
83333.332745945
83333.332745583
83333.3327451065
83333.3327416119
83333.3327421242
83333.3327416884
83333.3327411022
83333.3327589627
83333.3327543406
83333.3327539476
83333.3327500608
83333.3327497222
83333.3327492419
83333.3327452367
83333.3327458291
83333.3327454191
83333.3327448287
83333.332739742
83333.3327414582
83333.3327419251
83333.3327414071
83333.3327406922
83333.3327643114
83333.3327592839
83333.332758894
83333.3327545794
83333.3327542612
83333.3327537853
83333.3327492852
83333.3327499474
83333.33274956
83333.3327489644
83333.3327432202
83333.3327450831
83333.3327456273
83333.3327451366
83333.3327444187
83333.3327366128
83333.332739577
83333.3327412034
83333.3327416003
83333.3327409834
83333.3327401384
83333.3327700632
83333.3327646301
83333.3327642435
83333.3327595009
83333.3327592018
83333.3327587329
83333.332753749
83333.3327544672
83333.3327541001
83333.3327535088
83333.3327471481
83333.3327491373
83333.3327497482
83333.3327492792
83333.3327485551
83333.3327398789
83333.3327430594
83333.3327448243
83333.3327453011
83333.3327447128
83333.332743866
83333.3327322727
83333.3327364349
83333.3327392553
83333.3327408116
83333.3327411311
83333.3327404062
83333.3327394391
83333.3327762164
83333.3327703782
83333.3327699952
83333.3327648264
83333.3327645477
83333.3327640832
83333.3327586247
83333.332759388
83333.3327590405
83333.3327584575
83333.3327515157
83333.3327536064
83333.3327542703
83333.3327538215
83333.3327531006
83333.3327436318
83333.3327469963
83333.3327488803
83333.3327494247
83333.3327488575
83333.3327480039
83333.3327352648
83333.3327397082
83333.3327427343
83333.3327444317
83333.3327448332
83333.3327441366
83333.332743169
83333.3327267839
83333.3327320756
83333.3327360671
83333.3327387906
83333.3327402697
83333.3327405042
83333.3327396765
83333.3327385978
83333.3327827684
83333.3327765262
83333.3327761483
83333.3327705549
83333.3327702966
83333.3327698352
83333.3327639125
83333.3327647132
83333.3327643864
83333.3327638088
83333.3327563163
83333.3327584854
83333.3327591917
83333.3327587628
83333.3327580506
83333.3327478603
83333.3327513727
83333.3327533519
83333.3327539503
83333.3327534031
83333.3327525511
83333.3327387936
83333.3327434729
83333.3327466734
83333.3327484915
83333.3327489606
83333.3327482837
83333.3327473094
83333.3327294463
83333.3327350766
83333.3327393409
83333.3327422717
83333.3327438935
83333.3327442099
83333.3327434092
83333.3327423313
83333.3327201929
83333.3327265692
83333.3327316824
83333.3327355377
83333.3327381599
83333.3327395621
83333.3327397157
83333.3327387991
83333.3327376206
83333.3327897157
83333.3327830717
83333.3327827002
83333.3327766843
83333.3327764451
83333.3327759883
83333.3327696107
83333.3327704421
83333.3327701357
83333.3327695616
83333.3327615467
83333.3327637753
83333.3327645171
83333.332764109
83333.3327634034
83333.3327525539
83333.3327561796
83333.3327582323
83333.3327588735
83333.3327583465
83333.3327575029
83333.3327428444
83333.3327477125
83333.3327510531
83333.3327529678
83333.332753491
83333.3327528339
83333.3327518592
83333.332732708
83333.3327386181
83333.3327431105
83333.3327462171
83333.3327479597
83333.3327483425
83333.3327475596
83333.3327464755
83333.3327224691
83333.3327292389
83333.3327346898
83333.3327388195
83333.3327416498
83333.3327431939
83333.332743427
83333.3327425359
83333.3327413585
83333.3327125474
83333.3327199762
83333.3327261568
83333.332731094
83333.3327348125
83333.3327373432
83333.3327386797
83333.3327387673
83333.3327377791
83333.3327365149
83333.3327970536
83333.3327900115
83333.3327896474
83333.3327832121
83333.3327829908
83333.3327825402
83333.3327757171
83333.3327765718
83333.3327762848
83333.3327757151
83333.3327672036
83333.3327694754
83333.3327702464
83333.3327698591
83333.3327691577
83333.3327577059
83333.3327614146
83333.3327635232
83333.3327642
83333.3327636932
83333.3327628577
83333.3327474032
83333.3327524151
83333.3327558631
83333.3327578518
83333.3327584179
83333.3327577805
83333.3327568134
83333.332736548
83333.3327426818
83333.3327473565
83333.3327506039
83333.3327524432
83333.3327528793
83333.3327521149
83333.3327510289
83333.332725422
83333.3327325111
83333.332738241
83333.3327426005
83333.3327456062
83333.3327472693
83333.332747566
83333.3327466904
83333.3327455076
83333.3327143904
83333.3327222625
83333.3327288405
83333.3327341181
83333.3327381114
83333.3327408481
83333.3327423224
83333.3327424858
83333.3327415214
83333.3327402579
83333.3327038529
83333.3327123223
83333.3327195373
83333.3327255076
83333.33273027
83333.3327338688
83333.3327363293
83333.3327376198
83333.332737663
83333.3327366227
83333.3327352901
83333.3328047764
83333.3327973413
83333.3327969852
83333.3327901353
83333.3327899305
83333.3327894874
83333.3327822284
83333.3327830998
83333.3327828308
83333.3327822674
83333.3327732831
83333.3327755833
83333.3327763767
83333.3327760093
83333.3327753123
83333.3327633096
83333.3327670752
83333.3327692243
83333.3327699305
83333.3327694445
83333.3327686143
83333.3327524585
83333.3327575748
83333.3327611009
83333.3327631453
83333.3327637465
83333.3327631287
83333.332762171
83333.3327409488
83333.3327472517
83333.332752065
83333.33275542
83333.3327573333
83333.3327578113
83333.332757066
83333.3327559864
83333.3327290249
83333.3327363642
83333.3327423146
83333.3327468578
83333.3327500044
83333.3327517623
83333.3327521103
83333.3327512511
83333.332750066
83333.3327169995
83333.3327252265
83333.3327321287
83333.3327376878
83333.3327419104
83333.33274482
83333.3327464091
83333.3327466322
83333.3327456814
83333.3327444128
83333.3327052256
83333.3327141802
83333.3327218461
83333.3327282188
83333.3327333224
83333.3327371931
83333.3327398538
83333.3327412753
83333.3327413894
83333.3327403712
83333.3327390383
83333.3326940855
83333.3327036116
83333.3327118504
83333.3327188215
83333.3327245795
83333.3327291886
83333.3327326982
83333.3327351149
83333.3327363844
83333.3327364079
83333.3327353384
83333.3327339585
83333.3328128778
83333.3328050557
83333.3328047078
83333.3327974496
83333.3327972605
83333.3327968252
83333.332789141
83333.3327900233
83333.3327897709
83333.3327892149
83333.3327797806
83333.332782096
83333.3327829053
83333.3327825561
83333.3327818655
83333.3327693579
83333.3327731579
83333.3327753334
83333.3327760623
83333.3327755965
83333.3327747709
83333.3327579993
83333.332763185
83333.3327667641
83333.3327688489
83333.3327694791
83333.3327688813
83333.3327679306
83333.3327458935
83333.3327523162
83333.3327572288
83333.3327606628
83333.3327626317
83333.3327631434
83333.332762417
83333.3327613474
83333.3327332513
83333.3327407765
83333.3327468931
83333.3327515761
83333.3327548306
83333.3327566609
83333.3327570491
83333.3327562083
83333.332755028
83333.3327203396
83333.3327288397
83333.3327359964
83333.332741779
83333.3327461853
83333.3327492334
83333.3327509134
83333.3327511846
83333.3327502479
83333.3327489776
83333.3327074661
83333.3327168037
83333.3327248327
83333.3327315345
83333.3327369199
83333.3327410168
83333.3327438448
83333.3327453748
83333.3327455442
83333.3327445375
83333.3327431995
83333.3326949612
83333.3327050044
83333.3327137399
83333.3327211702
83333.3327273332
83333.3327322802
83333.3327360543
83333.3327386618
83333.3327400537
83333.3327401425
83333.3327390928
83333.3327377114
83333.3326831989
83333.3326938239
83333.3327031009
83333.3327110637
83333.332717785
83333.332723354
83333.332727847
83333.3327313006
83333.3327337015
83333.3327349775
83333.3327350093
83333.3327339369
83333.3327325392
83333.3328213502
83333.3328131484
83333.3328128089
83333.3328051498
83333.3328049751
83333.3328045479
83333.3327964501
83333.3327973381
83333.3327971011
83333.332796553
83333.332786691
83333.3327890096
83333.3327898294
83333.3327894968
83333.3327888139
83333.3327758437
83333.3327796584
83333.3327818474
83333.3327825923
83333.332782145
83333.3327813257
83333.3327640147
83333.332769238
83333.3327728494
83333.3327749605
83333.3327756134
83333.3327750355
83333.3327740903
83333.3327513655
83333.3327578642
83333.3327628423
83333.3327663306
83333.3327683396
83333.3327688789
83333.3327681717
83333.332767111
83333.3327380766
83333.3327457309
83333.332751965
83333.3327567487
83333.3327600821
83333.3327619662
83333.3327623861
83333.3327615639
83333.3327603933
83333.3327243756
83333.3327330749
83333.3327404213
83333.332746373
83333.3327509195
83333.3327540732
83333.3327558223
83333.3327561316
83333.3327552122
83333.3327539453
83333.3327105287
83333.3327201564
83333.3327284664
83333.3327354273
83333.332741037
83333.3327453149
83333.3327482762
83333.3327498917
83333.3327501055
83333.3327491113
83333.3327477718
83333.3326968187
83333.332707263
83333.3327163929
83333.3327241943
83333.3327306886
83333.3327359144
83333.3327399079
83333.3327426742
83333.3327441669
83333.3327443058
83333.3327432656
83333.3327418789
83333.3326835641
83333.3326947252
83333.3327045351
83333.3327130068
83333.3327201927
83333.3327261643
83333.3327309867
83333.3327346929
83333.3327372726
83333.3327386607
83333.3327387512
83333.3327376963
83333.3327362956
83333.3326711276
83333.3326829158
83333.332693271
83333.3327022409
83333.3327099169
83333.3327164131
83333.3327218357
83333.3327262519
83333.3327296807
83333.3327320937
83333.3327334043
83333.3327334759
83333.3327324311
83333.3327310592
83333.3328301848
83333.3328216125
83333.3328212809
83333.33281323
83333.332813068
83333.332812649
83333.3328041502
83333.332805039
83333.3328048159
83333.3328042761
83333.3327940081
83333.3327963199
83333.332797145
83333.3327968275
83333.3327961528
83333.3327827595
83333.332786571
83333.3327887626
83333.3327895176
83333.3327890871
83333.3327882756
83333.3327704938
83333.3327757277
83333.332779352
83333.332781477
83333.3327821458
83333.3327815868
83333.3327806478
83333.3327573485
83333.3327638856
83333.3327689006
83333.3327724203
83333.3327744553
83333.3327750165
83333.3327743285
83333.3327732748
83333.3327434777
83333.332751211
83333.3327575205
83333.3327623704
83333.3327657577
83333.3327676801
83333.3327681256
83333.3327673215
83333.3327661616
83333.3327290746
83333.3327379083
83333.3327453865
83333.3327514584
83333.3327561061
83333.3327593368
83333.3327611365
83333.3327614754
83333.3327605739
83333.3327593159
83333.3327143683
83333.3327242032
83333.3327327195
83333.3327398745
83333.3327456543
83333.33275007
83333.3327531325
83333.3327548126
83333.3327550618
83333.3327540829
83333.3327527468
83333.3326995988
83333.3327103411
83333.3327197717
83333.332727862
83333.3327346177
83333.3327400653
83333.3327442337
83333.3327471259
83333.3327486974
83333.3327488766
83333.3327478473
83333.3327464589
83333.3326850357
83333.3326966046
83333.3327068308
83333.3327157088
83333.3327232708
83333.3327295715
83333.3327346651
83333.3327385803
83333.3327413079
83333.3327427878
83333.3327429228
83333.3327418755
83333.3327404683
83333.3326709833
83333.3326833122
83333.3326942243
83333.3327037441
83333.3327119381
83333.3327188982
83333.3327247144
83333.332729446
83333.3327331119
83333.332735689
83333.3327371002
83333.3327372236
83333.3327361941
83333.332734818
83333.3326577869
83333.3326708234
83333.3326823199
83333.3326923374
83333.3327009845
83333.3327083997
83333.3327147183
83333.3327200394
83333.3327244143
83333.3327278468
83333.3327302971
83333.3327316699
83333.3327318144
83333.3327308421
83333.3327295631
83333.3328393714
83333.3328304392
83333.332830115
83333.3328216836
83333.332821532
83333.3328211209
83333.3328122351
83333.3328131198
83333.3328129091
83333.3328123775
83333.3328017252
83333.3328040211
83333.3328048469
83333.3328045429
83333.3328038765
83333.3327900972
83333.3327938899
83333.3327960745
83333.3327968345
83333.332796419
83333.3327956159
83333.3327774253
83333.3327826469
83333.3327862672
83333.3327883948
83333.3327890734
83333.3327885314
83333.3327876
83333.3327638271
83333.3327703697
83333.3327753958
83333.3327789276
83333.3327809758
83333.3327815527
83333.3327808835
83333.3327798362
83333.3327494326
83333.3327572012
83333.3327635491
83333.3327684355
83333.3327718544
83333.3327738016
83333.3327742673
83333.3327734815
83333.3327723305
83333.3327344055
83333.3327433169
83333.3327508762
83333.3327570255
83333.3327617402
83333.3327650229
83333.332766858
83333.3327672201
83333.332766336
83333.3327650896
83333.332718942
83333.3327289115
83333.3327375679
83333.3327448589
83333.3327507601
83333.3327552752
83333.3327584107
83333.3327601374
83333.3327604141
83333.3327594523
83333.3327581238
83333.3327032448
83333.332714194
83333.3327238409
83333.3327321447
83333.332739097
83333.3327447128
83333.3327490139
83333.3327520009
83333.3327536314
83333.3327538429
83333.3327528278
83333.3327514423
83333.3326875391
83333.3326994032
83333.332709941
83333.3327191308
83333.3327269867
83333.3327335475
83333.3327388563
83333.3327429373
83333.3327457813
83333.3327473323
83333.3327475027
83333.3327464644
83333.3327450557
83333.3326720799
83333.3326848097
83333.3326961489
83333.3327061013
83333.3327147101
83333.3327220462
83333.3327281839
83333.3327331745
83333.3327370355
83333.3327397477
83333.3327412405
83333.3327414025
83333.3327403787
83333.3327389946
83333.3326571517
83333.3326707163
83333.3326827796
83333.3326933766
83333.3327025872
83333.3327105225
83333.3327172964
83333.3327229955
83333.332727667
83333.3327313175
83333.3327339154
83333.3327353764
83333.3327355661
83333.332734606
83333.3327333206
83333.3326430745
83333.3326574629
83333.3326701858
83333.3326813146
83333.3326909743
83333.3326993259
83333.3327065327
83333.3327127244
83333.3327179851
83333.3327223502
83333.3327258106
83333.3327283195
83333.3327297801
83333.3327300388
83333.3327292105
83333.3327281229
83333.3328488998
83333.3328396194
83333.3328393005
83333.3328305023
83333.3328303588
83333.3328299548
83333.3328206976
83333.3328215739
83333.3328213734
83333.3328208497
83333.3328098345
83333.3328121073
83333.332812929
83333.3328126366
83333.3328119786
83333.3327978481
83333.3328016084
83333.3328037779
83333.3328045378
83333.3328041354
83333.3328033409
83333.3327847979
83333.3327899875
83333.3327935891
83333.3327957095
83333.3327963924
83333.3327958653
83333.3327949425
83333.3327707856
83333.3327773058
83333.3327823202
83333.3327858473
83333.3327878975
83333.3327884838
83333.3327878315
83333.3327867918
83333.3327559198
83333.3327636858
83333.3327700399
83333.332774937
83333.3327783683
83333.3327803277
83333.3327808081
83333.3327800403
83333.332778897
83333.3327403388
83333.3327492783
83333.3327568748
83333.3327630642
83333.3327678162
83333.3327711293
83333.3327729867
83333.3327733667
83333.3327725003
83333.3327712645
83333.3327242096
83333.3327342504
83333.3327429891
83333.3327503652
83333.3327563451
83333.3327609258
83333.3327641098
83333.3327658681
83333.3327661655
83333.332765221
83333.3327639037
83333.3327077024
83333.3327187791
83333.3327285685
83333.3327370187
83333.3327441095
83333.3327498454
83333.3327542416
83333.332757296
83333.3327589684
83333.3327592052
83333.332758206
83333.3327568274
83333.3326910043
83333.3327030651
83333.3327138215
83333.3327232377
83333.3327313118
83333.3327380683
83333.3327435401
83333.3327477459
83333.3327506766
83333.3327522801
83333.3327524794
83333.3327514537
83333.3327500475
83333.3326743251
83333.332687335
83333.3326989863
83333.3327092652
83333.3327181942
83333.3327258245
83333.3327322158
83333.3327374112
83333.332741426
83333.3327442434
83333.3327457986
83333.3327459908
83333.3327449743
83333.3327435883
83333.3326578998
83333.3326718431
83333.3326843311
83333.3326953765
83333.3327050327
83333.3327133853
83333.3327205281
83333.3327265354
83333.3327314492
83333.3327352782
83333.3327379967
83333.3327395285
83333.3327397506
83333.3327387941
83333.3327374988
83333.3326419874
83333.3326568711
83333.332670154
83333.3326818785
83333.3326921368
83333.3327010577
83333.3327087772
83333.3327154076
83333.3327210245
83333.3327256629
83333.3327293197
83333.3327319583
83333.3327334942
83333.3327337909
83333.3327329712
83333.3327318741
83333.3326268749
83333.3326427333
83333.3326567867
83333.3326691126
83333.3326798497
83333.3326891802
83333.3326972938
83333.3327043491
83333.3327104615
83333.3327156994
83333.3327200822
83333.3327235898
83333.3327261742
83333.3327277495
83333.3327281809
83333.3327276059
83333.3327268356
83333.3328587817
83333.3328491434
83333.3328488278
83333.3328396767
83333.3328395393
83333.3328391401
83333.3328295288
83333.3328303942
83333.3328302005
83333.3328296838
83333.3328183277
83333.3328205716
83333.3328213846
83333.3328211014
83333.3328204513
83333.3328060022
83333.3328097194
83333.3328118667
83333.3328126213
83333.33281223
83333.3328114441
83333.3327926001
83333.3327977406
83333.3328013112
83333.3328034158
83333.3328040975
83333.3328035835
83333.3328026695
83333.3327782087
83333.3327846824
83333.3327896657
83333.3327931736
83333.332795216
83333.3327958058
83333.3327951685
83333.3327941374
83333.3327629192
83333.3327706495
83333.332776982
83333.3327818675
83333.3327852942
83333.3327872547
83333.3327877438
83333.3327869932
83333.3327858575
83333.3327468462
83333.3327557713
83333.3327633671
83333.3327695644
83333.3327743277
83333.332777652
83333.3327795198
83333.3327799128
83333.3327790636
83333.3327778374
83333.3327301329
83333.3327401906
83333.3327489617
83333.3327563785
83333.3327623997
83333.3327670166
83333.3327702281
83333.3327720052
83333.3327723182
83333.3327713904
83333.3327700853
83333.3327129208
83333.3327240564
83333.332733924
83333.3327424622
83333.3327496405
83333.3327554541
83333.3327599123
83333.3327630103
83333.33276471
83333.3327649655
83333.3327639826
83333.3327626147
83333.3326953638
83333.3327075364
83333.3327184303
83333.3327279976
83333.3327362229
83333.3327431175
83333.3327487049
83333.3327529991
83333.3327559903
83333.3327576305
83333.3327578526
83333.3327568423
83333.3327554414
83333.3326776332
83333.3326908188
83333.3327026814
83333.332713192
83333.332722355
83333.3327302045
83333.3327367865
83333.3327421358
83333.3327462653
83333.3327491599
83333.3327507604
83333.332750977
83333.3327499719
83333.3327485878
83333.3326599192
83333.3326741135
83333.3326869022
83333.3326982788
83333.3327082738
83333.3327169495
83333.3327243811
83333.3327306307
83333.3327357351
83333.3327397033
83333.3327425143
83333.332744099
83333.3327443462
83333.3327433951
83333.3327420975
83333.3326424317
83333.3326576541
83333.332671344
83333.33268352
83333.3326942447
83333.3327036172
83333.3327117487
83333.3327187342
83333.3327246404
83333.3327295007
83333.3327333167
83333.3327360601
83333.3327376555
83333.3327379786
83333.3327371595
83333.3327360507
83333.3326253963
83333.3326416957
83333.3326562827
83333.3326692043
83333.3326805626
83333.3326905022
83333.3326991799
83333.3327067311
83333.3327132581
83333.3327188247
83333.3327234538
83333.332727134
83333.3327298294
83333.3327314669
83333.3327319287
83333.3327313579
83333.3327305754
83333.3326090601
83333.3326265193
83333.3326420231
83333.3326556516
83333.3326675527
83333.332677928
83333.3326869921
83333.3326949313
83333.3327018895
83333.3327079682
83333.3327132188
83333.3327176434
83333.3327212139
83333.3327238908
83333.3327256179
83333.3327263091
83333.3327261383
83333.3327258153
83333.3328690027
83333.3328590126
83333.3328587149
83333.332849197
83333.3328490637
83333.3328486675
83333.3328387173
83333.332839572
83333.332839382
83333.332838869
83333.3328271946
83333.3328294055
83333.332830207
83333.3328299294
83333.3328292855
83333.3328145491
83333.3328182147
83333.332820334
83333.3328210789
83333.3328206957
83333.3328199175
83333.3328008195
83333.332805897
83333.3328094262
83333.3328115078
83333.3328121828
83333.3328116797
83333.3328107744
83333.3327860809
83333.3327924881
83333.3327974236
83333.3328009002
83333.3328029261
83333.3328035136
83333.3328028894
83333.3328018674
83333.33277041
83333.3327780771
83333.3327843643
83333.332789219
83333.3327926267
83333.3327945783
83333.33279507
83333.3327943345
83333.3327932075
83333.3327539007
83333.3327627748
83333.3327703377
83333.3327765152
83333.3327812673
83333.3327845863
83333.3327864536
83333.3327868542
83333.3327860218
83333.3327848041
83333.332736676
83333.3327467039
83333.3327554644
83333.3327628837
83333.332768914
83333.3327735414
83333.3327767618
83333.3327785466
83333.3327788704
83333.3327779592
83333.3327766653
83333.3327188524
83333.332729988
83333.3327398784
83333.332748454
83333.3327556753
83333.3327615297
83333.332766021
83333.3327691424
83333.332770857
83333.3327711257
83333.3327701584
83333.3327688036
83333.3327005551
83333.3327127664
83333.3327237278
83333.332733381
83333.3327416985
83333.3327486806
83333.3327543423
83333.3327586928
83333.3327617217
83333.3327633846
83333.3327636233
83333.3327626296
83333.3327612372
83333.3326819225
83333.3326951942
83333.3327071809
83333.3327178404
83333.3327271617
83333.3327351635
83333.3327418796
83333.3327473374
83333.3327515465
83333.3327544936
83333.3327561248
83333.3327563611
83333.3327553699
83333.3327539903
83333.3326631067
83333.332677443
83333.3326904249
83333.3327020295
83333.3327122672
83333.3327211803
83333.3327288269
83333.3327352577
83333.3327405041
83333.3327445747
83333.3327474521
83333.3327490739
83333.332749341
83333.3327483994
83333.3327471035
83333.3326442732
83333.3326597021
83333.3326736674
83333.3326861679
83333.3326972407
83333.3327069582
83333.332715409
83333.3327226719
83333.3327288044
83333.3327338375
83333.332737776
83333.3327405982
83333.3327422366
83333.3327425793
83333.3327417637
83333.3327406517
83333.3326256008
83333.3326421794
83333.3326571383
83333.3326704998
83333.3326823334
83333.3326927499
83333.3327018762
83333.3327098259
83333.3327166876
83333.3327225196
83333.3327273466
83333.3327311648
83333.3327339485
83333.3327356339
83333.332736116
83333.332735542
83333.3327347461
83333.3326072752
83333.3326250965
83333.3326410858
83333.3326552911
83333.3326678207
83333.3326788332
83333.3326885046
83333.3326969915
83333.3327044198
83333.332710882
83333.3327164292
83333.3327210702
83333.3327247882
83333.3327275572
83333.3327293335
83333.3327300462
83333.3327298756
83333.3327295412
83333.3325894944
83333.3326086939
83333.3326257814
83333.3326408343
83333.332654006
83333.3326655131
83333.3326755947
83333.3326844635
83333.3326922895
83333.332699204
83333.332705296
83333.332710595
83333.3327150846
83333.3327187378
83333.3327215392
83333.332723486
83333.3327245496
83333.3327249784
83333.3327251429
83333.3328692196
83333.3328689378
83333.3328590537
83333.3328589365
83333.3328585579
83333.3328482526
83333.3328490972
83333.3328489077
83333.3328483966
83333.3328364227
83333.3328385993
83333.3328393885
83333.3328391118
83333.3328384705
83333.3328234767
83333.3328270847
83333.332829172
83333.332829904
83333.3328295246
83333.3328287521
83333.3328094431
83333.3328144466
83333.3328179262
83333.3328199789
83333.3328206426
83333.3328201468
83333.3328192491
83333.3327943869
83333.3328007107
83333.332805585
83333.3328090201
83333.3328110219
83333.3328116015
83333.332810988
83333.3328099748
83333.3327783724
83333.3327859533
83333.3327921753
83333.332796983
83333.3328003592
83333.3328022932
83333.3328027817
83333.3328020592
83333.3328009414
83333.3327614768
83333.3327702694
83333.3327777717
83333.3327839056
83333.3327886274
83333.3327919265
83333.3327937835
83333.332794186
83333.3327933688
83333.3327921599
83333.332743805
83333.3327537636
83333.3327624768
83333.3327698659
83333.3327758776
83333.3327804932
83333.3327837064
83333.3327854885
83333.3327858184
83333.3327849231
83333.3327836396
83333.3327254525
83333.3327365382
83333.332746404
83333.3327549735
83333.3327621995
83333.3327680628
83333.3327725622
83333.332775689
83333.3327774079
83333.3327776851
83333.3327767335
83333.3327753916
83333.3327065198
83333.3327187078
83333.3327296768
83333.3327393594
83333.3327477182
83333.3327547437
83333.3327604434
83333.3327648224
83333.3327678695
83333.332769543
83333.3327697925
83333.3327688142
83333.3327674345
83333.3326871172
83333.332700399
83333.3327124351
83333.3327231719
83333.3327325854
83333.3327406809
83333.3327474814
83333.3327530074
83333.3327572656
83333.3327602437
83333.3327618925
83333.3327621435
83333.3327611675
83333.332759795
83333.3326673644
83333.3326817505
83333.3326948335
83333.3327065765
83333.332716973
83333.3327260476
83333.3327338435
83333.3327404008
83333.3327457455
83333.3327498854
83333.3327528063
83333.3327544521
83333.3327547354
83333.3327538058
83333.3327525133
83333.33264739
83333.3326629138
83333.3326770419
83333.3326897561
83333.3327010717
83333.3327110382
83333.3327197238
83333.3327271924
83333.3327334927
83333.3327386528
83333.3327426794
83333.3327455562
83333.3327472231
83333.3327475811
83333.3327467728
83333.3327456617
83333.3326273296
83333.332644053
83333.3326592468
83333.3326729126
83333.3326850925
83333.3326958672
83333.3327053371
83333.3327135954
83333.3327207174
83333.3327267551
83333.332731734
83333.3327356564
83333.3327385045
83333.3327402227
83333.3327407192
83333.3327401458
83333.3327393461
83333.3326073249
83333.3326253448
83333.3326416517
83333.3326562682
83333.332669268
83333.3326807714
83333.3326909196
83333.332699843
83333.332707649
83333.3327144193
83333.3327202028
83333.3327250147
83333.3327288486
83333.3327316891
83333.3327335021
83333.3327342271
83333.3327340491
83333.3327337024
83333.3325875146
83333.3326069707
83333.3326244713
83333.3326400608
83333.3326538501
83333.3326660084
83333.3326767296
83333.3326861906
83333.3326945377
83333.3327018885
83333.3327083269
83333.332713886
83333.3327185601
83333.3327223357
83333.3327252108
83333.3327271951
83333.3327282747
83333.3327286969
83333.3327288585
83333.3325680387
83333.3325891221
83333.332607936
83333.3326245494
83333.332639115
83333.3326518608
83333.3326630468
83333.3326729138
83333.3326816578
83333.3326894311
83333.3326963599
83333.3327025172
83333.3327079008
83333.3327124861
83333.3327162661
83333.3327192722
83333.3327215641
83333.3327231766
83333.3327242617
83333.3327247841
83333.332869227
83333.3328691437
83333.3328687802
83333.3328581156
83333.3328589577
83333.3328587837
83333.3328582891
83333.3328459988
83333.3328481418
83333.3328489191
83333.3328486386
83333.3328479977
83333.3328327705
83333.3328363183
83333.3328383717
83333.3328390891
83333.3328387076
83333.3328379367
83333.3328184565
83333.3328233778
83333.3328268022
83333.3328288214
83333.3328294703
83333.3328289767
83333.3328280843
83333.3328031105
83333.3328093375
83333.3328141402
83333.3328175255
83333.332819497
83333.3328200642
83333.3328194572
83333.3328184514
83333.3327867871
83333.3327942629
83333.3328004034
83333.3328051507
83333.3328084849
83333.3328103936
83333.3328108732
83333.3328101611
83333.3328090523
83333.3327695497
83333.3327782353
83333.332785654
83333.3327917244
83333.3327963997
83333.3327996665
83333.3328015045
83333.3328019028
83333.3328010986
83333.3327998991
83333.3327514881
83333.3327613441
83333.3327699791
83333.3327773104
83333.3327832797
83333.3327878646
83333.3327910563
83333.3327928263
83333.3327931569
83333.3327922768
83333.3327910027
83333.3327326796
83333.3327436733
83333.3327534743
83333.3327620007
83333.3327691987
83333.3327750432
83333.3327795291
83333.3327826458
83333.3327843591
83333.3327846404
83333.3327837042
83333.3327823744
83333.332713204
83333.3327253162
83333.3327362418
83333.3327459057
83333.3327542621
83333.3327612928
83333.3327669992
83333.3327713826
83333.3327744308
83333.3327761047
83333.3327763602
83333.3327753961
83333.3327740311
83333.3326931475
83333.3327063751
83333.3327183969
83333.3327291499
83333.3327385986
83333.332746737
83333.3327535787
83333.3327591378
83333.3327634184
83333.3327664088
83333.3327680638
83333.3327683237
83333.332767364
83333.3327660011
83333.3326726027
83333.3326869607
83333.3327000663
83333.332711871
83333.3327223536
83333.3327315238
83333.3327394112
83333.3327460468
83333.3327514514
83333.3327556317
83333.332758576
83333.3327602341
83333.3327605293
83333.3327596137
83333.3327583265
83333.3326516669
83333.3326671922
83333.3326813875
83333.3326942202
83333.3327056874
83333.3327158185
83333.332724664
83333.3327322744
83333.3327386902
83333.3327439361
83333.3327480202
83333.3327509305
83333.3327526142
83333.3327529844
83333.3327521854
83333.3327510769
83333.3326304405
83333.3326471969
83333.3326625095
83333.3326763628
83333.3326887754
83333.3326998026
83333.3327095211
83333.3327180056
83333.3327253192
83333.3327315074
83333.3327365956
83333.3327405905
83333.3327434807
83333.3327452187
83333.3327457257
83333.3327451566
83333.332744357
83333.3326090244
83333.3326271091
83333.3326435933
83333.3326584789
83333.3326718102
83333.3326836747
83333.3326941827
83333.3327034403
83333.3327115378
83333.3327185458
83333.33272451
83333.3327294502
83333.3327333689
83333.3327362592
83333.3327380949
83333.3327388282
83333.3327386475
83333.3327382975
83333.3325875171
83333.3326070684
83333.3326248111
83333.3326407642
83333.3326550021
83333.332667652
83333.3326788679
83333.3326887954
83333.3326975586
83333.3327052594
83333.3327119727
83333.3327177344
83333.3327225507
83333.3327264199