/*--------------------------------*- C++ -*----------------------------------*\
  =========                 |
  \\      /  F ield         | OpenFOAM: The Open Source CFD Toolbox
   \\    /   O peration     | Website:  https://openfoam.org
    \\  /    A nd           | Version:  12
     \\/     M anipulation  |
\*---------------------------------------------------------------------------*/
/*   Windows 32 and 64 bit porting by blueCAPE: http://www.bluecape.com.pt   *\
|  Based on Windows porting (2.0.x v4) by Symscape: http://www.symscape.com   |
\*---------------------------------------------------------------------------*/
FoamFile
{
    format      ascii;
    class       surfaceScalarField;
    location    "400";
    object      phi;
}
// * * * * * * * * * * * * * * * * * * * * * * * * * * * * * * * * * * * * * //

dimensions      [0 3 -1 0 0 0 0];

internalField   nonuniform List<scalar> 
28915
(
-2.27142309275914e-06
1.42629431899289e-07
6.98311413060236e-08
-2.48360485677003e-06
1.43314971634036e-07
6.88523107952827e-08
-6.81020860355753e-07
2.2756431195669e-07
-1.21382773020792e-09
-2.76444716180293e-06
1.63127146276406e-07
1.57925497462191e-07
-2.6930958660502e-06
1.42089199901409e-07
6.73935449212123e-08
-7.64530037854544e-07
2.27879101416524e-07
-1.05891599149415e-09
-3.01475077182111e-06
1.64392947490123e-07
1.5472970530093e-07
-5.74357873241678e-07
3.01335906330185e-07
-4.20250870476563e-09
-8.33147499638696e-07
2.64130139355885e-07
-4.72342038687516e-09
-3.07108583394257e-06
1.87339872469876e-07
2.50427559500935e-07
-2.8997328362751e-06
1.41127991277094e-07
6.55002338023045e-08
-8.47970980091276e-07
2.2685748923165e-07
-1.3363099345657e-09
-3.26192324704886e-06
1.63575495229346e-07
1.50964461769609e-07
-6.4409063258497e-07
3.01591245297712e-07
-3.98025389918824e-09
-9.29984158517075e-07
2.64845412863824e-07
-4.68227414040168e-09
-3.34945903703546e-06
1.88686756902913e-07
2.44397424922719e-07
-5.75181661865037e-07
3.70554916495958e-07
-5.20413686571853e-09
-6.79350153687891e-07
3.52661456810123e-07
-1.24556156500826e-08
-9.47154984581712e-07
3.06270541741351e-07
-1.33537249617847e-08
-3.42781654418617e-06
2.13532963601093e-07
3.50461177714854e-07
-3.10392726265733e-06
1.40390819014847e-07
6.37878649696217e-08
-9.30746619143237e-07
2.25028532542097e-07
-1.1298194663219e-09
-3.50528157244065e-06
1.61467345186824e-07
1.4737189914309e-07
-7.13716057426044e-07
3.0044768506567e-07
-3.96542588221895e-09
-1.02678899414469e-06
2.63951745731199e-07
-4.911923541754e-09
-3.62434603816729e-06
1.87477757200642e-07
2.38362032899594e-07
-6.39510521135137e-07
3.7077380988053e-07
-4.85434254299036e-09
-7.59605995174104e-07
3.53125312200893e-07
-1.20081042457395e-08
-1.05640936622668e-06
3.06965889122746e-07
-1.37079655759323e-08
-3.7396721132289e-06
2.15125921792515e-07
3.41104729559084e-07
-5.88547413550708e-07
4.35091287894869e-07
-4.53396726702024e-09
-6.68940391009784e-07
4.33516464924523e-07
-1.26219512458322e-08
-7.84422306052444e-07
4.12641303868716e-07
-2.66290490450889e-08
-1.07108677038312e-06
3.47483548148711e-07
-2.32870122439843e-08
-3.71489376740113e-06
2.34606884458474e-07
4.58039462212211e-07
-3.30505717132832e-06
1.38651248468387e-07
6.24680862492573e-08
-1.01225738034114e-06
2.22548030105021e-07
-6.52644817559868e-10
-3.74498944963109e-06
1.59202043975789e-07
1.44274211473395e-07
-7.82879086682255e-07
2.98029858357997e-07
-3.83919705876687e-09
-1.12341623490751e-06
2.61848688841151e-07
-4.8927604569956e-09
-3.89484658616695e-06
1.84817471012743e-07
2.33022237866437e-07
-7.0379440887397e-07
3.69338502349022e-07
-4.60797851275304e-09
-8.39878643761336e-07
3.51990028832141e-07
-1.17337515978557e-08
-1.16567260924832e-06
3.05788751752193e-07
-1.39732178635559e-08
-4.04749077824869e-06
2.13703796301149e-07
3.32467630321491e-07
-6.48930392978779e-07
4.35369953524433e-07
-4.21385810123897e-09
-7.42593052535801e-07
4.3400594716929e-07
-1.20843811397236e-08
-8.76417961747974e-07
4.13091488400531e-07
-2.61397485291972e-08
-1.19369879777798e-06
3.48320812408752e-07
-2.42973774841753e-08
-4.05545382437831e-06
2.36317772050723e-07
4.45312932090665e-07
-6.00498939691602e-07
4.95423070249407e-07
-3.83594953935905e-09
-6.71747538921139e-07
5.07954369059761e-07
-1.08370094518333e-08
-7.73912764575503e-07
5.08108823996907e-07
-2.34888935989323e-08
-8.80831921417948e-07
4.67591669861933e-07
-4.34952722443873e-08
-1.16103744548913e-06
3.75634755526062e-07
-3.00586664712706e-08
-3.89020545552555e-06
2.49425053154734e-07
5.70675746357784e-07
-3.50296624021844e-06
1.3636947349385e-07
6.15273698142873e-08
-1.09231527267558e-06
2.19309883977031e-07
-6.03782417841303e-10
-3.98146479035237e-06
1.57544148361598e-07
1.41384641723005e-07
-8.51214646242791e-07
2.94504447059847e-07
-3.6214577161758e-09
-1.21911935216595e-06
2.58887901391162e-07
-4.6502009511685e-09
-4.1608211368937e-06
1.82043650820358e-07
2.28197400184056e-07
-7.67739733703974e-07
3.66351425334554e-07
-4.37695516490401e-09
-9.19865141065453e-07
3.4937553958041e-07
-1.13828097412181e-08
-1.27500468938842e-06
3.03218967523748e-07
-1.39743993748059e-08
-4.35029870250772e-06
2.10583532893397e-07
3.25225476714204e-07
-7.09352971549488e-07
4.33725198545095e-07
-3.96505756268239e-09
-8.16216500337286e-07
4.32669126842162e-07
-1.16652164578258e-08
-9.68531456794298e-07
4.11770907624151e-07
-2.56060469264327e-08
-1.31616647009398e-06
3.46998657531858e-07
-2.48142590415427e-08
-4.39157513201856e-06
2.34668188658278e-07
4.33889100341204e-07
-6.57388397862186e-07
4.9579599236016e-07
-3.53696063981157e-09
-7.40212302874816e-07
5.08564855945579e-07
-1.03098703423386e-08
-8.58651169044891e-07
5.08569571768432e-07
-2.28279144784742e-08
-9.83754285311348e-07
4.68215165486486e-07
-4.31148643644314e-08
-1.29367921188669e-06
3.76561789152082e-07
-3.19138360945937e-08
-4.25073512198503e-06
2.50933130150317e-07
5.54903814824288e-07
-6.09863132500111e-07
5.51780748302182e-07
-2.87660234838077e-09
-6.77615526559129e-07
5.75868161796969e-07
-7.86625123367651e-09
-7.7168173561298e-07
5.93434706952447e-07
-1.80585345301857e-08
-8.63483662139329e-07
5.74000627895074e-07
-3.54763720011622e-08
-9.37475494311444e-07
5.01477282549085e-07
-5.90385581090818e-08
-1.21470568721556e-06
3.91689371195936e-07
-3.14615948752762e-08
-3.97523438862216e-06
2.60579241568803e-07
6.84784426904934e-07
-3.69745584637105e-06
1.337278131875e-07
6.07638497224363e-08
-1.17068185505014e-06
2.15418925075227e-07
-6.90146100770578e-10
-4.21435396821966e-06
1.55461701166569e-07
1.38936957941843e-07
-9.18438021806649e-07
2.90016775256595e-07
-3.4844667175699e-09
-1.31303716554481e-06
2.55335172794758e-07
-4.48459076182669e-09
-4.42322889629325e-06
1.80053828955948e-07
2.23719923918652e-07
-8.31065130504644e-07
3.61984964311442e-07
-4.15598653191384e-09
-9.99079161422168e-07
3.45448580761778e-07
-1.09703163172846e-08
-1.38354060277443e-06
2.99661714977444e-07
-1.3738845646836e-08
-4.64792885505446e-06
2.07227590467399e-07
3.18600526233476e-07
-7.69543496020035e-07
4.30280749362473e-07
-3.73963032820252e-09
-8.89532296920725e-07
4.29556305182216e-07
-1.12436916572272e-08
-1.06048513682906e-06
4.08771951527155e-07
-2.49850633620572e-08
-1.43870828345176e-06
3.44116774401188e-07
-2.49769867992832e-08
-4.72233470626576e-06
2.31520161956555e-07
4.24452113394052e-07
-7.1437323765173e-07
4.93998144023996e-07
-3.28885195918355e-09
-8.08699450073322e-07
5.07049730594474e-07
-9.86032545990802e-09
-9.434167838657e-07
5.07028595972696e-07
-2.2160363670688e-08
-1.08677061765157e-06
4.6684490897702e-07
-4.2439557658539e-08
-1.42608559469014e-06
3.75156256574098e-07
-3.29084679067869e-08
-4.60654024156161e-06
2.48977868969884e-07
5.40702634611205e-07
-6.63709052130686e-07
5.52224703408811e-07
-2.58327904965461e-09
-7.41853823856164e-07
5.76643625160441e-07
-7.37973586728897e-09
-8.50081657949932e-07
5.94028186150755e-07
-1.73704731438586e-08
-9.57980298655017e-07
5.74649380310086e-07
-3.47693369579427e-08
-1.04741059205942e-06
5.02267813198537e-07
-5.88884139848016e-08
-1.35393225259678e-06
3.92616933424482e-07
-3.43848981289692e-08
-4.3484870765486e-06
2.61748596662396e-07
6.66399149211635e-07
-6.18850894226662e-07
6.04454539018607e-07
-1.565600580459e-09
-6.85646872752731e-07
6.38092188065215e-07
-4.46625043536385e-09
-7.74568754830665e-07
6.70244906783858e-07
-1.16740785009314e-08
-8.54812662649849e-07
6.67598329459137e-07
-2.48994460462886e-08
-9.1134202693948e-07
6.12515908317061e-07
-4.62250031311851e-08
-9.60074092845331e-07
5.17794308090038e-07
-7.11465956774341e-08
-1.24672075627521e-06
4.01866479617385e-07
-2.74079996773273e-08
-4.01231192052775e-06
2.71065414136903e-07
7.97284360838175e-07
-3.8883366084103e-06
1.30816131203953e-07
6.0059347944451e-08
-1.24721324481025e-06
2.1097197510119e-07
-7.18114765592387e-10
-4.4430330459593e-06
1.5256934828189e-07
1.36856410243877e-07
-9.84308816524176e-07
2.84701397203092e-07
-3.41255754709735e-09
-1.40492545097072e-06
2.51081623306109e-07
-4.42716216658448e-09
-4.68173101855939e-06
1.77652441558514e-07
2.19786396703996e-07
-8.93507236876502e-07
3.56430230700134e-07
-3.97219460576403e-09
-1.07703237736477e-06
3.4042214876477e-07
-1.06192604137926e-08
-1.4900819977915e-06
2.9551654361667e-07
-1.34142963344943e-08
-4.94135175429815e-06
2.0470678901693e-07
3.12403593757549e-07
-8.29251607788611e-07
4.25224951181542e-07
-3.53273398196531e-09
-9.62203545397444e-07
4.24790458006522e-07
-1.08290973742701e-08
-1.15168560760677e-06
4.04220967778e-07
-2.43311713277222e-08
-1.56048659372381e-06
3.40077862365984e-07
-2.48133340841027e-08
-5.04752967823291e-06
2.27820354271271e-07
4.15958773441904e-07
-7.71203150916421e-07
4.90173061684555e-07
-3.06299321715392e-09
-8.76938513910385e-07
5.03479544337397e-07
-9.42589581736001e-09
-1.02790802014558e-06
5.0348785762184e-07
-2.14712050342437e-08
-1.18964532473216e-06
4.63601956848651e-07
-4.15989326345577e-08
-1.5583040117096e-06
3.7216757763374e-07
-3.34154328337448e-08
-4.95719264630058e-06
2.46251140369297e-07
5.28836352326748e-07
-7.17665847370963e-07
5.50278820305505e-07
-2.32430984677281e-09
-8.06153900778443e-07
5.74996030030218e-07
-6.93708462400304e-09
-9.28528621534606e-07
5.92294805514285e-07
-1.66822165287446e-08
-1.05247860095351e-06
5.73082628651682e-07
-3.39033216985475e-08
-1.15741200339398e-06
5.00918449489944e-07
-5.8203982321988e-08
-1.49284043901075e-06
3.91104706061237e-07
-3.61389061614702e-08
-4.71690086150609e-06
2.59564579999266e-07
6.49508827148799e-07
-6.70235592415124e-07
6.0501812155098e-07
-1.40911588472806e-09
-7.46590200828552e-07
6.39035467452937e-07
-4.03330000028379e-09
-8.4790985978014e-07
6.71011404504605e-07
-1.10241452763277e-08
-9.41831009695121e-07
6.6839314963517e-07
-2.40983760901718e-08
-1.01167206854528e-06
6.13363398572702e-07
-4.55408840006368e-08
-1.07371136539812e-06
5.18708787198649e-07
-7.13460302871181e-08
-1.39049255365136e-06
4.02746339205469e-07
-3.16206026919625e-08
-4.39440227171816e-06
2.7169715505938e-07
7.76807593640311e-07
-6.29349544651167e-07
6.53860023934004e-07
1.17076446827848e-11
-6.95557725627605e-07
6.95894001783272e-07
-1.12807384234524e-09
-7.83527722333498e-07
7.40557281306285e-07
-5.4271991925944e-09
-8.54879064096991e-07
7.51401800076742e-07
-1.45474352103476e-08
-8.97725683287919e-07
7.10002604738139e-07
-3.05604138569227e-08
-9.26497562537439e-07
6.29242939132557e-07
-5.45162014576235e-08
-9.65623059162263e-07
5.26372608826179e-07
-7.94905930829297e-08
-1.27038704117776e-06
4.10623800246399e-07
-1.78817442617068e-08
-4.03287964972192e-06
2.82592023470885e-07
9.06080436854798e-07
-4.07545661547487e-06
1.27672181113798e-07
5.94322283213662e-08
-1.32177708480384e-06
2.06076359122085e-07
-7.04764923331167e-10
-4.66722536952991e-06
1.49218501438925e-07
1.34991185810644e-07
-1.04865344541274e-06
2.7868264603846e-07
-3.36741759194889e-09
-1.49476615047429e-06
2.4609852532812e-07
-4.41779477868214e-09
-4.93560680338891e-06
1.74402453030002e-07
2.16307987592462e-07
-9.5483765974675e-07
3.49862672855694e-07
-3.83153909731096e-09
-1.15342611640835e-06
3.34424615091297e-07
-1.03652563993747e-08
-1.59427340519572e-06
2.90618170350611e-07
-1.320753346938e-08
-5.23035749859943e-06
2.02002145055489e-07
3.06768264126947e-07
-8.88240464334805e-07
4.1877292020655e-07
-3.35454400642663e-09
-1.03388923812848e-06
4.18598749059244e-07
-1.04649959450515e-08
-1.24146667706505e-06
3.98391948159559e-07
-2.37171237874249e-08
-1.68018494641768e-06
3.35360893501271e-07
-2.43705611872276e-08
-5.36761619398843e-06
2.24398754173534e-07
4.08074059281753e-07
-8.27646886818691e-07
4.84527498886416e-07
-2.85944471902116e-09
-9.44647908510083e-07
4.97981321462464e-07
-9.01712478817511e-09
-1.11170731508272e-06
4.9800037776782e-07
-2.08115639811499e-08
-1.29175016158813e-06
4.58567321756633e-07
-4.07199072816069e-08
-1.68968126795006e-06
3.67843038262797e-07
-3.34706492299682e-08
-5.30208335680663e-06
2.42317864828478e-07
5.18517340259464e-07
-7.71506711798931e-07
5.46104869964806e-07
-2.09158384111574e-09
-8.70260502474572e-07
5.71028837810109e-07
-6.5078261067592e-09
-1.00672314775571e-06
5.88251344185264e-07
-1.59969224053211e-08
-1.14668279963611e-06
5.69296110027319e-07
-3.29647442392627e-08
-1.26719650630942e-06
4.9759225924267e-07
-5.72471269959849e-08
-1.63107838999081e-06
3.88179964794093e-07
-3.71165317225672e-08
-5.08059001274904e-06
2.57229971038424e-07
6.35270007997266e-07
-7.21706263148997e-07
6.02933939472808e-07
-1.18486822312158e-09
-8.07587624494824e-07
6.37278820824475e-07
-3.61138867791314e-09
-9.21323149189743e-07
6.69129376337234e-07
-1.03602498733834e-08
-1.02886549415527e-06
6.66632206244856e-07
-2.32006472906602e-08
-1.11196497631307e-06
6.11860417938176e-07
-4.45564851595564e-08
-1.1874409981029e-06
5.17413900345609e-07
-7.0793167565787e-08
-1.53388467774631e-06
4.01113415094297e-07
-3.43114419839645e-08
-4.77170314396949e-06
2.69317921079745e-07
7.57462772056943e-07
-6.78948782688964e-07
6.54441164694242e-07
1.75965338149413e-10
-7.54026650275713e-07
6.96888450490805e-07
-7.94082340340312e-10
-8.53179786889625e-07
7.41476885780724e-07
-4.84862319507348e-09
-9.36125606507681e-07
7.52376628402038e-07
-1.37632060658832e-08
-9.89788249490048e-07
7.11013273931869e-07
-2.9690059506039e-08
-1.02967304773718e-06
6.30263617022924e-07
-5.39259257395795e-08
-1.08144359631175e-06
5.27386403557503e-07
-8.01719051976963e-08
-1.41822846843629e-06
4.11480630036894e-07
-2.35758867112295e-08
-4.42286540818328e-06
2.82764080826683e-07
8.84031662530676e-07
-6.42203936163844e-07
7.00933337278148e-07
1.250422402167e-09
-7.07606328898109e-07
7.50630052284105e-07
1.84957616269612e-09
-7.96504345676761e-07
8.0613873002957e-07
8.24991715101335e-11
-8.64772861295461e-07
8.28350806832578e-07
-5.41292764539832e-09
-8.96527943374008e-07
7.97485598531045e-07
-1.6427292035603e-08
-9.100082559005e-07
7.27499399729065e-07
-3.45532154938444e-08
-9.26606785816182e-07
6.36713581196224e-07
-6.00165911702727e-08
-9.65334183459927e-07
5.33282959703929e-07
-8.41101287580143e-08
-1.29391545432897e-06
4.19808699249874e-07
-2.20273440412008e-09
-4.05265743419243e-06
2.96128100599457e-07
1.00945408206421e-06
-4.25869811391672e-06
1.24331342795861e-07
5.89045680523748e-08
-1.39426108606487e-06
2.00827979145953e-07
-6.82986150368891e-10
-4.88672866255817e-06
1.45585337011923e-07
1.33327848082102e-07
-1.1113274075461e-06
2.72086241500173e-07
-3.33730598918457e-09
-1.58242845247232e-06
2.40537572621557e-07
-4.3753777108278e-09
-5.18438154973444e-06
1.70546741575181e-07
2.13204530498293e-07
-1.0148722744104e-06
3.42444059725952e-07
-3.72790205448233e-09
-1.22808771469866e-06
3.27576148157831e-07
-1.01861979809408e-08
-1.69609096973556e-06
2.8488828055301e-07
-1.30973779940588e-08
-5.51430930224384e-06
1.98460314040248e-07
3.01779337395942e-07
-9.4629676006532e-07
4.11128505755482e-07
-3.21000370417377e-09
-1.10431524065626e-06
4.11190026271348e-07
-1.0172151350899e-08
-1.32943542372137e-06
3.91433356577635e-07
-2.32125394488121e-08
-1.79722050564888e-06
3.29865287097635e-07
-2.40419590903009e-08
-5.68283664317162e-06
2.21378703916213e-07
4.0060833601457e-07
-8.83487244096619e-07
4.77295582935163e-07
-2.68306853949742e-09
-1.01154905752697e-06
4.90800754458754e-07
-8.65676278890898e-09
-1.19438718016671e-06
4.9082399364101e-07
-2.02196916255426e-08
-1.39232114640162e-06
4.52058163038393e-07
-3.98462311990836e-08
-1.81912997290771e-06
3.62631396402674e-07
-3.31554642566921e-08
-5.64108927309673e-06
2.38156579078801e-07
5.08915638732349e-07
-8.2501659973087e-07
5.39921008117511e-07
-1.88442743856878e-09
-9.33918593481648e-07
5.64888128236133e-07
-6.11009620587378e-09
-1.08432623876598e-06
5.81946126490748e-07
-1.53622030029445e-08
-1.2401378697382e-06
5.63278471789541e-07
-3.20705372559564e-08
-1.37615043055094e-06
4.92300108594583e-07
-5.62277841542047e-08
-1.7683641225094e-06
3.83735285573156e-07
-3.76194639626024e-08
-5.43853485928203e-06
2.53278330600528e-07
6.23159072340318e-07
-7.73069080668885e-07
5.98400809706205e-07
-9.33652747399364e-10
-8.68407691552458e-07
6.32952238327671e-07
-3.1963440207037e-09
-9.9452453190856e-07
6.64645462884886e-07
-9.70308994920249e-09
-1.11560972706093e-06
6.6231797573053e-07
-2.22783986217697e-08
-1.21191060686385e-06
6.08005600235895e-07
-4.34359964995407e-08
-1.30081252146281e-06
5.14125285077561e-07
-6.98267334590487e-08
-1.67616096751952e-06
3.98273840001639e-07
-3.58958148008487e-08
-5.14458955634045e-06
2.6708074381433e-07
7.41057254215728e-07
-7.2855860103267e-07
6.52195652394552e-07
3.47748332993619e-10
-8.12493783073296e-07
6.94979026084628e-07
-4.1948216968575e-10
-9.22886262647087e-07
7.39454061326571e-07
-4.23143036502482e-09
-1.01741262668614e-06
7.50452833868224e-07
-1.28966354077019e-08
-1.0818256353766e-06
7.09327430510711e-07
-2.86355569046441e-08
-1.13278311172711e-06
6.28875453664697e-07
-5.29119504453074e-08
-1.19739546299576e-06
5.2615848231625e-07
-7.98929775187781e-08
-1.56556193828129e-06
4.09733413623114e-07
-2.74056490345191e-08
-4.80795948556245e-06
2.79826238177613e-07
8.62708137982959e-07
-6.90572329115467e-07
7.0142315434649e-07
1.38611208266826e-09
-7.64262954798256e-07
7.51603822912468e-07
2.11632553403388e-09
-8.6350050443592e-07
8.0712011769363e-07
5.57050019663134e-10
-9.42014845886323e-07
8.29474370168949e-07
-4.70641893998298e-09
-9.82425785096773e-07
7.98683544228095e-07
-1.55388545051981e-08
-1.00448495186899e-06
7.28706976604248e-07
-3.36610035636058e-08
-1.03144226766042e-06
6.37894942249673e-07
-5.96053483271297e-08
-1.08300520384732e-06
5.34380918520226e-07
-8.54074706314886e-08
-1.44583418184951e-06
4.2063755938085e-07
-9.55026040488097e-09
-4.45114569341611e-06
2.96055022998236e-07
9.86476427934421e-07
-6.57403972610739e-07
7.46477893737544e-07
2.15728427171421e-09
-7.2195646073003e-07
8.03221924662699e-07
4.19045666126372e-09
-8.12133197358209e-07
8.68434727269786e-07
4.60192437886032e-09
-8.80372941553609e-07
9.00492324149838e-07
2.21179769116264e-09
-9.0768630835371e-07
8.7810706592373e-07
-4.54068864107734e-09
-9.08503919534759e-07
8.16046791465961e-07
-1.71105546289521e-08
-9.08555608965469e-07
7.34352929401267e-07
-3.64668621468771e-08
-9.21862795994944e-07
6.42173703628726e-07
-6.25130526429204e-08
-9.63452512963314e-07
5.40516056362945e-07
-8.47443967256643e-08
-1.32240033936533e-06
4.3028151928139e-07
2.09738461514462e-08
-4.07706233635291e-06
3.12780534066231e-07
1.10507469463628e-06
-4.43800173345193e-06
1.20830630122176e-07
5.84584287628798e-08
-1.46458449216473e-06
1.95307821332154e-07
-6.5891288141297e-10
-5.10140130205513e-06
1.41734595890203e-07
1.31798329506576e-07
-1.1722117085461e-06
2.65031882680109e-07
-3.32092604952008e-09
-1.6677677166475e-06
2.34543567795324e-07
-4.313383794985e-09
-5.42786319941364e-06
1.66371403026827e-07
2.10415963436142e-07
-1.07345945142238e-06
3.34326229010585e-07
-3.65378930143803e-09
-1.30086361420517e-06
3.2002302469185e-07
-1.00490541182576e-08
-1.79544789179228e-06
2.78460476391454e-07
-1.29430176579087e-08
-5.7925047181837e-06
1.94053291697589e-07
2.97332501136316e-07
-1.00324070431756e-06
4.02483931182904e-07
-3.09658321012259e-09
-1.17327553768561e-06
4.02753058951953e-07
-9.94622338104915e-09
-1.4153904760167e-06
3.83468976059616e-07
-2.28149581103136e-08
-1.91149796174919e-06
3.2345911807047e-07
-2.38262892082873e-08
-5.99269371557721e-06
2.17695362240217e-07
3.93932820025923e-07
-9.38524577870444e-07
4.68702466342538e-07
-2.53718354991038e-09
-1.0773975383767e-06
4.82185107641237e-07
-8.358601148539e-09
-1.27561262761544e-06
4.82204509614373e-07
-1.9720594597677e-08
-1.49085505260739e-06
4.44264822256613e-07
-3.90827163837667e-08
-1.94569150653978e-06
3.56686074698937e-07
-3.27969187382025e-08
-5.97479226211919e-06
2.34552546004597e-07
4.99744497279839e-07
-8.77995355983601e-07
5.3197868809252e-07
-1.70476855572727e-09
-9.96883302045324e-07
5.56841753050052e-07
-5.76125223838728e-09
-1.16100642934817e-06
5.73648568217392e-07
-1.48031673159937e-08
-1.33235712555269e-06
5.55313633854923e-07
-3.12591070637075e-08
-1.4835411331004e-06
4.85364777086478e-07
-5.51919733448372e-08
-1.90387016201733e-06
3.78170815632101e-07
-3.76734225548235e-08
-5.79011399648706e-06
2.4853745135617e-07
6.11933897971507e-07
-8.24118415084519e-07
5.91680601611355e-07
-7.10754161549916e-10
-9.28819381424257e-07
6.26227365638999e-07
-2.81331150857186e-09
-1.06721347828644e-06
6.5762530734812e-07
-9.10218725966845e-09
-1.20169366909015e-06
6.55428881242104e-07
-2.14317248681336e-08
-1.31104645759204e-06
6.01730326651788e-07
-4.23692013261163e-08
-1.41326512682462e-06
5.08751139476378e-07
-6.87941942248478e-08
-1.81723283473769e-06
3.93819768069605e-07
-3.70950592463947e-08
-5.51209636742174e-06
2.635894698975e-07
7.27053444659742e-07
-7.78008355833513e-07
6.47326890325155e-07
5.2334519995441e-10
-8.70747672108042e-07
6.90298573165733e-07
-2.71656576651021e-11
-9.92387815079873e-07
7.34561111956304e-07
-3.61221786049253e-09
-1.09844297667183e-06
7.4566333263861e-07
-1.20205898362657e-08
-1.17352119766924e-06
7.04942619576854e-07
-2.75229750036847e-08
-1.23547715107194e-06
6.25075960434288e-07
-5.16969911874908e-08
-1.31286347123946e-06
5.22947291191757e-07
-7.90381732729203e-08
-1.71143564883187e-06
4.06860891154327e-07
-2.98201507971404e-08
-5.18883649302209e-06
2.77599547434353e-07
8.4430607670912e-07
-7.38847525652287e-07
6.98916396165397e-07
1.55405970175204e-09
-8.20829024782045e-07
7.49455208416449e-07
2.43663973371931e-09
-9.30482665037606e-07
8.04908517883442e-07
1.10668900835211e-09
-1.01927600549979e-06
8.27384703540085e-07
-3.90418916759202e-09
-1.06832326231198e-06
7.96831213508942e-07
-1.45063603949432e-08
-1.09889730731214e-06
7.27158477050126e-07
-3.25113531470584e-08
-1.13618643297551e-06
6.36641360540635e-07
-5.86567626161182e-08
-1.20083049129572e-06
5.33212739975734e-07
-8.55541409846098e-08
-1.5975212937596e-06
4.18800254029378e-07
-1.47097904923112e-08
-4.84449553730299e-06
2.92215045588505e-07
9.63786696700965e-07
-7.04978229162219e-07
7.4674214012595e-07
2.25503237212203e-09
-7.77393308296674e-07
8.04048295255548e-07
4.37791251648012e-09
-8.77230909332385e-07
8.69370433464256e-07
4.96282417873543e-09
-9.54815388470035e-07
9.01675023670383e-07
2.79690615582058e-09
-9.8943631500606e-07
8.79451835459429e-07
-3.72695137711483e-09
-9.96639616515605e-07
8.17450562378805e-07
-1.61501572385339e-08
-1.0044662337853e-06
7.35750522118804e-07
-3.56099838170669e-08
-1.02822048797003e-06
6.43503985799081e-07
-6.23759137931505e-08
-1.08310673341564e-06
5.41668807860978e-07
-8.67895494634481e-08
-1.47876018188973e-06
4.3102024119223e-07
1.1823705180499e-08
-4.48500168880319e-06
3.12444922423913e-07
1.08196996338288e-06
-6.74719120485051e-07
7.91167530496187e-07
2.73808609858055e-09
-7.38561531429543e-07
8.54487840963114e-07
5.88240345628048e-09
-8.30007541913382e-07
9.28519138064128e-07
8.06477505723812e-09
-8.98974194640737e-07
9.69261112329849e-07
8.2900134120788e-09
-9.25354953878214e-07
9.53907576999998e-07
5.15023809025084e-09
-9.20618044086038e-07
8.97868191780591e-07
-2.6677427872911e-09
-9.06990932925019e-07
8.22587632090118e-07
-1.61153799414712e-08
-9.02672852742284e-07
7.38715471032943e-07
-3.58730809817918e-08
-9.15429270011645e-07
6.47758442438007e-07
-6.16024373726431e-08
-9.61578566326149e-07
5.48712729660338e-07
-8.07563358497104e-08
-1.35996248615064e-06
4.42938899245837e-07
5.35407971260577e-08
-4.10593033487804e-06
3.34075139342788e-07
1.18907840409522e-06
-4.61331428636213e-06
1.17196182502363e-07
5.81111311672861e-08
-1.5327082932239e-06
1.89583835568388e-07
-6.31364766226177e-10
-5.31108900589647e-06
1.3768895935653e-07
1.30444568270144e-07
-1.23122177540226e-06
2.57630764209497e-07
-3.31455608097806e-09
-1.75068736731467e-06
2.2821536792081e-07
-4.23226192128868e-09
-5.66592132386058e-06
1.61928567482635e-07
2.07917548255942e-07
-1.13047811311554e-06
3.25653058900193e-07
-3.60356072503718e-09
-1.37161575641597e-06
3.11912672286581e-07
-9.94021601399468e-09
-1.89216751840522e-06
2.71521475990152e-07
-1.27524128976636e-08
-6.0647186351571e-06
1.89274699649696e-07
2.93320888932923e-07
-1.05892154167355e-06
3.93017085441502e-07
-3.01071050395444e-09
-1.24060287984403e-06
3.93466299251131e-07
-9.77197722057429e-09
-1.49917021172152e-06
3.74662654966371e-07
-2.24744637519154e-08
-2.02303108640947e-06
3.16208309509608e-07
-2.35732798827055e-08
-6.29621983572686e-06
2.12840140048034e-07
3.88011028138482e-07
-9.92591058358468e-07
4.58962823366401e-07
-2.41304687249522e-09
-1.14199333511007e-06
4.72375533871991e-07
-8.12570180178603e-09
-1.35514013811715e-06
4.72360090850703e-07
-1.93117483156029e-08
-1.58709449152486e-06
4.35321609385724e-07
-3.84412104412319e-08
-2.06913351793813e-06
3.49830779604049e-07
-3.2522827673946e-08
-6.30276239110696e-06
2.30563855658807e-07
4.91330837154713e-07
-9.30260661874619e-07
5.2252312952338e-07
-1.55575914265098e-09
-1.0589248669022e-06
5.47163671583664e-07
-5.47583181275075e-09
-1.23647874453961e-06
5.63647315200613e-07
-1.43314755325327e-08
-1.42294631497855e-06
5.45687965388062e-07
-3.0557895120136e-08
-1.58875086488236e-06
4.77045064374427e-07
-5.4233736199762e-08
-2.0364735624857e-06
3.71860697052026e-07
-3.75074104131909e-08
-6.13592070062483e-06
2.44275531929564e-07
6.01260826440857e-07
-8.7466991291273e-07
5.83046603055969e-07
-5.16550192388239e-10
-9.8860417987949e-07
6.17399452630652e-07
-2.47921470391525e-09
-1.13910782530957e-06
6.48359437811282e-07
-8.58006123108022e-09
-1.28674720640728e-06
6.46253911651691e-07
-2.06916743894074e-08
-1.40887157109423e-06
5.93327599328612e-07
-4.13995703326744e-08
-1.52415025868005e-06
5.01598100811656e-07
-6.77354275291353e-08
-1.95660371588836e-06
3.88011672044937e-07
-3.77901972191162e-08
-5.87324820087175e-06
2.58695005453297e-07
7.14363098911999e-07
-8.27121803568175e-07
6.40100952482184e-07
6.92756423621256e-10
-9.28591021902611e-07
6.83022678279182e-07
3.36060368660954e-10
-1.06141472651292e-06
7.26885733191118e-07
-3.04824392791135e-09
-1.17889037312077e-06
7.38002107879447e-07
-1.12304757010188e-08
-1.26449464796466e-06
6.9777973319501e-07
-2.65104892779375e-08
-1.33729438189926e-06
6.18741130072643e-07
-5.05466375682246e-08
-1.42728417970367e-06
5.17571653630902e-07
-7.81290191097644e-08
-1.85563459122255e-06
4.02484172099675e-07
-3.18039186179766e-08
-5.56498788083171e-06
2.74819834477184e-07
8.28360941220646e-07
-7.86886307498171e-07
6.93629330013514e-07
1.73609471500856e-09
-8.77128913193658e-07
7.44340482907803e-07
2.78049250987124e-09
-9.97221382665456e-07
7.99593068343502e-07
1.67827723576467e-09
-1.09628325044866e-06
8.22142661810244e-07
-3.08624821541537e-09
-1.15391443190391e-06
7.91955575502769e-07
-1.3445497698758e-08
-1.19291464400307e-06
7.22838482662292e-07
-3.1273833941961e-08
-1.2404432142569e-06
6.32943317306098e-07
-5.74416319799967e-08
-1.31811291000586e-06
5.30064273604695e-07
-8.49664995284953e-08
-1.74746343281658e-06
4.15841795806963e-07
-1.81378421612104e-08
-5.23351406276823e-06
2.89590091312122e-07
9.43702399727521e-07
-7.52326623396527e-07
7.43859919648282e-07
2.40473025485586e-09
-8.32604491841325e-07
8.01567395220137e-07
4.65229163495539e-09
-9.42200877367248e-07
8.66881000531278e-07
5.43263822499754e-09
-1.02920070591697e-06
8.99365337024988e-07
3.50943313984128e-09
-1.07116544972329e-06
8.77419150395004e-07
-2.7657648237574e-09
-1.08473557915989e-06
8.15740316510321e-07
-1.49958471422556e-08
-1.10027238947672e-06
7.34365103915733e-07
-3.44341430584432e-08
-1.13445473783014e-06
6.42379812205745e-07
-6.1595549966265e-08
-1.20290775576636e-06
5.4053628946369e-07
-8.74966725447174e-08
-1.63545670117333e-06
4.29040106767491e-07
5.14207540726786e-09
-4.88752612609035e-06
3.07786978011745e-07
1.05848195220738e-06
-7.21813726219735e-07
7.91044080606489e-07
2.79243661315059e-09
-7.93239414884551e-07
8.55002261994377e-07
5.9785904320291e-09
-8.93813066864408e-07
9.29257954116352e-07
8.29516667820354e-09
-9.71432188495699e-07
9.70372752687038e-07
8.72201680428113e-09
-1.00423619020797e-06
9.55302574219814e-07
5.82611494817487e-09
-1.00454475209531e-06
8.99415671498333e-07
-1.76771479786048e-09
-9.96462380631693e-07
8.24191353149633e-07
-1.51226253112627e-08
-9.99954905009412e-07
7.40292598250967e-07
-3.51215186034369e-08
-1.02350029477419e-06
6.49202702084941e-07
-6.18441974620307e-08
-1.08350727029926e-06
5.49849446508943e-07
-8.3692395208013e-08
-1.52155674128205e-06
4.43442049750685e-07
4.24082784644105e-08
-4.52410539685927e-06
3.33271470519489e-07
1.16687156353226e-06
-6.94057201481147e-07
8.35537955008437e-07
3.02441756590895e-09
-7.57328363297957e-07
9.05093959583306e-07
6.96503985491589e-09
-8.50003095157257e-07
9.87262177386576e-07
1.05321083171539e-08
-9.19776486938368e-07
1.03575521144107e-06
1.28935532797568e-08
-9.46027135924562e-07
1.02628579428313e-06
1.27824949409384e-08
-9.39536246903971e-07
9.74906482676395e-07
9.01029738518154e-09
-9.19606018902291e-07
9.0428266245792e-07
6.44846704015021e-10
-9.01010681760753e-07
8.26105758586447e-07
-1.29506890407891e-08
-8.9504175879748e-07
7.42936215947961e-07
-3.22887568978331e-08
-9.08166660608614e-07
6.53984856858884e-07
-5.66698724368462e-08