/*--------------------------------*- C++ -*----------------------------------*\
  =========                 |
  \\      /  F ield         | OpenFOAM: The Open Source CFD Toolbox
   \\    /   O peration     | Website:  https://openfoam.org
    \\  /    A nd           | Version:  12
     \\/     M anipulation  |
\*---------------------------------------------------------------------------*/
/*   Windows 32 and 64 bit porting by blueCAPE: http://www.bluecape.com.pt   *\
|  Based on Windows porting (2.0.x v4) by Symscape: http://www.symscape.com   |
\*---------------------------------------------------------------------------*/
FoamFile
{
    format      ascii;
    class       volVectorField;
    location    "400";
    object      U;
}
// * * * * * * * * * * * * * * * * * * * * * * * * * * * * * * * * * * * * * //

dimensions      [0 1 -1 0 0 0 0];

internalField   nonuniform List<vector> 
10116
(
(-8.59667374232388e-06 0.000189144135038736 4.27877316192396e-05)
(-8.35617814600372e-06 0.000233787223850902 4.23830330304024e-05)
(-6.18360130227513e-06 0.000200919634537206 9.08149919102589e-05)
(-2.60323866651667e-05 0.000160316414419595 4.07325271392743e-05)
(-8.02439513422282e-06 0.000279109242670979 4.02865170746043e-05)
(-6.05137332341855e-06 0.00023812486764395 8.98075443488313e-05)
(-2.54843596145285e-05 0.000201637209968856 4.06526731818639e-05)
(-3.88268846115244e-06 0.00025453286909395 0.000136220372678724)
(-2.07119911406243e-05 0.000164791595884216 8.86264626009934e-05)
(-4.27341213875971e-05 0.00014410608912899 4.09970777961396e-05)
(-7.96282732830219e-06 0.000324014890065272 3.87897526079287e-05)
(-5.9301872620734e-06 0.000275867771752038 8.84721199824196e-05)
(-2.49601826335834e-05 0.000243957950193239 3.9520581407995e-05)
(-3.80427719500496e-06 0.000290560686997002 0.000135205879125958)
(-2.0330738809175e-05 0.000198167142506768 8.73093739930058e-05)
(-4.17392752143973e-05 0.000183801734908285 4.07969905873061e-05)
(-2.78446912746307e-06 0.000280717723354915 0.000180784552952361)
(-1.28323900793855e-05 0.000238450613006916 0.000134506137898027)
(-3.60512214342943e-05 0.000149199358002094 8.83362853431075e-05)
(-6.08259233592709e-05 0.000139920015880504 4.22454507348108e-05)
(-7.86380106799611e-06 0.000368586236724097 3.84971546901399e-05)
(-5.8124435558028e-06 0.000313468154495412 8.70043114409458e-05)
(-2.43510907450274e-05 0.000286290355653351 3.63120181353173e-05)
(-3.72227925068376e-06 0.000326927873527219 0.000133760182855723)
(-1.9955151171333e-05 0.00023263500876266 8.58083723472398e-05)
(-4.08773220163335e-05 0.000224792940463088 3.98647863597046e-05)
(-2.71707373768257e-06 0.000314783693412584 0.000179713133061898)
(-1.25733585222265e-05 0.000272446586740864 0.000133099138959736)
(-3.5428296918113e-05 0.000180701265570709 8.6811089985804e-05)
(-5.95592478607657e-05 0.000179568960815143 4.19781485223101e-05)
(-2.07155754168491e-06 0.000299140665272952 0.000222061993690095)
(-8.82235328124967e-06 0.000273794362532276 0.000179339028336388)
(-2.29261133817003e-05 0.000230239861402729 0.00013433997499139)
(-5.23913068490047e-05 0.000143691999264475 8.93057769981698e-05)
(-8.05376355585876e-05 0.000134513012629903 4.34534148177039e-05)
(-7.67130973965456e-06 0.000412239538953101 3.76630716559882e-05)
(-5.68995455124245e-06 0.000350537963814765 8.54376732928909e-05)
(-2.36292712870352e-05 0.000327705315569207 3.34937953883231e-05)
(-3.63966309918747e-06 0.000363194317252383 0.000131891048913919)
(-1.95412730525312e-05 0.000267343108078958 8.4068594133752e-05)
(-4.00084568882396e-05 0.000266094771270577 3.64171146269754e-05)
(-2.64972968248248e-06 0.000349116224281854 0.000178004760814081)
(-1.23017537124074e-05 0.000307143718193043 0.000131379179752544)
(-3.4749099696335e-05 0.000213642570843472 8.51841482541764e-05)
(-5.84405837629663e-05 0.000220669646364614 4.13137602573218e-05)
(-2.00414082048986e-06 0.000331295553565879 0.000221002816740625)
(-8.58373472958835e-06 0.000306722698118664 0.000177837502474762)
(-2.24898861060969e-05 0.00026305147604987 0.000132715017891701)
(-5.15574674679327e-05 0.000174591208684108 8.77084868524096e-05)
(-7.90224759391461e-05 0.000174375930400771 4.31421370644752e-05)
(-1.4974973401038e-06 0.000314857913996237 0.000259776827272682)
(-6.40169845784666e-06 0.000295650719543454 0.000220265964926145)
(-1.58082818778431e-05 0.000269903963693609 0.000179249189633467)
(-3.39112874216951e-05 0.000226575646314187 0.000135240110533747)
(-6.9712690098558e-05 0.000138956926463449 9.01664811329221e-05)
(-0.000101509192877428 0.000125667164373142 4.40359994003636e-05)
(-7.51515254901415e-06 0.000454848633709351 3.67099458991254e-05)
(-5.58852253618445e-06 0.000386876354494061 8.36533109798006e-05)
(-2.32384090852299e-05 0.000368486099372233 3.28293060380336e-05)
(-3.55973341857825e-06 0.000399087703631514 0.000129626247580864)
(-1.91146482111128e-05 0.000301678044942769 8.2164543186242e-05)
(-3.91644409514587e-05 0.000306235624581207 3.30347066668507e-05)
(-2.58489977073696e-06 0.000383419583750083 0.000175681014418094)
(-1.20219056497671e-05 0.000341965373058929 0.000129312799583499)
(-3.40376710750704e-05 0.000247064861827506 8.33289596836078e-05)
(-5.71763399879274e-05 0.000262214638116541 3.79621019403313e-05)
(-1.9381780203152e-06 0.000363709363609797 0.000219117962069501)
(-8.34622479986009e-06 0.000340119489444971 0.000175833352038082)
(-2.20074613123712e-05 0.000296815960048351 0.000130853455545043)
(-5.06144835113258e-05 0.000207069700420434 8.60482229325431e-05)
(-7.76158125386473e-05 0.000215854914386289 4.26978470917239e-05)
(-1.42429792521551e-06 0.000345378443456111 0.00025876442174764)
(-6.16082500530634e-06 0.000327042125866686 0.000218738907831948)
(-1.53938331070971e-05 0.000302126854279723 0.000177513958696288)
(-3.33093442435613e-05 0.000258935561327103 0.000133560846989052)
(-6.8699409051753e-05 0.00016966836384907 8.85780993256299e-05)
(-9.97291325716954e-05 0.000165810141669924 4.34731272956866e-05)
(-1.04101408046157e-06 0.000329185358198794 0.000294238344364718)
(-4.67135672466221e-06 0.000312911193463215 0.000257399420371482)
(-1.13729761317633e-05 0.000293696335269124 0.000219958602828451)
(-2.35022344633022e-05 0.000268019294518032 0.000180005997149068)
(-4.54995444163144e-05 0.000223212770503338 0.000135845405054759)
(-8.74982557231216e-05 0.000133264628941025 9.04209228666403e-05)
(-0.000123210217854387 0.000113355641721326 4.39040163241196e-05)
(-7.36419428558164e-06 0.000496277189596747 3.56530222912682e-05)
(-5.50140586817922e-06 0.000422333849424344 8.16807818518372e-05)
(-2.2916410459983e-05 0.000408400535594397 3.26053409363537e-05)
(-3.48854249654533e-06 0.000434430737501632 0.000127009288589588)
(-1.87614121261263e-05 0.000335358556787635 8.02256610222268e-05)
(-3.8454340111106e-05 0.000345763548738384 3.20933194782737e-05)
(-2.52354740420635e-06 0.000417474308062748 0.000172797143652205)
(-1.17514829835085e-05 0.000376485875699577 0.000126887262884584)
(-3.33465135760757e-05 0.000280173622390211 8.12851764440485e-05)
(-5.60113696853615e-05 0.000302485275189911 3.42384578551971e-05)
(-1.87595473560437e-06 0.000396156182009192 0.000216450315567522)
(-8.11608310842926e-06 0.000373608573840854 0.000173308516459707)
(-2.15122291043941e-05 0.000330870622458478 0.000128697154449883)
(-4.96198898862789e-05 0.000240146070742163 8.41747022422611e-05)
(-7.59735561253288e-05 0.000257783016264938 3.99881946475585e-05)
(-1.35383362304101e-06 0.000376164179413515 0.000256766893373171)
(-5.92806215852865e-06 0.000358816672597131 0.000216538976937413)
(-1.49627977334389e-05 0.000334974213454843 0.000175364039890304)
(-3.26217700886769e-05 0.000292364880881875 0.000131668987356692)
(-6.75213920773026e-05 0.000202044214700636 8.69571381914269e-05)
(-9.80493041762891e-05 0.000207465324681388 4.30915866996805e-05)
(-9.62608035995188e-07 0.000358363650762875 0.000293275016091088)
(-4.42250880410409e-06 0.00034283397256759 0.000255901878050156)
(-1.09476415753686e-05 0.000324626241231753 0.000218191205024728)
(-2.29210500575668e-05 0.000300000909054668 0.000178223874384832)
(-4.47528861412085e-05 0.000255470141273456 0.000134218753416916)
(-8.63605264715177e-05 0.000163968547093945 8.89077613131148e-05)
(-0.000121127916842855 0.000153666533297623 4.30756345714594e-05)
(-6.85155538378711e-07 0.000342646277227829 0.000325934725533358)
(-3.35117912743704e-06 0.000328149903886003 0.000291256052341198)
(-8.26143537801045e-06 0.000311880189650024 0.000256595377623131)
(-1.69429294083851e-05 0.000292693553280774 0.000220436209984461)
(-3.15811821693583e-05 0.000265865586859411 0.000180312394541334)
(-5.7127116231767e-05 0.000219077295846954 0.000135749307424776)
(-0.000105169533415995 0.000126477921629396 9.00074788009101e-05)
(-0.000145076914334674 9.80070784743252e-05 4.32948311048528e-05)
(-7.22174588804516e-06 0.000536402261219057 3.45186592393624e-05)
(-5.41712494234474e-06 0.000456790900991441 7.95431503466646e-05)
(-2.25232549382883e-05 0.000447055738764661 3.1739555055367e-05)
(-3.42640500472358e-06 0.000469070285944835 0.000124091734383181)
(-1.84509912925555e-05 0.000368163126419513 7.81753530602334e-05)
(-3.77581974269405e-05 0.000384439760139443 3.18845626006907e-05)
(-2.4677308067587e-06 0.000451117336353277 0.000169427725392998)
(-1.15106554755606e-05 0.000410487070713876 0.000124154151689761)
(-3.27117841657387e-05 0.000312660821728968 7.92572881518165e-05)
(-5.49807348515179e-05 0.000342104835127796 3.2789042271344e-05)
(-1.81894958605763e-06 0.000428445175567925 0.000213075747886655)
(-7.90316688518648e-06 0.000406887570911124 0.000170262577198103)
(-2.10434421419303e-05 0.000364671138342904 0.000126193298725888)
(-4.86562914096783e-05 0.00027292761487562 8.20773596021481e-05)
(-7.45008350114837e-05 0.000298600518343996 3.62735784094997e-05)
(-1.28962307910055e-06 0.000407026927746432 0.000253839953467112)
(-5.71177254829738e-06 0.000390701537817318 0.000213661928481526)
(-1.45406670475936e-05 0.000368014761319982 0.000172753621985489)
(-3.19075303579802e-05 0.000326180759445549 0.00012950521771294)
(-6.62602624131241e-05 0.000235072085328122 8.51585698500346e-05)
(-9.61463432332212e-05 0.000249789073010173 4.15099012188957e-05)
(-8.8723393716157e-07 0.00038781106714046 0.000291193555258489)
(-4.18608579004247e-06 0.000373109624227403 0.000253579384680899)
(-1.05236553814846e-05 0.000356036856057021 0.000215846287430505)
(-2.23026121886716e-05 0.000332687409415667 0.000176055470666426)
(-4.38793786563054e-05 0.000288858590213869 0.000132382036784893)
(-8.49967943668131e-05 0.000196395448096039 8.73660464406845e-05)
(-0.000119270115153238 0.000195345414781991 4.27482588667938e-05)
(-6.0475310880397e-07 0.000370747985821037 0.000325019421995293)
(-3.0941288078925e-06 0.000356810979559432 0.000289816744595502)
(-7.82337884077592e-06 0.000341461447985368 0.000254850914969718)
(-1.63391139601467e-05 0.000323510598905344 0.00021862590572955)
(-3.08419358379674e-05 0.000297870333940696 0.000178607371604937)
(-5.62743112909633e-05 0.000251409939519363 0.000134249577184594)
(-0.000103987645924328 0.000157247118067813 8.86116969739082e-05)
(-0.000142752098668646 0.000138376863489123 4.22195535858084e-05)
(-4.21325948465522e-07 0.000355584154720702 0.000355411977896754)
(-2.32059372904443e-06 0.000342300833158223 0.000322423092139871)
(-5.92939362822937e-06 0.000327682078763928 0.000289950250497985)
(-1.22957947871786e-05 0.000311311621142064 0.000256710435408775)
(-2.27234539756349e-05 0.000291116691020924 0.000220423611901191)
(-3.95220262985312e-05 0.000262802957126135 0.000179840345996574)
(-6.83467766052446e-05 0.000213912161789217 0.000134915882905157)
(-0.000122225665437669 0.000118498096552987 8.89516871160266e-05)
(-0.000166665169442069 7.98478318047291e-05 4.21767787688637e-05)
(-7.07872940029402e-06 0.000575144831184737 3.33467657912563e-05)
(-5.33052769186151e-06 0.000490151489093169 7.72756905840735e-05)
(-2.21130808001972e-05 0.000484380224260796 3.0565263207931e-05)
(-3.37013306052983e-06 0.00050288489238935 0.000120922588391791)
(-1.81541997326924e-05 0.000399968430796334 7.59526405520364e-05)
(-3.71037180631124e-05 0.000421909407794654 3.11708737693501e-05)
(-2.41769436451706e-06 0.000484205444917511 0.000165644257248681)
(-1.12987097225412e-05 0.000443797463364643 0.00012114673673686)
(-3.21378315493603e-05 0.000344280023736074 7.7156053956724e-05)
(-5.40032085036661e-05 0.000380817248689618 3.25212090980921e-05)
(-1.76764296384037e-06 0.000460427528243369 0.00020908642320564)
(-7.71304484252385e-06 0.000439773888130024 0.000166758928428498)
(-2.0616756136364e-05 0.000397969223721366 0.000123396044044727)
(-4.77475187236725e-05 0.000305101307183695 7.99781619652203e-05)
(-7.31179996784526e-05 0.00033850195584739 3.38905765679559e-05)
(-1.23293569374101e-06 0.000437799302469094 0.000250074506987539)
(-5.5182734186893e-06 0.000422457240251701 0.000210122822863732)
(-1.41546024744271e-05 0.000400871771551487 0.000169634876660796)
(-3.12331084264159e-05 0.000359763181437899 0.000126984826859647)
(-6.50367066994922e-05 0.000267788009053665 8.30874959157916e-05)
(-9.43180004935345e-05 0.00029121382832192 3.80053329952566e-05)
(-8.1924237347861e-07 0.000417361984311273 0.000288054481045434)
(-3.97004738354807e-06 0.000403519757296491 0.00025043803499839)
(-1.01223578488937e-05 0.000387620846102738 0.000212887721972517)
(-2.16883850584036e-05 0.0003656262499929 0.000173452455126905)
(-4.29598766686912e-05 0.000322683648165807 0.000130281448011796)
(-8.35037080958505e-05 0.00022950773231096 8.57275852001769e-05)
(-0.000117175959077878 0.000237992844126861 4.22003549946576e-05)
(-5.25548406394995e-07 0.000399104121042598 0.000322858399684023)
(-2.84776083115043e-06 0.000385802993052742 0.000287412421996868)
(-7.3949069154913e-06 0.0003714629731069 0.000252384754842081)
(-1.57270315408342e-05 0.000354858717251721 0.000216271427722836)
(-3.00432848774391e-05 0.000330619624090919 0.000176515396204357)
(-5.52515842585118e-05 0.000284926788946214 0.000132533139270505)
(-0.000102507036838259 0.000189795492818799 8.71866701782314e-05)
(-0.000140821326747685 0.000179874156419772 4.19050294050964e-05)
(-3.39263090654665e-07 0.000382831696237404 0.000354528791199255)
(-2.05830880115853e-06 0.000369912491321563 0.000321032590390012)
(-5.47858050723882e-06 0.000356054497088061 0.000288249788623832)
(-1.16661977492507e-05 0.000340843362773899 0.000254923915150663)
(-2.19401173114944e-05 0.000322028845313426 0.000218702571548235)
(-3.86502379373172e-05 0.000294988250947008 0.000178298396732542)
(-6.74399618658303e-05 0.000246414059416363 0.000133595164816933)
(-0.000121081470598613 0.000149367133997791 8.77000535939128e-05)
(-0.000164209603963138 0.000120153158492367 4.10902086901656e-05)
(-2.29273891116761e-07 0.00036831063403096 0.000383221282912237)
(-1.53242571017348e-06 0.000355872242896659 0.000351509484506388)
(-4.13374296001271e-06 0.000342297703636496 0.000320743941452946)
(-8.79644631476179e-06 0.000327399881226182 0.000289742682784652)
(-1.64207145720295e-05 0.000310038615688453 0.000256400385644607)
(-2.82961871921507e-05 0.000288524064296614 0.000219618660507383)
(-4.69432748649386e-05 0.000258653192934561 0.000178559427042607)
(-7.8857924572142e-05 0.000207592742422312 0.000133331018555302)
(-0.000138292327454825 0.000109180994726787 8.71837944666786e-05)
(-0.000187558418674286 5.87615516457452e-05 4.04009155425772e-05)
(-6.93165238845504e-06 0.000612421786919436 3.21611346724308e-05)
(-5.24024084843193e-06 0.0005223418474255 7.4914774783213e-05)
(-2.17176565538374e-05 0.00052027410635381 2.93531663721535e-05)
(-3.31726215193239e-06 0.00053577502133787 0.00011755161211336)
(-1.78593768204032e-05 0.000430695558449419 7.35986843487312e-05)
(-3.64650224029771e-05 0.000458033058310585 3.00087045971111e-05)
(-2.37267300558809e-06 0.000516619527806803 0.000161516604147111)
(-1.11068282335071e-05 0.000476292613239251 0.00011789997008742)
(-3.16128683617072e-05 0.000374894240087512 7.48959289930093e-05)
(-5.30984309011052e-05 0.000418400408586878 3.20303107049846e-05)
(-1.72270942152744e-06 0.00049196881088983 0.000204573753388747)
(-7.54608129552325e-06 0.000472117321154698 0.000162862952176438)
(-2.02350552039695e-05 0.000430580781777694 0.000120334969559699)
(-4.6921398156941e-05 0.000336409568914739 7.78362427788605e-05)
(-7.18791676586842e-05 0.000377467453496387 3.34238910384612e-05)
(-1.1837934304495e-06 0.000468340501554413 0.000245578887616317)
(-5.34841664691905e-06 0.000453922117667245 0.000205998751677168)
(-1.38117075729194e-05 0.000433344314785032 0.000166063342829243)
(-3.06143965391787e-05 0.00039284827938567 0.000124162909406837)
(-6.38692612359307e-05 0.000299899026194191 8.09254307520882e-05)
(-9.25888460979677e-05 0.000331334754378556 3.48814890076755e-05)
(-7.60119811620472e-07 0.000446863346974703 0.000283960765061441)
(-3.77994236748434e-06 0.00043386315270802 0.000246505517673329)
(-9.7648650113951e-06 0.000419091378885409 0.000209280704051505)
(-2.1125637382411e-05 0.000398392786973137 0.00017033388552573)
(-4.20904957278852e-05 0.000356272702168893 0.000127802664770368)
(-8.20481262201745e-05 0.000262270567467433 8.37517044971938e-05)
(-0.000114979476018097 0.000279886009943111 3.92417384676727e-05)
(-4.54576768530714e-07 0.000427571165672256 0.000319527500084381)
(-2.62403536335885e-06 0.000414942823470421 0.000284061657196662)
(-6.99622107206546e-06 0.000401641513406318 0.000249169032515656)
(-1.51395874512018e-05 0.000386415361756888 0.000213330447786892)
(-2.9242958253987e-05 0.00036365032168456 0.000173991307704423)
(-5.41564541591175e-05 0.000318901751458143 0.000130557788445812)
(-0.000100828514338448 0.000223064263096656 8.57431951973089e-05)
(-0.000138575059828105 0.000222802035899186 4.18826392057658e-05)
(-2.58757519266835e-07 0.0004103054243029 0.000352290402326823)
(-1.80327774637665e-06 0.000397832459745612 0.000318567952942495)
(-5.04006703478498e-06 0.000384810024018 0.000285700546857881)
(-1.10432455688732e-05 0.000370828303898868 0.00025245246065745)
(-2.11404493201188e-05 0.000353495408415514 0.000216437910441338)
(-3.76978319416389e-05 0.000327943489385064 0.000176355615667272)
(-6.63148613450732e-05 0.000280147492112889 0.000132044878699199)
(-0.000119566529831884 0.000182083593106764 8.6415037059978e-05)
(-0.000162310578144345 0.000161391948121998 4.06027859719279e-05)
(-1.46579198031016e-07 0.000394885998717652 0.00038233519605829)
(-1.26636984230927e-06 0.000382622860565296 0.000350143482741825)
(-3.67254343621026e-06 0.000369637082307329 0.000319084003219105)
(-8.14187386951938e-06 0.000355748034428576 0.000287997018516098)
(-1.55928615861254e-05 0.000339696712820594 0.000254709191710293)
(-2.73508856837941e-05 0.00031966459946655 0.000218078362998933)
(-4.59765089920317e-05 0.000291110143369929 0.000177237139818118)
(-7.79576079852132e-05 0.000240309757099489 0.000132224516047549)
(-0.000137280697735822 0.000140105644961346 8.60991993197431e-05)
(-0.000185138623863823 9.88478201739933e-05 3.95287079921721e-05)
(-9.86730925555917e-08 0.000381127149001221 0.000409840435747768)
(-9.49917106023103e-07 0.000369217310334472 0.000379018737709497)
(-2.75983945850629e-06 0.000356310395789652 0.000349557462405166)
(-6.11476141180527e-06 0.000342280972171657 0.000320298253029367)
(-1.16811059989494e-05 0.000326354553987245 0.000289201345214887)
(-2.03096154791675e-05 0.000307707007864776 0.000255322391067665)
(-3.33489714375894e-05 0.000284803517434282 0.000217964495249022)
(-5.36231332457791e-05 0.000253342215881155 0.000176433758400208)
(-8.84675683447661e-05 0.000199990984345091 0.000130894230499746)
(-0.000153115961220644 9.83405886607073e-05 8.45390304398441e-05)
(-0.000207448646775513 3.44816886791872e-05 3.78355929521219e-05)
(-6.78118688601717e-06 0.000648190780004364 3.09693883077546e-05)
(-5.14828920009082e-06 0.000553305937828191 7.2489120843877e-05)
(-2.13380391809443e-05 0.000554645810150293 2.81715376852643e-05)
(-3.26634385499938e-06 0.000567661737332985 0.000114026194983901)
(-1.75688305103154e-05 0.000460277058409901 7.11647218454667e-05)
(-3.58459250266222e-05 0.000492704473571011 2.87985634797274e-05)
(-2.33128100148015e-06 0.000548260001065837 0.000157111935415099)
(-1.09289813863373e-05 0.000507876502198111 0.000114460728270151)
(-3.11127987459894e-05 0.000404426847764321 7.24985178157852e-05)
(-5.2218978856395e-05 0.000454592634161422 3.08701041114015e-05)
(-1.68318048448977e-06 0.000522953750024057 0.000199625287562999)
(-7.39873776958389e-06 0.000503797295685721 0.000158639399676044)
(-1.98911287184023e-05 0.000462376183191226 0.000117039147235524)
(-4.61687460028456e-05 0.000366697048010279 7.55558794596175e-05)
(-7.07102336963327e-05 0.000415413213177584 3.32060186524307e-05)
(-1.14191864242519e-06 0.000498522755174554 0.000240459628758215)
(-5.2013625806646e-06 0.000484958140254789 0.000201376389237917)
(-1.3510820856606e-05 0.000465277054163168 0.000162105227202009)
(-3.0058099196684e-05 0.000425242046584371 0.000121075033002429)
(-6.27982460363225e-05 0.000331151538432935 7.87509625297054e-05)
(-9.10810823818444e-05 0.000370613952677841 3.37869364883836e-05)
(-7.09567302367361e-07 0.000476183276623498 0.000279033970348013)
(-3.61503028759279e-06 0.000463990339355032 0.00024187468442641)
(-9.4544454712712e-06 0.000450274419832834 0.000205094060585516)
(-2.0624736959334e-05 0.000430773376492807 0.000166750294580391)
(-4.12903643286102e-05 0.000389358306752605 0.000124993019818663)
(-8.06576769230784e-05 0.000294406071191935 8.1568210465554e-05)
(-0.000112972314785139 0.000320190770692848 3.56580948764877e-05)
(-3.9249583368722e-07 0.000456009841658996 0.000315140553732567)
(-2.42851540208262e-06 0.000444054423168653 0.000279803084725443)
(-6.64493884133359e-06 0.000431762237295723 0.000245179661128086)
(-1.46131245248362e-05 0.000417862574053644 0.00020973395739262)
(-2.85102023790453e-05 0.000396504859557471 0.000170930566338891)
(-5.31202703570546e-05 0.000352622701290821 0.000128169121105356)
(-9.91902742931705e-05 0.000255932688504823 8.39204889730936e-05)
(-0.000136121318149016 0.000264818676674352 4.0064676966333e-05)
(-1.84792037982213e-07 0.000437878485282303 0.000348775140857314)
(-1.57077292869793e-06 0.000425898754566368 0.000315044247804992)
(-4.63330187068331e-06 0.000413745463626836 0.000282280884833752)
(-1.04557492093178e-05 0.000401012300374232 0.000249260584056596)
(-2.03683542385499e-05 0.000385184922417288 0.000213587088865013)
(-3.67361872028862e-05 0.000361189189749348 0.000173968224481613)
(-6.50853748274098e-05 0.00031435149395871 0.00013023472129334)
(-0.00011777564239459 0.000215538579986415 8.51619444384113e-05)
(-0.000159979576073755 0.0002043260931192 4.0859313582276e-05)
(-6.52974357156391e-08 0.000421644609926687 0.000379995014287236)
(-1.00593682136464e-06 0.000409645976744273 0.000347602433569674)
(-3.22287559990959e-06 0.000397324363909595 0.000316465524785583)
(-7.50107395932471e-06 0.000384502215531363 0.000285443337887889)
(-1.47712032997207e-05 0.000369820947806566 0.000252334612429578)
(-2.63819637098068e-05 0.000351370102020296 0.000215978665388471)
(-4.49064117347955e-05 0.000324355792250014 0.000175493261007714)
(-7.67860349430566e-05 0.000274300305875819 0.000130871379314088)
(-0.000135822243812087 0.000173004680080868 8.497075176661e-05)
(-0.000183329618037344 0.000139813906536495 3.87163027317485e-05)
(-1.56279471907327e-08 0.000407176177687826 0.000408899921162354)
(-6.80090443447823e-07 0.000395268774373835 0.000377643094936005)
(-2.28758783623523e-06 0.000382784653805049 0.000347917623498068)
(-5.436355954052e-06 0.000369599055411922 0.00031858909172537)
(-1.08121795025457e-05 0.000354836054608207 0.000287552672771283)
(-1.92948413541101e-05 0.000337608825719663 0.000253821587020053)
(-3.22697757485267e-05 0.000316256081611643 0.000216664457421798)
(-5.26058986503185e-05 0.000286125120720747 0.000175367149159949)
(-8.76368198231501e-05 0.000232942270844833 0.000130025482682618)
(-0.000152321468580756 0.00012927055802131 8.36232290632792e-05)
(-0.000205156765585891 7.41166358359788e-05 3.71820649264026e-05)
(-2.19400782527741e-08 0.000394327794441302 0.000435649557252816)
(-5.52668080905559e-07 0.000382642622011935 0.000405363962758428)
(-1.75628332731112e-06 0.000370099334889375 0.00037685337785265)
(-4.09037486158698e-06 0.000356575713211499 0.000348942733436153)
(-8.07110512358934e-06 0.000341461506821111 0.000319593952445548)
(-1.43224483697397e-05 0.000324235223630648 0.00028792151125223)
(-2.37137525167909e-05 0.000304233361853105 0.00025337245119798)
(-3.76977717446967e-05 0.00027992227068366 0.000215403406360352)
(-5.94246138484417e-05 0.000246817143300704 0.000173356028598494)
(-9.70519403997622e-05 0.00019098878481173 0.000127427964515075)
(-0.000166471418379708 8.58043463454764e-05 8.07185945128269e-05)
(-0.000226048967383896 6.5491704277952e-06 3.4169343718389e-05)
(-6.63177542413728e-06 0.000682421225460958 2.97825595325199e-05)
(-5.05208300111653e-06 0.000583008271021332 7.00254092993477e-05)
(-2.09558479322831e-05 0.000587437020126976 2.7022154188252e-05)
(-3.21675614374231e-06 0.000598485297300254 0.000110393183461591)
(-1.7281141453324e-05 0.000488653192989928 6.86821815394469e-05)
(-3.52545043798946e-05 0.000525840751941285 2.75928844431202e-05)
(-2.29280119567038e-06 0.000579045810323712 0.000152494929713879)
(-1.07621200904775e-05 0.000538470752026906 0.000110877401910333)
(-3.06332422740501e-05 0.00043281717078495 7.00203518955935e-05)
(-5.13849057241583e-05 0.000489309364991437 2.96174754997623e-05)
(-1.6485803693424e-06 0.000553284439656975 0.000194324133319933)
(-7.26702245465351e-06 0.000534714430719868 0.000154152768649221)
(-1.95740454016774e-05 0.000493260657887722 0.00011355186893792)
(-4.54601917549938e-05 0.000395886299576233 7.31183815546123e-05)
(-6.95925676522131e-05 0.000451914661126133 3.21215831954733e-05)
(-1.1059911934869e-06 0.000528236216699925 0.00023481827485715)
(-5.07483351464104e-06 0.000515448156586333 0.000196341359523454)
(-1.32471178654077e-05 0.000496547003565973 0.000157823453509897)
(-2.95568771985936e-05 0.000456809127136903 0.000117747386773612)
(-6.18161034758569e-05 0.000361365877807775 7.6471196546071e-05)
(-8.9632767942674e-05 0.000408798338937399 3.34962095484436e-05)
(-6.67130059307633e-07 0.000505202910006485 0.000273389559010879)
(-3.47460549864667e-06 0.000493770208015951 0.000236648292567483)
(-9.18800363581494e-06 0.000481030144252026 0.000200412125182683)
(-2.01853019680946e-05 0.00046260842225693 0.000162769597632443)
(-4.05664072187239e-05 0.000421742731866809 0.00012190640242927)
(-7.9364539096304e-05 0.000325694684876677 7.93589525669626e-05)
(-0.000111161288393592 0.000359671090320984 3.37909990838236e-05)
(-3.40813571893852e-07 0.000484297175145603 0.000309825371396211)
(-2.2615779552668e-06 0.000473000823990943 0.000274743998550534)
(-6.34195963330982e-06 0.000461669570992377 0.00024049669959804)
(-1.41549000127672e-05 0.000449018433346025 0.000205543727280506)
(-2.78584402871928e-05 0.0004289629299036 0.000167380048650529)
(-5.21653185239969e-05 0.000385822990997673 0.00012540760886081)
(-9.76273365279172e-05 0.000288136720422939 8.17699336296102e-05)
(-0.000133869192345498 0.000305527348087927 3.66922716424077e-05)
(-1.19895778935346e-07 0.000465425297832658 0.000344104627299173)
(-1.36727893713435e-06 0.000453955472985795 0.000310503355856054)
(-4.27629937246755e-06 0.000442662786184565 0.000277974698113952)
(-9.93593808172807e-06 0.000431139183409863 0.000245289298169732)
(-1.96779884966098e-05 0.00041675814213671 0.000210059110752053)
(-3.58572685168652e-05 0.000394243562167198 0.000171011981388924)
(-6.39213800631256e-05 0.000348273954654018 0.000127975100392174)
(-0.00011601247701791 0.000248547920289885 8.354706084651e-05)
(-0.000157440019184105 0.000246401499388382 4.03200980021869e-05)
(9.95668454331743e-09 0.000448476195019625 0.000376285311659814)
(-7.64507382723779e-07 0.000436803113647516 0.000343906773391781)
(-2.80448907587406e-06 0.00042518551090107 0.000312869423086686)
(-6.90189852496754e-06 0.00041345121504147 0.000282051150018352)
(-1.39940520599384e-05 0.000400150685664518 0.00024923986168638)
(-2.54444714624812e-05 0.000383299014545189 0.000213275314509625)
(-4.38176179400509e-05 0.00035789041586382 0.000173284047177529)
(-7.54717566465698e-05 0.000308775959987135 0.000129250061111779)
(-0.000134001892610348 0.000206676318871566 8.39015508506506e-05)
(-0.000181029272364831 0.000182350721249149 3.89917881799115e-05)
(6.68733362105898e-08 0.000433351703854419 0.00040641825831781)
(-4.14289593503068e-07 0.000421545664066362 0.000375002148596658)
(-1.82557579699724e-06 0.000409564789797301 0.000345222654202023)
(-4.77408528924494e-06 0.000397282049380056 0.000315964266878257)
(-9.96081947399167e-06 0.000383731147451746 0.000285098575677367)
(-1.8287399419955e-05 0.000367979646451942 0.000251620926474523)
(-3.11602349313398e-05 0.000348277611315631 0.000214780739958054)
(-5.14603591723408e-05 0.000319712274058314 0.000173854762573374)
(-8.64789740276629e-05 0.000267210692747747 0.00012889110685449)
(-0.000151015681928683 0.000162306993327625 8.26539991315325e-05)
(-0.000203521160500842 0.000114585919412471 3.60894796024518e-05)
(6.10518963811427e-08 0.00041996208308925 0.00043459051049012)
(-2.79003443025061e-07 0.000408126879114091 0.000403929748341809)
(-1.27333172320397e-06 0.000395855372419055 0.000375198613577952)
(-3.3895688166462e-06 0.000383018921509592 0.000347248763613526)
(-7.16370128285838e-06 0.00036890722616146 0.00031797995479783)
(-1.32456533542474e-05 0.000352959697006619 0.000286467192454708)
(-2.2533701037109e-05 0.000334458642755859 0.000252123733813078)
(-3.65197684626553e-05 0.000311743936353239 0.000214380202641358)
(-5.84065052657552e-05 0.000279961721269349 0.000172565063151789)
(-9.63545047815035e-05 0.0002241695718777 0.00012680157176791)
(-0.00016598832122039 0.000116672039099874 7.99487309186529e-05)
(-0.000223898354492306 4.54146992912848e-05 3.36291817954826e-05)
(6.49380038781263e-09 0.000408202100937004 0.000460944996251565)