/*--------------------------------*- C++ -*----------------------------------*\
  =========                 |
  \\      /  F ield         | OpenFOAM: The Open Source CFD Toolbox
   \\    /   O peration     | Website:  https://openfoam.org
    \\  /    A nd           | Version:  12
     \\/     M anipulation  |
\*---------------------------------------------------------------------------*/
/*   Windows 32 and 64 bit porting by blueCAPE: http://www.bluecape.com.pt   *\
|  Based on Windows porting (2.0.x v4) by Symscape: http://www.symscape.com   |
\*---------------------------------------------------------------------------*/
FoamFile
{
    format      ascii;
    class       volScalarField;
    location    "600";
    object      k;
}
// * * * * * * * * * * * * * * * * * * * * * * * * * * * * * * * * * * * * * //

dimensions      [0 2 -2 0 0 0 0];

internalField   nonuniform List<scalar> 
10116
(
4.63852147015715e-06
4.98047954793745e-06
4.78184954146098e-06
4.50132006625863e-05
5.30745716523152e-06
5.13290854458945e-06
4.70914583584689e-05
4.98600585502217e-06
4.51916700204531e-05
8.24789962942745e-05
5.61596985240581e-06
5.46893334654734e-06
4.90232353890337e-05
5.35001289904867e-06
4.72655310572663e-05
8.5628323289316e-05
5.05540290991676e-06
4.54256333175119e-05
8.24573939397281e-05
0.000110906604916327
5.9099338008935e-06
5.78601414188444e-06
5.08164084868286e-05
5.6987155335556e-06
4.91981614307708e-05
8.85568957672186e-05
5.42353699490371e-06
4.74935979345637e-05
8.55893597972467e-05
0.000114850401370648
4.90542416657734e-06
4.52039861643131e-05
8.21268435024941e-05
0.000110775175720824
0.000134543452743505
6.19502888230958e-06
6.09094419415287e-06
5.24913221231721e-05
6.02759656638947e-06
5.09923383518247e-05
9.12898664826753e-05
5.77667271643571e-06
4.94236603877306e-05
8.85105915448194e-05
0.000118522639497215
5.26319161985933e-06
4.72521915058759e-05
8.52284770872705e-05
0.000114693965731404
0.000139148170486683
4.59671582822325e-06
4.42194147455228e-05
8.12027579972736e-05
0.000110080012421119
0.000134298720804529
0.000155307413075145
6.4680050921201e-06
6.38441398083582e-06
5.40611653844661e-05
6.34401638736214e-06
5.26658528732501e-05
9.38430690511644e-05
6.10919365402611e-06
5.1216023395398e-05
9.12390052656538e-05
0.000121954511055764
5.60665939461064e-06
4.9165693478863e-05
8.81286916106507e-05
0.000118354441885205
0.0001434405340162
4.93346308720498e-06
4.62241819543907e-05
8.42578728233783e-05
0.000113953265531609
0.000138871374772583
0.000160487488719253
4.22120509576248e-06
4.2544081268796e-05
7.94723199524234e-05
0.000108617644145598
0.000133316372578319
0.000154932753336506
0.000174103370533534
6.72841573161693e-06
6.66496456527584e-06
5.55324490341915e-05
6.64805917076483e-06
5.42393918838256e-05
9.62277051822487e-05
6.42865455197828e-06
5.28874821766679e-05
9.37885649216734e-05
0.000125161387374371
5.92955135887404e-06
5.09421802714232e-05
9.08402278962024e-05
0.000121778537381709
0.000147454375767716
5.25698202648473e-06
4.80979625982688e-05
8.71183801292022e-05
0.000117580990246924
0.000143147633921609
0.000165320462822028
4.53234709490187e-06
4.44827276943014e-05
8.24585298407551e-05
0.000112425274862481
0.000137831217707102
0.000160073717066001
0.000179796443480746
3.82144785294098e-06
4.04030911337928e-05
7.69529966971151e-05
0.000106267012249294
0.000131412895769946
0.000153683690057444
0.000173618047412459
0.000191432044357339
6.97593910154557e-06
6.93242383800457e-06
5.69067906045691e-05
6.93880271030959e-06
5.57125925482405e-05
9.8449840034308e-05
6.73523409581163e-06
5.44599767191489e-05
9.6169849741354e-05
0.000128153404170223
6.23887555670761e-06
5.2599409396741e-05
9.33748634015618e-05
0.000124979301083568
0.000151205503031031
5.56092814884283e-06
4.98370330036078e-05
8.97947810953965e-05
0.000120978525054695
0.000147150278224751
0.000169841944513997
4.83156595021867e-06
4.62953561300286e-05
8.52562061187572e-05
0.000115996593347643
0.000142065156038692
0.000164886029512134
0.000185111966359968
4.1052523938063e-06
4.2258791514552e-05
7.98472694901395e-05
0.000109985406548494
0.000135846671240858
0.000158755744277824
0.000179265892509693
0.000197589687918523
3.40271652420249e-06
3.79442500942081e-05
7.37817092420363e-05
0.000103059782686406
0.00012852435487694
0.000151394443719743
0.000172142360452603
0.000190871927370906
0.000207608512033624
7.20949121498194e-06
7.18660409738332e-06
5.81853217504205e-05
7.21592415185524e-06
5.70886404121642e-05
0.000100514788503769
7.02898874495134e-06
5.59327321089739e-05
9.83893171207209e-05
0.000130937217376776
6.53629737002345e-06
5.41563411933473e-05
9.57430783673254e-05
0.000127965631474778
0.000154703187724159
5.85074666997254e-06
5.14607121392189e-05
9.2297614411215e-05
0.000124156105819913
0.000150892188622818
0.000174067848433473
5.11266851611518e-06
4.79774906167802e-05
8.78750512040953e-05
0.00011934455821781
0.000146033209292615
0.000169392611557917
0.00019008706493247
4.37834335442097e-06
4.39949523912301e-05
8.25597188434693e-05
0.000113475257830091
0.000140010608207248
0.000163517044973399
0.000184556903727065
0.000203342618316279
3.65770798603203e-06
3.97046792139447e-05
7.65638628245557e-05
0.000106664927033065
0.000132851933154534
0.000156372199160738
0.000177711891396457
0.000196979516156298
0.000214191826249538
2.9651844199979e-06
3.5210864639118e-05
7.00665789823985e-05
9.9097064390224e-05
0.000124712193141934
0.000148036592054979
0.000169529266603931
0.000189223346894142
0.000207001360963473
0.000222833983174675
7.42770222394173e-06
7.42669587488085e-06
5.93677362210664e-05
7.47945315760647e-06
5.83692717336673e-05
0.000102425197544557
7.30951694785561e-06
5.73083800577986e-05
0.000100452088249396
0.000133518254951901
6.82243250454698e-06
5.56168516221137e-05
9.79507194081702e-05
0.000130744615873328
0.000157954907264908
6.13104946861396e-06
5.29829966739517e-05
9.46368240273667e-05
0.00012712177629073
0.000154381817876522
0.000178007343841505
5.38081710730376e-06
4.95505376541864e-05
9.03251631586294e-05
0.000122477449975865
0.000149744937553003
0.000173606046430237
0.000194737611091909
4.63496276476882e-06
4.56058868136602e-05
8.50995625169534e-05
0.000116748970831351
0.000143917134797748
0.000167981673828059
0.000189514026485899
0.000208729409437514
3.90324877114769e-06
4.135206077632e-05
7.91720200679281e-05
0.000110049640107036
0.000136918722308907
0.000161051876136228
0.000182944637401492
0.000202705180038947
0.000220345930328912
3.18977941483928e-06
3.68649364049513e-05
7.27189987225632e-05
0.000102566677270305
0.00012890859972379
0.000152893882088653
0.000174993587159247
0.000195245180252005
0.000213530805336882
0.000229810709745132
2.51503127284683e-06
3.22072904353555e-05
6.5857908141067e-05
9.44574416694183e-05
0.000120071043704571
0.000143693557111126
0.000165771753602913
0.00018634954387962
0.00020522282296601
0.000222194331223641
0.000237227549666993
7.62997952141716e-06
7.65131481362686e-06
6.04530963500125e-05
7.72858986548642e-06
5.95543235309484e-05
0.000104183249506655
7.57617415102769e-06
5.85890466131766e-05
0.000102360850252834
0.000135900530956833
7.09552125159192e-06
5.69815942324746e-05
0.000100002776212356
0.000133321468936144
0.000160966141946109
6.40054173983592e-06
5.4413967092566e-05
9.68180899989487e-05
0.000129881974731602
0.000157626384443861
0.000181667831480298
5.63862845029025e-06
5.10222354043518e-05
9.26154770866863e-05
0.000125402900260083
0.00015320757596159
0.000177534564763238
0.000199072558776037
4.87991634539755e-06
4.71135995054108e-05
8.74767465835266e-05
0.00011981392126995
0.000147573497168495
0.000172158442325989
0.000194149402675578
0.000213765624512118
4.13384062995316e-06
4.28808709473105e-05
8.16147145307719e-05
0.000113226062551916
0.000140736747755144
0.000165444711962175
0.000187853692553512
0.000208071872236178
0.000226110670870285
3.40620343562188e-06
3.84129677936252e-05
7.52062216875768e-05
0.000105825053676002
0.000132853393106724
0.000157463203563883
0.000180135201529495
0.00020090703417698
0.000219655683293843
0.00023633577472682
2.70805075219956e-06
3.37436155115918e-05
6.83640912998752e-05
9.77708045817606e-05
0.000124112638280615
0.000148404690207959
0.000171103896513125
0.000192257485111388
0.00021166060726917
0.000229113966747928
0.000244569838898623
2.06328538899802e-06
2.89402639532456e-05
6.11765867655069e-05
8.91845451799308e-05
0.000114666201929559
0.000138461159180072
0.000160967121201126
0.000182255333891828
0.000202136664195862
0.00022031148870728
0.000236561195990438
0.000250850096784455
7.81630004813769e-06
7.85952003162378e-06
6.14423332857465e-05
7.9619240912906e-06
6.06427327802864e-05
0.000105790916944648
7.82822633464279e-06
5.97748719593985e-05
0.000104117618772312
0.000138087496854896
7.35473593227837e-06
5.82523118877847e-05
0.000101902183764064
0.000135700039846925
0.000163741532724443
6.65779707167193e-06
5.57513053014127e-05
9.88459805495153e-05
0.000132441868794582
0.000160631207457459
0.000185055032560817
5.88711671903578e-06
5.24054873987168e-05
9.47520263407072e-05
0.000128126198113085
0.000156427640936793
0.000181185229116236
0.00020309910000059
5.11397473808138e-06
4.85254017534605e-05
8.96989291937765e-05
0.000122677001997483
0.000150986292701569
0.000176054054609463
0.000198470944062582
0.000218459960131607
4.35385422854379e-06
4.43121978309948e-05
8.39017115623178e-05
0.000116201092920574
0.000144312189930708
0.00016955704196787
0.000192447004297391
0.000213091120545236
0.000231501019392975
3.60911300609634e-06
3.98488346839127e-05
7.75359916995056e-05
0.000108883863494682
0.000136558538594581
0.00016175546329843
0.000184964070944406
0.000206221061613567
0.000225398964624791
0.000242450208891665
2.89401963376176e-06
3.51814766971556e-05
7.07147942218888e-05
0.000100883356899507
0.000127912880328592
0.000152837865591575
0.000176124330482367
0.000197820732405173
0.00021771744053375
0.000235608303196403
0.000251439638600245
2.22409060537396e-06
3.03475144787231e-05
6.35200520421448e-05
9.23218709624449e-05
0.000118530439701244
0.000143001543140433
0.000166140708802101
0.000188021607126464
0.000208453564066341
0.000227134519975931
0.00024384348685063
0.000258532835083979
1.62376605566808e-06
2.54289837093723e-05
5.60356766562986e-05
8.33047592602235e-05
0.000108535481452
0.000132399740585433
0.000155215833059899
0.00017704849474148
0.000197753737799582
0.00021704404567336
0.000234587189521665
0.000250158892350714
0.000263724625404934
7.98668921798907e-06
8.05104748706368e-06
6.23370745810641e-05
8.1782978901747e-06
6.16346800028658e-05
0.000107250095501051
8.06457296056681e-06
6.08649430676331e-05
0.00010572426856363
0.000140082216996199
7.59975600972386e-06
5.94295347166937e-05
0.000103650793878402
0.000137883707562903
0.000166285152725676
6.90202050664273e-06
5.69964439532953e-05
0.000100723705444335
0.000134805160505825
0.000163400809090129
0.000188173851830292
6.12510282188792e-06
5.36997610320701e-05
9.67386456476695e-05
0.000130652445913075
0.00015941024817383
0.000184563532089006
0.00020682302804834
5.33972458073938e-06
4.98467000955079e-05
9.17730018873797e-05
0.000125343059965028
0.000154160688791697
0.000179674886846489
0.000202485424613496
0.00022281933514725
4.56405912420807e-06
4.56535919739319e-05
8.60400919538568e-05
0.000118980795057925
0.000147650959559071
0.000173394283225098
0.000196730755063032
0.000217770446279991
0.000236525540717911
3.80257400434383e-06
4.11932552104458e-05
7.97176866616191e-05
0.000111749626901162
0.000140029722191331
0.00016577572914399
0.000189485434822892
0.000211194252982047
0.000230771204258407
0.000248168325359845
3.06792925986053e-06
3.65133756927039e-05
7.29168233161438e-05
0.00010380604628791
0.000131483420135461
0.0001570040799865
0.000180842737066423
0.000203048022804413
0.000223404579435885
0.00024170026825105
0.00025787901672428
2.37893857556538e-06
3.1663958995692e-05
6.57192090397594e-05
9.52699891019163e-05
0.000122164900407706
0.000147275028016366
0.000171013255396791
0.000193454918198513
0.000214405838893939
0.000233557404573529
0.000250681270814113
0.000265723620845497
1.75263037526221e-06
2.66956378074186e-05
5.82006272151969e-05
8.62466605272057e-05
0.000112200466690056
0.000136745583477807
0.000160205442127792
0.0001826459589236
0.000203921158826869
0.000223740315498632
0.000241768484178704
0.000257778924001402
0.000271724343934345
1.21075800651072e-06
2.17043877647259e-05
5.04475410751709e-05
7.68370405246327e-05
0.000101705591309546
0.000125543997180245
0.000148578561175795
0.000170836996307868
0.000192191280421918
0.000212405765005078
0.0002311572059326
0.000248100379807051
0.000263009278429293
0.000275851673937743
8.14054016917653e-06
8.22672760415792e-06
6.31385072168627e-05
8.37740089608013e-06
6.25317009854976e-05
0.000108562685702516
8.28411757258007e-06
6.1858799345829e-05
0.000107182634067995
0.00014188740970859
7.83001158253444e-06
6.05128412115405e-05
0.000105250325800471
0.000139875480758708
0.000168600634745724
7.13301779736364e-06
5.81506355018965e-05
0.000102452995235058
0.000136975073190098
0.000165939194295074
0.000191028679894553
6.35122010605659e-06
5.49050105304798e-05
9.85786900626078e-05
0.000132985252185983
0.000162159695636198
0.00018767428581198
0.000210249359839602
5.55643780632464e-06
5.10863644807043e-05
9.37017130217632e-05
0.000127816782494771
0.000157101699930735
0.000183026066242607
0.000206198402650717
0.000226849438701
4.76483822776885e-06
4.69071306061505e-05
8.8035884987833e-05
0.000121570529172921
0.000150757396630935
0.00017696185378286
0.000200710964023816
0.000222116283821178
0.000241190792830217
3.98755890651284e-06
4.24535849273037e-05
8.17579999649263e-05
0.000114427878769671
0.000143272248284765
0.000169529075470349
0.000193703942932918
0.000215832194582721
0.000235779733896347
0.000253498511044214
3.23360949220018e-06
3.77605440568221e-05
7.49790326333798e-05
0.000106544977337203
0.000134829552124953
0.000160907910460283
0.000185263039366126
0.000207943442272678
0.000228727924314209
0.000247399537315046
0.000263901900741448
2.52329527459515e-06
3.28812297548992e-05
6.7779064581037e-05
9.80389490955692e-05
0.0001255806455145
0.00015129242776084
0.000175594648819364
0.000198563764157355
0.000220001051165307
0.000239590594931916
0.000257097375363833
0.000272465491165226
1.87653571844928e-06
2.78794718758374e-05
6.0232841287459e-05
8.90122375119702e-05
0.000115648587348942
0.000140836941558893
0.000164905664981743
0.000187921642754144
0.000209736293940044
0.000230053684423793
0.000248531858302276
0.00026493650879564
0.000279213831469451
1.30903293694771e-06
2.28190906388062e-05
5.24184230746972e-05
7.9564471207744e-05
0.0001051499458121
0.000129671974781604
0.000153359395000484
0.000176239403203908
0.000198181296776291
0.000218945922949335
0.000238206571198728
0.000255615362927954
0.000270943731662758
0.000284145838143067
8.39055675935202e-07
1.77996849365965e-05
4.44228904154888e-05
6.97953507816649e-05
9.41985608021702e-05
0.00011792036104966
0.000141089502007023
0.000163685328218881
0.000185566087646292
0.000206522639888603
0.000226286539858349
0.00024451967861395
0.000260870477496348
0.000275112884146931
0.000287219384903623
8.27384445683679e-06
8.3852954733538e-06
6.38469330197365e-05
8.55910337004071e-06
6.33350322863239e-05
0.000109730431432999
8.48653809040488e-06
6.27574246030594e-05
0.000108494509805442
0.000143505532314722
8.04450567106507e-06
6.15017092741393e-05
0.000106702473242582
0.000141678059365468
0.000170691225516007
7.35035908817244e-06
5.92141830846938e-05
0.000104035445676332
0.00013895448929217
0.000168249949639941
0.000193623469718054
6.56522217939432e-06
5.60228946802871e-05
0.000100274253317601
0.000135127654884491
0.000164679824109673
0.000190521802931874
0.00021338258489415
5.76312568902372e-06
5.22414505402698e-05
9.54885061641535e-05
0.00013010186223933
0.00015981333181174
0.00018611215628186
0.000209614778602099
0.000230555230208902
4.95912089904646e-06
4.80807934071515e-05
8.98925239576411e-05
0.000123973790705466
0.00015363624715813
0.000180264480604333
0.000204392737909815
0.000226134083171842
0.00024550222384653
4.16420170704062e-06
4.36337003355956e-05
8.36619958818552e-05
0.000116923919671473
0.00014629014606086
0.000173019572595811
0.000197624684238038
0.000220140478387706
0.000240430548802293
0.000258446903224149
3.39217612060518e-06
3.89305185332358e-05
7.69079378040024e-05
0.000109105260390456
0.000137955909755564
0.000164553908506901
0.000189389350570638
0.000212510832310782
0.000233692490263691
0.000252713063435445
0.000269516213753028
2.66068091409266e-06
3.40201884081648e-05
6.97080966629441e-05
0.000100634379693673
0.00012878258832929
0.00015505798812044
0.000179888315994809
0.000203350951976812
0.000225242082905831
0.000245238653785382
0.000263100792303859
0.000278772025931328
1.9914793470415e-06
2.89717426417145e-05
6.21363123745819e-05
9.16103979611959e-05
0.000118890106513909
0.00014468414894968
0.000169326327598889
0.000192884348127086
0.000215206491861066
0.000235990602675291
0.000254886938881534
0.000271654372536994
0.000286237027004282
1.40532201358213e-06
2.38584703942856e-05
5.42686073758916e-05
8.21298846721631e-05
0.000108391678403139
0.000133559285556936
0.000157863864369713
0.000181332131785309
0.00020383061526266
0.000225116032922909
0.000244856119987559
0.000262695834327666
0.000278398897809245
0.000291912613936571
9.11909287122292e-07
1.87497721774817e-05
4.61844973975792e-05
7.22899714866119e-05
9.74013009361912e-05
0.000121807555963081
0.000145637089972648
0.000168866967110027
0.000191351643510194
0.000212878027113412
0.000233173976702164
0.000251898032909511
0.000268696079362574
0.000283339364903917
0.000295785941540797
5.19463502577175e-07
1.37310938891921e-05
3.79647951230742e-05
6.21865678921931e-05
8.60309396562637e-05
0.000109552112887123
0.000132775158344679
0.000155629031868085
0.000177947852525656
0.000199520156896193
0.000220109038957372
0.000239433283533158
0.000257147759982551
0.000272897553955678
0.000286458137488234
0.000297809483709657
8.37454902464784e-06
8.52339023043726e-06
6.44618092008764e-05
8.72406430978971e-06
6.40450003366446e-05
0.000110754905467028
8.67058001241639e-06
6.35618001350711e-05
0.000109661579081756
0.000144938858003544
8.24272305348088e-06
6.23960495224647e-05
0.000108008850107125
0.000143293863979464
0.000172559852347407
7.55334468859657e-06
6.01866347650052e-05
0.000105472525150112
0.000140746024498899
0.000170336298814372
0.000195961752756619
6.76666226984285e-06
5.70542282463485e-05
0.000101826700678223
0.000137082341323734
0.00016697410501004
0.00019310997843546
0.000216226758054494
5.95891848812692e-06
5.33132434586998e-05
9.7135966557658e-05
0.000132201096902552
0.000162299185706557
0.000188937299258433
0.000212738972678156
0.000233941174945961
5.14477169534745e-06
4.91776833104147e-05
9.1612942317342e-05
0.000126194483235377
0.000156291271853618
0.000183306370728861
0.000207780710199077
0.000229828685858794
0.000249464618236979
4.33352607442282e-06
4.47334085122507e-05
8.54345537295663e-05
0.000119240836120462
0.000149087654799299
0.000176251731913401
0.000201252206295539
0.000224124063667584
0.000244728853020524
0.00026301863488279
3.54377069365085e-06
4.00267804217065e-05
7.87084253849478e-05
0.000111491537592474
0.000140867115494415
0.000167945636945987
0.000193225498597204
0.000216754818730347
0.000238303384115048
0.000257646417720707
0.000274727688750239
2.79214991741464e-06
3.50900570652481e-05
7.15127213424783e-05
0.000103061051177337
0.000131774947430535
0.000158575647505876
0.000183898010346138
0.000207819328354949
0.000230131980923572
0.000250506214758586
0.000268697910878183
0.00028465067915519
2.10081654281324e-06
2.99930275194784e-05
6.39187970801283e-05
9.40462125396701e-05
0.000121929499899473
0.000148291133203068
0.000173470608426508
0.000197536327725284
0.000220333338288021
0.000241552683474075
0.000260837196709078
0.000277940882543718
0.000292807204564815
1.49201221892386e-06
2.48149613816422e-05
5.60017087083699e-05
8.45406244120905e-05
0.000111440076102104
0.000137215569864049
0.000162101419908591
0.000186124031821935
0.000209147002788209
0.000230922345387582
0.000251111296263956
0.000269350616922119
0.000285397393327104
0.000299196621489351
9.80506478778397e-07
1.96290115587804e-05
4.7838084525448e-05
7.46376918461155e-05
0.00010041707890066
0.000125469323340958
0.000149922783142657
0.000173752396108096
0.000196808943273626
0.000218875283761178
0.000239674895907044
0.000258860775493196
0.00027607159955969
0.000291070755704717
0.000303808970912849
5.66450550285655e-07
1.44966116635713e-05
3.95020232681844e-05
6.44304098251858e-05
8.8971521767171e-05
0.000113176042681609
0.00013706531856711
0.00016056440507543
0.00018350237237209
0.000205662963939526
0.000226805245363493
0.000246644476386113
0.000264832378085206
0.000281011599748602
0.000294954738370627
0.000306626654642229
2.6216727984309e-07
9.53605726961702e-06
3.10643028944486e-05
5.40049051071819e-05
7.72097420821172e-05
0.000100456993699099
0.000123659111062996
0.0001466949334394
0.000169374136466489
0.00019147308109098
0.000212757954405014
0.000232981975645013
0.000251858948966142
0.00026904052272533
0.00028417030214533
0.00029702704904801
0.000307600577083223
8.46625434844907e-06
8.62208958844081e-06
6.49816115885073e-05
8.86725394828407e-06
6.46611313911312e-05
0.000111637867853659
8.83793759979972e-06
6.42723869283428e-05
0.000110685393941922
0.000146189581615196
8.42355052809207e-06
6.31961644088098e-05
0.000109170970068688
0.000144725133220325
0.00017420919149209
7.74171098757245e-06
6.10673214617556e-05
0.00010676561742187
0.000142352021510518
0.000172201149104483
0.000198046759463605
6.95509535645585e-06
5.79989608069086e-05
0.000103237252423559
0.00013885176382729
0.000169045683575825
0.000195442332604817
0.000218785606188098
6.14337114088376e-06
5.43029546215414e-05
9.86455123532894e-05
0.000134116956889385
0.000164562547052426
0.000191505273563532
0.000215575008106558
0.000237011384828439
5.32106358794742e-06
5.01960228403788e-05
9.3199856249753e-05
0.000128235382606745
0.000158725785739802
0.000186091406493099
0.000210879131691167
0.000233204493091185
0.000253082355504086
4.49627172487675e-06
4.57630191679793e-05
8.70773961467243e-05
0.000121382272826495
0.000151668460839139
0.000179229383903938
0.000204590754843872
0.000227787514853262
0.000248679315333767
0.000267218249366925
3.68809396387958e-06
4.10497118546467e-05
8.03842401761061e-05
0.000113708070620121
0.000143566178526254
0.000171087190523656
0.000196775651653128
0.000220679723332884
0.000242565307432373
0.000262204476884264
0.000279541098816023
2.91798777962962e-06
3.60939243362557e-05
7.31976284648191e-05
0.000105323241474006
0.000134562022327812
0.000161849422476602
0.000187626804413632
0.000211972616196131
0.00023467481088167
0.000255397827347013
0.000273893872496945
0.000290106762669768
2.20540715671343e-06
3.09518660429143e-05
6.55865138911457e-05
9.63241126544596e-05
0.000124770573938442
0.000151661429489159
0.0001773418425289
0.000201880409862361
0.000225118731465341
0.000246742222705379
0.000266386648518305
0.000283801860328104
0.000298931388159785
1.57457312313601e-06
2.57090780183056e-05
5.76244213729782e-05
8.68011522949111e-05
0.000114299111702399
0.000140644383050085
0.000166074980058962
0.000190617166961903
0.000214131563060534
0.000236365216775138
0.0002569722677264
0.00027558223484199
0.000291947020527651
0.000306011038652812
1.04124657325084e-06
2.04397440821293e-05
4.9386107547947e-05
7.68447547687995e-05
0.000103253957419682
0.000128914430133969
0.000153955433419445
0.000178350190254094
0.0002019458999573
0.000224521186664437
0.000245794510456461
0.000265412372062566
0.000283005097690012
0.000298329413277129
0.000311333709650941
6.09960644721483e-07
1.5208796099086e-05
4.0944393868691e-05
6.65433852170157e-05
9.17422527988031e-05
0.000116591228643271
0.000141109536546545
0.00016521851470725
0.000188742437829876
0.000211460345552065
0.000233127123191295
0.000253453773990162
0.00027208655925359
0.000288660925540208
0.000302941380592193
0.000314885111044225
2.87732792721338e-07
1.01110771260898e-05
3.23621467165314e-05
5.59803777205917e-05
7.98681518474451e-05
0.00010379551372112
0.000127667975065587
0.00015135870595662
0.00017467115301279
0.000197375914878637
0.000219234436449356
0.000239996154491048
0.000259371614859998
0.000277009517802243
0.000292551114618263
0.000305772139338802
0.000316646895324356
9.1484313983748e-08
5.44682525652057e-06
2.37215455122752e-05
4.5227756269424e-05
6.77234435435552e-05
9.06400747571626e-05
0.000113757895577715
0.000136905876905535
0.000159871905661233
0.000182420765215379
0.000204312308980659
0.000225305617593273
0.000245150995404756
0.000263561141561795
0.000280186639493495
0.000294671171986327
0.000306798486504078
0.000316569643366271
8.71208322317534e-06
6.5419754849349e-05
8.96749021070832e-06
6.51803237872277e-05
0.000112382177516764
8.98253682046125e-06
6.48885700815954e-05
0.000111567733775283
0.000147260094161725
8.58628406269197e-06
6.39024480206718e-05
0.00011019032468373
0.000145974037489183
0.000175641762079494
7.91411564178295e-06
6.18551720752731e-05
0.000107915957284272
0.000143774637160218
0.0001738471573708
0.000199881403935876
7.1304648219889e-06
5.88564473834778e-05
0.000104507001442097
0.000140438139742439
0.000170897407219413
0.000197522067482859
0.000221062505275121
6.31596698456365e-06
5.52109944191128e-05
0.00010001809590215
0.000135851681025716
0.000166606422081335
0.000193819524046377
0.000218126566678147
0.000239769611627473
5.48731433677379e-06
5.11368311457482e-05
9.46551103060663e-05
0.000130098743953472
0.000160942839166837
0.00018862318107915
0.000213691913653792
0.000236265554349325
0.000256359429137384
4.65153732130655e-06
4.67210164668967e-05
8.85931020450125e-05
0.000123351196329509
0.000154035603734224
0.000181956100339068
0.000207644318483851
0.000231135061909843
0.000252286226285008
0.000271049885549706
3.8273504487102e-06
4.20014217103192e-05
8.19393270564724e-05
0.000115756884602725
0.00014605685572807
0.000173982124726911
0.000200043638402628
0.000224289704629596
0.000246482646344
0.000266391657094695
0.00028396068783039
3.03797149881205e-06
3.70320447351833e-05
7.47661813805051e-05
0.000107425136139618
0.000137146911902422
0.000164882264509215
0.000191078531418417
0.000215814552342853
0.00023887460158149
0.000259917844012722
0.000278693183152937
0.000295144634891515
2.30554893586147e-06
3.18532478799295e-05
6.71440078549174e-05
9.84480046274295e-05
0.00012741706249755
0.000154798910051219
0.000180942987614237
0.00020591920127617
0.000229565850159459
0.000251562692954471
0.000271539334164965
0.000289241997695617
0.000304614455468938
1.65366810285872e-06
2.65482392800506e-05
5.91427838728294e-05
8.89155270404147e-05
0.000116972193232823
0.000143848861468813
0.000169787402324763
0.000194814095228777
0.00021878600691649
0.000241445624322206
0.000262440782705473
0.000281394015703115
0.000298053077309302
0.000312362460285241
1.09892845160118e-06
2.11972029176682e-05
5.08364397996675e-05
7.89146907177628e-05
0.000105915315525045
0.000132145991346722
0.000157737664413091
0.000182662231660445
0.000206763454442756
0.000229815734057531
0.000251531926809619
0.000271551749633777
0.000289498233533825
0.000305122775426555
0.000318373279355945
6.47745221394072e-07
1.58656071791454e-05
4.22938057812599e-05
6.85307186894706e-05
9.43496797573222e-05
0.000119805375728087
0.000144915886041307
0.000169599430954282
0.000193675784207275
0.000216919316839899
0.000239080501313355
0.000259865435413894
0.000278913828080187
0.000295852825761876
0.00031044015402814
0.000322630735947504
3.10767710250567e-07
1.06467987651968e-05
3.35797734173846e-05
5.7842028858701e-05
8.23749286614889e-05
0.000106943475027566
0.000131448374914458
0.000155757694137624
0.000179669017633158
0.000202947379679558
0.000225349508352745
0.000246620862046496
0.000266467956192442
0.000284534124703144
0.000300453473518321
0.00031399326991829
0.000325120253978157
1.01144271934158e-07
5.83115801611184e-06
2.47675072074931e-05
4.69177688654297e-05
7.00797919858329e-05
9.36711967535941e-05
0.000117461819849825
0.000141272861740226
0.000164884972104884
0.00018805622813592
0.000210540907357474
0.000232093674803145
0.000252461385990338
0.000271353753039292
0.000288418601274876
0.000303297342562371
0.000315770738926959
0.000325824516822119
1.69817179293171e-08
2.1024206563997e-06
1.59843124916946e-05
3.58258293963693e-05
5.75301740027105e-05
8.0079882776199e-05
0.000103071148979885
0.000126275119932335
0.000149462257411909
0.00017238980294893
0.000194812610574555
0.000216486530873096
0.000237169328494641
0.000256611940888018
0.000274528127930768
0.00029056893322479
0.000304379522151252
0.000315749801943395
0.000324691795525775
9.05790034324462e-06
6.5617395195747e-05
0.000112995610718263
9.08225082271953e-06
6.54068113428709e-05
0.000112311328064453
0.000148153644089395
8.72796292210534e-06
6.45143556407666e-05
0.00011106870278567
0.000147042954356417
0.000176860097348236
8.06881646245286e-06
6.25498947674244e-05
0.000108924864804036
0.000145015987095612
0.000175276822272351
0.000201468407797807
7.29164115425124e-06
5.96245365641758e-05
0.000105636821858484
0.000141843501167605
0.000172531881144375
0.000199352096609348
0.00022306057463594
6.47657054463742e-06
5.60370805530363e-05
0.00010125448131921
0.000137407299884597
0.000168433552230164
0.000195883192680873
0.000220397012668566
0.000242219310404772
5.64289329182843e-06
5.20009067089726e-05
9.59795348500659e-05
0.000131786571893682
0.000162945244635117
0.000190905004336306
0.000216222654937737
0.000239015600179287
0.000259299607281176
4.79826135371927e-06
4.76064022282499e-05
8.99837990898043e-05
0.00012514967310106
0.00015619187086383
0.000184435237152981
0.000210416623318638
0.000234170635604007
0.000255553560120203
0.000274517480782067
3.95970020940783e-06
4.2890812874525e-05
8.33740543295125e-05
0.000117641221364974
0.000148342082373124
0.00017663369770929
0.000203033125461716
0.000227588725462631
0.000250059513257635
0.000270212046852798
0.000287990363691309
3.1531618929928e-06