/*--------------------------------*- C++ -*----------------------------------*\
  =========                 |
  \\      /  F ield         | OpenFOAM: The Open Source CFD Toolbox
   \\    /   O peration     | Website:  https://openfoam.org
    \\  /    A nd           | Version:  12
     \\/     M anipulation  |
\*---------------------------------------------------------------------------*/
/*   Windows 32 and 64 bit porting by blueCAPE: http://www.bluecape.com.pt   *\
|  Based on Windows porting (2.0.x v4) by Symscape: http://www.symscape.com   |
\*---------------------------------------------------------------------------*/
FoamFile
{
    format      ascii;
    class       volScalarField;
    location    "600";
    object      nut;
}
// * * * * * * * * * * * * * * * * * * * * * * * * * * * * * * * * * * * * * //

dimensions      [0 2 -1 0 0 0 0];

internalField   nonuniform List<scalar> 
10116
(
1.88034893241396e-06
2.01897196711449e-06
2.00776394651715e-06
8.57612444143636e-05
2.15151805368138e-06
2.15517598710411e-06
8.92386532633802e-05
2.1801550503994e-06
8.84431397186392e-05
0.000319392674046622
2.27658572262142e-06
2.29624916134149e-06
9.24099709369853e-05
2.33933105413243e-06
9.19985966736434e-05
0.000328461829203541
2.28120416333199e-06
9.18505938320874e-05
0.000323761494178903
0.000621502465133816
2.39575057978062e-06
2.42938669596184e-06
9.52852489136418e-05
2.4917915433895e-06
9.52469519295626e-05
0.000336727047842262
2.44732447862139e-06
9.55105885604504e-05
0.000332900976840862
0.000636469608786775
2.24276665046638e-06
9.38476518515239e-05
0.000328893265393523
0.000624843860547821
0.00093754344218929
2.51132135638571e-06
2.55741682530319e-06
9.79439102815981e-05
2.63558273724979e-06
9.81852973687794e-05
0.000344273899588492
2.60667499043805e-06
9.88521169091709e-05
0.000341241398639413
0.0006501463934904
2.40634197934079e-06
9.75734702639228e-05
0.000338123870498529
0.000639830766852654
0.000958346919382913
2.10261443323711e-06
9.3179502333945e-05
0.000331364496085087
0.000627761043023102
0.000938603908504211
0.00124207015743281
2.62197968853895e-06
2.68063599367724e-06
0.000100393648121337
2.77395302477717e-06
0.000100873376059778
0.000351216773570919
2.7567072905245e-06
0.000101869578153388
0.000348856159033601
0.000662692319751771
2.56337664214974e-06
0.000100976857860295
0.000346553351840067
0.000653548576379371
0.000977356952369803
2.25665020330838e-06
9.68917598049271e-05
0.000340645364722764
0.000642755868443165
0.000959365480039947
0.00126848720120012
1.9257994026472e-06
9.02972044018176e-05
0.000328996790836646
0.000627192789827266
0.000937417916272975
0.00124063213494935
0.00152434523855008
2.72754449255657e-06
2.79843127610059e-06
0.00010267656239813
2.90689666359405e-06
0.000103384289485972
0.000357595754884107
2.90087524217317e-06
0.000104624084467283
0.000355850811805554
0.000674234948841521
2.71100238560764e-06
0.000104041261824857
0.000354247805865767
0.000666137570731482
0.000994807650665961
2.40463077115786e-06
0.000100283804825789
0.000349122502324688
0.000656501600179314
0.00097836991148663
0.00129259409036608
2.06774791979689e-06
9.39283997084796e-05
0.000338232351386214
0.000642147823496649
0.000958083160522256
0.00126694674346138
0.00155606460675943
1.74110220920264e-06
8.62621654813509e-05
0.000322141370000916
0.000620991144733732
0.00093165411975943
0.00123502017594714
0.00152098409883871
0.00178112710218162
2.82788494973972e-06
2.91073045981276e-06
0.000104799354946921
3.03402570236848e-06
0.000105722359926258
0.00036347743301144
3.03921589866445e-06
0.000107204622239844
0.000362280852088914
0.000684848029318602
2.85242440923388e-06
0.000106840778043819
0.00036131096978552
0.000677719740596105
0.00101085780438191
2.54365896600409e-06
0.000103333823287075
0.000356854536730708
0.000669122125769091
0.000995824551744288
0.00131469747701819
2.20425431125102e-06
9.72474957825889e-05
0.000346666448244311
0.000655864914380844
0.000977032380405961
0.00129099935928806
0.00158495781416248
1.87040310167102e-06
8.97756183605279e-05
0.000331235312882475
0.000635809239809711
0.000952152687956008
0.00126113118387512
0.00155255214960471
0.0018177988379166
1.55013030167218e-06
8.16618243874126e-05
0.000312256854324705
0.000609122394468596
0.000919700192819009
0.00122350794772563
0.00151167025567778
0.00177657302229782
0.00201275957505065
2.92256145005404e-06
3.01745406283738e-06
0.000106765789971051
3.15519907497147e-06
0.000107896715421987
0.000368909538010588
3.17177028800917e-06
0.000109609621544711
0.000368221786071563
0.000694618740016258
2.98840562848167e-06
0.000109456214706842
0.000367811897293693
0.000688366008441924
0.00102560280755737
2.67622566014769e-06
0.000106131231535253
0.000363953511692958
0.00068073394896475
0.00101187899037805
0.00133499505325417
2.33249707867993e-06
0.000100231502131734
0.000354355622197162
0.000668461367843989
0.00099444851471578
0.00131306490248418
0.00161140047725669
1.99482461993443e-06
9.29897751333433e-05
0.000339538323307897
0.00064940246727476
0.000970965305168798
0.00128504054377176
0.00158135148083294
0.00185114027461675
1.66628936117354e-06
8.50397351200439e-05
0.000321140557816314
0.000623695075159608
0.000939924035202173
0.00124931467072405
0.00154294069525453
0.00181305862079687
0.00205402220979079
1.35100988483314e-06
7.65759068978607e-05
0.000300301315488476
0.000592623761023587
0.000901343315308476
0.00120499575711594
0.00149497932215378
0.00176454938395097
0.00200746974083474
0.00222091237980505
3.0110187776488e-06
3.11826190720331e-06
0.000108578003453182
3.27042901663386e-06
0.000109912117336675
0.000373907001233603
3.29835684146063e-06
0.000111846640305668
0.000373712441841338
0.000703609040026188
3.11922750203274e-06
0.000111900435595728
0.000373820004382672
0.000698175855056004
0.00103915604564076
2.80444113093096e-06
0.000108726958755226
0.000370495178858033
0.000691411367450334
0.00102663124955709
0.00135361825643832
2.45483144498979e-06
0.000102990107004784
0.000361423700087732
0.000680051970263711
0.0010104720194535
0.00133333058286021
0.00163563410912906
2.11173994047513e-06
9.58781889155494e-05
0.0003471073938623
0.000661886206435819
0.000988265218834702
0.00130699190694291
0.00160772253311262
0.0018815940093203
1.77814480124393e-06
8.81295639727644e-05
0.000329250848524715
0.000637063802866012
0.000958492598205627
0.00127296921570318
0.00157151899025692
0.00184627862835592
0.002091472708585
1.45333724048604e-06
7.98039369382953e-05
0.000308926893519746
0.000606855955840791
0.000921170489403838
0.00123036919302124
0.00152581613342836
0.00180066185394497
0.00204852089181942
0.00226640396766662
1.14590650616348e-06
7.09329120453079e-05
0.000286514117619336
0.000572256074432543
0.000877067905352693
0.00117923777290316
0.00147006919380556
0.00174357865799085
0.00199343955307236
0.00221506757590167
0.00240752545602608
3.09301693403797e-06
3.21257283654093e-06
0.000110237015906759
3.37936548014707e-06
0.000111770534659098
0.000378484257594798
3.41868412182912e-06
0.000113921308679762
0.000378766860835043
0.00071185578440928
3.244084494883e-06
0.000114175088585919
0.000379374963785774
0.000707206369319703
0.00105159245022296
2.92771192856377e-06
0.000111160505970267
0.00037653755424717
0.000701251023993887
0.00104019456165713
0.00137069713513053
2.57244893595295e-06
0.000105526765167165
0.000367944794159214
0.000690722944047552
0.00102519926170125
0.00135192807313762
0.00165782802551169
2.22334594944433e-06
9.8556488311257e-05
0.000354077302581478
0.000673378762585602
0.00100418556214284
0.00132716057406788
0.00163189487507782
0.00190944442162743
1.88318717011734e-06
9.09058312829931e-05
0.000336642571489718
0.000649342642549564
0.000975574676339458
0.00129470210436324
0.00159770876635865
0.00187663703250154
0.00212561643541044
1.55194323655476e-06
8.27545727944562e-05
0.000316798547345227
0.000619913358195462
0.000939380771442114
0.00125364073341439
0.00155402803121713
0.00183359847852583
0.00208582986551974
0.00230763035980908
1.2338475993962e-06
7.3991391182795e-05
0.000294839793757725
0.000586064832589848
0.00089637831051072
0.0012040354609237
0.00150031239359363
0.00177914324656121
0.002034056089006
0.00226032662825679
0.0024568863616229
9.39942663321622e-07
6.46841835094954e-05
0.000270803711712424
0.000548214352778203
0.000847196893764341
0.00114630726484606
0.00143670056345738
0.00171282451239999
0.00196889604889805
0.0021993854022788
0.00240116735633226
0.0025744623924017
3.16854676725422e-06
3.29999206367646e-06
0.000111746596456755
3.48139193907118e-06
0.000113472403111432
0.00038265448994374
3.53242075185008e-06
0.000115835658392715
0.000383397450915237
0.00071939049844253
3.36259805185305e-06
0.000116285579234348
0.000384493387740087
0.000715492151342558
0.00106297189159631
3.04538450680587e-06
0.000113425281045052
0.00038212451931702
0.000710313447093612
0.00105264256486488
0.00138632957572787
2.68581958946504e-06
0.000107901690171349
0.000373960270224143
0.00070055160368529
0.00103874178329286
0.00136898627397295
0.00167813441516605
2.329985377104e-06
0.000101035767630011
0.000360508620979092
0.000683971896805445
0.00101883039090681
0.00134567267083236
0.00165403651645893
0.00193489999033115
1.98341944693156e-06
9.34835187010906e-05
0.000343455524398593
0.000660652576306338
0.000991300622413851
0.00131467980571714
0.00162172518423499
0.00190440601479647
0.00215677657805608
1.64438908206711e-06
8.54012606813436e-05
0.000323969373855227
0.000631906747635439
0.000956138660564652
0.00127503343945726
0.00157990213611676
0.00186372169410586
0.00211986172264483
0.00234515458967699
1.31857764295062e-06
7.6784064986977e-05
0.000302431313900113
0.000598733965475345
0.000914120192942563
0.00122679022649156
0.00152800056075558
0.00181161482659075
0.002071030782532
0.00230139489031918
0.00250156348286252
1.01319601513554e-06
6.75512497776473e-05
0.000278782848087528
0.000561519745342526
0.0008658729640726
0.00117038166840604
0.00146617787683218
0.00174764217262253
0.00200886344786059
0.00224415631313071
0.00245027620927914
0.00262733611975611
7.39808023341978e-07
5.78274945904637e-05
0.000252994854196895
0.000520329613740713
0.000811658981704809
0.00110610381762668
0.00139473352811624
0.00167205514580667
0.00193284862499451
0.00217170479679909
0.00238398501948406
0.00256759416664421
0.00272345106866267
3.23761862899164e-06
3.38040893394421e-06
0.000113111405380167
3.57600229881396e-06
0.000115020425052725
0.00038643165769736
3.63907018662684e-06
0.000117590457976007
0.000387616494788378
0.000726240186721895
3.47462188906812e-06
0.000118234273380371
0.000389185533508786
0.000723063814418801
0.00107334504208771
3.15709583438223e-06
0.000115526698967016
0.000387277728235732
0.00071863300807271
0.00106403399391107
0.00140059724811998
2.79439027661963e-06
0.000110116156284628
0.000379518675487114
0.000709606805758413
0.00105117501780198
0.00138460118535011
0.00169667622205918
2.43284719706294e-06
0.000103324133094566
0.000366444259613804
0.000693722935156084
0.00103229516298918
0.00136265661381846
0.00167429762414966
0.00195813940800829
2.07918117833632e-06
9.58848910433459e-05
0.000349752055538058
0.000671084356876159
0.00100577929847208
0.00133302368786301
0.00164372898822232
0.00192979123966068
0.00218520273813325
1.73253769651738e-06
8.78583595913625e-05
0.000330579982118052
0.000642956880694635
0.000971572388919463
0.00129470505886856
0.00160364205799013
0.00189128786276977
0.00215092588324966
0.00237933704337889
1.39781091155081e-06
7.92814167234884e-05
0.000309339500583165
0.000610369676742078
0.000930451671556695
0.00124771796459659
0.00155341080724346
0.00184133624643958
0.00210478255641418
0.00233879290673985
0.00254216993433774
1.0837367019913e-06
7.016340951384e-05
0.000286049496806014
0.0005737251746072
0.00088303857272991
0.00119248448318765
0.00149318095882158
0.00177945540332133
0.00204528541598478
0.00228484611582575
0.00249477973144222
0.00267514646210628
7.9851837112764e-07
6.04778606228378e-05
0.000260577092283831
0.000533046667749552
0.000829580231868674
0.00112930284250645
0.00142326511668373
0.00170591584092377
0.00197192458768799
0.0022157343030732
0.00243255645949904
0.00262019728465041
0.00277948714711843
5.52371336106377e-07
5.03978721629042e-05
0.000232885034779167
0.000488214552892012
0.00077004350828162
0.00105821235485329
0.00134377475108966
0.00162106978732372
0.00188505932928849
0.00213080854934438
0.00235343277164518
0.00254899070011001
0.00271608084411951
0.00285609084062842
3.29998642712096e-06
3.4541721624012e-06
0.000114334807199377
3.66306104058284e-06
0.000116419475842098
0.000389830187882107
3.73813778373543e-06
0.000119187158514495
0.000391437415005277
0.000732430046378479
3.57989538140405e-06
0.00012002272842808
0.000393463020202815
0.000729947847492197
0.00108275471135363
3.26275798576953e-06
0.000117469009504295
0.000392005846678652
0.000726238587963927
0.00107441896807819
0.00141356982270523
2.89754558744834e-06
0.000112171165257672
0.000384647913055728
0.000717925413238534
0.00106255632815045
0.00139885395523208
0.00171355684991791
2.53157869414534e-06
0.000105466233189934
0.000371917005392507
0.000702705285589589
0.00104466213311615
0.00137820729350836
0.00169279937367201
0.00197931042200764
2.17065241372e-06
9.80937342999963e-05
0.000355567491141603
0.000680693667243961
0.00101908907683131
0.00134985722547391
0.00166386893215635
0.00195296869982937
0.00221110105356444
1.81682266593199e-06
9.01517013640852e-05
0.00033669683768072
0.000653154217779141
0.000985792521249269
0.00131278506348272
0.00162540019332741
0.00191649387370285
0.00217926897664404
0.0024104650250738
1.47330122525009e-06
8.15992790505249e-05
0.000315704076977514
0.000621090242435762
0.000945496485710938
0.00126697047723556
0.00157673602211754
0.00186855040386555
0.00213560687753977
0.00237286797195664
0.00257910444803538
1.14949611187117e-06
7.24897736601282e-05
0.000292650504668987
0.000584931329594978
0.000898843531946485
0.00121282214271442
0.00151797695913531
0.00180859473866896
0.00207855838822586
0.0023219267474359
0.00253524701609122
0.00271854930847414
8.54971198083832e-07
6.28849428816853e-05
0.000267466643823402
0.000544707745929229
0.000846058433459029
0.0011506149402964
0.00144941873763073
0.00173687491472215
0.00200756112784609
0.00225579118656835
0.00247664060313102
0.00266781902386221
0.00283012158281883
5.97205542296992e-07
5.28047882547321e-05
0.000240012307952975
0.000500249207988261
0.000787081409773614
0.00108037605240861
0.00137117273149552
0.00165375666610164
0.00192299168393209
0.00217381050909485
0.0024011770499213
0.0026010101791847
0.00277182877386969
0.00291494899042454
3.83797593482945e-07
4.24121679688945e-05
0.000210205192309514
0.000451276511355866
0.000721632909620888
0.0010019013766695
0.0012831079900032
0.00155932178074692
0.00182534443730143
0.00207643560915368
0.00230805368855385
0.00251576294772458
0.00269612907813493
0.0028482410669219
0.00297385350946795
3.35402511023994e-06
3.52075055328926e-06
0.0001154180876102
3.7425114835216e-06
0.000117673263049846
0.000392862139990964
3.82947836031349e-06
0.000120629837450421
0.000394874468722872
0.00073798388832664
3.6779625192223e-06
0.000121652218752802
0.000397338005261637
0.000736168818026668
0.00109123806595844
3.3621739609321e-06
0.000119254327901961
0.00039631995256779
0.000733155854213093
0.00108383997537458
0.00142530615025028
2.99518023002721e-06
0.000114072354569566
0.000389361353640591
0.000725534841362527
0.00107293438748021
0.00141181362198278
0.00172886376389023
2.62574145465343e-06
0.000107455177576501
0.000376965923263987
0.000710963114656244
0.001055987744823
0.00139240408185854
0.00170964433510057
0.00199853715939664
2.25915381922538e-06
0.000100143807403174
0.000360916379268247
0.000689535994261807
0.00103131742134783
0.00136527573434669
0.00168226343078988
0.00197408451031079
0.0022346430279037
1.89731007623128e-06
9.22879006324136e-05
0.000342348798322484
0.000662561516439311
0.000998866129556557
0.00132937635027363
0.00164532187216656
0.00193951284061506
0.00220509368037662
0.0024387714420687
1.54554907918712e-06
8.37654178394355e-05
0.000321596327163678
0.000630985992000174
0.000959360374343092
0.00128467707274084
0.0015981296079428
0.0018934433157671
0.00216373747643919
0.00240390212142328
0.0026126843787644
1.21208508808413e-06
7.46469164977388e-05
0.000298726587743926
0.000595253062300036
0.0009134058589313
0.00123153894938119
0.00154074939019515
0.00183529185877326
0.00210896369576143
0.002355727466407
0.00257206275464886
0.00275797717560502
9.07339582012126e-07
6.50186583985852e-05
0.000273710776025074
0.000555407804900512
0.0008612334087072
0.0011702345847201
0.00147344900091979
0.00176525009152338
0.00204013998788857
0.00229232170303864
0.00251675556154925
0.0027110699809381
0.00287604532269844
6.41134375518307e-07
5.49737679720166e-05
0.000246465690467538
0.000511276768839928
0.000802753022200954
0.001100751219471
0.00139630613244762
0.00168366394622546
0.0019576089173099
0.00221296198355561
0.00244455371756595
0.00264817376818406
0.00282226021378796
0.00296810939686826
4.17121991415473e-07
4.45308876028113e-05
0.000216810945629448
0.000462523079668883
0.000737645915819303
0.00102285835391723
0.00130917382468274
0.00159060967670196
0.00186187668078663
0.00211811480614679
0.00235464257004472
0.0025668752668532
0.002751250260387
0.00290679484301773
0.00303520816904305
2.37499149868292e-07
3.36674533372351e-05
0.000184474902725643
0.000408618732666013
0.000665349776348316
0.000936092556084208
0.00121170544180437
0.00148588672717883
0.00175310085999794
0.00200844704881168
0.00224755276894199
0.00246623259316502
0.00266040974045273
0.00282702831884641
0.00296555787182224
0.00307807503501673
3.39484857506701e-06
3.57873285241877e-06
0.000116361344897812
3.81464168173343e-06
0.000118783304079966
0.000395536925903815
3.91252589129438e-06
0.000121921758804937
0.000397939917316862
0.000742922719440329
3.76858788486248e-06
0.000123124738726792
0.000400823409781881
0.0007417500689916
0.001098827984638
3.45502289119286e-06
0.000120884001557123
0.000400230850605672
0.000739408186752117
0.00109233379829132
0.00143585569613153
3.08708467791732e-06
0.000115822703856792
0.000393667062747892
0.000732459549553393
0.00108235084960704
0.00142353854407784
0.00174267043915584
2.71495151164999e-06
0.00010929611504628
0.000381611739700524
0.000718523592800494
0.00106631882941179
0.00140531464146395
0.0017249194168936
0.00201592422299993
2.34372364114849e-06
0.000102056033231278
0.000365846484550349
0.000697667694891681
0.00104252218379102
0.00137935617542309
0.00169901301198669
0.00199326193476004
0.00225597253247092
1.97445396264916e-06
9.42370096189637e-05
0.000347560475014684
0.000671208047833581
0.00101087751688417
0.00134457900456429
0.00166352242005942
0.00196048750948867
0.00222856994326375
0.0024644504087149
1.61462324649773e-06
8.57899233690069e-05
0.000327054995082222
0.000640120261415053
0.000972125761743544
0.00130092905811405
0.0016177218293489
0.00191618403291559
0.00218937346632594
0.00243212526159242
0.0026431682437421
1.27197758894746e-06
7.6665603063318e-05
0.000304351479038778
0.000604781211840697
0.000926828326786916
0.00124875785290133
0.00156165073321822
0.00185972362606502
0.00213672183957832
0.00238651956958592
0.00260553860032169
0.00279377395155581
9.57155828275087e-07
6.69948722130626e-05
0.000279452299464549
0.000565258716732407
0.000875216414848509
0.00118829732801711
0.00149552946162372
0.00179125987352449
0.0020699296482412
0.00232564260383859
0.00255326521711385
0.00275036789249718
0.00291771939515108
6.80685038806046e-07
5.68886717806677e-05
0.000252298171276958
0.000521386105406685
0.000817186930163159
0.00111951804605381
0.00141941391874149
0.00171109362155509
0.00198927757131985
0.00224869222700728
0.00248405408261448
0.00269103877695731
0.00286801974424968
0.0030162891243466
4.48499153652801e-07
4.6382011799357e-05
0.000222754405614207
0.000472814128664356
0.000752379576645941
0.00104213946349343
0.00133310642738938
0.00161926120253555
0.00189524149468678
0.00215608831328238
0.00239700077687571
0.00261326143365229
0.00280118702072587
0.00295973878779167
0.00309060911752684
2.58982043166604e-07
3.53744732801046e-05
0.00019045783725667
0.000418953847073906
0.000680178871690075
0.000955656625211462
0.00123622766401145
0.00151553944627754
0.00178797007058934
0.00204850708822759
0.00229264947916391
0.00251607045920422
0.0027145498112311
0.00288491578734138
0.00302659348836764
0.0031416198984931
1.18300478551751e-07
2.39277661183139e-05
0.00015468221469836
0.000358816537518675
0.000599624141351072
0.000859281676507734
0.00112819322454084
0.00139952204060386
0.00166728708181042
0.00192623811009222
0.00217184188466147
0.00240006967350887
0.00260705267220257
0.00278900974575943
0.0029431855040229
0.00306937335408932
0.00316994725253323
3.43202389305541e-06
3.62017405821593e-06
0.000117161637717948
3.87725222325594e-06
0.000119750567095853
0.000397864141794889
3.98804478444826e-06
0.000123065057018235
0.000400643602541368
0.000747265350958389
3.85126283718503e-06
0.000124442310141673
0.000403930710779686
0.000746712465506349
0.00110555345420242
3.54118456166727e-06
0.000122358719676355
0.000403749275793319
0.00074501756705562
0.00109993293843356
0.00144526127639864
3.17304854472861e-06
0.000117423673764179
0.000397574594988848
0.000738721519669911
0.00109084165875079
0.00143407814916315
0.00175503928590247
2.79899351494745e-06
0.000110993266490043
0.000385863310822075
0.000725409161829709
0.00107569576335917
0.00141699641820488
0.0017386979348856
0.00203155991994157
2.42403319084181e-06
0.000103826820727709
0.000370384813124559
0.000705120093858404
0.00105274854401289
0.00139216408451143
0.00171420319292143
0.00201060504068179
0.00227521097325376
2.04860265114699e-06
9.60577786821771e-05
0.000352348591949054
0.000679156856639753
0.00102188960533929
0.0013584679584782
0.00168009923197388
0.00197953891514586
0.00224984079965921
0.00248766460100366
1.68037679901407e-06
8.76570690346692e-05
0.000332090002847433
0.000648533173153356
0.000983847031725813
0.00131582564663117
0.00163562801790198
0.00193691049995552
0.002212681350525
0.00245772988296632
0.00267077117378926
1.32930725107191e-06
7.85579661879747e-05
0.000309568510558425
0.000613582624021801
0.000939196960258037
0.00126457830112487
0.00158079700958213
0.00188205175823251
0.00216202633914719
0.00241452748901716
0.0026359300715745
0.00282622094577342
1.00480918349143e-06
6.88427748505358e-05
0.000284765784657044
0.000574350692986306
0.000888106117945896
0.00120492006221108
0.00151580659454784
0.00181508208119147
0.00209713831794897
0.00235600790116341
0.00258647116401663
0.00278605053281702
0.00295551066801142
7.18350545940907e-07
5.86625303183478e-05
0.000257653438216068
0.000530687237458735
0.000830487278835263
0.00113680203589861
0.00144065765409262
0.00173625149440264
0.00201825179119469
0.00228130433238353
0.00252002466025469
0.00273000079104196
0.0029095530159848
0.00305997396009888
4.76283454044496e-07
4.80543258281542e-05
0.000228107197966024
0.000482236911821945
0.000765949904642761
0.00105990839633542
0.0013551261601646
0.00164555895006299
0.00192578652581116
0.00219076801160075
0.0024356000552858
0.00265545079744923
0.00284652875899472
0.00300774279100394
0.00314079345537767
2.78874994878737e-07
3.69259645990478e-05
0.000195784249543853
0.000428385977984715
0.000693826906326069
0.000973672410739605
0.00125876664950655
0.0015427211925686
0.00181984501853143
0.00208503396987146
0.00233367938584853
0.00256133268917124
0.00276364404154691
0.00293733092718163
0.00308176571792243
0.00319899202094042
1.29836891395334e-07
2.52598316990729e-05
0.000159880518365667
0.000368082519937653
0.000613088587733694
0.000877247903252683
0.00115094564942967
0.00142729121690376
0.00170022094899971
0.00196437923662945
0.0022151117284884
0.00244825759642997
0.00265980885138521
0.00284584875075773
0.00300351930367464
0.00313258611726135
0.00323539896620727
4.00019340837617e-08
1.36426517259765e-05
0.000119154120707544
0.000299600914201387
0.000522195669421735
0.000769431683490572
0.00103078842775653
0.00129866734946718
0.00156653846672942
0.00182871921264539
0.00208034353934876
0.00231723721496086
0.00253569960614652
0.0027321530529866
0.0029030696748274
0.00304595053447453
0.00316088179079854
0.00325051421081281
3.65795989481904e-06
0.000117844713390551
3.92108108984336e-06
0.00012056778468528
0.000399856786542554
4.05329405670018e-06
0.000124061106801166
0.000402995977893969
0.000751031305988471
3.92566522367402e-06
0.000125607184583705
0.000406670049161911
0.000751074985049099
0.00111144093357647
3.62004578267961e-06
0.000123677808055314
0.000406884813095261
0.000750004001080767
0.00110666614775751
0.00145355953871744
3.25305213438062e-06
0.000118875870589782
0.000401092432190433
0.000744340591620668
0.00109843838077749
0.00144347485860957
0.00176602272832501
2.87762740909614e-06
0.000112548529113984
0.000389727269552232
0.000731640296375737
0.00108415325899723
0.00142749818009176
0.0017510418091701
0.00204551797776961
2.4997720181666e-06
0.000105460208951139
0.000374545766231179
0.000711914585681605
0.00106203496668023
0.00140375544150237
0.00172790635990236
0.00202620149874991
0.00229245944791463
2.11933776311336e-06
9.77492548217977e-05
0.000356752017536162
0.000686447911316092
0.00103194673793862
0.00137110618838945
0.00169513551521275
0.00199676960072829
0.00226902672596692
0.00250855021036407
1.74382367570686e-06
8.93657541656278e-05
0.000336724487548969
0.000656253534106087
0.000994595792299573
0.0013294414424926
0.00165194200422527
0.00195574012132863
0.00223380180231237
0.00248087765966375
0.0026956732227788
1.38396390466816e-06
8.03207926543688e-05
0.000314393810307663
0.000621705018471506
0.000950559418792794
0.00127907796691039
0.00159830299001334
0.00190240919331053
0.00218503815050632
0.00243994001975985
0.00266345059920263
0.00285555190486245
1.05043661076309e-06
7.05792113911281e-05
0.000289696847954407
0.00058275103083675
0.00089998529937666
0.00122020433614905
0.00153439061226652
0.00183685928258928
0.00212195201035696
0.0023836355237148
0.00261662265755455
0.00281839615422989
0.00298972000090367
7.54435333087246e-07
6.03192332780552e-05
0.000262606624656769
0.000539269056314486
0.000842748085697188
0.00115271240780962
0.00146017301294444
0.00175930818478359
0.00204473379516832
0.00231103724510481
0.00255275236918107
0.0027653869893128
0.00294722045589424
0.00309954947427338
5.02667899188199e-07
4.96021299621758e-05
0.000233018949605747
0.000490898931971642
0.000778453783385051
0.0010762795188056
0.00137538112928495
0.00166969375190169
0.00195375009399895
0.00222244204212497
0.00247077431155036
0.00269381848248501
0.00288769801421628
0.00305127652162839
0.00318626610518594
2.96150323997928e-07
3.83379778661189e-05
0.000200582159664158
0.000437009429483027
0.000706395866735245
0.000990284851226295
0.00127952117171833
0.00156769150607365
0.00184905022380255
0.0021184177065014
0.00237109473266898
0.00260252776053526
0.00280825273980038
0.0029848879070198
0.00313176373441381
0.0032509443587005
1.40231256466395e-07
2.6479309926069e-05
0.000164509419272286
0.000376504525831438
0.000625479618369062
0.000893809269607948
0.00117188399035252
0.00145277751215577
0.00173036004988386
0.00199918947279826
0.00225451065416034
0.00249205108509283
0.00270768181003992
0.00289736153351685
0.00305813237418532
0.00318971859410333
0.00329449225469778
4.42260477048625e-08
1.45624682959306e-05
0.000123448279335046
0.000307591759191982
0.000534082419328464
0.000785572683432906
0.00105152889612596
0.00132429245829077
0.00159725520699682
0.00186463528500544
0.00212145200389712
0.0023634049071135
0.00258666119677007
0.00278750903745646
0.0029622946660685
0.00310843002162687
0.00322598988153592
0.00331761620147314
7.13014348382632e-09
4.71207233576435e-06
7.57850817572575e-05
0.000227934213109525
0.000430064886359899
0.000663918263876408
0.000917269672878283
0.00118142824145842
0.00144921821600706
0.00171448207005523
0.00197196675089367
0.00221720049660004
0.00244636540406798
0.00265608159318231
0.00284304165541722
0.00300394358198455
0.00313651994374531
0.00324112804498786
0.00332067487315632
3.96061333180047e-06
0.000121263084929751
0.000401546980717308
4.09828915572762e-06
0.000124901005991891
0.000405009314764439
0.000754244609729888
3.99044098996945e-06
0.000126621290693542
0.00040905288703974
0.000754857643939782
0.00111651652231436
3.69080899061096e-06
0.000124842266786735
0.000409647066278714
0.000754386436672892
0.00111255983102683
0.0014607836107147
3.32658765546264e-06
0.000120176272643893
0.000404227213933341
0.00074933487885074
0.00110516907486105
0.00145176533913709
0.00177566587754522
2.95079720033923e-06
0.000113962707026737
0.000393210170778172
0.000737234528812427
0.00109172133774582
0.00143686164844692
0.0017620033513218
0.00205786022837855
2.57064676346837e-06
0.000106959307708336
0.000378334735031009
0.000718069309721763
0.00107041456381351
0.00141417781524992
0.00174018365484199
0.00204012486159383
0.00230780319493505
2.18619036807143e-06
9.93098008963727e-05
0.000360791925984478
0.000693102852865795
0.00104108532436031
0.00138254761695223
0.00170870199978562
0.00201226609569655
0.00228622872404777
0.0025272220143789
1.80412395490023e-06
9.09632012917623e-05
0.000340971762170768
0.00066333398422609
0.00100441907060072
0.00134183675917432
0.00166674382729133
0.00197277283637539
0.0022528535469134
0.00250170429901256
0.00271802510820884
1.43643852461074e-06
8.19215752593184e-05
0.000318844122950696
0.000629155793634991
0.000960976129430258
0.00129233690358915
0.00161425862117805
0.00192090859515761
0.00220589393348199
0.002462916301341
0.00268827916664398
0.00288196312009542
1.09412340622796e-06
7.22030543650606e-05
0.000294266866938153
0.000590506121211259
0.000910918747459406
0.00123421511408253
0.00155138775280278
0.00185672227481848
0.00214452467583075
0.00240870835733549
0.00264392913705277
0.00284763697898844
0.00302059795037192
7.89107695468559e-07
6.18741904449769e-05
0.000267203666121487
0.000547198128014059
0.000854048914821541
0.00116734437449495