/*--------------------------------*- C++ -*----------------------------------*\
  =========                 |
  \\      /  F ield         | OpenFOAM: The Open Source CFD Toolbox
   \\    /   O peration     | Website:  https://openfoam.org
    \\  /    A nd           | Version:  12
     \\/     M anipulation  |
\*---------------------------------------------------------------------------*/
/*   Windows 32 and 64 bit porting by blueCAPE: http://www.bluecape.com.pt   *\
|  Based on Windows porting (2.0.x v4) by Symscape: http://www.symscape.com   |
\*---------------------------------------------------------------------------*/
FoamFile
{
    format      ascii;
    class       volScalarField;
    location    "600";
    object      omega;
}
// * * * * * * * * * * * * * * * * * * * * * * * * * * * * * * * * * * * * * //

dimensions      [0 0 -1 0 0 0 0];

internalField   nonuniform List<scalar> 
10116
(
2.46684080289412
2.46683937620765
2.38167915593664
0.524866458852914
2.46684296055528
2.38166561584907
0.527702476857001
2.28699598870675
0.510968630966965
0.258236969712821
2.46683873864376
2.38168115142711
0.530497249289937
2.28698408871966
0.51376360907913
0.26069489869477
2.21611155685982
0.494560039541549
0.254685610927419
0.178449179429156
2.46684018393712
2.3816768863936
0.533308240952218
2.28699529407819
0.516532659933875
0.262993116634642
2.21610866980698
0.497260027923544
0.257101557975185
0.180449152300568
2.18722004162014
0.481674131131487
0.249706674304287
0.177284570938577
0.143506366413622
2.46684036137273
2.38167831457462
0.535932473721486
2.28700715071431
0.519348005438124
0.265166388133963
2.21610777623832
0.499975740864943
0.259378234580347
0.182301464230095
2.18721680669061
0.484272942000169
0.252062881457053
0.179256721735323
0.145196032535151
2.18619056140802
0.474561611061683
0.245055698352254
0.175353366769955
0.143083487707346
0.125039163163009
2.46684027355081
2.38167882394126
0.538491890633629
2.28699488805213
0.522098644165932
0.26719415504287
2.21611981621152
0.502760729197096
0.261537607701706
0.18402885837193
2.18721638577025
0.486900607928258
0.254300502773154
0.181095095548801
0.146763711731317
2.18618866139388
0.477070310699839
0.247347774398609
0.177288564953312
0.14475335798699
0.126518808047425
2.19192356688865
0.471156128815209
0.241559559746232
0.173180632665615
0.142216582661833
0.124882105639502
0.114215183103229
2.46683995439073
2.38167884349941
0.54084834685898
2.28699535625915
0.524638628881667
0.269096329774483
2.21610859319903
0.505500071479301
0.263561475231148
0.185634677628955
2.18721731502461
0.489634394834417
0.25643130710208
0.182812894411563
0.14822400658962
2.18619094853945
0.479618445688452
0.249535276440535
0.179102366566674
0.146312383732342
0.127898204126252
2.19192438861071
0.4735812366905
0.24379255710699
0.17507693828237
0.14386143435813
0.126346050370411
0.115545615972321
2.19484406644401
0.468375572400018
0.238879584751552
0.171124843164807
0.141053308285567
0.124438201942396
0.114148496059241
0.107478036869386
2.46683978504417
2.38167839094607
0.543007069398388
2.28699536226502
0.526970761786821
0.270855439961274
2.21610912826935
0.508000266978302
0.265456617943891
0.187126776575134
2.18721854171178
0.492315858792869
0.258433513538188
0.184411481025533
0.149581377692866
2.18619249795843
0.48229158099719
0.251628526060068
0.180801860221917
0.147767272826326
0.12918709245507
2.19192763990854
0.476057051726337
0.245931518756823
0.176860494904118
0.145404757188972
0.127719683457521
0.116792992662575
2.19484900882524
0.470715683013687
0.241059048913876
0.172984913810643
0.142673200379742
0.125883608547376
0.115465295355995
0.108697224245661
2.19511644958611
0.464651021194389
0.236285315182588
0.169193882251393
0.139745925770653
0.123738014126651
0.113875602040883
0.107438267369405
0.10314620514395
2.46683990677036
2.38167804636786
0.54498095097875
2.28699488697729
0.529104525461121
0.27246459672963
2.21610902010285
0.510290349704001
0.267201238064711
0.18850228165988
2.18721893297476
0.494776302454774
0.260304462883853
0.185897661862213
0.150841228772187
2.18619332334242
0.48487812112239
0.253597262963299
0.182385653027483
0.14912078426141
0.130388384593012
2.19192922591298
0.478666782362731
0.247985486047127
0.178536208611032
0.14684843622533
0.129005513160427
0.11796388769605
2.19485127197041
0.473116020854371
0.243152873110595
0.174737953039035
0.144197333789293
0.127246603825787
0.11670833838272
0.109847222873684
2.19512173051142
0.466895612479234
0.23841231187108
0.171020954439585
0.141343266241679
0.12516638347816
0.115177395957621
0.108644868895481
0.104279216275541
2.19479106206845
0.459816488834841
0.233320919252142
0.167217501065199
0.138362587289231
0.122852376185368
0.113399071205677
0.107236073195331
0.10311555723744
0.100334432461597
2.46684022002074
2.38167802958593
0.546774985107046
2.28699449508457
0.531054019775406
0.273932280504599
2.21610859564203
0.512383562896296
0.268795140334246
0.189761994739196
2.18721863028617
0.497020867935182
0.262026425177343
0.187266023203911
0.15200306818935
2.18619296407863
0.487303216060986
0.255433348199195
0.183858383410021
0.150377088115256
0.131504833799954
2.19192935559213
0.48111939190319
0.249914886978092
0.180100132536005
0.148193056977461
0.130204803416287
0.119059397211766
2.19485490421041
0.475664875708389
0.245167818438097
0.176388281997944
0.145626024325177
0.128525412388339
0.117877321852914
0.110932224700755
2.19512424883346
0.469218942114584
0.240461096524662
0.172745083949122
0.142847970412322
0.126516709241286
0.116412616414889
0.109791218359849
0.105354437294087
2.1947964491521
0.461943831586346
0.235392257028976
0.169013216864948
0.139940001559556
0.124266669675964
0.114688515428169
0.108429675357565
0.104236576834338
0.101398829610122
2.19479622405428
0.454052843830567
0.229859207945091
0.165061492380109
0.136900510179183
0.121852912460027
0.112764592511309
0.106877623802962
0.102949107561207
0.100310407520274
0.0985358427148542
2.46684052630004
2.38167823826378
0.54839198841472
2.28699438130914
0.532826685607168
0.275264419631932
2.21610826886637
0.51429400954191
0.270247640005163
0.190910201101487
2.18721838558272
0.499072038727564
0.263598776298863
0.188518478791972
0.153068940264816
2.18619245882425
0.489508091184117
0.257127314146717
0.185214666770646
0.151535482162824
0.132536814168652
2.19193017652708
0.483500421182506
0.251710252616349
0.181553112345215
0.149441754091153
0.13131953414593
0.120080343505228
2.19485246846861
0.478036507922428
0.247055504393414
0.177929462476505
0.146958393679338
0.129719376607388
0.118971758316429
0.111951739516945
2.19512998790003
0.471706493875193
0.242437295347433
0.174370286398175
0.144260353582788
0.127785929600805
0.117576930482551
0.110874862124414
0.10637416379716
2.19479898194182
0.464179398146788
0.237394465087688
0.170709426207645
0.141426562205197
0.125604728186376
0.11591502721377
0.10956980851037
0.105308533032779
0.102414918282828
2.19480165421141
0.456047858706002
0.231868603720606
0.166825919497177
0.138460108667623
0.123256079263735
0.114045512950331
0.10806183565207
0.1040583926929
0.10136321179591
0.0995446279969872
2.19511835084351
0.447408661330591
0.225907489888737
0.162681886616006
0.135347760093954
0.120788869988245
0.112039436257868
0.106406308744644
0.102664975283481
0.100169569407442
0.0985192453856195
0.0974378563558809
2.46684067564232
2.38167846466504
0.549836283465904
2.28699446389101
0.534427148077
0.276465897369197
2.21610812657094
0.516031702057973
0.271565756433082
0.191950682075804
2.18721828147891
0.500941838801782
0.265029743067905
0.189659718268462
0.154041263008889
2.1861925995857
0.491524506598037
0.258674791992372
0.186455527959515
0.152598054476429
0.13348559808634
2.19192560145426
0.485678095639616
0.253374579828801
0.182893304988626
0.150593384662847
0.132349923853083
0.121026717624698
2.1948527181049
0.480279438576235
0.248812161412858
0.179359711371853
0.148195709559846
0.130829776382815
0.11999187568572
0.112905039652317
2.19512531012005
0.474010803687023
0.244286976339174
0.17588835204465
0.145578633431403
0.128972120230735
0.118668074078268
0.111893744763251
0.107336578924475
2.19480477306468
0.466607101183201
0.239331239174955
0.172310018688864
0.142822944230637
0.126863702780441
0.117073119097762
0.110650137445818
0.106327201541982
0.103383465618383
2.19480411277543
0.458187212452512
0.233821006528592
0.168494461174278
0.139930045650604
0.124583537014856
0.115264571889473
0.109195801172288
0.105125159109211
0.102376304122117
0.100512995301852
2.19512371954644
0.449251710051486
0.227847776424903
0.164414291266158
0.1368912584402
0.12218368332374
0.113315520188495
0.1075858720234
0.103766915709647
0.101211541569966
0.0995167344510795
0.0984011269589587
2.1948478584119
0.439738637986329
0.221489392873929
0.160099977130526
0.133720545079205
0.119699198642599
0.111287088128969
0.105886755700312
0.102312066885292
0.0999417812187294
0.0984012850770486
0.0974292961093873
0.09683472137226
2.46684064221503
2.38167856149577
0.551112192192725
2.28699458411622
0.535858565768754
0.277539620175338
2.21610811195761
0.517601037662868
0.272754823350206
0.192886898242994
2.18721813548526
0.50264219517384
0.266327458124961
0.190693690948611
0.154922365320888
2.18619290281801
0.493361659797517
0.260081326915411
0.187585539477733
0.153567282648101
0.134352578575231
2.19192819025174
0.487664688306655
0.254898248481462
0.184119493856088
0.151649578304438
0.133297251253137
0.121898937086139
2.19484585270533
0.482430373259326
0.250441914369458
0.180681729856354
0.149337800193986
0.131856320238304
0.120937533263439
0.113791354300912
2.1951233359375
0.476129153166516
0.246003105890237
0.177296332180608
0.146802543841749
0.130075920483506
0.119685639465296
0.112846634291014
0.108239632227428
2.19480015470226
0.468859826225296
0.241144930043439
0.173805787380999
0.144126905816112
0.128041307947666
0.118159432074498
0.111666900179202
0.107289240440843
0.104301459118806
2.19480992350875
0.46055402642529
0.235717789608768
0.170070778813894
0.14131139118218
0.125832988256495
0.116416556536857
0.110272104400828
0.106141405797513
0.103344023130276
0.101440510817567
2.19512596666166
0.451288773095414
0.229747682738723
0.166055096269991
0.138346052120955
0.123502678728936
0.114529491142021
0.108715800259693
0.104829300213196
0.102220190215795
0.10048232621691
0.0993304944643216
2.19485291589123
0.441411741957978
0.223352815495395
0.161799455367252
0.135249686986053
0.121088496664283
0.11256191151588
0.107066218943541
0.103412250194597
0.100977953533646
0.0993886424442924
0.0983814942147744
0.0977606045834927
2.19192765331609
0.43066079644334
0.216619934909118
0.1573837569353
0.132077720564785
0.118637810836796
0.11056805543884
0.105385343458845
0.101955029974818
0.0996831766375405
0.0982212913483857
0.0973327912872902
0.0968341126512215
0.0965836485358595
2.46684050039522
2.38167850858917
0.552224722841941
2.28699462096519
0.537124055345433
0.278487118435649
2.21610814042867
0.519005571714389
0.273818061225828
0.19372144877201
2.18721799056135
0.50417818361629
0.267497376872212
0.191623937572064
0.155714524238776
2.18619273279667
0.495029589057448
0.261355783601472
0.188608916491369
0.15444551820589
0.135139189324918
2.19193103762335
0.489475262241911
0.256282919305286
0.185235471169758
0.152612799284216
0.134162887490884
0.122697627364785
2.1948509122686
0.484385977725238
0.251942534660048
0.181892444977882
0.150385177131014
0.132800099886786
0.121809120358683
0.114610339125535
2.19511801965706
0.478186817342444
0.247592615132448
0.178598002336563
0.147933483007875
0.131096719299874
0.120629071283697
0.113732638849042
0.109081759262609
2.19479808419679
0.470912742465629
0.24282378334202
0.175192742624781
0.145337122362421
0.129136962467109
0.119173077330808
0.112618254378091
0.10819212149729
0.105165811744749
2.19480540488336
0.462755853926619
0.237497828191558
0.171545083238404
0.142601854330079
0.127002099379121
0.117497816227551
0.111285968974932
0.107102073288743
0.104261821660075
0.102323076113677
2.19513163075226
0.45359818488418
0.231604126764452
0.167607621844181
0.139713577559545
0.124744117403919
0.115676755014377
0.109788975889363
0.105843094142324
0.103186112652561
0.101409201443503
0.100224590488725
2.19485255486382
0.443340974775014
0.225197581374777
0.163412835923826
0.136691016572134
0.122401453889181
0.113773653327611
0.108195265624068
0.104473179436917
0.101983590411028
0.100350393185057
0.0993082763208165
0.0986578927083945
2.19193032253663
0.432140557570766
0.218398895963983
0.159049669519139
0.133594752088407
0.120024851062287
0.111845423612835
0.106569126411659
0.103058842340418
0.100719875091828
0.0992040845994822
0.0982754181331496
0.0977490868905653
0.0974788372202985
2.18619316583205
0.419683449090623
0.211331080490528
0.15466205092741
0.130535289544455
0.117696575526873
0.109959179668635
0.104972129704028
0.101660861289627
0.0994601705818262
0.0980421473644888
0.0971950393160492
0.0967574140318266
0.096590449222139
0.0965815511723067
2.46684034403216
2.38167837977611
0.553179612846869
2.28699455104593
0.53822789174713
0.279310272645573
2.21610812019581
0.520247941383929
0.274756963032687
0.194456186083029
2.18721795804653
0.505553535354016
0.268543335471575
0.192453219826998
0.156419786699878
2.18619237837851
0.496536973763952
0.26250367916699
0.189529263789774
0.155235047112737
0.135846933435356
2.19192892420189
0.491117193922058
0.257535198036531
0.186245576615902
0.153485456362736
0.134948267933766
0.123423597249794
2.19485649617563
0.486169691572815
0.253308058557016
0.182993828452317
0.151340138742355
0.133662460995836
0.122607243096424
0.115361993208326
2.19512317259869
0.480117489577569
0.249067454738123
0.179793066260723
0.148970863846499
0.132035219017932
0.121498651262868
0.114551368996984
0.109861942503109
2.1947923848653
0.472799793218728
0.244376484719095
0.176472548994147
0.146456208426854
0.130150933225341
0.120113083999671
0.113502975478056
0.109034165279195
0.105974220776064
2.19480323613488
0.464756453646052
0.239144328799688
0.172912333670992
0.143799883177401
0.12808970596465
0.118506878058801
0.112235117122947
0.108004086821232
0.105126186787431
0.103156820603218
2.19512717403219
0.455748073789429
0.233350828225237
0.169061506890574
0.140991638131124
0.125905874270848
0.116753780426305
0.110800334565171
0.106802257126816
0.104103151694124
0.102291746897823
0.101078438355884
2.19485558276338
0.445591209589536
0.227014490539787
0.164942583004583
0.138046324390011
0.123636876604776
0.114918349731268
0.109267434146189
0.105486139744652
0.102948291403632
0.101276001045025
0.100201903472442
0.0995245188750087
2.19193053319912
0.433997364096096
0.220187269363723
0.160636840313542
0.135024939683136
0.121334669627823
0.113058204573655
0.107700905630146
0.104122234763193
0.101726118476382
0.100163935129789
0.099198865831152
0.0986439508480284
0.0983496815328224
2.18619326213848
0.421050942094808
0.213017369872614
0.156294841629014
0.132043435539133
0.119085458408387
0.111243508865556
0.106164931336368
0.1027735324712
0.100503535736419
0.0990273341986402
0.0981341151096598
0.097663263582855
0.0974748409178285
0.097451616188175
2.1872225768608
0.407844744051549
0.205799241859673
0.152187266321492
0.129301823964582
0.117031283044695
0.109577091728632
0.104738153333915
0.101504629075286
0.0993405113738204
0.0979327569074099
0.0970846319186314
0.0966572013598143
0.0965315954341186
0.0965950252429958
0.0967518596271122
2.46684022555632
2.38167825929687
0.553979581943525
2.28699443818413
0.539175104049378
0.280011544343046
2.21610802160031
0.521332703514915
0.275573206681946
0.195092779115346
2.18721794616756
0.506771020736283
0.26946741999401
0.193183485879914
0.157039914126555
2.18619237164844
0.497887511910037
0.263529223173326
0.190349562015445
0.15593795512033
0.13647733075446
2.19192635636024
0.492599691999013
0.258661976868087
0.187153463160276
0.154269851657309
0.135654899713695
0.124077825156221
2.19485263827251
0.487787177395328
0.254541347794717
0.183989917975121
0.152205120297919
0.134444837962844
0.123332702150966
0.116046611413712
2.19512727738939
0.481869437341041
0.250413619335281
0.180880502507672
0.149916495095847
0.132892703128426
0.122294949322439
0.115302801829937
0.110579634568398
2.19479722313122
0.474690450101558
0.245812052495201
0.177651082261795
0.147483401608171
0.131083209923031
0.120979557515282
0.114320577194618
0.109814302108965
0.106725066957198
2.19479727009853
0.466567387518694
0.2406580745393
0.174172798945639
0.14490626731439
0.129096691244222
0.119442969175346
0.113117954751216
0.108845470076402
0.105934682637199
0.103938782330893
2.19512508842636
0.457702746253326
0.234967549914113
0.170410471025816
0.142178377183794
0.126986706940377
0.117758732112375
0.111747426038069
0.10770329420557
0.104967173934405
0.103125668852117
0.101887512766261
2.1948532106827
0.44769139082902
0.228728828507053
0.166377288409321
0.13931354329155
0.124792953503076
0.115992772377863
0.110277872376279
0.106444843898553
0.103864920205443
0.102158285383264
0.101055892668731
0.100354819949933
2.19192744641621
0.436202157739161
0.221966367908765
0.162145909788195
0.136370360304042
0.122566644055199
0.114203064918735
0.108774896637614
0.105137164266847
0.102691841335224
0.101089303176387
0.100091689212545
0.0995102610082513
0.0991936147878943
2.18619471361911
0.423203108215598
0.214757074696425
0.157858421145236
0.133465981823049
0.120395904517772
0.112461225947466
0.107303501026285
0.103843728530307
0.101514990092389
0.0999894944629266
0.099056593481125
0.0985552187401439
0.0983433933106954
0.0983006777498805
2.18721940471083
0.409804311396618
0.207405606601264
0.153788801022323
0.130806065095934
0.118427518520647
0.110873848367334
0.105945381672386
0.102631680132993
0.100396510767004
0.0989271353622729
0.0980276508091596
0.0975603309946627
0.0974072106304257
0.0974543623067488
0.0976014491088831
2.2161134346418
0.398535208947829
0.20082659764748
0.150508405996675
0.128763564969463
0.11690810643999
0.109608095823588
0.10481788009291
0.101586666336174
0.0994026024549029
0.0979619906530062
0.097073005095055
0.0966067742518446
0.0964645330244523
0.0965519508562783
0.0967712346405439
0.0970364970071368
2.46684015387546
2.38167818723332
0.55463215480943
2.28699435520286
0.539965137195335
0.280592936448171
2.21610791189308
0.52226349611831
0.276268966332724
0.195632758066065
2.18721777354698
0.507835030841709
0.270271527158608
0.193816415160803
0.157576452617363
2.18619245982691
0.499084344975836
0.264435440068811
0.191072033473126
0.15655604363455
0.137031803659132
2.19192844307735
0.493929025959345
0.259667628980305
0.187962256588023
0.154968122293214
0.136284297141593
0.12466137250916
2.19485008024361
0.489245486134179
0.255648851773772
0.184884564389979
0.152982425568483
0.13514873510135
0.12398646353758
0.116664727681404
2.19512818885931
0.483459114789042
0.251629799460515
0.181863180079075
0.150772743066228
0.133670598576321
0.123018748630246
0.115987221941961
0.111234676027496
2.19479932936694
0.476411382771964
0.247134224845475
0.178724946438816
0.148419614062697
0.131934936547724
0.121773018492192
0.115070996134712
0.110531960915383
0.107417313917284
2.19480176472533
0.468298932495805
0.242055585795625
0.175331155486217
0.145923272517698
0.13002269028703
0.120305869977413
0.113933877346399
0.109625051693421
0.1066856364898
0.104666809930936
2.19511913237263
0.4594559417423
0.236450497929454
0.171652907612756
0.143273485777511
0.127986873041102
0.118691269831811
0.112628473297249
0.108543918560325
0.105775489618043
0.103907867454671
0.102648295457444
2.19485171209349
0.449602243810099
0.230317395645458
0.16770957853925
0.140490614147581
0.125868457373723
0.116995032985591
0.111223845992596
0.107345676505263
0.104728945341625
0.102992313320293
0.101865295329424
0.101143735123419
2.19192862319553
0.438253820262925
0.223650892345766
0.163563670214814
0.137628973513839
0.123719327208021
0.115277199678338
0.109786610739526
0.106097546398698
0.103609682154148
0.101972124233272
0.100945844318531
0.100340849238258
0.100004458417981
2.18619094240793
0.425346599497065
0.21650394195497
0.15935062805224
0.134805105130001
0.12162789782559
0.113609668195576
0.108382741467431
0.104864115129396
0.102485149260685
0.100917435078486
0.0999500244242957
0.0994211271520608
0.0991871426537608
0.0991258145669768
2.18721884687694
0.411872682656426
0.209130172442804
0.155335115145599
0.132226427027159
0.119743794070028
0.112101426107739
0.107095511167617
0.103713467854634
0.101418177644895
0.0998968087068776
0.0989538668919154
0.0984520998953591
0.0982732054018776
0.0983012364731023
0.0984326028270796
2.21610968677025
0.400282838244757
0.202414572127637
0.152086487916008
0.130271796678977
0.118319477694121
0.110924416916515
0.106046127212192
0.102734384678388
0.100477500066281
0.0989721798814013
0.0980273296572257
0.0975151333619027
0.0973381026410793
0.0974027748915555
0.0976101303820251
0.0978695050074607
2.2869972684867
0.39924974747757
0.199082879982794
0.150960007548651
0.129689783943537
0.117801328827491
0.110360082160899
0.105420280999369
0.102054248303912
0.0997532939742524
0.0982108508119855
0.0972302775644306
0.0966798254850503
0.0964664630605844
0.0965139217714961
0.0967419426714893
0.0970610439774058
0.0973906350918894
2.38167816861927
0.55513525356492
2.28699432764512
0.540611440754002
0.281056071321186
2.2161078606209
0.523037168978294
0.276845774884229
0.19607717146745
2.18721759841153
0.508748350920065
0.270957561076398
0.194353480537819
0.158030676011096
2.18619214144988
0.500131535704522
0.265224834673313
0.191698493545416
0.157090878512074
0.137511672973673
2.19193069383333
0.495108444560465
0.26055590446164
0.188674568233153
0.155582152089814
0.136837899395853
0.125175345554464
2.19485224688886
0.490552785129671
0.256636124069696
0.185680971508366
0.153674234430135
0.135775671555615
0.12456959367608
0.117217063958006
2.19512591424171
0.484892184970357
0.252719744394715
0.182744877784618
0.151541939970132
0.134370400642775
0.123671003598753
0.116605162169257
0.111827247095073
2.19480698275924
0.477968006529274
0.248332448564309
0.179694910999166
0.149267009692691
0.132707518848559
0.122494229293397
0.115754497577257
0.11118697871551
0.108050412716422
2.19480358136484
0.469994598070252
0.243342346892892
0.176390493287632
0.146850466148039
0.130868588240117
0.121096042046854
0.114682775172207
0.110342218404895
0.107377990227378
0.105339432625173
2.1951233616461
0.461051783870425
0.23781060227407
0.172791167753042
0.144280209307271
0.128907125894357
0.119550881536437
0.113442761474095
0.109322851651875
0.106526325199709
0.104636137511381
0.103358175485776
2.19484823000087
0.451312040076626
0.231773346272255
0.168936646042602
0.141576826405721
0.126863104371324
0.117924983487065
0.11210396094463
0.108186164926906
0.105537398839576
0.103774739311759
0.102626452020068
0.101887285557465
2.1919282280851
0.440128924677648
0.225214363689911
0.164881567001244
0.138798527363079
0.124791631021092
0.116278962026826
0.110733353549845
0.106999750986401
0.104475003522177
0.102806988203742
0.101755745865081
0.101130228216629
0.100776729933781
2.18619182441514
0.427344610681681
0.218164402018289
0.160755474453388
0.136058578923568
0.122780364243455
0.114686512018016
0.10939864358503
0.105829018295555
0.103406851428078
0.101802874359572
0.100805511358462
0.100252253562738
0.0999984017389935
0.0999204927792326
2.18721766922195
0.413835263679012
0.210855271735402
0.156817482795602
0.133564880827204
0.120980721435584
0.113257904006929
0.108184186938061
0.104743387558713
0.10239685788793
0.100831273427965
0.0998511675281602
0.0993193469117789
0.0991168965059274
0.0991263008179149
0.0992421586927651
2.21610871984906
0.402079918053868
0.204120673247319
0.153629039998837
0.13169882157996
0.119649100388581
0.112168419396971
0.107213728760501
0.10383331356108
0.101514830105369
0.0999549538330629
0.0989630042183944
0.098411842633944
0.0982045635008393
0.0982473734801495
0.0984391759507416
0.0986859973686541
2.28698419106163
0.400423739823099
0.200630639332546
0.152532593814213
0.131215313310535
0.119239376227107
0.11170574606421
0.106677993109289
0.103230198519686
0.100854161480362
0.099243775947186
0.0982030942326375
0.0976012576774966
0.0973463222515311
0.0973632382283087
0.0975725174612852
0.0978833630986524
0.0982104309345492
2.38167969099607
0.44617750038395
0.210916345553244
0.157176182143199
0.133770916499717
0.120617080645798
0.112367335394901
0.106883444547131
0.103133024247869
0.100549201394317
0.0987910219511907
0.0976395825298916
0.0969476301865048
0.096612973617488
0.0965614159777341
0.096729157953368
0.0970437069141646
0.0974197247256789
0.0977788575902206
2.28699435779735
0.541115997780858
0.281400723064613
2.21610786296679
0.52366921165645
0.277305543280593
0.19642652022724
2.18721763936476
0.509506381489263
0.271526509907945
0.194795608863368
0.158403475285465
2.18619183029496
0.501031392471246
0.265899291781882
0.192230374309463
0.157543726983725
0.137918036812609
2.19192815865758
0.496142335358124
0.261330306860299
0.189292538184198
0.156113562231252
0.137317024477138
0.125620803697772
2.19485451046682
0.491714193309653
0.257507279424704
0.186382073159188
0.154282550323643
0.136327107688203
0.125083197204609
0.117704451966412
2.19512590061767
0.486174675426773
0.253689460583626
0.183529041151677
0.152226296374931
0.134993635367253
0.124252778915666
0.117157339081961
0.112357764236683
2.19480490985426
0.479372648002043
0.249406354768802
0.180564360085375
0.150027924905965
0.13340244841589
0.123144131244089
0.116371605179259
0.111779524695913
0.108624204450646
2.1948049626262
0.471518287235227
0.244518941388925
0.177348400899776
0.147689432344612
0.131635757108025
0.121814235719517
0.115364892128576
0.110996790537156
0.108011185398471
0.105955740740413
2.1951248445159
0.462671847673573
0.239056673183576
0.173834081031972
0.145198925034092
0.12974772588795
0.120337983685522
0.114190152780392
0.110039435554569
0.107218581060829
0.10530898690951
0.104015294258623
2.19485011945575
0.452857577782507
0.233102320981908
0.170059882614766
0.142573372094232
0.12777854373965
0.118782238663463
0.112917333629201
0.108964970215367
0.106288400467824
0.104503258405408
0.10333669642041
0.102582466212064
2.19192921889522
0.441809922048915
0.226647654156336
0.166095879452292
0.139877971957968
0.125783213129077
0.117207788719357
0.111614062384312
0.107841455028006
0.105284680742103
0.103590307624582
0.102517486772438
0.101874275441336
0.101506076943749
2.18619271536672
0.429195913915558
0.219708735810843
0.162062972161034
0.137223898141069
0.123852388441916
0.115690395219251
0.110348799414746
0.106734903995263
0.104275602002531
0.102640302178304
0.101616968686093
0.101042475813526
0.100771256194038
0.100678908716734
2.18721426789469
0.415666797733306
0.212497589532045
0.158216404914659
0.13481870029311
0.122137564500006
0.114341488931844
0.109207954609461
0.105716278807006
0.103325827390935
0.101722463694296
0.10071049177311
0.100152483309127
0.0999290164963231
0.0999215038269904
0.100023347324771
2.21610684513456
0.403773681694138
0.205827437079158
0.155113681201359
0.133045626681904
0.120898198347996
0.113339004623901
0.108317162065864
0.104877646513527
0.102506699843965
0.100900548988779
0.0998686072086715
0.0992840652033152
0.0990502160170601
0.0990726689099385
0.0992487495010773
0.0994826331389428
2.28700717368183
0.401732419582068
0.202326480115956
0.154091068297227
0.132664068648492
0.120593711488277
0.112975357367449
0.107870778422579
0.104353044244886
0.101913401420608
0.100245692283151
0.0991543274307011
0.0985090701999536
0.0982187327544108
0.0982088358620727
0.0983995111331871
0.0986978003450191
0.09901503813502
2.38166628498341
0.446710626212529
0.212428779329059
0.158762362311643
0.135336280666784
0.122099897689353
0.113756451709201
0.108181995897723
0.104346761425854
0.101684458623426
0.0998544516182763
0.0986383977977114
0.0978898111412101
0.0975073743018831
0.0974178857701428
0.0975586464684512
0.0978578345265746
0.0982288011925775
0.0985888601111212
3.68516441843931
0.781221817392524
0.286964775844982
0.181071176655365
0.145218339078657
0.127258921167884
0.116624538092422
0.109783529673852
0.105183121634422
0.102028334420921
0.0998660965712081
0.0984163270391384
0.0974950629973057
0.0969763034610595
0.0967715773382876
0.0968161397964068
0.0970527531955321
0.0974127583324416
0.0978121023485278
0.0981717727369898
2.21610790843142
0.524166537772699
0.27764870759173
0.196681922402685
2.18721771688427
0.510124661378755
0.271980212516567
0.195143180160168
0.158695509458586
2.18619206547132
0.501776888738028
0.266459295718538
0.192668449947902
0.157915439168948
0.138251790352137
2.19192566944164
0.497032325601706
0.261993194215671
0.18981767256523
0.156563617267813
0.137722781611792
0.125998721734183
2.19485167505948
0.492734214941766
0.258266782208816
0.186990499224323
0.15480911537816
0.136804377532142
0.125528342391964
0.118127750140573
2.19512581305032
0.487313842815306
0.254543871942791
0.184218801308852
0.152827931452502
0.135541798578096
0.124765181504899
0.117644581008769
0.112826824851944
2.19480438151785
0.480628983570668
0.250359463429538
0.181336763474039
0.150704625118428
0.134021260293323
0.123723788061314
0.116923030040069
0.112310017202902
0.109138851216735
2.19480280664187
0.472890501178645
0.245576739376425
0.178206397893748
0.148442438518938
0.132325701269487
0.122461388554363
0.115980742004918
0.111588927868084
0.1085850639422
0.106515284849427
2.1951262419407
0.464184065384798
0.240203345732041
0.174779741584218
0.146030205387528
0.130509952884631
0.121053335210856
0.114870884240405
0.110693472329442
0.107851682746313
0.105925499902146
0.104618423046472
2.19484918081457
0.454385728437502
0.234321263681425
0.171083050666913
0.143484041045308
0.128614869000629
0.119567086776857
0.113663826155621
0.109681417346288
0.106980808227785
0.10517633901759
0.103994152089501
0.103227084896147
2.19192707562473
0.443364819378694
0.227955589134884
0.167207096233861
0.140867897102403
0.126694893783897
0.118064149577921