/*--------------------------------*- C++ -*----------------------------------*\
  =========                 |
  \\      /  F ield         | OpenFOAM: The Open Source CFD Toolbox
   \\    /   O peration     | Website:  https://openfoam.org
    \\  /    A nd           | Version:  12
     \\/     M anipulation  |
\*---------------------------------------------------------------------------*/
/*   Windows 32 and 64 bit porting by blueCAPE: http://www.bluecape.com.pt   *\
|  Based on Windows porting (2.0.x v4) by Symscape: http://www.symscape.com   |
\*---------------------------------------------------------------------------*/
FoamFile
{
    format      ascii;
    class       volScalarField;
    location    "600";
    object      p;
}
// * * * * * * * * * * * * * * * * * * * * * * * * * * * * * * * * * * * * * //

dimensions      [0 2 -2 0 0 0 0];

internalField   nonuniform List<scalar> 
10116
(
83333.3295126456
83333.3295113159
83333.3295126615
83333.3295126914
83333.3295099451
83333.3295113301
83333.3295113597
83333.329512691
83333.3295127121
83333.329512857
83333.3295085288
83333.3295099573
83333.3295099884
83333.3295113589
83333.3295113789
83333.3295115185
83333.329512738
83333.3295127445
83333.3295128807
83333.3295131986
83333.3295070524
83333.3295085427
83333.3295085612
83333.3295099857
83333.3295100058
83333.3295101311
83333.329511407
83333.3295114112
83333.3295115423
83333.3295118555
83333.3295128058
83333.329512795
83333.3295129188
83333.3295132276
83333.3295137625
83333.3295055197
83333.3295070674
83333.3295070759
83333.3295085724
83333.3295085786
83333.3295086861
83333.3295100342
83333.329510038
83333.3295101529
83333.3295104552
83333.3295114767
83333.3295114626
83333.3295115817
83333.329511888
83333.3295124232
83333.3295128971
83333.3295128663
83333.3295129767
83333.3295132741
83333.32951379
83333.3295145576
83333.3295039297
83333.3295055353
83333.3295055354
83333.3295070981
83333.3295070933
83333.3295071844
83333.3295086223
83333.3295086111
83333.3295087067
83333.329508995
83333.3295101055
83333.3295100899
83333.3295101921
83333.3295104864
83333.3295110198
83333.3295115705
83333.3295115359
83333.3295116414
83333.3295119381
83333.3295124549
83333.32951323
83333.3295130139
83333.329512961
83333.3295130556
83333.3295133403
83333.329513843
83333.3295145828
83333.3295155694
83333.3295022807
83333.3295039458
83333.3295039378
83333.329505567
83333.329505553
83333.3295056279
83333.3295071494
83333.3295071262
83333.3295072044
83333.3295074806
83333.3295086958
83333.3295086641
83333.3295087459
83333.3295090246
83333.3295095573
83333.329510202
83333.3295101652
83333.329510252
83333.3295105375
83333.3295110516
83333.3295118353
83333.3295116905
83333.3295116339
83333.3295117231
83333.3295120083
83333.329512514
83333.3295132601
83333.3295142627
83333.3295131575
83333.3295130812
83333.3295131575
83333.3295134279
83333.3295139161
83333.3295146375
83333.3295155933
83333.3295167738
83333.3295005708
83333.3295022973
83333.3295022812
83333.3295039785
83333.3295039557
83333.329504014
83333.3295056197
83333.3295055864
83333.3295056484
83333.3295059118
83333.329507225
83333.3295071801
83333.3295072438
83333.329507509
83333.329508042
83333.3295087953
83333.3295087417
83333.3295088071
83333.3295090753
83333.3295095876
83333.3295103826
83333.3295103257
83333.3295102664
83333.329510336
83333.3295106099
83333.3295111128
83333.3295118667
83333.329512889
83333.3295118378
83333.3295117583
83333.3295118291
83333.3295121003
83333.329512592
83333.3295133212
83333.3295142911
83333.3295154978
83333.3295133281
83333.3295132277
83333.3295132845
83333.3295135389
83333.3295140103
83333.3295147133
83333.3295156452
83333.3295167978
83333.3295181503
83333.3294987973
83333.3295005876
83333.329500563
83333.329502331
83333.3295022995
83333.3295023406
83333.3295040328
83333.32950399
83333.3295040356
83333.3295042858
83333.3295056974
83333.3295056418
83333.3295056881
83333.3295059398
83333.3295064718
83333.3295073275
83333.3295072597
83333.3295073067
83333.3295075595
83333.3295080707
83333.3295088781
83333.3295089228
83333.3295088461
83333.3295088945
83333.329509149
83333.3295096485
83333.3295104129
83333.3295114585
83333.3295104775
83333.329510395
83333.3295104461
83333.3295107055
83333.3295111944
83333.3295119306
83333.3295129186
83333.329514156
83333.3295120131
83333.32951191
83333.3295119613
83333.3295122164
83333.3295126917
83333.3295134031
83333.3295143503
83333.3295155262
83333.3295169136
83333.3295135258
83333.3295134014
83333.3295134378
83333.3295136756
83333.329514129
83333.3295148121
83333.3295157208
83333.3295168465
83333.3295181726
83333.329519675
83333.3294969575
83333.3294988146
83333.3294987807
83333.3295006223
83333.329500582
83333.3295006049
83333.3295023871
83333.3295023345
83333.3295023635
83333.3295026001
83333.3295041131
83333.3295040469
83333.329504076
83333.3295043141
83333.329504845
83333.3295058031
83333.3295057233
83333.3295057536
83333.3295059906
83333.3295065002
83333.3295073197
83333.329507459
83333.3295073671
83333.3295073973
83333.3295076344
83333.3295081314
83333.3295089071
83333.3295099778
83333.3295090792
83333.3295089788
83333.3295090088
83333.3295092476
83333.3295097323
83333.3295104772
83333.3295114874
83333.3295127593
83333.329510658
83333.3295105517
83333.3295105834
83333.3295108261
83333.3295112988
83333.3295120171
83333.3295129813
83333.3295141856
83333.3295156137
83333.3295122161
83333.3295120894
83333.3295121206
83333.329512359
83333.3295128166
83333.3295135083
83333.3295144324
83333.3295155812
83333.3295169404
83333.329518487
83333.3295137498
83333.3295136026
83333.3295136181
83333.3295138396
83333.3295142753
83333.329514938
83333.3295158225
83333.3295169201
83333.3295182178
83333.3295196958
83333.3295213282
83333.3294950486
83333.3294969754
83333.3294969316
83333.3294988505
83333.3294988003
83333.3294988041
83333.3295006807
83333.3295006177
83333.3295006288
83333.3295008517
83333.3295024704
83333.3295023927
83333.329502405
83333.3295026289
83333.3295031595
83333.3295042224
83333.3295041304
83333.3295041439
83333.3295043657
83333.3295048738
83333.3295057063
83333.3295059387
83333.3295058337
83333.3295058463
83333.3295060676
83333.3295065615
83333.3295073485
83333.3295084447
83333.3295076204
83333.3295075037
83333.329507515
83333.3295077359
83333.3295082171
83333.3295089718
83333.3295100057
83333.3295113145
83333.3295092652
83333.3295091404
83333.3295091509
83333.329509373
83333.3295098406
83333.3295105667
83333.3295115509
83333.3295127885
83333.3295142619
83333.3295108672
83333.329510737
83333.329510749
83333.3295109745
83333.3295114297
83333.3295121281
83333.3295130685
83333.3295142441
83333.3295156416
83333.3295172381
83333.3295124462
83333.3295122968
83333.3295123079
83333.3295125298
83333.32951297
83333.3295136416
83333.3295145413
83333.3295156618
83333.3295169913
83333.3295185112
83333.3295201963
83333.3295139985
83333.3295138311
83333.329513826
83333.3295140321
83333.3295144511
83333.329515094
83333.3295159544
83333.3295170232
83333.3295182893
83333.329519738
83333.3295213476
83333.329523092
83333.3294930675
83333.3294950674
83333.3294950128
83333.3294970129
83333.3294969519
83333.3294969355
83333.3294989113
83333.3294988373
83333.3294988287
83333.3294990379
83333.3295007672
83333.3295006776
83333.3295006716
83333.3295008814
83333.3295014124
83333.3295025836
83333.329502479
83333.3295024737
83333.3295026819
83333.3295031889
83333.3295040357
83333.3295043624
83333.3295042445
83333.3295042382
83333.3295044452
83333.3295049364
83333.3295057354
83333.3295068588
83333.3295061052
83333.3295059747
83333.3295059668
83333.3295061721
83333.3295066496
83333.3295074142
83333.3295084726
83333.32950982
83333.329507812
83333.3295076705
83333.3295076611
83333.3295078657
83333.329508329
83333.3295090638
83333.3295100699
83333.3295113431
83333.3295128648
83333.3295094806
83333.3295093314
83333.329509322
83333.3295095274
83333.3295099771
83333.3295106826
83333.3295116418
83333.3295128484
83333.3295142893
83333.3295159408
83333.3295111042
83333.3295109509
83333.329510943
83333.3295111523
83333.3295115903
83333.3295122686
83333.3295131842
83333.3295143304
83333.3295156963
83333.3295172638
83333.3295190076
83333.3295127015
83333.329512532
83333.3295125233
83333.3295127302
83333.329513154
83333.3295138061
83333.3295146818
83333.329515773
83333.3295170702
83333.3295185591
83333.3295202188
83333.3295220235
83333.3295142691
83333.3295140856
83333.3295140616
83333.3295142537
83333.3295146578
83333.3295152816
83333.3295161187
83333.3295171592
83333.3295183927
83333.3295198074
83333.3295213873
83333.3295231101
83333.3295249502
83333.329491011
83333.3294930872
83333.3294930216
83333.3294951067
83333.329495034
83333.3294949959
83333.3294970764
83333.3294969906
83333.3294969609
83333.3294971559
83333.3294990014
83333.3294988995
83333.329498873
83333.3294990686
83333.3294996008
83333.3295008847
83333.3295007671
83333.3295007418
83333.3295009362
83333.3295014426
83333.329502305
83333.3295027287
83333.3295025974
83333.3295025712
83333.3295027638
83333.3295032534
83333.3295040654
83333.3295052179
83333.3295045342
83333.3295043904
83333.3295043629
83333.3295045531
83333.3295050274
83333.3295058028
83333.3295068871
83333.3295082752
83333.3295063027
83333.3295061472
83333.3295061181
83333.3295063063
83333.3295067654
83333.3295075093
83333.3295085384
83333.3295098488
83333.3295114211
83333.3295080337
83333.3295078677
83333.3295078379
83333.3295080261
83333.329508471
83333.3295091841
83333.3295101639
83333.3295114043
83333.3295128919
83333.3295146019
83333.3295097245
83333.3295095519
83333.3295095226
83333.3295097127
83333.3295101452
83333.3295108299
83333.3295117631
83333.3295129387
83333.3295143459
83333.3295159669
83333.3295177745
83333.3295113674
83333.3295111931
83333.3295111661
83333.3295113609
83333.329511783
83333.3295124419
83333.3295133331
83333.3295144492
83333.3295157811
83333.3295173155
83333.3295190316
83333.3295209027
83333.3295129792
83333.3295127938
83333.3295127667
83333.3295129607
83333.3295133702
83333.3295140037
83333.3295148561
83333.3295159187
83333.3295171823
83333.329518636
83333.3295202642
83333.3295220447
83333.3295239521
83333.3295145553
83333.3295143635
83333.329514324
83333.3295145048
83333.3295148962
83333.3295155023
83333.3295163166
83333.3295173295
83333.3295185307
83333.3295199097
83333.3295214543
83333.3295231475
83333.3295249672
83333.3295268885
83333.329488875
83333.3294910312
83333.3294909554
83333.3294931284
83333.3294930438
83333.3294929826
83333.3294951734
83333.3294950745
83333.3294950223
83333.3294952022
83333.3294971705
83333.3294970554
83333.3294970072
83333.3294971876
83333.3294977213
83333.3294991236
83333.3294989924
83333.3294989463
83333.3294991256
83333.3294996317
83333.3295005111
83333.3295010352
83333.32950089
83333.3295008437
83333.329501021
83333.3295015093
83333.3295023354
83333.3295035192
83333.3295029062
83333.3295027486
83333.3295027014
83333.3295028761
83333.3295033476
83333.329504135
83333.3295052468
83333.3295066783
83333.3295047379
83333.3295045688
83333.3295045205
83333.3295046927
83333.3295051476
83333.3295059013
83333.3295069549
83333.3295083046
83333.3295099304
83333.3295065311
83333.329506351
83333.3295063021
83333.3295064734
83333.3295069133
83333.3295076344
83333.3295086358
83333.3295099118
83333.3295114486
83333.3295132201
83333.3295082846
83333.3295080953
83333.3295080464
83333.3295082195
83333.3295086467
83333.3295093382
83333.3295102905
83333.3295114979
83333.3295129499
83333.3295146281
83333.3295165038
83333.3295099953
83333.3295098016
83333.3295097535
83333.32950993
83333.3295103471
83333.3295110121
83333.32951192
83333.3295130638
83333.329514435
83333.3295160204
83333.329517799
83333.3295197423
83333.3295116532
83333.3295114626
83333.3295114182
83333.329511601
83333.3295120093
83333.3295126499
83333.3295135176
83333.3295146043
83333.3295159014
83333.3295173986
83333.3295190808
83333.3295209256
83333.3295229065
83333.3295132731
83333.3295130794
83333.3295130376
83333.3295132218
83333.3295136195
83333.3295142358
83333.3295150656
83333.3295161001
83333.3295173306
83333.3295187474
83333.3295203387
83333.3295220877
83333.3295239721
83333.3295259668
83333.3295148463
83333.32951466
83333.3295146111
83333.3295147852
83333.329515167
83333.3295157568
83333.329516549
83333.3295175344
83333.3295187035
83333.3295200469
83333.329521554
83333.3295232115
83333.3295250023
83333.3295269043
83333.3295288941
83333.3294866623
83333.3294888941
83333.3294888119
83333.3294910738
83333.3294909781
83333.3294908942
83333.3294931984
83333.329493086
83333.32949301
83333.3294931737
83333.3294952722
83333.3294951422
83333.3294950707
83333.3294952349
83333.3294957703
83333.329497298
83333.3294971522
83333.3294970837
83333.3294972468
83333.329497753
83333.3294986507
83333.3294992799
83333.3294991202
83333.3294990527
83333.3294992138
83333.3294997008
83333.3295005423
83333.3295017596
83333.3295012193
83333.329501047
83333.3295009796
83333.3295011382
83333.3295016071
83333.3295024075
83333.3295035488
83333.3295050266
83333.3295031165
83333.3295029332
83333.3295028656
83333.3295030219
83333.3295034728
83333.3295042372
83333.329505317
83333.3295067085
83333.329508391
83333.3295049734
83333.3295047795
83333.3295047119
83333.3295048668
83333.329505302
83333.3295060316
83333.329507056
83333.3295083698
83333.3295099586
83333.3295117952
83333.3295067895
83333.3295065859
83333.3295065191
83333.3295066754
83333.329507097
83333.3295077954
83333.3295087678
83333.3295100092
83333.3295115087
83333.3295132471
83333.3295151943
83333.3295085629
83333.3295083528
83333.3295082864
83333.3295084466
83333.3295088582
83333.3295095293
83333.3295104551
83333.3295116289
83333.3295130428
83333.3295146833
83333.3295165285
83333.3295185484
83333.3295102893
83333.3295100791
83333.3295100148
83333.3295101803
83333.3295105842
83333.3295112309
83333.3295121148
83333.3295132278
83333.3295145621
83333.329516108
83333.3295178501
83333.3295197656
83333.3295218261
83333.3295119556
83333.3295117567
83333.3295116989
83333.3295118731
83333.3295122704
83333.3295128942
83333.3295137392
83333.3295147971
83333.3295160598
83333.3295175184
83333.3295191615
83333.3295209724
83333.3295229282
83333.3295250029
83333.3295135719
83333.3295133841
83333.329513334
83333.3295135134
83333.3295139027
83333.3295145034
83333.3295153112
83333.329516318
83333.3295175155
83333.3295188953
83333.3295204475
83333.3295221591
83333.3295240125
83333.3295259854
83333.329528054
83333.3295151255
83333.329514966
83333.3295149191
83333.3295150938
83333.32951547
83333.3295160456
83333.3295168164
83333.3295177743
83333.3295189111
83333.3295202187
83333.3295216878
83333.329523307
83333.3295250625
83333.3295269369
83333.3295289086
83333.3295309557
83333.3294844365
83333.3294866799
83333.3294865895
83333.3294889373
83333.3294888334
83333.3294887294
83333.3294911468
83333.3294910223
83333.3294909223
83333.3294910695
83333.3294933025
83333.3294931568
83333.3294930604
83333.3294932072
83333.3294937448
83333.3294954059
83333.3294952436
83333.3294951507
83333.3294952961
83333.3294958027
83333.3294967203
83333.3294974609
83333.3294972855
83333.3294971949
83333.3294973388
83333.3294978244
83333.3294986826
83333.3294999357
83333.3294994711
83333.3294992834
83333.3294991946
83333.3294993362
83333.3294998025
83333.329500617
83333.3295017898
83333.3295033169
83333.329501437
83333.3295012384
83333.3295011506
83333.3295012906
83333.3295017378
83333.3295025139
83333.3295036216
83333.3295050576
83333.3295068004
83333.3295033594
83333.3295031513
83333.3295030645
83333.3295032034
83333.3295036342
83333.3295043732
83333.3295054222
83333.3295067762
83333.3295084201
83333.3295103257
83333.3295052398
83333.3295050221
83333.3295049372
83333.3295050772
83333.329505494
83333.3295062
83333.3295071939
83333.3295084712
83333.329510021
83333.3295118232
83333.329513846
83333.329507076
83333.3295068514
83333.3295067681
83333.3295069127
83333.3295073185
83333.3295079958
83333.3295089404
83333.3295101463
83333.3295116055
83333.3295133044
83333.3295152199
83333.3295173204
83333.3295088652
83333.3295086388
83333.3295085575
83333.3295087078
83333.3295091068
83333.3295097594
83333.3295106602
83333.3295118016
83333.3295131764
83333.3295147748
83333.3295165814
83333.3295185721
83333.3295207169
83333.3295106004
83333.3295103821
83333.3295103057
83333.3295104641
83333.3295108577
83333.329511488
83333.3295123488
83333.3295134321
83333.3295147302
83333.3295162351
83333.3295179354
83333.3295198144
83333.3295218483
83333.3295240091
83333.3295122637
83333.3295120705
83333.3295120064
83333.3295121772
83333.329512567
83333.3295131758
83333.3295139988
83333.3295150284
83333.329516257
83333.329517677
83333.3295192789
83333.3295210499
83333.3295229723
83333.3295250231
83333.3295271773
83333.3295138591
83333.3295136988
83333.3295136521
83333.3295138342
83333.3295142195
83333.329514807
83333.3295155936
83333.3295165726
83333.329517737
83333.3295190797
83333.3295205922
83333.3295222636
83333.3295240799
83333.3295260231
83333.3295280712
83333.3295302017
83333.3295153693
83333.3295152638
83333.3295152397
83333.3295154265
83333.3295158034
83333.3295163678
83333.3295171182
83333.3295180488
83333.329519153
83333.3295204244
83333.329521855
83333.329523435
83333.3295251523
83333.3295269926
83333.3295289384
83333.3295309688
83333.3295330633
83333.3294821866
83333.3294844622
83333.3294843296
83333.3294867235
83333.3294866095
83333.3294864802
83333.3294890131
83333.3294888779
83333.3294887562
83333.32948889
83333.3294912564
83333.3294910964
83333.3294909744
83333.329491103
83333.3294916438
83333.3294934435
83333.3294932632
83333.3294931438
83333.3294932702
83333.3294937774
83333.3294947167
83333.3294955761
83333.3294953833
83333.3294952669
83333.3294953918
83333.3294958763
83333.3294967526
83333.3294980441
83333.3294976597
83333.3294974557
83333.3294973435
83333.3294974665
83333.3294979302
83333.32949876
83333.3294999665
83333.3295015462
83333.329499697
83333.3294994823
83333.3294993728
83333.3294994954
83333.3294999389
83333.3295007278
83333.3295018654
83333.3295033488
83333.3295051558
83333.3295016879
83333.3295014645
83333.3295013574
83333.3295014801
83333.3295019065
83333.3295026559
83333.3295037312
83333.329505128
83333.3295068305
83333.3295088092
83333.3295036343
83333.3295034023
83333.3295032984
83333.3295034225
83333.3295038349
83333.3295045495
83333.3295055664
83333.3295068819
83333.329508485
83333.3295103547
83333.3295124577
83333.3295055351
83333.3295052962
83333.329505196
83333.3295053248
83333.3295057256
83333.3295064101
83333.3295073748
83333.3295086147
83333.3295101221
83333.3295118828
83333.3295138726
83333.3295160582
83333.3295073873
83333.3295071465
83333.3295070493
83333.3295071853
83333.3295075788
83333.3295082374
83333.329509156
83333.3295103278
83333.3295117456
83333.3295134
83333.3295152749
83333.3295173449
83333.3295195784
83333.3295091853
83333.329508951
83333.3295088589
83333.3295090036
83333.3295093934
83333.3295100297
83333.3295109069
83333.3295120173
83333.3295133538
83333.3295149087
83333.3295166707
83333.3295186227
83333.3295207394
83333.3295229913
83333.3295109173
83333.3295107057
83333.3295106244
83333.3295107811
83333.3295111685
83333.3295117844
83333.3295126231
83333.3295136771
83333.3295149397
83333.3295164038
83333.3295180603
83333.3295198965
83333.3295218944
83333.3295240298
83333.3295262757
83333.3295125602
83333.3295123954
83333.3295123366
83333.3295125119
83333.329512899
83333.3295134952
83333.3295142972
83333.3295152986
83333.329516493
83333.3295178742
83333.3295194344
83333.3295211629
83333.3295230457
83333.3295250643
83333.3295271959
83333.3295294166
83333.3295141108
83333.3295140056
83333.3295139834
83333.32951418
83333.329514568
83333.3295151453
83333.3295159121
83333.3295168637
83333.3295179947
83333.3295192998
83333.3295207722
83333.3295224023
83333.3295241783
83333.3295260856
83333.3295281057
83333.3295302173
83333.329532399
83333.3295155577
83333.3295155229
83333.3295155555
83333.3295157729
83333.3295161607
83333.3295167192
83333.3295174518
83333.3295183562
83333.3295194281
83333.3295206628
83333.3295220544
83333.3295235945
83333.3295252726
83333.3295270757
83333.3295289892
83333.3295309956
83333.329533075
83333.3295352075
83333.3294822218
83333.3294820649
83333.3294845121
83333.3294843539
83333.3294841862
83333.3294868033
83333.329486654
83333.3294865058
83333.329486627
83333.3294891281
83333.3294889547
83333.329488808
83333.329488921
83333.3294894686
83333.3294914055
83333.3294912081
83333.3294910611
83333.329491167
83333.3294916756
83333.3294926389
83333.3294936227
83333.3294934101
83333.3294932654
83333.3294933694
83333.3294938528
83333.329494749
83333.3294960819
83333.3294957833
83333.3294955614
83333.3294954227
83333.3294955252
83333.3294959862
83333.3294968324
83333.3294980752
83333.329499711
83333.3294978944
83333.3294976626
83333.3294975299
83333.3294976332
83333.3294980727
83333.3294988752
83333.3295000448
83333.3295015788
83333.329503454
83333.3294999571
83333.3294997169
83333.3294995882
83333.3294996936
83333.3295001154
83333.3295008763
83333.3295019797
83333.3295034219
83333.3295051867
83333.3295072432
83333.3295019718
83333.3295017245
83333.3295016006
83333.3295017084
83333.3295021164
83333.3295028407
83333.3295038821
83333.3295052383
83333.3295068981
83333.3295088394
83333.3295110272
83333.3295039392
83333.3295036857
83333.3295035674
83333.3295036804
83333.329504077
83333.3295047698
83333.3295057561
83333.3295070322
83333.3295085907
83333.3295104169
83333.3295124854
83333.3295147611
83333.3295058561
83333.3295056008
83333.3295054876
83333.3295056094
83333.3295059981
83333.3295066636
83333.3295076013
83333.3295088053
83333.329510269
83333.3295119829
83333.32951393
83333.3295160838
83333.3295184109
83333.329507717
83333.3295074686
83333.3295073619
83333.3295074936
83333.3295078789
83333.3295085214
83333.3295094157
83333.329510555
83333.3295119325
83333.3295135408
83333.3295153685
83333.3295173976
83333.3295196017
83333.3295219493
83333.3295095114
83333.3295092847
83333.3295091893
83333.3295093342
83333.3295097188
83333.3295103414
83333.3295111962
83333.3295122763
83333.3295135755
83333.3295150871
83333.3295168025
83333.3295187088
83333.3295207873
83333.3295230124
83333.329525355
83333.3295112227
83333.329511041
83333.3295109671
83333.3295111304
83333.3295115165
83333.3295121205
83333.3295129383
83333.3295139634
83333.3295151904
83333.3295166137
83333.329518226
83333.3295200168
83333.3295219722
83333.3295240729
83333.3295262947
83333.3295286118
83333.3295128216
83333.3295127136
83333.3295126811
83333.329512873
83333.3295132644
83333.3295138513
83333.3295146337
83333.3295156072
83333.3295167673
83333.3295181094
83333.3295196273
83333.3295213122
83333.3295231523
83333.3295251324
83333.3295272336
83333.3295294335
83333.3295317093
83333.3295143066
83333.3295142732
83333.3295143091
83333.3295145401
83333.3295149413
83333.3295155143
83333.329516264
83333.3295171893
83333.3295182874
83333.3295195546
83333.3295209862
83333.3295225744
83333.3295243089
83333.3295261768
83333.3295281627
83333.3295302483
83333.3295324129
83333.3295346359
83333.3295156798
83333.3295157094
83333.3295158319
83333.3295161102
83333.3295165269
83333.32951709
83333.329517811
83333.3295186922
83333.3295197333
83333.3295209319
83333.3295222843
83333.3295237839
83333.3295254218
83333.3295271865
83333.3295290646
83333.3295310411
83333.3295330987
83333.3295352179
83333.3295373795
83333.3294822825
83333.3294820997
83333.3294818811
83333.3294846009
83333.3294844034
83333.3294842168
83333.3294843125
83333.3294869258
83333.3294867341
83333.3294865572
83333.3294866562
83333.3294872122
83333.3294892858
83333.3294890726
83333.3294888972
83333.3294889842
83333.3294894967
83333.329490488
83333.3294915952
83333.3294913631
83333.3294911885
83333.3294912693
83333.329491752
83333.3294926701
83333.329494048
83333.3294938399
83333.3294935975
83333.329493429
83333.3294935084
83333.3294939668
83333.3294948307
83333.3294961128
83333.3294978084
83333.3294960275
83333.3294957776
83333.3294956184
83333.3294956998
83333.329496135
83333.3294969523
83333.3294981562
83333.3294997441
83333.3295016919
83333.3294981645
83333.3294979066
83333.3294977546
83333.3294978408
83333.3294982575
83333.3294990305
83333.329500164
83333.3295016547
83333.3295034858
83333.3295056248
83333.3295002506
83333.3294999868
83333.3294998415
83333.3294999321
83333.3295003354
83333.3295010698
83333.3295021376
83333.3295035371
83333.3295052572
83333.3295072746
83333.3295095524
83333.3295022868
83333.3295020178
83333.3295018804
83333.3295019771
83333.3295023697
83333.3295030716
83333.329504081
83333.3295053957
83333.3295070085
83333.3295089042
83333.3295110561
83333.3295134273
83333.3295042705
83333.3295040003
83333.3295038704
83333.3295039776
83333.329504362
83333.3295050356
83333.3295059939
83333.3295072323
83333.3295087447
83333.3295105216
83333.3295125453
83333.3295147878
83333.3295172138
83333.3295061961
83333.3295059335
83333.3295058119
83333.3295059312
83333.3295063123
83333.3295069617
83333.3295078745
83333.3295090444
83333.3295104656
83333.3295121306
83333.329514028
83333.3295161389
83333.3295184352
83333.3295208837
83333.3295080532
83333.3295078132
83333.3295077046
83333.3295078383
83333.3295082197
83333.3295088489
83333.3295097205
83333.3295108283
83333.3295121665
83333.329513729
83333.3295155071
83333.3295174879
83333.3295196517
83333.3295219712
83333.3295244154
83333.3295098257
83333.3295096313
83333.3295095451
83333.3295096987
83333.3295100835
83333.3295106949
83333.3295115287
83333.3295125791
83333.329513841
83333.3295153097
83333.329516978
83333.3295188359
83333.3295208689
83333.329523057
83333.3295253744
83333.329527793
83333.329511493
83333.3295113711
83333.3295113254
83333.3295115078
83333.3295118999
83333.3295124954
83333.3295132936
83333.3295142904
83333.3295154818
83333.3295168641
83333.3295184317
83333.3295201763
83333.3295220859
83333.3295241451
83333.3295263341
83333.329528629
83333.329531005
83333.3295130268
83333.3295129927
83333.3295130224
83333.3295132497
83333.3295136562
83333.3295142397
83333.3295150054
83333.3295159524
83333.3295170786
83333.3295183813
83333.3295198564
83333.3295214971
83333.329523293
83333.3295252312
83333.3295272957
83333.3295294674
83333.3295317243
83333.3295340445
83333.3295144348
83333.3295144669
83333.3295145945
83333.3295148886
83333.3295153235
83333.3295159031
83333.3295166423
83333.3295175449
83333.3295186116
83333.3295198418
83333.3295212325
83333.3295227781
83333.3295244702
83333.3295262972
83333.3295282455
83333.3295302994
83333.3295324404
83333.3295346483
83333.3295369031
83333.3295157349
83333.3295158202
83333.3295160238
83333.3295163916
83333.3295168729
83333.3295174603
83333.3295181823
83333.3295190482
83333.3295200627
83333.3295212276
83333.3295225418
83333.3295240011
83333.3295255983
83333.3295273236
83333.3295291648
83333.3295311083
83333.3295331387
83333.3295352387
83333.3295373889
83333.329539571
83333.3294823806
83333.3294821597
83333.329481924
83333.329481974
83333.3294847345
83333.3294844909
83333.3294842735
83333.3294843446
83333.329484905
83333.3294870939
83333.3294868586
83333.32948665
83333.3294867192
83333.3294872381
83333.3294882574
83333.3294894872
83333.3294892368
83333.3294890312
83333.3294890895
83333.3294895724
83333.3294905155
83333.3294919426
83333.3294918249
83333.3294915612
83333.3294913609
83333.3294914147
83333.3294918698
83333.3294927528
83333.3294940775
83333.3294958372
83333.3294940949
83333.3294938248
83333.3294936351
83333.3294936914
83333.3294941221
83333.3294949552
83333.3294961959
83333.3294978418
83333.3294998666
83333.3294963083
83333.329496032
83333.3294958539
83333.3294959177
83333.3294963288
83333.3294971145
83333.3294982801
83333.3294998228
83333.3295017244
83333.3295039509
83333.3294984689
83333.3294981871
83333.3294980186
83333.3294980906
83333.3294984882
83333.3294992334
83333.3295003292
83333.3295017748
83333.329503559
83333.3295056573
83333.3295080307
83333.3295005762
83333.3295002909
83333.3295001327
83333.3295002126
83333.3295006007
83333.3295013121
83333.3295023462
83333.3295037019
83333.3295053725
83333.3295073421
83333.3295095825
83333.3295120549
83333.3295026292
83333.3295023434
83333.3295021956
83333.3295022873
83333.329502668
83333.3295033504
83333.3295043308
83333.3295056057
83333.32950717
83333.3295090137
83333.3295111186
83333.3295134551
83333.3295159859
83333.3295046217
83333.3295043441
83333.3295042072
83333.3295043138
83333.3295046911
83333.3295053484
83333.329506281
83333.3295074837
83333.3295089513
83333.3295106766
83333.3295126479
83333.3295148453
83333.3295172392
83333.3295197943
83333.3295065432
83333.3295062896
83333.3295061677
83333.3295062906
83333.3295066691
83333.3295073056
83333.3295081952
83333.3295093324
83333.3295107122
83333.3295123288
83333.3295141737
83333.3295162335
83333.3295184874
83333.3295209065
83333.3295234579
83333.3295083775
83333.3295081717
83333.329508074
83333.3295082187
83333.3295086017
83333.3295092204
83333.3295100708
83333.3295111478
83333.3295124471
83333.3295139642
83333.3295156925
83333.3295176219
83333.3295197373
83333.3295220177
83333.3295244355
83333.3295269609
83333.3295101048
83333.3295099737
83333.3295099179
83333.3295100932
83333.3295104856
83333.3295110893
83333.3295119036
83333.3295129249
83333.3295141499
83333.3295155753
83333.3295171965
83333.3295190051
83333.3295209892
83333.3295231329
83333.3295254152
83333.3295278105
83333.3295302919
83333.3295117063
83333.3295116626
83333.329511682
83333.3295119025
83333.3295123116
83333.3295129045
83333.3295136862
83333.329514656
83333.3295158124
83333.3295171535
83333.3295186761
83333.3295203737
83333.3295222363
83333.3295242505
83333.3295264
83333.3295286644
83333.3295310203
83333.3295334437
83333.3295131612
83333.3295131959
83333.3295133242
83333.3295136181
83333.3295140582
83333.3295146494
83333.329515405
83333.3295163291
83333.3295174232
83333.3295186874
83333.3295201198
83333.3295217156
83333.3295234665
83333.3295253612
83333.3295273856
83333.329529523
83333.3295317543
83333.3295340577
83333.3295364123
83333.3295144968
83333.3295145824
83333.3295147952