/*--------------------------------*- C++ -*----------------------------------*\
  =========                 |
  \\      /  F ield         | OpenFOAM: The Open Source CFD Toolbox
   \\    /   O peration     | Website:  https://openfoam.org
    \\  /    A nd           | Version:  12
     \\/     M anipulation  |
\*---------------------------------------------------------------------------*/
/*   Windows 32 and 64 bit porting by blueCAPE: http://www.bluecape.com.pt   *\
|  Based on Windows porting (2.0.x v4) by Symscape: http://www.symscape.com   |
\*---------------------------------------------------------------------------*/
FoamFile
{
    format      ascii;
    class       volVectorField;
    location    "600";
    object      U;
}
// * * * * * * * * * * * * * * * * * * * * * * * * * * * * * * * * * * * * * //

dimensions      [0 1 -1 0 0 0 0];

internalField   nonuniform List<vector> 
10116
(
(-3.52592633550651e-07 -0.000189417003177811 -1.01285109775879e-05)
(7.30991287004236e-07 -0.000203178042198238 -7.26285296210407e-06)
(6.3721264288051e-07 -0.000156556875003724 -1.2305057023826e-05)
(4.15599432060977e-07 -0.000345410368671439 -2.09426546247619e-05)
(1.69031328962816e-06 -0.000218704840149093 -4.21116064921624e-06)
(3.07168340212902e-06 -0.000169370810586831 -9.52407481636854e-06)
(1.03396553194885e-06 -0.000356493505094328 -1.54033567454647e-05)
(2.96544144036501e-06 -0.000162505666396978 -1.34788474990555e-05)
(2.31442783473104e-06 -0.000346388179490933 -2.18682444739056e-05)
(5.0422628959017e-07 -0.000329094181984865 -2.63254896872984e-05)
(1.78272558835546e-06 -0.000231505340914945 -3.26610311595282e-06)
(5.10334583133499e-06 -0.000185037357137059 -5.41311702838122e-06)
(1.49925931602937e-06 -0.000368238529699032 -1.06641125970414e-05)
(5.90373314465434e-06 -0.000175332966751075 -1.06848034614403e-05)
(3.96716152408423e-06 -0.000358731504572414 -1.63940577622471e-05)
(8.20556231022874e-07 -0.000336464556181265 -2.00045756685206e-05)
(4.81038434020915e-06 -0.000165041445974155 -1.44774231352314e-05)
(5.10515272175482e-06 -0.000357940842157514 -2.34392790627613e-05)
(1.79656270687099e-06 -0.000334082984941788 -2.71944606227613e-05)
(4.87041686203755e-07 -0.000299271738150986 -3.10269806268267e-05)
(1.91924471690423e-06 -0.000240298257079803 -2.44464726577599e-06)
(5.82533890981476e-06 -0.000198063918974804 -4.10227076884678e-06)
(1.72038047623451e-06 -0.000377529427444809 -7.53662095174392e-06)
(8.42744143217462e-06 -0.000191672986883106 -6.51343125610358e-06)
(5.27741084680695e-06 -0.000371786860558746 -1.1408184344073e-05)
(1.05572911341085e-06 -0.000343383964118824 -1.44656704255131e-05)
(8.15473354936207e-06 -0.000178042766098047 -1.16852907319162e-05)
(7.39889993095098e-06 -0.000370974360523523 -1.79006706913516e-05)
(2.71678561664387e-06 -0.00034240057120258 -2.08679185262982e-05)
(6.70291599858455e-07 -0.000304540980901862 -2.380963458374e-05)
(5.81715496498787e-06 -0.00016576786133863 -1.52827792236807e-05)
(7.83233695838833e-06 -0.000368169171755781 -2.54268369211361e-05)
(3.30200270510857e-06 -0.000343983598211602 -2.89715546545433e-05)
(1.42245916955759e-06 -0.000303523799514512 -3.19050141929362e-05)
(4.37876468420059e-07 -0.000270545346594259 -3.48038249555129e-05)
(2.23357524769383e-06 -0.000248354748139056 -1.5239035384679e-06)
(6.59042386214725e-06 -0.000206639310943233 -3.27835830949349e-06)
(1.94725771128514e-06 -0.000384706010258501 -4.58812367520407e-06)
(1.00771727981529e-05 -0.000205363889205571 -5.101152286929e-06)
(6.11321380540871e-06 -0.000382094765854176 -8.0928751799575e-06)
(1.206547848685e-06 -0.000348765273916076 -9.5315468558871e-06)
(1.12636597026005e-05 -0.000194598583999232 -7.20384624639706e-06)
(9.27633321906055e-06 -0.000384865766209883 -1.2729703119909e-05)
(3.49594969942282e-06 -0.000350067895200201 -1.51625308809641e-05)
(8.22255016938873e-07 -0.000309007575476013 -1.70481664338078e-05)
(9.76162702959073e-06 -0.000178777757029358 -1.25005653022269e-05)
(1.06932008276992e-05 -0.000381561252872947 -1.98014031730477e-05)
(4.7217137988375e-06 -0.00035290354328435 -2.25874223338299e-05)
(1.98105332004946e-06 -0.000309363177675454 -2.46379416127324e-05)
(5.64563296091783e-07 -0.000274282643478873 -2.65353352116385e-05)
(5.77152937318917e-06 -0.000165513239098501 -1.62821985838782e-05)
(1.02055238025975e-05 -0.000377991841978533 -2.75664763744651e-05)
(4.86743296913139e-06 -0.000354638513834917 -3.12604189612932e-05)
(2.33657597940055e-06 -0.000311761554598794 -3.38933727310175e-05)
(1.18300756694264e-06 -0.000274280190634709 -3.57775755089046e-05)
(3.44538109701854e-07 -0.000244118359150992 -3.74758082566721e-05)
(2.59899894743515e-06 -0.00025569223605036 -5.80773381810775e-07)
(7.63042318655652e-06 -0.000214514252873331 -2.38156169184643e-06)
(2.22683517249513e-06 -0.000390595922778033 -1.79093660619995e-06)
(1.17976542384379e-05 -0.000214200949547047 -4.0298270409845e-06)
(6.95067380089837e-06 -0.000390140082859181 -5.09300274832456e-06)
(1.37013873130929e-06 -0.000352805729757829 -4.8135066276983e-06)
(1.39325054451325e-05 -0.000208564919184587 -5.65189623771807e-06)
(1.0790558962277e-05 -0.000395841403939473 -9.29748447582183e-06)
(4.09686403104275e-06 -0.000356035055971793 -1.01095273988602e-05)
(9.47626846813364e-07 -0.000312299549644253 -1.0609660395041e-05)
(1.35540608132725e-05 -0.000195469201567781 -7.78156451632629e-06)
(1.3243994139298e-05 -0.000395946649349778 -1.4328771528447e-05)
(5.95910358127525e-06 -0.00036115069976783 -1.6736726470885e-05)
(2.49163369376384e-06 -0.000314281532258575 -1.77680172304816e-05)
(6.7246620984666e-07 -0.000277135226868317 -1.85487759494746e-05)
(1.04136436425857e-05 -0.00017845543085474 -1.34581870302459e-05)
(1.36254824288118e-05 -0.000391657120865243 -2.18806712146422e-05)
(6.74378236281691e-06 -0.000363947218576898 -2.47886345123172e-05)
(3.26881765720224e-06 -0.000318013124917394 -2.65430008230949e-05)
(1.56717219012851e-06 -0.0002784066678371 -2.74502531760067e-05)
(4.37327677895837e-07 -0.000246602921055822 -2.81916194200004e-05)
(4.37386450102271e-06 -0.000165172249044002 -1.73622301932842e-05)
(1.19393310255921e-05 -0.000387080463747686 -2.98318420257373e-05)
(6.30781582054913e-06 -0.000365959293224376 -3.39910301171448e-05)
(3.29903540625422e-06 -0.000321535390407719 -3.64655576400297e-05)
(1.80679376086587e-06 -0.000281393093155791 -3.79845555149707e-05)
(9.47579888577178e-07 -0.000247583085777791 -3.85311338597855e-05)
(2.45596919105041e-07 -0.000219845920129205 -3.91191373607783e-05)
(3.03491605658474e-06 -0.000262328010503692 4.44768682539215e-07)
(8.87363712204616e-06 -0.000221772039467134 -1.46061836958988e-06)
(2.54271438933198e-06 -0.000395305390938166 1.0150139487063e-06)
(1.37327989574796e-05 -0.000222280088934867 -3.13924005362146e-06)
(7.88388903132556e-06 -0.000396939394513838 -2.27152698062507e-06)
(1.57510048047809e-06 -0.000355636990605279 -2.28955951458378e-07)
(1.66802937141897e-05 -0.00021744142551128 -4.44991482107724e-06)
(1.2353850575298e-05 -0.000404424860748509 -6.25785409777998e-06)
(4.68976687266874e-06 -0.000360589260558468 -5.32540118434246e-06)
(1.08132351125793e-06 -0.000314513482117574 -4.30691539280103e-06)
(1.71668338024879e-05 -0.000209590421183917 -6.11574202060124e-06)
(1.55509092407346e-05 -0.000407356269504437 -1.07956233670233e-05)
(7.02541505390991e-06 -0.000367584835033933 -1.15854007319734e-05)
(2.93856411401987e-06 -0.000317930582475675 -1.12466320041732e-05)
(7.735466933204e-07 -0.000278982715605566 -1.07382021635779e-05)
(1.48867125147682e-05 -0.000195266857550116 -8.58833693442741e-06)
(1.68666373242707e-05 -0.000406447329438358 -1.62394835920348e-05)
(8.47656784457919e-06 -0.000372624260161188 -1.87825560326204e-05)
(4.12259762052016e-06 -0.000323316691748762 -1.95640947801633e-05)
(1.93117042241225e-06 -0.000281585479020378 -1.93882437112672e-05)
(5.17802273646504e-07 -0.000248222928138475 -1.90815276081708e-05)
(9.76835610751706e-06 -0.000178003152266922 -1.45004545907385e-05)
(1.5995605252929e-05 -0.000400986591813471 -2.40970828606963e-05)
(8.61820068719921e-06 -0.000375573426545634 -2.74431372642025e-05)
(4.58687168972307e-06 -0.00032810981939126 -2.90205879902337e-05)
(2.46680482974948e-06 -0.000285827114673057 -2.95788242303396e-05)
(1.23085776309087e-06 -0.000250366424716038 -2.91983406970025e-05)
(3.16175544955444e-07 -0.000221274053420654 -2.89089232492094e-05)
(1.44332654873538e-06 -0.000165013665389683 -1.82934674065474e-05)
(1.2779646201882e-05 -0.000395636397646731 -3.226894002227e-05)
(7.4021566576526e-06 -0.000377284137278436 -3.70202601693336e-05)
(4.21897076682328e-06 -0.00033233381278792 -3.9615859110292e-05)
(2.50204678894263e-06 -0.000290222448797289 -4.0829883033198e-05)
(1.42221181837869e-06 -0.000253924698933024 -4.09171214642434e-05)
(7.25053572383104e-07 -0.000223194298600789 -4.0273194126585e-05)
(1.60757831681437e-07 -0.000197412705175124 -3.98812578070534e-05)
(3.52520456453835e-06 -0.000268305051508473 1.52215626476897e-06)
(1.02190156686127e-05 -0.000228336845016915 -4.28647022707599e-07)
(2.88986113192868e-06 -0.000398908605409999 3.90223056520934e-06)
(1.59817108011028e-05 -0.000229796770070262 -2.20103386887526e-06)
(8.91945365646454e-06 -0.000402617609645253 5.67074693627381e-07)
(1.81202600050343e-06 -0.000357285812773204 4.35257028244859e-06)
(1.96300169567037e-05 -0.000225484738016768 -3.52479253188567e-06)
(1.40561040062332e-05 -0.000411763221267768 -3.4284084491026e-06)
(5.32918034608413e-06 -0.000363958235230607 -6.80644200457375e-07)
(1.22811195967004e-06 -0.000315634857861852 1.94306982744637e-06)
(2.09005746695251e-05 -0.000218480650048213 -4.82765971862747e-06)
(1.79459730767605e-05 -0.000416263750483851 -7.71957300686155e-06)
(8.11455696161179e-06 -0.00037253383955783 -6.7539284240571e-06)
(3.39312139747096e-06 -0.000320451877732798 -4.88035706071836e-06)
(8.81145896378201e-07 -0.000279866913117382 -2.99935821881395e-06)
(1.94166125306247e-05 -0.000209504865475031 -6.85303940047561e-06)
(2.00450717909997e-05 -0.000418202748273657 -1.26138105771517e-05)
(1.00964771654022e-05 -0.000379433061270193 -1.35354724423093e-05)
(4.91753356311037e-06 -0.000327288064955672 -1.29723093088499e-05)
(2.27776438963573e-06 -0.000283698168963229 -1.1514351537102e-05)
(5.96227681385914e-07 -0.00024894282347582 -1.00634398668847e-05)
(1.49916740822933e-05 -0.000194948063656165 -9.57978342969165e-06)
(1.99667947787621e-05 -0.000416119891264399 -1.83412120638448e-05)
(1.08707549216094e-05 -0.00038461425947013 -2.13243311609559e-05)
(5.82322551522057e-06 -0.000333740810284549 -2.1931735373569e-05)
(3.0905066808493e-06 -0.000289295039493248 -2.14379012679056e-05)
(1.50237034687244e-06 -0.000252245377578532 -2.00364707158142e-05)
(3.77551094308798e-07 -0.000221893253533335 -1.87995628262333e-05)
(7.62598571071269e-06 -0.000177681063117496 -1.54353268263396e-05)
(1.75518253970434e-05 -0.000409759068052407 -2.64689448583096e-05)
(1.01769944922922e-05 -0.000387154884121446 -3.04199997433309e-05)
(5.8543140451603e-06 -0.00033918603032864 -3.20961870216067e-05)
(3.44236726679251e-06 -0.000294929841666951 -3.2340202237076e-05)
(1.91327348332996e-06 -0.000256964892227719 -3.1519268527549e-05)
(9.36995939870708e-07 -0.000224876475541455 -3.0026584862262e-05)
(2.12893099556691e-07 -0.000197955425776555 -2.88476633236184e-05)
(-2.97114277102218e-06 -0.000164703156087209 -1.92356290274818e-05)
(1.25594358689726e-05 -0.00040409572919039 -3.48652593406667e-05)
(7.97709285229117e-06 -0.000388497131975055 -4.02935082395142e-05)
(4.94590469705395e-06 -0.000343424744273767 -4.31839438566257e-05)
(3.20803504382244e-06 -0.000300206928287647 -4.43394267996723e-05)
(1.97221154248992e-06 -0.000261939053053156 -4.39905960362927e-05)
(1.10664768721351e-06 -0.000228988424035736 -4.28120502203088e-05)
(5.24222871106134e-07 -0.000200667942369455 -4.11535245473692e-05)
(1.00806613815496e-07 -0.000176545885487585 -3.99178262767276e-05)
(4.06695880192209e-06 -0.000273530728529072 2.62412978621461e-06)
(1.16912323295564e-05 -0.000234319801036449 6.08187278458651e-07)
(3.26506512099734e-06 -0.000401405678765974 6.89409845438366e-06)
(1.82181293351467e-05 -0.000236669138816834 -1.22494737868297e-06)
(1.00507680988974e-05 -0.000407244836107065 3.46722526547159e-06)
(2.05417628034006e-06 -0.000357784490217177 9.02906465741453e-06)
(2.27797571163454e-05 -0.000233089470646689 -2.56443559505914e-06)
(1.59216837915169e-05 -0.000418004206511741 -5.94184895667696e-07)
(6.03345878580777e-06 -0.000366172425680345 3.96020838336982e-06)
(1.38744331511023e-06 -0.000315651511883726 8.23670262518466e-06)
(2.48184800294473e-05 -0.000226454632312323 -3.89299638360281e-06)
(2.05301501524408e-05 -0.000423887899480376 -4.86794096760239e-06)
(9.2931284794924e-06 -0.000376294270449938 -2.07637587669351e-06)
(3.87415722459112e-06 -0.000321880316120345 1.42143684532287e-06)
(9.93397709346626e-07 -0.000279748692965097 4.74347773206926e-06)
(2.4132988972367e-05 -0.000218365852821419 -5.57858232286501e-06)
(2.33810344809839e-05 -0.000427361216810163 -9.47390049440901e-06)
(1.17824640172959e-05 -0.000384688026358365 -8.65343570662757e-06)
(5.73770405550419e-06 -0.000330097605305789 -6.56109305022526e-06)
(2.6356476271305e-06 -0.00028481367007558 -3.72129325022613e-06)
(6.79979571437595e-07 -0.000248780195271119 -1.05929406322917e-06)
(2.03966201029927e-05 -0.000209256871634129 -7.83798986195432e-06)
(2.4049668032996e-05 -0.000428146959260096 -1.46546240300018e-05)
(1.31125640848763e-05 -0.000391733929000706 -1.60031651872311e-05)
(7.03111024347283e-06 -0.00033800044994789 -1.52745472871253e-05)
(3.6998239066688e-06 -0.000291656656953351 -1.35054914023133e-05)
(1.76935697393367e-06 -0.000253182566074408 -1.09735059550889e-05)
(4.37167112411115e-07 -0.000221693195765695 -8.71822079497726e-06)
(1.36227074532567e-05 -0.000194780504758784 -1.06034510636187e-05)
(2.23175457709667e-05 -0.000425190804518041 -2.05999990069182e-05)
(1.29746678674421e-05 -0.000396486954647323 -2.4225412085597e-05)
(7.49721846270918e-06 -0.000345109909311291 -2.49294243505805e-05)
(4.35927790792498e-06 -0.000298668858788315 -2.41216969744757e-05)
(2.38239523650121e-06 -0.0002590873274148 -2.22991774361328e-05)
(1.14164935920449e-06 -0.000225717196038667 -1.98839891689043e-05)
(2.58102837877208e-07 -0.000197746426370628 -1.78581344714088e-05)
(3.95674493427758e-06 -0.000177206420493487 -1.62939494940944e-05)
(1.81107464701969e-05 -0.000418440115075441 -2.89875345723456e-05)
(1.12595143317791e-05 -0.000398592687713804 -3.36648653906665e-05)
(6.93888968963693e-06 -0.000350517368137372 -3.56223213781148e-05)
(4.42099295040492e-06 -0.000305169768010338 -3.57835902523505e-05)
(2.6780221349014e-06 -0.000265220895238035 -3.45217660965815e-05)
(1.47511573201185e-06 -0.000230894221485909 -3.25152843809201e-05)
(6.83539449901817e-07 -0.000201432214518269 -3.00921848121398e-05)
(1.3863813513807e-07 -0.000176344404597108 -2.81569085526312e-05)
(-8.81853916968729e-06 -0.000163882146884785 -2.01615139734796e-05)
(1.1182403339208e-05 -0.000412808240053067 -3.76095626935009e-05)
(7.92547283672646e-06 -0.000399922787537391 -4.38057376495438e-05)
(5.35907953054214e-06 -0.000354618590549468 -4.70756194130722e-05)
(3.80939588766545e-06 -0.000310651230218699 -4.83492151171884e-05)
(2.55749110190825e-06 -0.000271113208816322 -4.77845379142102e-05)
(1.55102202807944e-06 -0.000236316303479141 -4.60773650341211e-05)
(8.34057134102016e-07 -0.00020603388496943 -4.38322372945771e-05)
(3.61980942067799e-07 -0.000179674982461193 -4.13090721179231e-05)
(5.75658343676039e-08 -0.000157042121030527 -3.93688253021012e-05)
(4.56220438325142e-06 -0.000278017209423148 3.79888921522786e-06)
(1.32743132813403e-05 -0.000239700875183969 1.6427298296491e-06)
(3.66906323969985e-06 -0.000402824519009555 1.00191832173154e-05)
(2.06456173948799e-05 -0.000242972285231457 -1.74063254130713e-07)
(1.12680673672592e-05 -0.000410845230577287 6.45267320767915e-06)
(2.29874459364625e-06 -0.000357133672413686 1.38607793738287e-05)
(2.60451911542084e-05 -0.000240071667404131 -1.61515308035895e-06)
(1.79100473165504e-05 -0.000423236072998688 2.30655941144919e-06)
(6.7946273607691e-06 -0.000367261211921873 8.68085945510163e-06)
(1.55413078346101e-06 -0.00031455924608012 1.46458007148684e-05)
(2.89383458018088e-05 -0.000234012396621434 -2.91331413129324e-06)
(2.33014262660119e-05 -0.000430435074791256 -2.02288070455046e-06)
(1.05811309050974e-05 -0.00037891797382879 2.59345350072597e-06)
(4.38991623116606e-06 -0.000322216622706612 7.75832108822258e-06)
(1.11097671504989e-06 -0.000278610831229653 1.25718688779429e-05)
(2.91158872028478e-05 -0.000226200023352752 -4.64647593975831e-06)
(2.69389611135013e-05 -0.000435207933633367 -6.59408342757587e-06)
(1.36046975597292e-05 -0.000388724092951067 -3.94611356339174e-06)
(6.61103511727547e-06 -0.000331812743858775 -2.21004796337871e-07)
(3.00659749019095e-06 -0.000284922429757845 4.07026771906924e-06)
(7.66136123823519e-07 -0.000247690359731025 8.00516514934424e-06)
(2.61105050015277e-05 -0.000218052016683445 -6.57057926825706e-06)
(2.83660907444178e-05 -0.000437509790405495 -1.14799179692503e-05)
(1.54927940031845e-05 -0.000397222561281531 -1.10705280253453e-05)
(8.29334108292578e-06 -0.000341065477326438 -8.82734252662805e-06)
(4.33278058607856e-06 -0.000293003234623104 -5.6685369010377e-06)
(2.0457660701784e-06 -0.000253212170081518 -1.93044118728214e-06)
(5.00342876242056e-07 -0.000220676229395673 1.40395289122427e-06)
(1.99244382701581e-05 -0.000209132621797372 -8.96892766869148e-06)
(2.73009883420931e-05 -0.000437419207425644 -1.68956616510621e-05)
(1.5876834186442e-05 -0.000403838753862884 -1.88603869866419e-05)
(9.16600288628627e-06 -0.000349627297243313 -1.82305986218411e-05)
(5.27736412813302e-06 -0.000301269061952717 -1.61364949490895e-05)
(2.848124176921e-06 -0.000260235111596991 -1.31905676812047e-05)
(1.34354952159046e-06 -0.000225703981860775 -9.77505654235191e-06)
(3.01577294125172e-07 -0.000196782548452535 -6.84146595578346e-06)
(1.07064870040736e-05 -0.000194472364658659 -1.14741730057343e-05)
(2.36891700120479e-05 -0.000434164905293515 -2.30686579996774e-05)
(1.46269837787316e-05 -0.00040815754856784 -2.74231728116087e-05)
(8.99945487428406e-06 -0.000356690231366943 -2.84141874912526e-05)
(5.65257180424514e-06 -0.000309165343384465 -2.75087884649851e-05)
(3.3701277988927e-06 -0.000267579566301856 -2.52436822313535e-05)
(1.82742590968005e-06 -0.000231946582067034 -2.23295940764306e-05)
(8.34480592327113e-07 -0.000201417324648541 -1.90808603694583e-05)
(1.71074552210638e-07 -0.000175446962898152 -1.63917168573887e-05)
(-1.19641546051274e-06 -0.000176258288571572 -1.71477163901519e-05)
(1.75482591728361e-05 -0.000427408010321117 -3.16533202588982e-05)
(1.17476739618298e-05 -0.000410238218388251 -3.71717628499581e-05)
(7.72528797587038e-06 -0.000361929487213911 -3.95045086608791e-05)
(5.29690343283104e-06 -0.000315847984432012 -3.97552675797815e-05)
(3.4753670348893e-06 -0.000274630886889196 -3.82566381275817e-05)
(2.08568499761305e-06 -0.000238438114285412 -3.57206220965698e-05)
(1.11143538056554e-06 -0.000206993805743581 -3.27321435810286e-05)
(4.79841188325566e-07 -0.000179667698729297 -2.95260306122949e-05)
(8.50798886693191e-08 -0.000156218434841321 -2.69626183970457e-05)
(-1.60323491282689e-05 -0.000162401303400857 -2.1031221036716e-05)
(8.5827997565023e-06 -0.000422017165685117 -4.04860799931028e-05)
(7.19457434350564e-06 -0.000412007842234539 -4.7565448856256e-05)
(5.38939888750317e-06 -0.000366151373751897 -5.12631746161401e-05)
(4.22311393693028e-06 -0.000321343663246908 -5.27424892700066e-05)
(3.09511422111439e-06 -0.000280832832997535 -5.21333803684016e-05)
(2.04203485826568e-06 -0.00024474796478645 -5.0101966036511e-05)
(1.19174773202511e-06 -0.000212777043059421 -4.72616564877635e-05)
(5.98155473460118e-07 -0.000184661296821144 -4.41166560060158e-05)
(2.30334570467267e-07 -0.000160009921540016 -4.0863307532071e-05)
(2.42624231878994e-08 -0.000138773557713979 -3.83422967123461e-05)
(5.08433903419448e-06 -0.000281813744394181 5.03753143740609e-06)
(1.48400360890052e-05 -0.00024439188392398 2.720524396355e-06)
(4.07810010801938e-06 -0.000403169678637183 1.32813966965507e-05)
(2.32469348802642e-05 -0.000248714599704262 8.84703816275176e-07)
(1.25514542318592e-05 -0.000413453056370896 9.54492331231972e-06)
(2.54889118527568e-06 -0.000355334433110485 1.8877283477583e-05)
(2.94911292255139e-05 -0.000246366496695739 -5.52218302550598e-07)
(2.00178121793014e-05 -0.000427506341822703 5.30286206030876e-06)
(7.60023963128154e-06 -0.000367239246600238 1.35351729231071e-05)
(1.72569425919418e-06 -0.000312348106871722 2.12312376012049e-05)
(3.33725249062234e-05 -0.000240904606471078 -1.89968406886778e-06)
(2.62269433363646e-05 -0.000435998882697932 8.92042680692312e-07)
(1.19664436541752e-05 -0.000380445868489421 7.34012882867786e-06)
(4.93471823152687e-06 -0.000321461999141331 1.420867579675e-05)
(1.23393243807478e-06 -0.000276430565895058 2.05585881358362e-05)
(3.43477012245832e-05 -0.000233518859869287 -3.70735130821453e-06)
(3.06902747367979e-05 -0.000442000504730806 -3.73784075523961e-06)
(1.55661473124659e-05 -0.000391619510457887 7.50794489150862e-07)
(7.54411494103472e-06 -0.000332445673828062 6.15087041271285e-06)
(3.39447037123458e-06 -0.000284015658013393 1.19440328465453e-05)
(8.55210177188378e-07 -0.000245647236025592 1.72045568318984e-05)
(3.21782075747148e-05 -0.000225728057820647 -5.60315626413823e-06)
(3.29083607609289e-05 -0.00044554893626921 -8.60064628624199e-06)
(1.80451513918031e-05 -0.000401470795872716 -6.32799735422603e-06)
(9.63518713818118e-06 -0.000343024368674994 -2.46294733116499e-06)
(4.99640107818279e-06 -0.000293341586305477 2.1596281711031e-06)
(2.32961197708902e-06 -0.000252309677010131 7.16811124881794e-06)
(5.64691604633855e-07 -0.00021879439303597 1.16388861746902e-05)
(2.66440504896679e-05 -0.000217787864902278 -7.76854239561944e-06)
(3.25758568769068e-05 -0.000446957992441278 -1.37509417243337e-05)
(1.89773834043001e-05 -0.000409511399777066 -1.38987846669356e-05)
(1.09282509966237e-05 -0.000352913338488222 -1.17587031189432e-05)
(6.23657245800073e-06 -0.000302835458966413 -8.26486715766318e-06)
(3.33164569982309e-06 -0.000260461322284846 -4.11294865983016e-06)
(1.55170376521971e-06 -0.000224853751820103 3.69494142328631e-07)
(3.46956376402935e-07 -0.000195057542125471 4.2678257969594e-06)
(1.78573791000127e-05 -0.000208858411789905 -9.98428987070372e-06)
(2.95497447683999e-05 -0.000446581787941694 -1.94100188139779e-05)
(1.81810614453357e-05 -0.000415690189353217 -2.2046835436149e-05)
(1.11444614179922e-05 -0.000361425115691426 -2.16961389595204e-05)
(6.91585760947893e-06 -0.000311994701777899 -1.94901075259716e-05)
(4.06776204066611e-06 -0.000268936134076821 -1.60933531072508e-05)
(2.17736424339518e-06 -0.000232118201171823 -1.21863370669387e-05)
(9.80907203190334e-07 -0.000200619374871842 -8.04767031276879e-06)
(2.01210389783092e-07 -0.000173848487722461 -4.54993200719833e-06)
(6.24408934068069e-06 -0.000193707950787307 -1.23661326286614e-05)
(2.39417058375716e-05 -0.000443478757747783 -2.57358317722297e-05)
(1.56930955948069e-05 -0.000420022900729159 -3.09241315382965e-05)
(1.02038219885348e-05 -0.000368320045887187 -3.22852091232533e-05)
(6.84696426672655e-06 -0.00032007653936225 -3.14520899603822e-05)
(4.40804765580047e-06 -0.000277221858016981 -2.89352172102819e-05)
(2.60604169691848e-06 -0.000239699994918024 -2.54881884461101e-05)
(1.37090202066292e-06 -0.000207167270770728 -2.16879801282584e-05)
(5.87449332454023e-07 -0.000178940868779975 -1.77439387257156e-05)
(1.05795403976132e-07 -0.000154748035821575 -1.45083229982288e-05)
(-7.72005230932449e-06 -0.00017470675661488 -1.79857421450784e-05)
(1.57683150143809e-05 -0.000436958514012635 -3.44938301297164e-05)
(1.15716125697626e-05 -0.000422579074473968 -4.09506943421263e-05)
(8.13694447467116e-06 -0.000373685592018076 -4.37134156645086e-05)
(5.98864923747259e-06 -0.000326764036273791 -4.41412118825972e-05)
(4.22270624458522e-06 -0.00028457572151992 -4.25702638499367e-05)
(2.73758830192166e-06 -0.000247085169645986 -3.96920590601306e-05)
(1.5922601285563e-06 -0.000213930463171685 -3.61078156732569e-05)
(8.03366404511723e-07 -0.000184829329443055 -3.22989658661852e-05)
(3.16159203655474e-07 -0.000159357492184845 -2.84369157946268e-05)
(4.30672650303024e-08 -0.000137433564223836 -2.53591758039051e-05)
(-2.42430951960279e-05 -0.000160279811187584 -2.18022954762329e-05)
(4.72900074781109e-06 -0.000431973273000861 -4.34671562418529e-05)
(5.77065624600333e-06 -0.000425196710023562 -5.15639362621761e-05)
(5.00600323623317e-06 -0.000378403891751619 -5.57347716217456e-05)
(4.40561366023288e-06 -0.000332451004241725 -5.74761110276017e-05)
(3.52731444394974e-06 -0.000290894466054838 -5.69112352736539e-05)
(2.52054922067864e-06 -0.000253757034093595 -5.47200599867907e-05)
(1.59402705508268e-06 -0.000220542144485658 -5.14759885148384e-05)
(8.73323101741295e-07 -0.000190887890584457 -4.76858269752434e-05)
(3.9373390472531e-07 -0.000164639463273142 -4.37825446600779e-05)
(1.22282855559286e-07 -0.000141557080381735 -3.99229563529783e-05)
(-2.79577161643505e-09 -0.000121659676604673 -3.69272051220093e-05)
(5.6811766772577e-06 -0.000284843536494781 6.35214874394545e-06)
(1.64399931564512e-05 -0.000248365312818542 3.88644496910298e-06)
(4.49808231971823e-06 -0.000402394749619308 1.6686606500324e-05)
(2.59430867704838e-05 -0.000253809831293171 1.96919664362463e-06)
(1.38697928186339e-05 -0.000415081713412634 1.27767366018135e-05)
(2.79788221921246e-06 -0.000352362661512448 2.40926657212687e-05)
(3.31555381334926e-05 -0.000252082629851496 5.53038742587505e-07)
(2.22232203522163e-05 -0.000430822209523199 8.40461359041286e-06)
(8.43725498395307e-06 -0.000366118317620604 1.85615874644303e-05)
(1.9010497245903e-06 -0.00030899945451938 2.80408691733255e-05)
(3.79348645685646e-05 -0.000247118682839179 -8.28234933302721e-07)
(2.92879180295983e-05 -0.000440633155448067 3.89367151508285e-06)
(1.34101942382406e-05 -0.000380893954754728 1.22134281712846e-05)
(5.49954641505316e-06 -0.00031960834578914 2.08380711524788e-05)
(1.36092511046709e-06 -0.000273178022712438 2.87674926346117e-05)
(3.99156424750971e-05 -0.000240278906739044 -2.71132946982098e-06)
(3.46096684745674e-05 -0.000447821803960298 -8.32486123736011e-07)
(1.76352783337381e-05 -0.000393451325243705 5.52751371570952e-06)
(8.52818273485591e-06 -0.000332004170977323 1.26339606310548e-05)
(3.7981820151235e-06 -0.000282075989365476 1.99737315526539e-05)
(9.47116020512023e-07 -0.000242617660512788 2.66086941184012e-05)
(3.85153028808446e-05 -0.000232751792323037 -4.67511386479618e-06)
(3.76557419005379e-05 -0.00045252301746851 -5.77418259047935e-06)
(2.07299883272402e-05 -0.000404609072534668 -1.60709175703463e-06)
(1.10556662442258e-05 -0.000343901523282932 3.93546425759299e-06)
(5.69271677817317e-06 -0.000292667596085305 1.00653562110856e-05)
(2.62260653287682e-06 -0.000250456148282098 1.63973028454246e-05)
(6.30372139374357e-07 -0.000216015724845665 2.20573432786309e-05)
(3.37600127934695e-05 -0.000225277936916742 -6.91942092619199e-06)
(3.8096616081829e-05 -0.000455169665431875 -1.09165466256529e-05)
(2.22433826633316e-05 -0.000413956354476303 -9.14095119220792e-06)
(1.27944072639155e-05 -0.000355083800260523 -5.37044118063434e-06)
(7.24520145146103e-06 -0.000303387732019348 -4.11575697053298e-07)
(3.83390085024634e-06 -0.000259752796888045 5.01239500610983e-06)
(1.76296818368573e-06 -0.000223134509937352 1.06213596095815e-05)
(3.92433468745278e-07 -0.000192522545537672 1.55393482082568e-05)
(2.55294803051262e-05 -0.000217360534119964 -8.94207200111009e-06)
(3.57525743951334e-05 -0.000456273881086031 -1.6342339532904e-05)
(2.19594689725089e-05 -0.000421538803060179 -1.70952373991353e-05)
(1.34164226969725e-05 -0.000364900219660869 -1.52111079931221e-05)
(8.24231329299676e-06 -0.00031376764031298 -1.15990247469495e-05)
(4.79386523589895e-06 -0.000269356731038419 -6.98709665654181e-06)
(2.53851818627154e-06 -0.000231441384395551 -2.01736617102296e-06)
(1.1302936410394e-06 -0.000199043908670423 3.07246172906919e-06)
(2.32006252162035e-07 -0.000171537610997555 7.43346113686425e-06)
(1.41881386037887e-05 -0.000208154466040667 -1.10235779260074e-05)
(3.06419303607478e-05 -0.000456135867698945 -2.22016902042532e-05)
(1.9862717622873e-05 -0.000427741520837572 -2.55749623098189e-05)
(1.28118102650348e-05 -0.000373246921906576 -2.55700540642294e-05)
(8.46195863968495e-06 -0.000323114484066902 -2.34223656968996e-05)
(5.3641324685121e-06 -0.000278786498142373 -1.97587111655723e-05)
(3.12793327255772e-06 -0.000240057835652346 -1.53107342670549e-05)
(1.62437898452705e-06 -0.000206534168297818 -1.06286631201576e-05)
(6.88505085897581e-07 -0.000177490620857613 -5.8892224660383e-06)
(1.23334796794331e-07 -0.000152624837816465 -1.93169548973325e-06)
(3.08095636829047e-07 -0.00019236822531499 -1.3255933134118e-05)
(2.29600829185903e-05 -0.00045348765886285 -2.86331885310055e-05)
(1.60846672779407e-05 -0.000432620568698231 -3.47376980955844e-05)
(1.1025840434628e-05 -0.000380294473882034 -3.65180049710249e-05)
(7.8495634125483e-06 -0.000331210370313914 -3.58392948252877e-05)
(5.39540536460584e-06 -0.000287386584627336 -3.32284196053572e-05)
(3.43818558102645e-06 -0.000248557376225925 -2.94228754658603e-05)
(1.97491470290967e-06 -0.000214289810262743 -2.50227933540832e-05)
(9.86709494287242e-07 -0.000184270347824984 -2.04889422706558e-05)
(3.87569453717179e-07 -0.000158038972811074 -1.59666594906778e-05)
(5.46087302299395e-08 -0.000135491872985076 -1.22871603027081e-05)
(-1.53727093261489e-05 -0.000172554284849696 -1.87930925812036e-05)
(1.27420846250598e-05 -0.000447386426021365 -3.74814969424223e-05)
(1.07020872773612e-05 -0.000436096000523572 -4.50039047517533e-05)
(8.13313258045765e-06 -0.000386197937808283 -4.82419727742134e-05)
(6.44754657387923e-06 -0.000338106181217297 -4.89022721748647e-05)
(4.86291141513163e-06 -0.000294860438637376 -4.73421335927479e-05)
(3.37369395861175e-06 -0.000256306738731829 -4.4276585544552e-05)