/*--------------------------------*- C++ -*----------------------------------*\
  =========                 |
  \\      /  F ield         | OpenFOAM: The Open Source CFD Toolbox
   \\    /   O peration     | Website:  https://openfoam.org
    \\  /    A nd           | Version:  12
     \\/     M anipulation  |
\*---------------------------------------------------------------------------*/
/*   Windows 32 and 64 bit porting by blueCAPE: http://www.bluecape.com.pt   *\
|  Based on Windows porting (2.0.x v4) by Symscape: http://www.symscape.com   |
\*---------------------------------------------------------------------------*/
FoamFile
{
    format      ascii;
    class       volScalarField;
    location    "300";
    object      k;
}
// * * * * * * * * * * * * * * * * * * * * * * * * * * * * * * * * * * * * * //

dimensions      [0 2 -2 0 0 0 0];

internalField   nonuniform List<scalar> 
10228
(
1.68659605271e-07
1.68548305878517e-07
2.63226867052461e-06
7.62038145369063e-07
8.16537525856983e-07
2.00176389706765e-07
2.85140078665523e-06
1.35379190480377e-05
8.89895444847195e-06
2.04129273596469e-06
9.3736648978878e-06
8.8882354747948e-07
2.36674914996983e-06
1.74900615859472e-07
2.98676450566446e-06
1.32900799931036e-05
2.67681531203458e-05
3.01974293926968e-05
2.12005520636666e-05
4.10093704660773e-06
2.16333618253359e-05
3.01056201795298e-05
9.7088078607489e-06
7.93890372840496e-07
2.60871240503859e-06
4.72166142312048e-06
1.56669430558584e-07
2.84400227523158e-06
1.16725356249642e-05
2.70394980332688e-05
4.13267780991636e-05
5.08190188719211e-05
5.22651438943994e-05
3.7976529863846e-05
7.1158263198222e-06
5.21198969463888e-05
2.18139474903669e-05
3.814875876535e-05
2.9275318125774e-05
5.0695133493844e-05
9.25599926775312e-06
6.42681697051704e-07
2.45556600299237e-06
5.29024421033067e-06
7.72394507429613e-06
1.00158363882886e-07
2.49954227459674e-06
1.07632436903304e-05
2.65683441811672e-05
4.11903014806794e-05
5.49716860844701e-05
7.06994932234946e-05
7.95115931666837e-05
7.75636391214836e-05
5.6553131380454e-05
1.05691553347692e-05
5.11714862983862e-05
7.91106010773948e-05
7.72971061447957e-05
3.80174783184703e-05
2.07510828516548e-05
5.65281154747395e-05
2.74768877856034e-05
4.96939505342093e-05
7.02628964796796e-05
8.0136313760339e-06
3.85654740383186e-07
2.01348016252821e-06
5.2712267228587e-06
8.48183974234374e-06
1.11929269241126e-05
4.4585432515216e-08
1.74120195994827e-06
9.10625608274226e-06
2.48571400873817e-05
4.01305657089875e-05
5.48342080580869e-05
7.04256193615111e-05
9.03079005103255e-05
0.000105286015300532
0.000111298772904353
0.000104706579115812
7.53703779024809e-05
1.45238129876526e-05
7.7543222931982e-05
7.60110030712563e-05
4.8596982404437e-05
0.0001107672514891
0.000104597287564867
0.000104329627143492
5.61412459625926e-05
3.64082749268214e-05
1.81084511944204e-05
7.53158630938655e-05
2.38788421198791e-05
4.69721999378946e-05
6.86531302441091e-05
8.95839930135317e-05
5.54664005806081e-06
1.6866897483344e-07
1.33104800468826e-06
4.63602678878729e-06
8.72055760864196e-06
1.19511283482697e-05
1.50215497285495e-05
7.0207918913975e-09
7.26704349889956e-07
6.48257540845049e-06
2.11147881587984e-05
3.73441871274566e-05
5.3351681173904e-05
6.97977572610146e-05
8.50771984420185e-05
0.000109681719272407
0.000130426984754955
0.00014288344978754
0.000145130828740833
0.000132599039483504
9.40562381915881e-05
1.86944168548519e-05
0.000102352694494077
7.3902495988139e-05
0.000108758339420976
0.000102776452768976
7.27937697602582e-05
4.34455917795018e-05
0.000142111188107265
0.000144552571629499
0.000129425880538268
0.000132164650004966
7.4829401265054e-05
5.42071359115995e-05
3.2623938740698e-05
1.32549003726495e-05
9.39802170351517e-05
1.7918053367908e-05
4.16634596420778e-05
6.49618772781706e-05
8.73480158453341e-05
0.000108663122095191
2.19359771433453e-06
4.03568684956232e-08
7.283804667579e-07
3.50693060152707e-06
8.15168425402172e-06
1.22833764011896e-05
1.56658723692439e-05
1.91655857117226e-05
6.80148166370717e-10
1.01212308841482e-07
3.28326784625671e-06
1.33527896871134e-05
3.23188568167008e-05
4.978060427602e-05
6.75815191433504e-05
8.42581061861487e-05
0.000100006370653922
0.000128640844953777
0.000154807401740587
0.000173332347041745
0.00018248208737679
0.00017991371961368
0.000160508876852093
0.00011231920888746
2.32896618129671e-05
0.000139465819809137
0.000126519932633315
9.76430154053832e-05
0.000104408336521532
6.72029440643455e-05
0.000142302522357099
0.000130482841118216
9.91721527462466e-05
6.66229554710374e-05
3.45496070923961e-05
0.000181719595951412
0.000172293115945922
0.000179312282888516
0.000153555780129333
0.000160063969294018
7.28291560792602e-05
9.34641818594084e-05
4.98751765951691e-05
2.58828855083887e-05
6.09247228198007e-06
0.000112286915284616
9.09094899538686e-06
3.23622642627656e-05
5.82361141613299e-05
8.25701388377085e-05
0.000105786046360507
0.000127373493956939
2.76543413492035e-07
3.37796571249441e-09
1.06538962419067e-07
2.27094397903732e-06
6.89225887965507e-06
1.18806961672559e-05
1.5870326986932e-05
1.97695652168696e-05
2.37482494191382e-05
5.32511350773882e-09
7.0061337571556e-07
6.83556345643939e-06
2.39690487372359e-05
4.35365757042339e-05
6.27795128593081e-05
8.14113156646875e-05
9.88124372038663e-05
0.000114292283106593
0.000147003252584332
0.000178363813605378
0.000202677299305401
0.000218106041556288
0.000223015387605802
0.00021479344931873
0.000188022111280407
0.000130309859567463
2.82698290522808e-05
0.000178904553493327
0.000169033197852164
0.000134095080070643
0.000150054098508707
0.000120748328583875
8.95201341485526e-05
0.000137580097976513
9.67798919535338e-05
5.61194096807907e-05
0.000176947965591316
0.000158349202619023
0.000126768474295414
9.25826319274095e-05
5.60665138144741e-05
2.0015678299993e-05
0.00022225027145095
0.000217106512681653
0.000201401551842915
0.000214180609163378
0.0001769064949637
0.000187601185779238
6.85397106717987e-05
9.14984704312504e-05
0.000111802039571841
4.25018796474467e-05
1.57738320169695e-05
0.000130329886563097
1.86538156272809e-06
1.90404537469538e-05
4.72298561006908e-05
7.43522804309753e-05
0.00010001267000899
0.000123952743843474
0.000145539322032855
2.37278914913211e-08
5.77624066604071e-09
5.86864040878683e-07
5.20836715406669e-06
1.07666225174775e-05
1.54004449282624e-05
1.98128290700449e-05
2.44021696947047e-05
2.88046780298159e-05
2.96027563125978e-08
1.90394017147292e-06
1.14675161014101e-05
3.32653379978421e-05
5.47513473138709e-05
7.56309774041863e-05
9.53119082134633e-05
0.000112857449561753
0.000127761468546484
0.000164468843422627
0.000200961969725138
0.000230835197202641
0.000252225169278017
0.000263684315126032
0.000263599336429872
0.000249206131934252
0.000214912967621131
0.000147969489250519
3.37844458153982e-05
0.000213726334341796
0.000173253369934411
0.000219346870393195
0.000162690267161147
0.000197582733338359
0.000125185522334827
0.000172905320260091
0.000143325551918366
0.000111194693942556
7.68127292456454e-05
0.000172117792039664
0.00012961699822508
8.47339099488671e-05
3.8290669343113e-05
0.000211756460887561
0.000185899541791792
0.000154666230935415
0.000120307765257584
8.19625507089063e-05
3.78415953862004e-05
5.3405828500502e-06
0.000262682893851397
0.000262808095206685
0.000250995278601693
0.000229372954711169
0.000248601589847903
0.000199353376647514
0.000214534796739407
8.73987366699768e-05
6.17463397094733e-05
0.000109859174710487
0.000129938120798594
3.18783438341092e-05
0.000148066238671973
8.88662491893343e-08
5.55492409249902e-06
2.9983815318776e-05
6.15333255752725e-05
9.03582072321177e-05
0.000117261442684511
0.000141662314708696
0.000162896593712431
2.69393280525267e-08
9.47370242854214e-09
2.48254058094646e-07
3.26570973812848e-06
9.07112912650557e-06
1.43026538290302e-05
1.90904292586733e-05
2.43663251508922e-05
2.95661379938934e-05
3.44446581264189e-05
8.3248172316962e-08
3.46227087606281e-06
1.68366179848259e-05
4.23088141600718e-05
6.60656641738426e-05
8.85689284647269e-05
0.000108828876827897
0.0001261592223608
0.000140619369457361
0.000181179374003569
0.000222491799860501
0.000257737000433694
0.000284827796776207
0.000302382199025155
0.000309182420905645
0.000303611408337707
0.000282809355248792
0.000241035090178542
0.000165132491978426
3.9586447037371e-05
0.000247081987228378
0.000259224523568921
0.000207194619810255
0.000213624036233157
0.000164165381253543
0.000259814885251437
0.000152508236495106
0.000190347258760196
0.000225079394656397
0.000111868153722784
0.000194930271204288
0.000165322585490698
0.00013242073523856
9.67653789472812e-05
5.65363164070583e-05
0.000164291624305135
0.000206922141868789
0.000117781197789435
6.60126738304877e-05
1.45178435868628e-05
0.000246136843718426
0.000212857627155985
0.000182259610437285
0.000148485161948341
0.000110777606891369
6.5217121910132e-05
1.82694381145727e-05
2.26110326194733e-07
0.000301142867155601
0.000308133152219577
0.000302798940099149
0.000283418013835574
0.000256134622422687
0.000282228247972694
0.00022076540097491
0.000240703184284748
0.000105835015920558
8.12236367707717e-05
5.29750535588767e-05
0.000128028687925938
0.000147782058290091
2.62471616705022e-05
0.000165298520022456
2.50020217622842e-07
1.06745507699099e-05
4.15910049879463e-05
7.56955997139864e-05
0.000106245112106088
0.000134099772945489
0.000158627239778082
0.000179454820327638
4.81379938042809e-08
1.14342053786274e-08
1.69029533820356e-07
2.12536923143541e-06
7.08971170199934e-06
1.26464733461632e-05
1.77671582668993e-05
2.3372248068398e-05
2.9536883098233e-05
3.53865886980566e-05
4.03970273459411e-05
1.6409836886627e-07
5.65785874908532e-06
2.25291380157214e-05
5.18368894749857e-05
7.7616739815091e-05
0.000101125120267907
0.000121704328122111
0.000138808622306212
0.000152695104975464
0.000196980231364126
0.000242958598368352
0.000283340167091455
0.000315901489495814
0.000339224793883206
0.000352275299913057
0.000353967672840498
0.000342661955953764
0.000315400630930182
0.000266284267673771
0.000181964415220297
4.55763101992395e-05
0.000239726242868134
0.000297152204098743
0.000279047684005734
0.000304553292283505
0.000252658209972273
0.000197000440938216
0.000254050350959993
0.000204718979627596
0.000151314026171678
0.000299703945157175
0.000137679669497885
0.000178941320348655
0.000217048111149285
0.000251438944102313
9.17167137041382e-05
0.000215974883884061
0.000186569232887582
0.000153159056031964
0.000116258911557813
7.44858141529373e-05
2.57149088839807e-05
0.000153383328196751
0.000199340032171769
0.000241280943577166
0.000101602063658581
3.65476186352145e-05
6.06731430885908e-07
0.000279722044676995
0.000239046914623977
0.000209219595840199
0.000176231188467717
0.000139864657839169
9.85150034455604e-05
4.78724634960678e-05
1.00999866908931e-05
3.91218856184202e-07
0.000337801320600003
0.000350970392088656
0.000352865671970333
0.000341840531856269
0.000314359277247279
0.000281625379491677
0.000314844264826993
0.000241112440591244
0.000265995062441035
9.98978575600008e-05
0.000123969593220232
7.35594120761728e-05
4.51966787473468e-05
0.000145890908279956
0.000165095577927784
2.03280343498358e-05
0.000182196094638994
5.13945592641745e-07
1.69264515623159e-05
5.33196616821773e-05
8.98413666913892e-05
0.00012176867378208
0.000150291409824483
0.000174808892651438
0.000195116368026492
1.51106044793812e-07
1.34930094370732e-08
1.53949736635164e-07
1.33374987146654e-06
2.73455764614486e-06
5.17496151061638e-06
1.0643225782807e-05
1.595924892625e-05
2.1699009623324e-05
2.83691795704078e-05
3.54223295609533e-05
4.15496373825057e-05
4.65457065703168e-05
3.00811188517213e-07
8.31063030340053e-06
3.28010042718192e-05
6.13974613878705e-05
8.87435107207004e-05
0.000113158049807439
0.000133920181103527
0.000150726949745362
0.000163997874891577
0.000211834246528386
0.000262303173987738
0.000307632003096779
0.000345446563880405
0.000374271603790913
0.000393149828338385
0.000401281870452535
0.000397639616157451
0.000380516149180572
0.000346846325366312
0.000290624968261103
0.000198355823322413
5.16761417485247e-05
0.000270951302809909
0.000228450488496625
0.000289793872664755
0.000333355518699244
0.000346833887918694
0.00030960383034435
0.000349127990981561
0.000297916274598634
0.000242726128228363
0.00018288937583038
0.000293835537265976
0.00024532904928361
0.000192749397693402
0.000134183439677366
0.00033863257359002
0.000115794752957467
0.000162572412200686
0.000204500689969919
0.000242691675102925
0.000276576893758205
5.70172258050258e-05
0.000235981382665987
0.00020691409145475
0.000173226803652172
0.000135338418026084
9.18321615513227e-05
3.85059088477192e-05
1.25707881646728e-06
0.000139910832045891
0.000189202778993613
0.000233787256494449
0.000274784060039502
8.13762197127241e-05
2.11693428989874e-05
8.72011484146572e-07
0.00031228248784588
0.000264336866090557
0.000235370186901842
0.000203189365620724
0.000167972108537403
0.000129392542798637
8.55315719362049e-05
3.58260438296624e-05
8.36771432653228e-06
4.63019562711879e-07
0.000391651041883599
0.000372715835472162
0.000399902057497882
0.000396495354519957
0.000379688272125025
0.000343799439261313
0.000305814309377194
0.000346307386269267
0.000260345295984451
0.000290364276229916
9.26017099353329e-05
0.000117977994053428
0.000141703619709228
6.54770311618117e-05
3.77169393602762e-05
0.000163219498103519
0.000182079184313672
1.51624022486695e-05
0.00019864985879884
1.12876072684426e-06
2.36575474815169e-05
6.5572657892423e-05
0.000103719407441896
0.00013679055944696
0.000165800300341242
0.0001901019680851
0.000209859037145911
1.75426612759841e-07
1.52732872182048e-08
1.48391572535281e-07
9.29114958971461e-07
2.70467169255379e-06
3.65661143376738e-06
8.49105659271444e-06
1.3881410124964e-05
1.96078983951107e-05
2.638034490819e-05
3.41247404908142e-05
4.16791980689399e-05
4.79175684972441e-05
5.28070600011822e-05
4.8815522363908e-07
1.13216920770814e-05
4.01526184988282e-05
7.08568895828081e-05
9.95154337026768e-05
0.000124623607154799
0.000145406502551721
0.000161916367757028
0.00017469733883139
0.000225834055743585
0.000280506661628245
0.000330585151442202
0.000373459907312144
0.000407563832920033
0.000431955353102922
0.00044599345137247
0.000449012057523049
0.000439953682997305
0.000417018456633936
0.000377052336821338
0.000314007135827987
0.00021422356028836
5.7812561682338e-05
0.000258655190388514
0.00030084161961533
0.000325286392467608
0.000213027837934126
0.000278865263499605
0.000339389624193007
0.00036789067783967
0.000387045581997524
0.000395567121503947
0.000338706779991841
0.00039257997951186
0.000342315451283231
0.000288141315477748
0.000229622969930217
0.000164356392963841
0.000285095373836344
0.000332581473124706
0.000233959307498484
0.000178200977964355
0.000112314501897812
0.000376351992594989
0.00013885725878297
7.80209635318786e-05
0.000186648105931633
0.00022908081918623
0.00026717686325207
0.00030044176903801
3.30756072170266e-05
0.000254891102681499
0.000226286768711578
0.000192496937930307
0.000153853427681958
0.000108855995709287
5.11586906221941e-05
2.5513948150984e-06
1.58778417575048e-06
0.000177122488209817
0.000124951298687608
0.000223902895883685
0.000267192111539435
0.000307202723337099
6.39273201824946e-05
1.77953862323795e-05
9.97544957940422e-07
0.000343670017424379
0.000288686655876158
0.000260572474579889
0.000229214812114954
0.000194935345959021
0.00015803327345113
0.000118052142489694
7.36985086428442e-05
3.18274205895018e-05
8.81266433679573e-06
5.51077527110325e-07
0.000430320201339021
0.000444408049977488
0.000405905374869586
0.000447566132292272
0.000438770208556755
0.000416177172516835
0.000371719456382848
0.00032867045795409
0.000376519666576875
0.000278446652065294
0.000313766191817257
8.45937309356315e-05
0.000110650892194614
0.000135476803320056
0.000158916265150769
5.73188364917182e-05
3.13219704880106e-05
0.000180207898759564
0.000198608386982631
1.22510582815278e-05
0.00021457316732607
1.95379287117724e-06
3.0557523772645e-05
7.71127868196981e-05
0.000117245553598917
0.00015126902101935
0.000180444953830871
0.000204502044090411
0.000223708384780967
1.91314383255282e-07
1.45974085816611e-08
1.33978437571373e-07
6.88536643110384e-07
2.65813998878415e-06
2.62942115786581e-06
6.5574166611678e-06
1.16706621691756e-05
1.73406120599943e-05
2.39916451162022e-05
3.18612994784319e-05
4.02734241941866e-05
4.81489007332982e-05
5.43924576991432e-05
5.91012075215415e-05
9.55029688574324e-07
1.40786663471072e-05
4.74598776365968e-05
8.03481084427732e-05
0.000110124396562753
0.000135329153627012
0.000156123338285653
0.000172407478326398
0.000184643619087798
0.000238957322772886
0.000297573127566971
0.00035216482080389
0.000399914288411698
0.000439113511793625
0.000468782107944914
0.000488353096368998
0.00049738488317479
0.000495228548521601
0.000480744569656062
0.00045204505909365
0.000405943697466779
0.000336365938764906
0.000229485466115666
6.39085900574263e-05
0.000241950184184339
0.00031341640864778
0.00028758751468146
0.000329333634150442
0.000359185074134391
0.000378886771084981
0.00019299867144884
0.000264600368033176
0.00032862069013774
0.00038789761989424
0.000400750530890459
0.0004253292593825
0.000439579285799651
0.000443004673048651
0.000366317370926099
0.00043466062987541
0.000385494254351561
0.000332433483212656
0.000275601732672982
0.000213818533656253
0.00014096248456737
0.000323617247859887
0.000273822424663054
0.000370053144075872
0.000220522192981805
0.000161787454440606
9.13108152222857e-05
0.000412696675233993
0.000161149689525669
9.84288519185072e-05
4.63254760164377e-05
0.000209824244125572
0.000252575825004634
0.000290437092361161
0.000322992849145755
2.79960202997083e-05
0.000244599415004689
0.00027268908593656
0.000210886139191697
0.00017167660916882
0.000125290209065677
6.42108140674268e-05
4.13961666732132e-06
2.69309504113795e-06
1.74590884527411e-06
0.000212154349167643
0.000163872258528885
0.000110523604049121
0.000257189325979177
0.00029937857710687
0.000338402008614401
5.64544332053978e-05
1.81220996052865e-05
1.15326723230883e-06
0.000373787102322316
0.000312050724962545
0.000284808391856451
0.000254212570967737
0.000220748571892346
0.000184966592176786
0.000147051412102253
0.000106721045795595
6.53449472801368e-05
3.07985380301641e-05
9.17057615425852e-06
6.1860530601265e-07
0.000467042066050786
0.000486625355700361
0.000495719763953455
0.000437364364533652
0.00049371920295683
0.000479517809980327
0.000451182934869533
0.000398085710955447
0.000350158368434172
0.000405406854839127
0.000295404799735042
0.000336134919861791
0.000102524616326077
7.62718028684914e-05
0.000127865935366681
0.000152437931749966
0.000175757376858113
4.9925801657882e-05
2.66241832440984e-05
0.000196725813505594
0.000214589541570836
1.05922427718307e-05
0.000229882723595836
3.34966952521525e-06
3.73230490581788e-05
8.83819122137326e-05
0.00013028674144492
0.000165022423986984
0.000194262899138408
0.000218009403805434
0.000236678138578872
1.80451235198314e-07
1.17189280906524e-08
5.4596150223978e-07
1.08753980216657e-07
2.43208246099288e-06
1.9174378668098e-06
5.01107069524432e-06
9.56820532695946e-06
1.50032348589465e-05
2.14894317559932e-05
2.91606504175408e-05
3.77445663772246e-05
4.66385577168257e-05
5.47191363154814e-05
6.08851780703874e-05
6.53471224364104e-05
1.00159904972575e-06
1.71627464572167e-05
5.50428718618843e-05
8.98131423579485e-05
0.000120260298508572
0.000145422764871949
0.00016603677483956
0.000182048075658561
0.000193678293996122
0.000251119841723361
0.000313481332530002
0.000372347376598584
0.000424770724127978
0.000468892031376126
0.000503657070616666
0.000528503092705082
0.000543110325505113
0.000547099301405249
0.000539762319450104
0.000519877073945902
0.000485507561795911
0.000433457613878035
0.000357642243738252
0.000244064241792404
6.98896612637997e-05
0.000220435551751081
0.000269649317952677
0.000298008384907402
0.000367192691394833
0.000346428401849074
0.000315175432321555
0.000356372254602426
0.000391461098414762
0.000416536850994789
0.000431163893223705
0.000168049484568972
0.000247493394180645
0.000314937268869036
0.000376964461020635
0.000434993894013198
0.000461718980799603
0.000431907398162181
0.000481396765375318
0.000490633724803433
0.000488914378273531
0.000392391591119184
0.000475200431280429
0.000427234781287168
0.000375275581415603
0.000319875774135113
0.000260849299381115
0.000195953781531783
0.000117278737778672
0.000360728488454324
0.000312068777869406
0.000260513301179121
0.000406106997488206
0.000205634591730927
0.000145237008671508
8.06000597428706e-05
0.000447541296339099
0.000182596942873415
0.000118577744152698
5.99529692848979e-05
3.94316752213324e-05
0.000231991175808543
0.000274909096349179
0.000312418817024067
0.000344192852677859
2.81366343216234e-05
0.000261842107122358
0.000228286013945984
0.000289357706591075
0.000188677352824627
0.000141137415555015
7.6681848546956e-05
6.44701207368473e-06
4.02209957083071e-06
2.83158602397824e-06
1.95127472088967e-06
0.000245235743325696
0.000199081148388926
0.00015029549774757
9.9324320089874e-05
0.000289042045641157
0.000330258811054408
0.000368293164066001
5.31956653779617e-05
1.84058245708493e-05
1.27660368730803e-06
0.00040256341333586
0.000308029326196888
0.000334366815511498
0.000278193478777442
0.00024541382948709
0.000210463556550033
0.000173784277725233
0.000135558844611903
9.64093367145674e-05
5.92193307915758e-05
2.91272592521138e-05
8.71630132977831e-06
6.03348247739742e-07
0.000526668425432828
0.000501825792552525
0.000541297523665813
0.000545357794001251
0.000467057517580222
0.000538186754187491
0.000518600173442094
0.000484615847091571
0.000422857742325943
0.000370251937034677
0.0004329086963548
0.000311210201537219
0.000357414249146519
0.000119421412471968
9.39204360029761e-05
6.81231185933561e-05
0.000144479950034676
0.000168991218191496
0.000192106151035902
4.34735355337339e-05
2.29456001657365e-05
0.000212676842686686
0.000229936577213218
9.02397824863748e-06
0.000244499894342993
3.81818740033817e-06
4.43832015154493e-05
9.92555949363562e-05
0.000142672569155953
0.000177937406324765
0.000207233481312916
0.000230657946271801
0.000248707465509451
1.46898241935193e-07
8.24554385266903e-09
1.44273782963232e-06
4.16947461160549e-07
7.87224105099768e-08
2.03615977865555e-06
3.79169697358711e-06
7.70135137262481e-06
1.27345764829796e-05
1.89700361532501e-05
2.63355336725765e-05
3.47127236040225e-05
4.38438592885966e-05
5.30993505352586e-05
6.12941348432948e-05
6.73142661478105e-05
7.1469268277597e-05
1.27573887504787e-06
2.06753923828512e-05
6.25874644217501e-05
9.89634299613073e-05
0.000129688701782194
0.000154758056158597
0.000175164046694892
0.000190740009724718
0.000201723965816598
0.000262271237045951
0.000328191064734249
0.00039110566252317
0.000447997925082504
0.000496869681810492
0.000536573664819139
0.000566510115066442
0.00058640246212037
0.000596032313534577
0.000594989466143218
0.000582491167957814
0.000557257513379684
0.000517335599564499
0.000459542135061999
0.000377786288411109
0.000257894574824766
7.56887113236927e-05
0.000246685558325686
0.000279598457806477
0.000193988341290446
0.000296054405903832
0.000329909636450624
0.000352399168480853
0.000403977887721191
0.000419272319013177
0.000377862538563774
0.000341356039796249
0.00038190447234302
0.000422068446010485
0.00045234903949969
0.000472330502565725
0.000481832165541807
0.000141979163988125
0.000228185996937079
0.000298883443523889
0.000363194363351574
0.000423640958921394
0.000480490119300925
0.000521098618746416
0.000496199572369427
0.000461315593399589
0.000535792021608618
0.000539993799446086
0.000533124662727632
0.000416887506684828
0.000514064102082651
0.00046739114123395
0.000416541193564187
0.000362307279961924
0.00030511323112861
0.00024440985103191
0.00017748264774354
0.000103633717486047
0.000396339228079074
0.000348699201384083
0.000298368595492946
0.000245610728623365
0.000440629595659602
0.000189995954215478
0.000131244021690149
7.49607673869871e-05
0.000480803295468626
0.00020310197386575
0.000137900067808612
7.50626467361657e-05
5.12982799786631e-05
3.90325112660294e-05
0.000253057460665022
0.000296016103130482
0.000333082675144951
0.000364015708734888
2.82589845734197e-05
0.000277986795097901
0.000244640736133249
0.000204751313779961
0.000304894525578649
0.000156207346940203
8.93019392156708e-05
7.76136670917682e-06
5.93156269108911e-06
4.16981210154861e-06
3.07326247488995e-06
2.09705886447451e-06
0.000276622509203917
0.000231750116304895
0.000185156463239416
0.000137252151093203
9.05041394496532e-05
0.000319463530678272
0.000359776167330717
0.000396822026301252
4.9797026538956e-05
1.73601101475106e-05
1.24027762738852e-06
0.000429944531001271
0.000330184371885297
0.000301126059896451
0.000355582053806692
0.000268995982563483
0.000234666975371492
0.000198804237850818
0.000161762852426505
0.000124029713621666
8.70028610221096e-05
5.35073223064242e-05
2.63839294598809e-05
7.4322900870266e-06
5.04986002286487e-07
0.000564582647056602
0.000584480151900694
0.000534655991309071
0.000594136418743661
0.000593167609857713
0.000494952804393983
0.000580843288262504
0.000555924498558867
0.00051640863725784
0.000446004350748068
0.000388926835433503
0.000458975837143515
0.000325830977073418
0.000377555316759957
0.000110375040333659
0.000135572646637742
8.51251300374705e-05
6.02871356153327e-05
0.000160625521645544
0.000185023270631836
0.000207872050479775
3.76291660365219e-05
1.94204165765701e-05
0.000227973624966281
0.000244574688623391
7.37919215785858e-06
0.000258358587930896
4.80322695238216e-06
5.1215162852962e-05
0.000109669194911042
0.000154342762751826
0.000190036840469998
0.000219235216948736
0.000242345471465828
0.000259752804685387
1.06149775973553e-07
5.2558676771904e-09
2.87736095967188e-06
1.06547648886855e-06
2.91585685079914e-07
5.06460108398313e-08
1.53498614529826e-06
6.08847264326251e-06
1.06690477509424e-05
1.64947451880319e-05
2.34787190622033e-05
3.15233466100559e-05
4.04695886925003e-05
5.00347126971028e-05
5.95571945105361e-05
6.77927665807087e-05
7.36048787059766e-05
7.73987838224998e-05
1.59125998891463e-06
2.41562888786295e-05
6.9703929068351e-05
0.000107556291142065
0.000138200554529822
0.00016324438924703
0.000183448876885938
0.000198542811173331
0.000209022064494519
0.000272316029289765
0.000341668346019173
0.000408412541899546
0.000469564031922795
0.000523009521605664
0.000567502770821622
0.000602384319149089
0.00062736906700697
0.000642312935914911
0.000646993576175802
0.000640940538690016
0.000623313763122198
0.000592806581840579
0.000547474544149618
0.000484159329471156
0.000396759977140845
0.000270927855113427
8.12563377729905e-05
0.000271684270927132
0.000310216720555123
0.000218754573190122
0.000335065278139323
0.000258864001839347
0.000165936241902907
0.000360269820095703
0.000321100390254353
0.000388113867560168
0.000404354562060508
0.000438969950175956
0.000459554167008184
0.000469458794029233
0.000407664300909156
0.000366071113283721
0.000405888672737952
0.000450956180776393
0.0004862879715264
0.000511443397321778
0.000526307397411957
0.000530725381394489
0.000125765788022681
0.000207914602616755
0.000280940282735035
0.000347044529920375
0.000409359627669505
0.000468565481098584
0.000524246309223674
0.000558704081718966
0.000578621684627299
0.000528744643450339
0.000488940841574087
0.000588331960165384
0.000587513047354699
0.000575516232591069
0.000439774685570574
0.000551163838203026
0.000505850234642716
0.00045614116449645
0.000402952841936236
0.00034700320787593
0.000288514549042588
0.000226851186757116
0.000160990154471947
9.57738065126773e-05
0.000383709263779086
0.000430373747804167
0.00033435831905919
0.000282867303260021
0.00022949497607008
0.000473555191895338
0.000174383924279429
0.000119562119031321
6.95756575435343e-05
0.000512420388929621
0.000156450901888478
0.000222548983972647
8.97468760754437e-05
6.44393188549307e-05
5.02967396278272e-05
3.85562066499677e-05
0.000272953825461947
0.000315846409965688
0.000352402163214489
0.000382440333814115
2.65375089584795e-05
0.000292995557581449
0.000259936781434121
0.000219853093829495
0.000170473216180175
0.000319260793740512
0.000100974585725466
9.99381777720605e-06
7.74407338381008e-06
6.01919292670041e-06
4.46195370142612e-06
3.19072560401992e-06
2.02718600889519e-06
0.000262464650221343
0.000306426486083814
0.000217066857830114
0.000170780559896619
0.000124874346837465
8.21168573105715e-05
0.000348454983722955
0.000387901638997851
0.000423943665037646
4.50445071067549e-05
1.49740817384925e-05
1.05363109251291e-06
0.000455886077375286
0.00035122692076665
0.000322974012203007
0.000291491452309908
0.000375651999292629
0.000257711277160144
0.00022238635095391
0.000186050457325126
0.000149170375903415
0.000112569549455836
7.79057608417216e-05
4.72604582900904e-05
2.24397363999538e-05
5.68623192349746e-06
3.70931542905861e-07
0.000600368809418081
0.000625352368607705
0.000640304262976961
0.000565501352778675
0.000645009892013777
0.000639032609217514
0.000521013704214162
0.000621588944455007
0.000591413859836858
0.00054650908792629
0.00046749483128741
0.000406158520515659
0.000483572180182266
0.000339234640639456
0.000396522228382367
0.000100874386872385
0.000125956812651332
0.00015119959213216
7.62087223594031e-05
5.27293686192546e-05
0.00017623238286088
0.00020045424985356
0.000222969592811312
3.19303429105932e-05
1.57638736827614e-05
0.000242545006324217
0.000258439207933192
5.51712313174548e-06
0.000271409789836395
5.66904937141809e-06
5.79958766494129e-05
0.000119513265319625
0.00016520669120836
0.000201209294779726
0.000230346766822289
0.000253086458162329
0.000269772971506334
6.92541319514366e-08
2.85711865709814e-09
4.75697757876733e-06
2.11639284393692e-06
7.27384417070448e-07
1.8051471691259e-07
2.80271693216676e-08
1.02001361842297e-06
8.77050385931958e-06
1.40867172458978e-05
2.06184639462086e-05
2.82647407604347e-05
3.68955019960848e-05
4.63124661243798e-05
5.62210819100685e-05
6.59321872934822e-05
7.4138420441655e-05
7.968584364683e-05
8.30871226197133e-05
1.90163615787183e-06
2.75782536905069e-05
7.63683017551733e-05
0.000115283709389601
0.000145845933270523