/*--------------------------------*- C++ -*----------------------------------*\
  =========                 |
  \\      /  F ield         | OpenFOAM: The Open Source CFD Toolbox
   \\    /   O peration     | Website:  https://openfoam.org
    \\  /    A nd           | Version:  12
     \\/     M anipulation  |
\*---------------------------------------------------------------------------*/
/*   Windows 32 and 64 bit porting by blueCAPE: http://www.bluecape.com.pt   *\
|  Based on Windows porting (2.0.x v4) by Symscape: http://www.symscape.com   |
\*---------------------------------------------------------------------------*/
FoamFile
{
    format      ascii;
    class       volScalarField;
    location    "300";
    object      omega;
}
// * * * * * * * * * * * * * * * * * * * * * * * * * * * * * * * * * * * * * //

dimensions      [0 0 -1 0 0 0 0];

internalField   nonuniform List<scalar> 
10228
(
2.45525839003592
2.46742674694984
0.261963099009232
2.47469008983647
2.44248103211299
2.43076094342831
0.270983077257581
0.225180769474904
0.390515556302664
2.45215098310825
0.394929426318617
2.4044775775588
2.42539279675091
2.48290374824828
0.279742750836975
0.228297685856094
0.213323417247937
0.241107587213645
0.453371402847831
2.50624199840298
0.450365988800136
0.243224719744497
0.399872305381401
2.3786467035682
2.36519228612206
2.41877600948943
2.42153938426567
0.283105310200189
0.1969407975235
0.227381171810221
0.296801099632893
0.217580972742753
0.254764788031918
0.498117951319358
2.47352033303656
0.254383483981337
0.446867684781961
0.48767089952675
0.236850387467715
0.220861721280228
0.400643122177598
2.35771550848452
2.31066630402846
2.33138962150574
2.40498329726222
2.47110449589514
0.278442561071849
0.193241452595211
0.258350467045825
0.28613365975869
0.270117597693975
0.236295891925223
0.215405354089544
0.270847702630638
0.533536030450074
2.49502197077574
0.252017180754919
0.215682956800512
0.268708846787764
0.476295535782365
0.443025248085915
0.521278213982738
0.234153844494593
0.226931606934727
0.234381004723849
0.396749337244175
2.37667448793753
2.29353925530468
2.2653554747599
2.31570880181079
2.40609950606438
2.41548879988242
0.297683145697171
0.179316120832477
0.260646936943673
0.281691112478352
0.274201320756108
0.312573976613299
0.242174730617442
0.212747737113459
0.218765365899876
0.289176511025075
0.567129909167526
2.47713641790772
0.216280196646879
0.265559415157455
0.249991153404764
0.218307100261917
0.212388707508278
0.286268884159399
0.506199890824684
0.465938666865933
0.439792095134322
0.553135697116292
0.227297036301802
0.226682424538163
0.232968314573994
0.242082409520254
0.412918603051284
2.29336258109869
2.31908787530369
2.2440395238172
2.24625407100867
2.31166815378968
2.39992200036377
2.46124199758026
0.308039522081282
0.169827710391746
0.225131270859238
0.254253388086482
0.266580404897885
0.307406080219393
0.31016382408878
0.25808905224306
0.21762041772861
0.205991873112562
0.226750207809262
0.308308345014009
0.595360753090195
2.47744822927689
0.212065830489697
0.216313488023714
0.217743938151898
0.282190441084765
0.262870356021979
0.248957242734129
0.205946378047827
0.22607577015813
0.217449839435779
0.304953992176899
0.536337196351322
0.492732043769278
0.459292850373046
0.452675668223031
0.58170293751067
0.230824931710152
0.218580961379015
0.226771731439484
0.239628763488706
0.257086612974137
0.457843138540226
2.34880711927163
2.19723128411419
2.26653116136666
2.22078910154788
2.2423138119467
2.30858631091537
2.39534328787845
2.42692521687979
0.359182193233619
0.198138890566828
0.186621093937092
0.227458707602881
0.264724440799621
0.30593048459854
0.31532863561975
0.320316438341144
0.267792756024934
0.226231244986525
0.205572389137033
0.206872183368558
0.237117699471761
0.326708755657492
0.621684911006593
2.47083288357145
0.206051003127583
0.217009112486244
0.211660673365495
0.217953139027679
0.217918775873274
0.225143908533618
0.30024972607388
0.278691063991131
0.263176330497837
0.261844113164494
0.206921667026852
0.205719202653411
0.236291960944975
0.226103572666107
0.323137764541441
0.521834229708602
0.564532692420518
0.483726749294443
0.464694437110866
0.528490653212588
0.60789588699119
0.304990445613566
0.219864089918323
0.222329978249977
0.237330448643132
0.255959998345683
0.268803447157846
0.585829190512563
2.47411472882944
2.42132770044612
2.14804542246507
2.22757321367142
2.21502793569627
2.23979254345338
2.30304245191035
2.38957271152932
2.39924619658204
0.434951772192303
0.193394945094487
0.264001341289975
0.26788360692208
0.299391938633144
0.319814457923521
0.327251756533624
0.352787068734349
0.278579146713955
0.235055677425656
0.209840621267402
0.201587756787709
0.211467307638514
0.248279273109051
0.344047732406747
0.644503085902369
2.46866898858589
0.207153208818102
0.206164405863843
0.207289672720615
0.226063029662291
0.217410932121736
0.215206817814117
0.225106795968575
0.221906685519748
0.234313890617687
0.235070489714437
0.318043926313325
0.296110849416681
0.278117380226245
0.276285676381831
0.342565568466756
0.21148744608194
0.201911261495148
0.210096666449896
0.24730005913894
0.235292444065381
0.340291493698291
0.512088861227184
0.549904862764273
0.590449051228578
0.481953012385732
0.511678937714734
0.630696812081665
0.668393905186022
0.266612905310746
0.241477265822476
0.239313703193766
0.254305414556187
0.269219394625248
0.280381049807369
2.42304838411072
3.34281394003908
2.40073356072367
2.16214924801986
2.21574796645809
2.21278557213407
2.23431072380504
2.29713054762819
2.38573609883853
2.34978464187013
0.428812607159956
0.208874896931057
0.30660529619445
0.300352635815929
0.314829423720987
0.330464434747089
0.353780837624057
0.362402916399458
0.293024392084283
0.244008852021295
0.215842576356558
0.202267558450388
0.20208867053459
0.217798959762778
0.259420527638991
0.359930988009053
0.665130216643616
2.46721285846169
0.202672322024817
0.20862488778319
0.21160423271381
0.20809764711293
0.210830037371061
0.213022953666999
0.235685694755051
0.227096135976811
0.222612358429998
0.235841506675422
0.234528346821687
0.228380244655142
0.239497650911066
0.30629936820671
0.245769269393331
0.334880255046715
0.313441725236094
0.294323884106119
0.286025887204308
0.337534159551187
0.814738434818949
0.202425577471606
0.217713266068054
0.202707642120116
0.216210404520622
0.258288885283749
0.244479933902064
0.356016273765997
0.540488722950317
0.506935194318237
0.575961560068751
0.612916915137986
0.497649302054443
0.651092423558365
2.34197553591902
0.611256814384368
0.269398689848562
0.259685437058123
0.257528453687597
0.268627009608601
0.281210409483259
0.294124841171506
3.32881084425849
4.55077481046686
2.34602068617911
2.14776741119003
2.23452782965404
2.2141192693024
2.20748216348818
2.22788253146304
2.29251742283539
2.383440882473
2.39770418160054
0.362611905900251
0.226655478908456
0.315726307247252
0.332957042818123
0.333809054513686
0.354644945769701
0.366344132338252
0.372468913550017
0.30372985984245
0.253238471438422
0.222466296754186
0.205574675657366
0.199732768537498
0.204971555603313
0.224834874698592
0.270116713157817
0.374501344165042
0.686049102541181
2.46689522727588
0.203756154949664
0.203135176364871
0.204950851098206
0.212683248030678
0.21379088282668
0.217567570722783
0.214848639924524
0.213277278857465
0.217169970281942
0.232620670433052
0.245153839087805
0.237282851189921
0.233119511229288
0.24367230093526
0.298899169471328
0.236319415177577
0.244641626903869
0.240659941096167
0.29826413633589
0.698233261406393
0.256450246978153
0.350321349843264
0.329917113992973
0.310770091655854
0.297273446094253
0.318532011489389
0.596056941215726
3.01866887263268
0.200190257533204
0.205221766874545
0.224620139087009
0.206081322044777
0.222923966116361
0.268850289575174
0.253748777562159
0.37042994074647
0.567124688705024
0.534970018239573
0.508785288513134
0.598304231709511
0.632745452820484
0.538210463959564
0.671709609366591
2.4284526135421
0.496982500998889
0.279864271390393
0.273002951334666
0.275537600226464
0.282718034061528
0.295012726441987
0.305372009088388
5.01509193282196
3.10207749963617
2.27411150516158
2.15460844671457
2.26153344129887
2.22442034427398
2.2083047198382
2.20057994928845
2.22270272182021
2.28965627624323
2.38236377475462
2.36740622686248
0.323407064877276
0.249140710157067
0.327897445163861
0.375204257613148
0.362611923557276
0.367870134578342
0.378231851524254
0.391134878662265
0.313739136242617
0.261788499887144
0.229268694147071
0.210058113896821
0.20071441054872
0.200039226076661
0.209075932996055
0.232038765291746
0.280229886596881
0.388097731530361
0.703932755704237
2.46679053956172
0.206524026126202
0.201183836371056
0.207306499663118
0.205680685463253
0.205045868477949
0.211157463367877
0.218018635000862
0.216306179213569
0.228047674627537
0.224170479034755
0.234972158861262
0.220674491811664
0.219996640324122
0.224051652014652
0.28774542180851
0.254644676971661
0.247378999434692
0.244213897929554
0.253456083229992
0.301380448496866
0.589368953346963
0.243127573264747
0.245027154632881
0.254773471763675
0.274198677560488
0.523160204176939
3.30360537831067
0.266734850122775
0.364434335094232
0.34502568108102
0.326680371527863
0.310819006169207
0.309617551856496
0.416781535778461
1.39715907404703
4.65865405731481
0.201226276239377
0.200411492406439
0.209206071033542
0.231704634189749
0.210613881078362
0.229786708965279
0.278848159569707
0.262450182103815
0.383845823925674
0.562173166840394
0.589763868853479
0.532226818246879
0.519772940119795
0.618015871865935
0.653099885400948
0.603805429519904
0.689259372676366
2.4111239428683
0.454890910278461
0.295849630273613
0.288576397494542
0.294578633990186
0.298108906958779
0.306559477450371
0.315813900183206
3.1831489081328
2.94984523647159
2.3626617732365
2.19628630523527
1.34592286095052
2.26525913964641
2.23190618249149
2.21528543092499
2.20096011937425
2.19480755322473
2.21938749352354
2.28813596957624
2.3819044064877
2.39536856816751
0.313694787728181
0.365533314417269
0.36243224346419
0.412215920253224
0.373571007518513
0.382744605447743
0.392161676836179
0.404498953492803
0.324765831720577
0.269873694841663
0.235933689636569
0.215040327459559
0.203356076327137
0.199034468359148
0.201944058857713
0.21377433480606
0.239149440362892
0.289746202380339
0.400546235340901
0.719142059787528
2.46680339160775
0.210389497571033
0.213369619222531
0.203555043949733
0.202372157027083
0.201143736194405
0.211960436192063
0.20935578183085
0.206928172642054
0.209688215268419
0.226372480311309
0.223987114050997
0.220028265283396
0.225073485102799
0.261582400274812
0.230976670636199
0.287460541978245
0.240968030568481
0.227856557254817
0.22718498514394
0.23105379904512
0.477266165823812
0.263548737384515
0.257417156055223
0.25541603104616
0.264465206610157
0.310786997743366
0.54663286327646
3.2413170644985
0.258894241409223
0.248040498818389
0.254063010892758
0.26459022023476
0.36186178285884
1.30804697570835
5.05110430682481
0.27649221897911
0.377586875362415
0.358798922831125
0.341337170214562
0.325266457082342
0.314479068310696
0.338713246599129
0.61773631439145
1.16759854417687
3.14514132987044
0.1994549052466
0.203902819241514
0.202195736205301
0.213790577783634
0.23871620680501
0.215635458720353
0.236515154011787
0.288259525676513
0.270674519335743
0.396131614204132
0.55865801750461
0.585279306334471
0.609984748768388
0.532821296488087
0.538071090193605
0.638103762511678
0.670198489961655
0.665410483170427
0.704120629746249
2.41955515316451
0.455676744278133
0.332468135139507
0.307390792442152
0.312064117286194
0.3099550035803
0.317829141268293
0.326326689820642
2.97338144938118
2.90893689857734
2.35450589973612
2.2845954383097
1.06709946667973
2.24531975468491
2.23049528918166
2.2181144041383
2.2075219229548
2.19469790967696
2.19103912828657
2.21756813268145
2.28743081047476
2.38173913908047
2.37890978276077
0.319134832104356
0.406864006079185
0.37600236213789
0.419550467530485
0.394406630894581
0.397747640074886
0.407308909447422
0.41457209220277
0.334701077098806
0.277707345943321
0.242351289340887
0.220166431038168
0.206827308793579
0.200102545390206
0.199236000702909
0.204755752955979
0.218730451355574
0.246040166141115
0.298642297506328
0.41172555780858
0.73222037477783
2.46682449539986
0.217639812677462
0.215261843183234
0.205016443094533
0.229145950542812
0.208801062439384
0.202812653777961
0.205144692031903
0.200321532837163
0.202606745775157
0.217075001476986
0.213655319080036
0.209917988837961
0.209856543767274
0.219541104074505
0.259755345408059
0.224669219730131
0.230255592955688
0.224704670616005
0.242368032277469
0.339989823312656
0.237759101842228
0.292800616494874
0.460767485424428
0.248271079882981
0.235455965030324
0.234440570052273
0.237900417777462
1.26480544260417
0.272045414720874
0.266642215362132
0.266072514611179
0.276112617948714
0.324854786806865
0.552771552238051
3.25604549847162
4.9713936525135
0.254608725399793
0.289118151374838
0.25474975861748
0.263074297235968
0.273962663754718
0.547760865080015
1.09066642232567
3.26181748758348
0.285697788484419
0.389606996440964
0.371653989773459
0.354748158719085
0.339081058596457
0.325325742565747
0.322440103273145
0.383252061269853
0.56809842027982
0.931949295146064
2.99384101504179
0.20055036112973
0.19953087893764
0.207402013214987
0.204892556026701
0.218653429572789
0.24552645234965
0.220796150359755
0.242991187178069
0.29706177279555
0.278542002257454
0.40716540465361
0.555677531784611
0.581802627561696
0.606407230203562
0.629963837916138
0.536052993978688
0.552186800440272
0.654805320070758
0.684615473149969
0.643993024187823
0.716889417039161
2.40950399993545
0.462587479884922
0.354870983590649
0.321314479626749
0.323042897065192
0.322065006404418
0.328817353406459
0.336752126460239
2.9119638633319
2.89675869102122
2.34949397922304
2.27707425850259
0.89786870262929
2.23193093840036
2.22179422334675
2.21626834930114
2.21036760293226
2.20107612067863
2.19051555136757
2.18894273129998
2.21669174889646
2.28713934575008
2.38168748337086
2.38240017271011
0.347014163136252
0.438157829804387
0.378527944275124
0.416882321766507
0.406866655132736
0.417275861955153
0.421310191867778
0.428599599496203
0.343635506427521
0.284973281049687
0.248454704273105
0.225236336836534
0.210683558151566
0.202295330325132
0.198952866185864
0.200581283362484
0.208087310990687
0.223757232386444
0.2526415695651
0.306857677966066
0.42172026823747
0.743614679170847
2.46683820679242
0.233731740631689
0.210631051185001
0.222794764105879
0.220539393612558
0.207965103058391
0.202228353667088
0.26272188902135
0.219302530607914
0.206279370423083
0.203553042731808
0.208713648341341
0.201496180210655
0.200062461715302
0.205009006631943
0.222311066769088
0.218288045330213
0.213637970854062
0.211403264334183
0.215516083765399
0.237681013401673
0.33410020867369
0.229955743202216
0.226662913249504
0.236619664756314
0.232856815761418
0.272172256284083
0.511504373395532
0.244386937536686
0.300002280637694
0.462698320920692
1.2442075467588
0.256081794378139
0.242997751706298
0.241479935122613
0.244494360245114
1.06475030238976
0.275384705583325
0.280139882749839
0.275316478604775
0.286472969611655
0.337876415226064
0.562550912401738
3.22613162856628
5.00221093169546
3.26659509009907
0.256826882516011
0.26481994602294
0.331311239172421
0.26234432893658
0.271859931192721
0.282857059474375
0.508107980509688
0.88883359502054
3.01153699434461
0.294323433444013
0.400395468024035
0.383362839203003
0.367302249716697
0.351998500460165
0.337511594031518
0.326353603659792
0.331982935039699
0.378002417164067
0.488272128149434
0.781778707271955
2.94835620943578
0.202764765178786
0.199269539619908
0.200757170087289
0.211282040218106
0.208130711022834
0.223607721181754
0.252061552306249
0.225896643832991
0.249140858059082
0.305199087304894
0.28596768354034
0.417039225296826
0.577764552590202
0.552958122548201
0.603844853322022
0.626604329609373
0.64635826591704
0.537167922676102
0.547722486989241
0.668783386877118
0.69698449441128
0.603868062538158
0.728015174726464
2.40534948758315
0.489362440947652
0.371659202154928
0.330864404650864
0.330853863563779
0.332564129479031
0.339934083498319
0.346383636560821
2.91093425878155
2.91778076839671
2.27198643331627
2.34871472552772
0.814417730960455
2.22726843844899
2.21335306371686
2.21229123002479
2.20970719829482
2.20421379160452
2.19664403212877
2.18815874680418
2.18791904485415
2.21631500544867
2.28703080904378
2.3816757628641
2.37626736702397
0.363978438946843
0.462095115338851
0.390809218703218
0.41636287111372
0.410595223226077
0.42779092232413
0.43905334223641
0.440806515261051
0.352714193885325
0.291615009587646
0.254130070530448
0.23011794971656
0.214663038100479
0.205089395722342
0.20005132598874
0.199131975423269
0.202647517639542
0.211712913870606
0.228740938042203
0.25888696993693
0.314384827287139
0.430661053219371
0.753643268191335
2.46684132153064
0.267383142841603
0.239100349542695
0.221513468768963
0.206021721317717
0.213818164092356
0.22827247656426
0.225902367352393
0.211658311631058
0.203551192080763
0.201219229180389
0.335707798957639
0.238009654951744
0.212541263148904
0.205511514954283
0.205347115148488
0.203766768635127
0.212648818990079
0.199868504235716
0.200983990973218
0.208011292015293
0.227477802114036
0.223067397074252
0.217826916004629
0.214048737169987
0.214222426071703
0.224623610561326
0.267477090174351
0.495806176923184
0.23562620965595
0.230264661905578
0.229997954506224
0.24293280394817
0.244200184515217
0.312124865629872
0.48514136380681
0.250780475778234
0.307904860562943
0.466737677028044
1.22012795272268
1.04937285944704
0.263669648314324
0.250192652792349
0.248223472802225
0.250754985393279
0.8858213617295
0.283528274171078
0.28351872485902
0.287793557456197
0.29555085445032
0.348875697595637
0.582512749512611
3.21860275019408
4.9571536637421
3.27286443279374
3.03146650644804
0.262144907436233
0.259677318906633
0.275115344545883
0.327042732610519
0.270249889719165
0.280332551932123
0.291231588410212
0.439072128332859
0.768098285074809
2.97893409739132
0.302310676450071
0.393860913968629
0.410054887477305
0.378694926857903
0.364230395942714
0.349677159578323
0.335929891593637
0.326943225096222
0.330423548538786
0.356355308386751
0.429476339915198
0.704641632878797
2.95214327410365
0.20038517731611
0.205577677453746
0.199325163225179
0.202726960136553
0.215282110256242
0.21168565434097
0.228536861347925
0.258254907391721
0.230805549165247
0.254877736364256
0.312661648100719
0.292784781556295
0.42587690367987
0.60033739514746
0.572973354843236
0.549103112462128
0.624326982190687
0.642619208965117
0.659955068025371
0.533144627765664
0.53543473651105
0.680715393165429
0.707782460134954
0.580392101055271
0.737833456867393
2.3976017814397
0.507355187609192
0.385095721462929
0.339931431371542
0.337715508848593
0.341197021427535
0.349723476214204
0.356416495050136
2.92377496751797
2.93308967880842
2.22375396954262
2.26884822549948
2.34633921772024
0.777111623669722
2.20906938710183
2.20879835928053
2.20800776287713
2.2043221231567
2.19978735570407
2.1940929274813
2.18699738872036
2.18747340168471
2.21616850097634
2.28699705868687
2.3816780667407
2.37497633523925
0.379971209480233
0.482754186558546
0.399653007348176
0.408155761360983
0.428303687953496
0.444924035941993
0.456909009278016
0.464788535090451
0.361428788999615
0.297790562204076
0.259321231064831
0.234712885376692
0.218601687805551
0.208175255818764
0.201945148583976
0.199286479245364
0.20018836949351
0.205178255925358
0.215483816691629
0.23359390447325
0.264739495411755
0.321254668478582
0.438677644023791
0.762548185571457
2.46684125135358
0.272812606766933
0.24052850993616
0.339141989219665
0.244704110512964
0.22493600004706
0.212656284800307
0.207554408535373
0.203467704059015
0.217675494279794
0.233780788766714
0.231172164739037
0.215687858677625
0.205924535493254
0.201154571322576
0.201512904003371
0.488882356063716
0.267997348124292
0.222261274309912
0.208858266850295
0.20617996727955
0.207887945621068
0.201031490467633
0.206624132408486
0.216695259992294
0.199611049405997
0.202711534540438
0.211390840612962
0.232448185490996
0.227867159764343
0.222284628412769
0.217484843187998
0.215052256064067
0.218383963910636
0.236744656817983
0.306354783865231
0.478579976243971
0.241461817811709
0.234883345551355
0.231038310166552
0.233969140192595
0.249092561664773
0.255055779280594
0.310944489044637
0.427810099097493
0.25686281655533
0.315427946369913
0.474714940944688
1.19529123405387
1.03817047869976
0.885872543999415
0.270922342553477
0.256980169776946
0.254597394921981
0.256605475719434
0.776438917843007
0.290997639281212
0.291019192829615
0.303755043364128
0.294870555683409
0.359008567207098
0.595945989503322
3.20080415886425
4.94180733080082
3.26037498497836
3.03632537510818
2.99925132074685
0.268830599478854
0.2619316526006
0.261507664049093
0.273791261485133
0.306244682379746
0.278167758136707
0.288381401069851
0.299006911968685
0.388424923390916
0.702458024688111
2.98634313211537
0.309648226016316
0.40325617059373
0.388891091908663
0.418714420534104
0.375274331042244
0.36148231019117
0.347097968674307
0.333626467404197
0.324165513493201
0.322288226549947
0.335112294142334
0.391526769011192
0.67490167818254
2.96197195455537
0.20229465389076
0.199493391858809
0.208679987952455
0.200281862734662
0.205185792944163
0.219238897607551
0.215405518905205
0.233349367784788
0.264066272445226
0.235428695257851
0.260133133113895
0.319477943759773
0.299198476117291
0.433809555233252
0.595934092826268
0.621020015989394
0.567071673102133
0.543410541783317
0.640022393454366
0.655816875945203
0.67147428730076
0.526181336736014
0.530339765451442
0.691127122445942
0.717336741172918
0.56596678950731
0.746593241634055
2.39307377959013
0.524415203685649
0.396498782505241
0.347600310572101
0.343182320425354
0.351535725247866
0.360065533209287
0.36632713013802
2.93200931974705
2.92380103322977
2.20706772240039
2.22026898787758
2.26504132159882
2.34583502975879
0.76792106536274
2.20706254197263
2.20681936426209
2.20366074763948
2.20012191983731
2.19714736291666
2.19281959555475
2.18648900293336
2.18729866678326
2.21611916311142
2.2869819859467
2.3816812502769
2.37375461020311
0.394489101665974
0.502195740310584
0.408553079760112
0.422157081305997
0.441469803074434
0.457221972737536
0.471801785314633
0.487459650800074
0.371784344905142
0.303540951838869
0.264048817762148
0.238962312856422
0.222389566905077
0.211358358831487
0.204283171192924
0.200407170643103
0.199524461435235
0.201843599660156
0.208002965332177
0.219293848885173
0.23825722628524
0.270187864069711
0.32751555644483
0.44589182655465
0.770535926923997
2.46683974593466
0.278414246078618
0.244125685018971
0.343948614761647
0.222757342230544
0.270529739851658
0.485053854172299
0.228945808779049
0.250318606706922
0.214428706730635
0.207159300287086
0.210072054910796
0.203592985615112
0.202608985345116
0.221826158934713
0.239156853226679
0.236232563942461
0.219811210085854
0.208859643499392
0.202407643082835
0.200256879708108
0.202766669649478
0.478166762533009
0.306128469180034
0.234942592606228
0.213578298053194
0.207647634911933
0.207936227432835
0.210937136470636
0.202979204581023
0.199820786286348
0.209763781673023
0.220693376539988
0.200319967985123
0.204991741033393
0.21498494897244
0.23713289217075
0.23258496009723
0.226854724819801
0.22143391189579
0.217353125853335
0.21651805022677
0.223145797685818
0.248195148685164
0.307865466168404
0.429107411205763
0.24006439365849
0.247285231482565
0.234253401568366
0.231760458721507
0.236697594009678
0.254997230289915
0.254801060395151
0.293017767371098
0.382596765677148
0.262587468452732
0.481081861333864
0.322974241609153
1.18686889169111
1.0238858629557
0.887997141622753
0.785500110572016
0.277747704599849
0.263346609920338
0.260536944755104
0.261995015391644
0.71543661150482
0.298239235314506
0.297930594847589
0.311179637963407
0.36799381912092
0.301571830830717
0.610932401670678
3.19250435030447
4.91093010801365
3.24611735337975
3.02802348486956
3.00410436515963
3.00760912225152
0.267210157321331
0.276064198871118
0.260856391326606
0.259441712764603
0.265465928791406
0.285665570651506
0.285818315803933
0.295895663796261
0.306168229459007
0.354929086856889
0.669251801714654
2.99479239867607
0.316361951023992
0.411687176756426
0.398007359558733
0.385148404329699
0.426499393859089
0.372127852582176
0.358338404676905
0.343827889286243
0.329809517910183
0.318533034437908
0.312224733579546
0.318842664472359
0.370051694885211
0.66074574757612
2.96529566700496
0.204646796393335
0.200627398323155
0.199629163040062
0.211877449365258
0.201863139907229
0.207959475485702
0.223043618975693
0.219179532063415
0.237982766647874
0.269481968811344
0.239706542135622
0.264934896146369
0.325694790964294
0.305204310319838
0.440955479818054
0.590411197929876
0.616200567506994
0.636385945984797
0.561809244474417
0.536868939618188
0.652645765395533
0.66695333505796
0.681502450721712
0.524616724063516
0.529322001711374
0.7003575516903
0.725908493764731
0.560918471385614
0.754509031728687
2.39028609475708
0.539427430785304
0.40708821606696
0.354752843429988
0.352476605788358
0.361190279037524
0.369080508564571
0.375198013803375
2.93583886583162
2.95713776434728
2.20611034491874
2.20380049189387
2.2154500971396
2.26804300318133
2.36559470856337
0.773189633013045
2.20655810498079
2.20340444925853
2.1997846613087
2.19749063663045
2.19580409067606
2.19225848831062
2.18628974953034
2.18723808442888
2.21609551002829
2.28699823391728
2.38168029020506
2.37374233781451
0.408286797372952
0.519729606499151
0.420012930206735
0.437332340428343
0.447137984012619
0.461226155386619
0.475346257779068
0.492072046762665
0.38063179403509
0.309124794363025
0.268360214241524
0.242853285352145
0.225957944333767
0.214510872279832
0.206842371198939
0.202107084658975
0.199975236746543
0.200468819272512
0.203910615406116
0.210998747230656
0.223065164219392
0.242693080006346
0.275237275429442
0.333220546847783
0.452405237068281
0.777664619744915
0.34887299715534
0.248234082018752
0.284140206224686
0.224773857069513
0.274110509876161
0.485179074844605
0.212261198720503
0.235796616777092
0.307973174130534
0.47867751344314
0.233210367182085
0.217109258447088
0.2557786967805
0.207519440619793
0.204395599414415
0.204980220587832
0.213114595078141
0.201529745915271
0.20306012426373
0.226045607636861
0.244302684004177
0.223876532238039
0.241002668183621
0.212062637434059
0.204424735843472
0.200549457384685
0.200484296651448
0.204710007670854
0.434458887254428
0.309666998696668
0.246895109842777
0.218917139508709
0.209612851742467
0.208225764962343
0.210457254011458
0.21430149310725
0.200989225940071
0.20536391742675
0.19970507963992
0.212993770704588
0.22453704003681
0.201719583481777
0.207639524113374
0.21867068855247
0.241477257377294
0.237149071432348
0.231409167296569
0.225659489930608
0.220594536457973
0.217324098879898
0.217943164601766
0.226626427319022
0.249111108847586
0.292428305084538
0.387571156932413
0.238632460402129
0.245457376997408
0.252947105621024
0.233415377471219
0.231579644310828
0.235468517041466
0.260586035355895
0.247320263762153
0.273921182056057
0.351806141186365
0.26793530365382
0.489423622664743
1.16918003325693
0.330073101686029
1.01594190745581
0.885637365719295
0.794541956166601
0.727490541040598
0.284126402357772
0.269289118695871
0.266064445031376
0.266943362128173
0.679001511936786
0.305020549841574
0.305017621710495
0.318113601603328
0.376259904547048
0.62375590285869
0.307647341417274
3.1868734284807
4.89532847186856
3.23124748330002
3.01425699106073
2.99546181130858
3.01213344477139
3.01563607774666
0.264946736542395
0.273687048693076
0.283257881005278
0.258114899588766
0.254321494307231
0.255367565999917
0.269295354814614
0.293031484034885
0.302844729966392
0.312737186790764
0.333047689680489
0.653469040676484
2.9947625174394
0.322494897339698
0.419279966201509
0.406192934544349
0.393977528440771
0.381636373706162
0.433526681880788
0.368532944028349
0.354446672335297
0.339558417621947
0.324883436297746
0.312011707508905
0.303854433659862
0.307898794328809
0.358009668106977
0.66220411269666
2.96780581388503
0.207218450084625
0.202339882841125
0.200091629625917
0.200497930145109
0.215042690232645
0.203878101720307
0.210920194017929
0.226627929076287
0.222925762874966
0.24239642341895
0.274505356739856
0.243626677083343
0.269317901755801
0.331363559146891
0.310645760658631
0.447416975056773
0.583972522029064
0.609727822675556
0.631080480866626
0.648357099873035
0.557200384631823
0.535855427928567
0.663307893086625
0.67659202366615
0.690399891771274
0.525808772811557
0.53100170036609
0.708690498402239
0.733707359750575
0.563092773918657
0.761539663381388
2.38919053843879
0.553189681056142
0.416963939086385
0.363020435674207
0.36251152617339
0.369502420846574
0.376645548892505
0.381677779546655
2.9510659589547
2.91143612923146
2.20623425346863
2.20312084357587
2.19825999168993
2.21803832303274
2.29446168428478
2.39560718893061
0.783109232625154
2.20370316187432
2.19980729744495
2.19720843720386
2.19611674667654
2.19520613584776
2.19203835150045
2.18621991745766
2.18721997174059
2.21611171255147
2.28699767400933
2.37381029439358
0.422465150573244
0.536204981876082
0.437712264372205
0.453593152646957
0.470394980488515
0.476673551625367
0.477644266399587
0.486457424164112
0.385077232692574
0.313988177608945
0.272321984635614
0.246403603981722
0.229273610016732
0.217549669228365
0.209475219042463
0.204137585099923
0.201123245459786
0.200336708924227
0.201918932835003
0.206252830532148
0.214072331669102
0.226740447158829
0.24687920089412
0.279901996452615
0.338418068201887
0.458277386826731
0.354543097763223
0.485514776452903
0.278160617666911
0.227620437657077
0.252595823416643
0.289721929528057
0.212890345773083
0.238051872585429
0.311083215701585
0.480986709517256
0.218016999906943
0.206724228302597
0.248112002394243
0.3130091982209
0.439789786060418
0.237522023691398
0.220273460516274
0.209075729853687
0.260997163779481
0.203544542178444
0.203649018832125
0.201951546706361