/*--------------------------------*- C++ -*----------------------------------*\
  =========                 |
  \\      /  F ield         | OpenFOAM: The Open Source CFD Toolbox
   \\    /   O peration     | Website:  https://openfoam.org
    \\  /    A nd           | Version:  12
     \\/     M anipulation  |
\*---------------------------------------------------------------------------*/
/*   Windows 32 and 64 bit porting by blueCAPE: http://www.bluecape.com.pt   *\
|  Based on Windows porting (2.0.x v4) by Symscape: http://www.symscape.com   |
\*---------------------------------------------------------------------------*/
FoamFile
{
    format      ascii;
    class       volScalarField;
    location    "300";
    object      p;
}
// * * * * * * * * * * * * * * * * * * * * * * * * * * * * * * * * * * * * * //

dimensions      [0 2 -2 0 0 0 0];

internalField   nonuniform List<scalar> 
10228
(
83333.3333280171
83333.3333285283
83333.3333291006
83333.3333150754
83333.33331438
83333.3333286508
83333.3333292606
83333.3333288189
83333.3333183764
83333.333300088
83333.3333178634
83333.3333139875
83333.3332978364
83333.3333289045
83333.3333290937
83333.333328969
83333.3333294993
83333.3333195476
83333.3333027847
83333.3332870793
83333.3333015883
83333.333319356
83333.3333168535
83333.3333137436
83333.3332961531
83333.3332847255
83333.3333285197
83333.3333288501
83333.3333290039
83333.3333293535
83333.3333294065
83333.3333219987
83333.3333049456
83333.3332881873
83333.3332731213
83333.3333039782
83333.3333000468
83333.3332868859
83333.3333189158
83333.3333213976
83333.333315562
83333.3333126282
83333.3332948877
83333.3332816987
83333.3332712962
83333.3333278114
83333.3333284028
83333.3333288702
83333.3333291709
83333.3333293539
83333.3333295816
83333.33332297
83333.3333088601
83333.3332897024
83333.3332728482
83333.333260138
83333.3333026334
83333.3333077957
83333.3332886694
83333.3332850212
83333.3332980535
83333.3332717139
83333.3333177748
83333.3333203741
83333.3333225699
83333.3333136709
83333.3333102841
83333.3332929413
83333.3332789333
83333.3332680747
83333.3332586542
83333.3333262785
83333.3333273778
83333.3333285405
83333.3333289789
83333.333329266
83333.3333294764
83333.3333295167
83333.3333243463
83333.3333119795
83333.3332937022
83333.3332739811
83333.3332594492
83333.333248489
83333.3333061365
83333.3332870657
83333.3333006054
83333.3332926851
83333.3333110072
83333.3332731319
83333.3332696393
83333.3332825453
83333.3332951855
83333.333258391
83333.3333159919
83333.3333190169
83333.3333217601
83333.3333238797
83333.3333102666
83333.3333055049
83333.3332888472
83333.3332757509
83333.3332642228
83333.3332560526
83333.3332473652
83333.3333250893
83333.3333251965
83333.3333275097
83333.3333286152
83333.3333291991
83333.3333293469
83333.3333294168
83333.3333295578
83333.3333246932
83333.3333147748
83333.3332980449
83333.3332778946
83333.3332604831
83333.3332476557
83333.3332374655
83333.3333094083
83333.3333036485
83333.3332909524
83333.3332715062
83333.3332845582
83333.3332974643
83333.333296897
83333.3332771131
83333.3333137448
83333.333259675
83333.3332563618
83333.3332666533
83333.333279041
83333.3332903445
83333.3332466685
83333.3333122496
83333.3333171151
83333.3333206857
83333.3333230241
83333.3333243036
83333.3333044005
83333.3333021571
83333.3332812001
83333.3332702311
83333.3332595035
83333.3332521098
83333.3332454534
83333.3332366154
83333.3333219735
83333.3333248932
83333.3333256752
83333.3333276412
83333.3333289467
83333.3333292202
83333.3333292858
83333.3333294463
83333.3333294809
83333.3333252276
83333.3333163162
83333.3333019048
83333.3332826755
83333.333263842
83333.3332483499
83333.3332364515
83333.3332264039
83333.3332949767
83333.3333120833
83333.3333069546
83333.333288089
83333.3333000072
83333.3332754942
83333.3332580867
83333.3332687492
83333.3332808215
83333.333292254
83333.3332816257
83333.3333005705
83333.3332631209
83333.3333153196
83333.3332475417
83333.3332531278
83333.3332448336
83333.3332626117
83333.3332733693
83333.3332825584
83333.3332355742
83333.3333053912
83333.3333137238
83333.3333188683
83333.3333218097
83333.3333235341
83333.3333248144
83333.3333038586
83333.3332969899
83333.3332718409
83333.3332611449
83333.3332528223
83333.3332467614
83333.3332422537
83333.3332350556
83333.3332257514
83333.3333208823
83333.3333238797
83333.3333261375
83333.3333280527
83333.3333289849
83333.3333291645
83333.3333292997
83333.3333293867
83333.3333294487
83333.3333253225
83333.33331747
83333.3333045531
83333.3332870975
83333.3332681713
83333.333250765
83333.3332365745
83333.3332253715
83333.3332151892
83333.3332797505
83333.3332984417
83333.3332918692
83333.3333136913
83333.3333094602
83333.3333031543
83333.3332725973
83333.3332838174
83333.333294227
83333.33326164
83333.3332460624
83333.3332552976
83333.3332646124
83333.3332751254
83333.3332832496
83333.3332672152
83333.3332856946
83333.3333031475
83333.3332500993
83333.3333165024
83333.333235818
83333.3332486386
83333.3332418674
83333.3332339432
83333.3332566517
83333.333265597
83333.3332245917
83333.3333005604
83333.333308127
83333.3333154797
83333.3333199207
83333.3333224182
83333.3333240474
83333.3333249616
83333.3332979215
83333.3332646385
83333.3332480061
83333.333243883
83333.3332398262
83333.3332374835
83333.333232474
83333.333224443
83333.3332146555
83333.3333214296
83333.33332478
83333.3333265228
83333.3333281607
83333.3333289783
83333.3333291455
83333.3333292557
83333.3333293622
83333.3333295112
83333.3333254344
83333.3333181386
83333.3333064732
83333.3332904601
83333.3332723493
83333.3332542326
83333.3332380613
83333.3332249826
83333.3332142438
83333.3332037775
83333.3332835578
83333.3332765403
83333.3332655319
83333.3332950694
83333.333300963
83333.3332872377
83333.3333149304
83333.3333111385
83333.3333054642
83333.3332969182
83333.3332589174
83333.333268159
83333.3332776096
83333.3332861583
83333.3332487633
83333.3332344453
83333.333243471
83333.3332510946
83333.3332586504
83333.3332661934
83333.333272284
83333.3332710755
83333.3332534782
83333.3332888702
83333.3333050485
83333.3332374509
83333.3333172384
83333.3332242704
83333.3332375928
83333.3332426035
83333.3332313296
83333.3332231577
83333.3332486644
83333.3332135282
83333.3332989483
83333.3333024303
83333.3333100907
83333.333316568
83333.3333206847
83333.3333229037
83333.3333242593
83333.3333250985
83333.3332675349
83333.3332325958
83333.3332302436
83333.3332330411
83333.3332319062
83333.3332312664
83333.3332286337
83333.3332222586
83333.3332135438
83333.3332033114
83333.3333229179
83333.3333251582
83333.3333264408
83333.3333282221
83333.3333289403
83333.3333291063
83333.3333292365
83333.3333294236
83333.3333295924
83333.333325703
83333.3333186932
83333.3333078484
83333.3332930348
83333.3332758153
83333.3332578769
83333.3332407161
83333.3332257162
83333.3332135465
83333.3332029728
83333.3331922486
83333.3332865802
83333.3332691666
83333.3332800322
83333.3332625721
83333.3332717451
83333.3332520256
83333.3332901052
83333.3332975132
83333.3333028905
83333.3332805158
83333.333315759
83333.3333124163
83333.3333072369
83333.3332990462
83333.3332882221
83333.3332547087
83333.3332463187
83333.3332619036
83333.3332688836
83333.3332763423
83333.3332362458
83333.333223009
83333.333232116
83333.3332395772
83333.3332452213
83333.3332507459
83333.3332519142
83333.333268752
83333.3332743476
83333.3332569049
83333.3332401128
83333.3332913737
83333.3333064621
83333.3332251408
83333.3333178427
83333.333212851
83333.3332275795
83333.3332320243
83333.3332353714
83333.3332208648
83333.3332122768
83333.3332366344
83333.3332023114
83333.3333002284
83333.3333043078
83333.3333108309
83333.3333174645
83333.3333211802
83333.3333231654
83333.3333244387
83333.3333253631
83333.3332364165
83333.3332205828
83333.3332186963
83333.3332228138
83333.3332239137
83333.3332245276
83333.3332234837
83333.3332190762
83333.3332116898
83333.3332023354
83333.3331918314
83333.3333229412
83333.3333252384
83333.333326451
83333.3333282144
83333.3333289191
83333.3333290984
83333.3333292973
83333.3333295139
83333.3333296757
83333.3333259512
83333.3333192524
83333.3333089539
83333.3332950301
83333.333278641
83333.3332611739
83333.3332438048
83333.3332276848
83333.3332137167
83333.3332021722
83333.3331915936
83333.3331806963
83333.3332829067
83333.3332722546
83333.3332890197
83333.3332552907
83333.3332659386
83333.3332748738
83333.3332494484
83333.3332581179
83333.333265154
83333.3332388839
83333.3332829611
83333.333292437
83333.3332994598
83333.3333043811
83333.333271202
83333.333316445
83333.3333133569
83333.3333085597
83333.3333007929
83333.3332895304
83333.3332789817
83333.3332488512
83333.3332425467
83333.3332340797
83333.3332539462
83333.3332564253
83333.333270436
83333.3332240461
83333.33321169
83333.3332209422
83333.333228644
83333.3332343056
83333.3332379983
83333.3332410034
83333.3332361098
83333.3332386882
83333.333277106
83333.3332600081
83333.3332431169
83333.3332271766
83333.333293371
83333.3333076164
83333.3332131609
83333.3333184334
83333.3332014863
83333.3332227042
83333.3332176331
83333.3332256694
83333.333227148
83333.3332102973
83333.3332012001
83333.3332253951
83333.3331909908
83333.333300735
83333.3333052065
83333.333311509
83333.333317971
83333.3333215058
83333.3333234088
83333.3333247215
83333.3333256322
83333.3332202186
83333.3332115255
83333.3332113164
83333.3332150269
83333.3332165693
83333.3332169066
83333.3332177774
83333.3332177481
83333.3332148471
83333.3332089978
83333.3332007416
83333.3331909499
83333.3331803288
83333.333322504
83333.3333250718
83333.3333261017
83333.3333282889
83333.3333289258
83333.3333291614
83333.3333293911
83333.3333296007
83333.3333297609
83333.3333261689
83333.3333197402
83333.3333099007
83333.3332966604
83333.3332809717
83333.3332640507
83333.3332468349
83333.3332303006
83333.3332151325
83333.3332019643
83333.3331908165
83333.3331801881
83333.3331691792
83333.333285326
83333.3332775418
83333.3332688754
83333.3332749028
83333.3332582776
83333.3332910374
83333.3332417824
83333.3332525216
83333.3332611912
83333.333267877
83333.3332366798
83333.3332455383
83333.3332521047
83333.3332567302
83333.3332261267
83333.3332729465
83333.3332850216
83333.3332943693
83333.3333010528
83333.333305622
83333.3332598477
83333.3333170995
83333.3333141638
83333.3333096316
83333.3333021134
83333.3332908444
83333.3332802213
83333.3332724572
83333.3332415211
83333.333237402
83333.333230751
83333.3332221401
83333.3332453097
83333.3332393914
83333.333241129
83333.3332121462
83333.333200409
83333.3332098531
83333.3332179086
83333.3332240131
83333.333227984
83333.3332301302
83333.3332298619
83333.3332211513
83333.3332222182
83333.3332627896
83333.3332794302
83333.3332460336
83333.3332297724
83333.3332146725
83333.3332950277
83333.3333086129
83333.3332014193
83333.3333189605
83333.3331901558
83333.3332171289
83333.3332134565
83333.3332075169
83333.3332189978
83333.3332191373
83333.3331994779
83333.3331899801
83333.3332155744
83333.3331796439
83333.3332995805
83333.3333058201
83333.3333114339
83333.333318411
83333.3333218492
83333.333323741
83333.3333250167
83333.333325865
83333.333210622
83333.3332039305
83333.3332043958
83333.3332087232
83333.3332104409
83333.3332108114
83333.3332116076
83333.3332117426
83333.3332099739
83333.3332054731
83333.3331984421
83333.3331895392
83333.3331795226
83333.3331688539
83333.3333219919
83333.3333247471
83333.3333263059
83333.3333283489
83333.3333289852
83333.333329247
83333.333329483
83333.3333296837
83333.3333298422
83333.3333263766
83333.3333201616
83333.3333107164
83333.3332980283
83333.3332829451
83333.3332665308
83333.3332496377
83333.3332330398
83333.333217321
83333.3332029541
83333.333190383
83333.3331794859
83333.3331688146
83333.3331577465
83333.333279894
83333.3332874102
83333.3332714781
83333.3332702305
83333.333263938
83333.3332553704
83333.3332772022
83333.3332609604
83333.3332446048
83333.3332927567
83333.3332286761
83333.3332394612
83333.3332484123
83333.3332549103
83333.3332588821
83333.3332333081
83333.3332242474
83333.3332403082
83333.3332445981
83333.333248083
83333.3332137463
83333.3332745781
83333.3332619967
83333.3332868333
83333.3332960751
83333.3333024233
83333.3333067006
83333.3332431204
83333.3333176875
83333.3333149341
83333.3333106148
83333.3333033559
83333.333291797
83333.333281422
83333.3332723623
83333.3332444718
83333.333231123
83333.333233575
83333.3332262594
83333.3332192451
83333.3332104569
83333.3332338629
83333.3332239897
83333.3332245236
83333.3332004667
83333.3331891512
83333.3331987632
83333.3332072193
83333.3332139101
83333.3332185409
83333.3332211666
83333.3332217078
83333.3332186887
83333.3332116115
83333.3332107651
83333.3332652444
83333.3332487314
83333.3332814156
83333.3332324608
83333.333216885
83333.3332025093
83333.3332964345
83333.3333094774
83333.3331898536
83333.3333194154
83333.3331788637
83333.3332112497
83333.3332086359
83333.3332039522
83333.3331970797
83333.333212506
83333.333211814
83333.3331884531
83333.3331787233
83333.3332084385
83333.3331683208
83333.3333003582
83333.3333065493
83333.3333119161
83333.3333189117
83333.3333222401
83333.3333240533
83333.3333252789
83333.3333260696
83333.3332028942
83333.3331986878
83333.3331988864
83333.3332027783
83333.3332035383
83333.333205253
83333.3332058391
83333.3332058904
83333.3332047167
83333.3332013083
83333.3331954387
83333.333187539
83333.3331782629
83333.3331681248
83333.3331574553
83333.3333203504
83333.3333250264
83333.3333264735
83333.3333284315
83333.3333290538
83333.3333293383
83333.3333295665
83333.3333297648
83333.3333299117
83333.3333265609
83333.3333205434
83333.3333114171
83333.3332991989
83333.333284634
83333.3332686912
83333.3332521526
83333.3332356682
83333.3332197678
83333.3332047593
83333.3331910539
83333.3331789434
83333.3331682031
83333.333157512
83333.3331464307
83333.3332724387
83333.3332664624
83333.3332820464
83333.3332892309
83333.3332738065
83333.3332579968
83333.33326081
83333.3332574221
83333.333251106
83333.3332421781
83333.3332792155
83333.3332633723
83333.3332472499
83333.3332312993
83333.3332942422
83333.3332159603
83333.3332267395
83333.3332359764
83333.333243004
83333.333247136
83333.3332497448
83333.3332213734
83333.3332287974
83333.3332121237
83333.3332339733
83333.3332365188
83333.3332369007
83333.3332016723
83333.333276134
83333.3332636789
83333.3332454995
83333.3332886487
83333.3332976194
83333.3333036372
83333.3333076388
83333.3332270744
83333.3333156069
83333.3333181989
83333.3333115493
83333.3333045821
83333.3332932136
83333.3332829107
83333.3332742147
83333.3332462498
83333.3332275897
83333.3332208676
83333.3332242702
83333.3332246709
83333.3332153757
83333.3332079441
83333.3331989503
83333.3332216204
83333.3332132798
83333.3332123927
83333.3331889681
83333.3331779361
83333.3331876683
83333.3331964499
83333.3332037977
83333.3332092037
83333.3332126368
83333.3332141945
83333.3332134254
83333.3332098165
83333.3332042155
83333.3332031101
83333.3332674014
83333.3332511865
83333.3332350428
83333.3332831242
83333.333219312
83333.3332043747
83333.3331906182
83333.3332976445
83333.3333102238
83333.3331784398
83333.3333198177
83333.3331676284
83333.3332034646
83333.3332054812
83333.3331998111
83333.3331940322
83333.3331863585
83333.3332062865
83333.3332054667
83333.3331773652
83333.3331674915
83333.3332022198
83333.3331570665
83333.3332999702
83333.3333074995
83333.33331263
83333.3333194089
83333.3333225761
83333.3333243473
83333.3333255005
83333.3333262585
83333.3331979229
83333.333195479
83333.3331976289
83333.3331952159
83333.3331984013
83333.3331998488
83333.3332005195
83333.3332002401
83333.3331993561
83333.3331966962
83333.3331918637
83333.3331849537
83333.333176501
83333.3331670074
83333.3331568062
83333.3331461735
83333.3333223835
83333.3333254093
83333.3333266035
83333.333328527
83333.3333291285
83333.3333294221
83333.3333296473
83333.3333298366
83333.3333299926
83333.3333266983
83333.3333208839
83333.3333120282
83333.333300205
83333.333286095
83333.3332705774
83333.3332543901
83333.3332381013
83333.3332221982
83333.3332069153
83333.3331925294
83333.3331793798
83333.3331676351
83333.3331570018
83333.3331463205
83333.3331352502
83333.3332627809
83333.3332746485
83333.3332598275
83333.3332536583
83333.3332688194
83333.3332840043
83333.333290831
83333.3332758834
83333.3332604097
83333.3332447601
83333.3332511984
83333.3332494038
83333.3332455324
83333.3332385889
83333.3332292925
83333.3332655314
83333.3332809797
83333.3332496827
83333.3332338306
83333.3332183573
83333.3332955324
83333.3332035728
83333.3332143248
83333.3332238133
83333.3332313695
83333.3332365082
83333.3332388031
83333.3332386476
83333.3332096654
83333.3332175352
83333.3332233922
83333.3332002455
83333.3332271215
83333.3332274756
83333.3332243593
83333.333189856
83333.3332780672
83333.3332655564
83333.3332479633
83333.3332291818
83333.3332904093
83333.3332990262
83333.3333046956
83333.3333084528
83333.3332154749
83333.333316205
83333.3333123495
83333.3333186477
83333.3333057884
83333.3332947054
83333.3332848484
83333.3332757284
83333.3332484565
83333.33322966
83333.3332148112
83333.3332107595
83333.3332149944
83333.3332170024
83333.3332159537
83333.3332046314
83333.3331967446
83333.3331875996
83333.3332118019
83333.333205454
83333.3332045201
83333.3331776255
83333.3331766133
83333.333166786
83333.3331856238
83333.333193503
83333.3331997748
83333.3332040774
83333.3332066388
83333.3332075034
83333.3332062377
83333.3332029087
83333.3331989316
83333.333198279
83333.3332533994
83333.3332692919
83333.3332374462
83333.3332217183
83333.3332846037
83333.3332065366
83333.3331921787
83333.3331789675
83333.3332986875
83333.3333108739
83333.333167168
83333.3333201779
83333.3331564776
83333.3331952892
83333.333198267
83333.3331999204
83333.3331904743
83333.3331837282
83333.333175527
83333.333200631
83333.3331997012
83333.3331662907
83333.3331563304
83333.3331972482
83333.3331459193
83333.3333027535
83333.3333087248
83333.3333134229
83333.3333198569
83333.3333228764
83333.3333246013
83333.3333257016
83333.3333264128
83333.3331950606
83333.3331937033
83333.3331950605
83333.3331938591
83333.3331930713
83333.3331950384
83333.3331954858
83333.3331949702
83333.3331940111
83333.3331918713
83333.3331878679
83333.3331818682
83333.3331742436
83333.3331654549
83333.3331558236
83333.3331456034
83333.333135029
83333.333323178
83333.3333257402
83333.3333268314
83333.3333286142
83333.333329204
83333.3333294974
83333.3333297194
83333.3333299121
83333.3333300836
83333.3333268452
83333.3333211711
83333.33331256
83333.3333010729
83333.3332873593
83333.3332722263
83333.3332563688
83333.3332403145
83333.3332245046
83333.3332091299
83333.3331944066
83333.3331805792
83333.3331679059
83333.3331564554
83333.3331459231
83333.3331352604
83333.3331242264
83333.3332650381
83333.3332516707
83333.3332528705
83333.3332767743
83333.3332622066
83333.3332479891
83333.3332560728
83333.33324111
83333.3332709853
83333.3332857727
83333.3332922307
83333.3332777266
83333.3332626006
83333.333247172
83333.3332317728
83333.3332402288
83333.3332408172
83333.3332388653
83333.3332338776
83333.3332263003
83333.3332166841
83333.3332518907
83333.3332674513
83333.3332825247
83333.3332362024
83333.3332207313
83333.3332057328
83333.3332966524
83333.3331914728
83333.333202166
83333.3332118552
83333.3332199359
83333.3332258744
83333.3332295407
83333.3332295974
83333.3332261621
83333.3331981131
83333.333206406
83333.3332129442
83333.3332175308
83333.3331885881
83333.3332197723
83333.3332186237
83333.3332140244
83333.3331782769
83333.3332800884
83333.3332677663
83333.3332499006
83333.3332311577
83333.333217191
83333.3332921063
83333.3333002598
83333.3333056217
83333.3333091633
83333.3332070138
83333.3333167314
83333.3333130426
83333.3333068518
83333.3333190457
83333.3332964134
83333.3332865928
83333.3332785169
83333.333250024
83333.33323165
83333.3332166514
83333.3332062488
83333.3332006977
83333.3332057003
83333.3332088866
83333.333209994
83333.3332082831
83333.3331938852
83333.3331856453
83333.3331763999
83333.3332043832
83333.333199815
83333.333199265
83333.3331664312
83333.3331656147
83333.3331748092
83333.3331557296
83333.3331830564
83333.3331900602
83333.3331953515
83333.3331988333
83333.3332008439
83333.3332013979
83333.3332001473
83333.3331976729
83333.3331954461
83333.3331952881
83333.3332553754
83333.333239641
83333.3332709462
83333.3332240033
83333.3332087427
83333.3332858834
83333.3331940817
83333.3331802596
83333.333167528
83333.3332995878
83333.3333114405
83333.3331560216
83333.3333204865
83333.3331454491
83333.333190618
83333.3331865539
83333.3331931713
83333.3331947367
83333.3331806687
83333.3331732366
83333.3331646779
83333.3331954165
83333.3331948598
83333.3331552742
83333.3331452714
83333.3331936602
83333.3331348986
83333.3333042402
83333.3333100738
83333.3333142359
83333.3333202381
83333.3333231642
83333.333324819
83333.3333258676
83333.3333265611
83333.3331935215
83333.3331929519
83333.3331910819
83333.3331913542
83333.3331915046
83333.3331921111
83333.3331929876
83333.33319016
83333.333188889
83333.3331869636
83333.3331836042
83333.3331784011
83333.3331715601
83333.3331634722
83333.3331544629
83333.3331447463
83333.3331345432
83333.333124062
83333.333324275
83333.3333262388
83333.3333270518
83333.3333287017
83333.3333292633
83333.3333295794
83333.33332979
83333.3333299961
83333.3333301731
83333.3333269969
83333.3333214327
83333.333313016
83333.3333018192
83333.3332884492
83333.3332736606
83333.3332581098
83333.3332422986
83333.3332266336
83333.3332112744
83333.3331963983
83333.3331821987
83333.3331688783
83333.3331566121
83333.3331454269
83333.3331349935
83333.3331243218
83333.3331133039
83333.3332673648
83333.3332540781
83333.3332550551
83333.3332412078
83333.3332429273
83333.3332417562
83333.333264482
83333.3332787807
83333.3332503977
83333.3332363312
83333.3332583116
83333.3332435094
83333.3332287336
83333.3332729487
83333.3332873391
83333.3332934521
83333.3332793514
83333.3332645672
83333.3332493868
83333.3332341183
83333.333219023
83333.3332278505
83333.3332314825
83333.3332317387
83333.3332282726
83333.3332223603
83333.3332141784
83333.3332043156
83333.3332538716
83333.3332383817
83333.3332691474
83333.3332838705
83333.3332229905
83333.3332079247
83333.3331933932
83333.3332976225
83333.3331796357
83333.3331902458
83333.3332000517
83333.3332085898
83333.3332153073
83333.3332199432
83333.3332220783
83333.3332206966
83333.3332156922
83333.3331953152
83333.3331867172
83333.3332025173
83333.333207913
83333.3332113738
83333.3331771493
83333.3332125931
83333.3332106154
83333.3332061403
83333.3331669075
83333.3332699151
83333.3332822298
83333.333252263
83333.3332328574
83333.3332188807
83333.3332083109
83333.3332936328
83333.3333013402
83333.3333064354
83333.3333097795
83333.3332009569
83333.3333171856
83333.3333136679
83333.3333077676
83333.3332980188
83333.3333193813
83333.3332890091
83333.3332801001
83333.3332518271
83333.3332332092
83333.3332184272
83333.3332075886
83333.3332004504
83333.3331963625
83333.3331905186
83333.333200443
83333.333202909
83333.3332035002
83333.333201821
83333.3331831471
83333.3331746704
83333.3331653386
83333.3331988209
83333.3331960192
83333.3331958845
83333.3331553648
83333.3331546945
83333.3331640299
83333.333172559
83333.3331447902
83333.3331800796
83333.3331862636
83333.333190755
83333.3331937043
83333.3331954528
83333.3331959595
83333.3331952137
83333.3331939365
83333.3331932047
83333.3331936207
83333.3332571236
83333.3332416166
83333.3332261165
83333.3332723847
83333.3332108746
83333.3331960763
83333.3332869853
83333.3331819164
83333.3331685935
83333.333156273
83333.3333003634
83333.3333119257
83333.3331450315
83333.3333207585
83333.3331345619
83333.333185964
83333.3331824231
83333.33317728
83333.3331883546
83333.3331899929
83333.3331705764
83333.3331626794
83333.3331538631
83333.3331909397
83333.3331911755
83333.3331443448
83333.3331343367
83333.3331913621
83333.3331240165
83333.3333066388
83333.3333115439
83333.3333150027
83333.3333206126
83333.3333234053
83333.3333250327
83333.3333260164
83333.3333267145
83333.3331928902
83333.3331928592
83333.3331860679
83333.3331876206
83333.3331889321
83333.333190376
83333.333191949
83333.3331920468
83333.333184256
83333.3331821928
83333.3331791949
83333.333174684
83333.3331685483
83333.3331611245
83333.3331527263
83333.3331435616
83333.3331338085
83333.3331236736
83333.3331132058
83333.3333254279
83333.3333266638
83333.3333272915
83333.3333287564
83333.333329344
83333.3333296566
83333.3333298621
83333.33333008
83333.3333302565
83333.3333271299
83333.3333216705
83333.3333134087
83333.3333024515
83333.3332893785
83333.3332748966
83333.3332596273
83333.3332440574
83333.3332285587
83333.333213278
83333.3331983612
83333.333183965
83333.3331702615
83333.3331574044
83333.3331455014
83333.333134556
83333.3331241836
83333.3331134418
83333.3332573965
83333.3332564871
83333.3332697051
83333.3332436002
83333.3332453295
83333.3332438726
83333.3332306433
83333.3332339581
83333.3332334719
83333.3332294803
83333.3332666092
83333.3332526927
83333.3332805955
83333.3332387158
83333.3332247437
83333.3332457448
83333.3332603525
83333.3332310584
83333.3332164824
83333.3332747002
83333.3332887158
83333.3332807726
83333.3332945146
83333.3332663129
83333.3332513901
83333.3332362894
83333.3332212569
83333.3332064879
83333.3332173358
83333.3332225777
83333.3332241625
83333.3332222337
83333.3332176651
83333.3332108772
83333.3332021899
83333.3331921763
83333.3332403516
83333.3332556292
83333.3332250856
83333.3332706313
83333.3332850333
83333.3332100387
83333.3331953873
83333.3331813224
83333.3332984518
83333.3331680443
83333.3331785603
83333.3331884111
83333.3331972688
83333.3332046914
83333.3332102436
83333.3332137058
83333.3332148039
83333.3332125498
83333.333207572
83333.333191996
83333.3331842842
83333.3331754997
83333.3331982226
83333.3332026427
83333.3332052911
83333.3331659089
83333.3332058362
83333.3332038125
83333.3332002533
83333.3331557243
83333.3332724604
83333.3332544352
83333.3332842464
83333.3332348191
83333.3332204244
83333.3332096592
83333.3332019608
83333.3332949793
83333.3333022994
83333.3333071384
83333.3333103019
83333.3331968148
83333.3333175806
83333.3333142106
83333.3333086222
83333.3332994796
83333.3332912715
83333.333319667
83333.3332833348
83333.3332532492
83333.333234602
83333.3332198997
83333.3332089391
83333.333201433
83333.333196626
83333.3331918291
83333.3331868081
83333.3331802324
83333.3331952674
83333.3331972878
83333.3331977331
83333.333196627
83333.3331724757
83333.3331638128
83333.3331544039
83333.3331948224
83333.3331935961
83333.3331938757
83333.3331444547
83333.3331438818
83333.3331533068
83333.3331620615
83333.3331699647
83333.3331339901
83333.3331768047
83333.3331822748
83333.3331861976
83333.333188896
83333.3331906052
83333.33319141
83333.3331914888
83333.3331914938
83333.3331920817
83333.3331928455
83333.3332586523
83333.3332433713
83333.333228031
83333.3332128654
83333.333273625
83333.3331980335
83333.3331836939
83333.3332879235
83333.3331700173
83333.3331571549
83333.3331452027
83333.3333010205
83333.3333123377
83333.3331341964
83333.3333210021
83333.3331238059
83333.33318154
83333.333178243
83333.3331736694
83333.3331676327
83333.3331839908
83333.3331859434
83333.3331603547
83333.3331521135
83333.3331431114
83333.3331874719
83333.3331887558
83333.3331335379
83333.3331235578
83333.3331902575
83333.3331132241
83333.3333089629
83333.333312864
83333.3333158142
83333.3333209374
83333.3333236487
83333.3333252072
83333.333326148
83333.3333268549
83333.3331929009
83333.3331931188
83333.3331803879
83333.3331828959
83333.3331852997
83333.333187676
83333.3331901398
83333.3331922128
83333.3331919608
83333.333177853
83333.3331748755
83333.3331708304
83333.333165328
83333.3331585024
83333.3331506733
83333.3331420501
83333.3331327897
83333.3331230724
83333.3331129183
83333.3333263013
83333.3333271091
83333.333327421
83333.3333288685
83333.3333294261
83333.3333297349
83333.3333299323
83333.3333301564
83333.3333303394
83333.3333272361
83333.3333218705
83333.333313742
83333.3333029783
83333.3332901564
83333.3332759459
83333.3332609321
83333.3332455951
83333.3332302706
83333.3332150995
83333.3332002125
83333.3331857334
83333.333171805
83333.3331585671
83333.3331461252
83333.3331345508
83333.3331237952
83333.3331133672
83333.3332599783
83333.3332460999
83333.3332478095
83333.3332459489
83333.3332588275
83333.3332718802
83333.3332329973
83333.3332363056
83333.333235827
83333.3332314927
83333.3332245035
83333.3332199856
83333.3332262736
83333.3332245207
83333.3332189648
83333.333268538
83333.3332548279
83333.3332409746
83333.3332822029
83333.3332270441
83333.333213141
83333.3332332281
83333.3332477873
83333.3332621806
83333.3332186909
83333.3332043395
83333.3332762425
83333.3332899218
83333.3332820029
83333.3332678415
83333.3332954244
83333.3332531755
83333.3332382621
83333.3332233354
83333.3332085807
83333.333194164
83333.3332090173
83333.3332143763
83333.3332168199
83333.3332158969
83333.3332125292
83333.3332069347
83333.3331993903
83333.3331903491
83333.33318027
83333.3332421055
83333.3332269881
83333.3332571677
83333.3332120123
83333.3332719107
83333.3332860219
83333.3331973337
83333.3331831092
83333.3331695055
83333.333299146
83333.3331566756
83333.333167103
83333.333176958
83333.3331860068
83333.3331939524
83333.3332003815
83333.3332049228
83333.3332075408
83333.3332079096
83333.333205548
83333.3332015014
83333.3331814166
83333.3331883232
83333.3331733688
83333.3331644579
83333.3331937039
83333.333197414
83333.3331995081
83333.3331548489
83333.3331998124
83333.3331983485
83333.3331959708
83333.3331447228
83333.3332749057
83333.333257204
83333.3332367581
83333.333286057
83333.3332221126
83333.3332109837
83333.3332030078
83333.3331975752
83333.3332961911
83333.3333031279
83333.3333077313
83333.3333107358
83333.3331941593
83333.3333178985
83333.3333146849
83333.3333093922
83333.3333009255
83333.333293316
83333.3332861853
83333.3333199032
83333.3332555488
83333.3332360431
83333.3332212335
83333.3332101298
83333.3332024049