/*--------------------------------*- C++ -*----------------------------------*\
  =========                 |
  \\      /  F ield         | OpenFOAM: The Open Source CFD Toolbox
   \\    /   O peration     | Website:  https://openfoam.org
    \\  /    A nd           | Version:  12
     \\/     M anipulation  |
\*---------------------------------------------------------------------------*/
/*   Windows 32 and 64 bit porting by blueCAPE: http://www.bluecape.com.pt   *\
|  Based on Windows porting (2.0.x v4) by Symscape: http://www.symscape.com   |
\*---------------------------------------------------------------------------*/
FoamFile
{
    format      ascii;
    class       surfaceScalarField;
    location    "300";
    object      phi;
}
// * * * * * * * * * * * * * * * * * * * * * * * * * * * * * * * * * * * * * //

dimensions      [0 3 -1 0 0 0 0];

internalField   nonuniform List<scalar> 
29052
(
-8.13723146881717e-07
-1.22842260424648e-06
1.72403662463953e-05
1.45618116402097e-05
-2.52155407938434e-07
-5.65400702009449e-07
-5.19314874843659e-08
-3.78336039346171e-08
1.15210819559273e-05
1.25272667522001e-08
-2.06776812669019e-06
1.92956130778762e-05
-1.61728309802924e-06
2.62406345779444e-07
1.5929198756419e-05
1.11348962902758e-05
-7.36291304144959e-07
-3.19226491493615e-07
1.20104867211974e-05
-1.26584782941549e-07
-9.28723724211905e-08
-9.58998287477921e-08
-1.0453746866407e-07
5.93575396688282e-06
2.32520411112045e-07
-4.66203384300947e-07
9.68698720100475e-06
1.8574967857482e-06
-1.72584284086307e-06
1.91639232530015e-05
1.09142091169729e-05
-6.97066746694536e-07
4.08576882561305e-07
-1.31938767158546e-06
-1.48526451054991e-07
1.28651991351619e-05
-2.07991145780092e-06
1.83951528787035e-06
1.80270702522205e-05
1.16340408164186e-05
-6.92400049666722e-07
-1.17963116240001e-07
1.18118619276269e-05
-3.47332563242901e-07
-2.87470697047674e-07
6.98158420725221e-06
-1.91074445220358e-07
-2.08730689207603e-08
7.26671920334304e-08
-2.44753005476427e-08
5.53759390509243e-06
3.99684383614155e-08
-2.8150625969158e-07
5.71108717617178e-06
6.00934333695348e-07
-7.0788560619414e-07
8.06809182187684e-06
2.36157132186294e-06
-1.31611437608912e-06
1.81184715647277e-05
-1.02082415899621e-06
8.76779066223897e-07
9.57926257861786e-06
6.67873958979852e-06
3.5845107209153e-08
-3.90112596350131e-07
1.15082016517554e-05
-9.69082839402811e-07
3.61895455017223e-07
-1.06954441446669e-06
-2.9011823050754e-07
1.28451384277113e-05
-2.14719501602721e-06
1.10736629465284e-06
1.57445184166063e-05
-1.86076731142768e-06
3.24005947350319e-06
1.90093541907291e-05
1.14828796673739e-05
-1.25845556115589e-06
-3.39704065700393e-08
1.24630574782329e-05
-4.94342715361742e-07
-2.73420377741822e-07
8.3152636081572e-06
-2.04894416981872e-07
-5.73980969690593e-09
6.15702099490456e-06
5.78353475963692e-08
-9.65375925041748e-08
1.16602783773265e-07
-1.72354262770048e-07
5.28501131190067e-06
1.78479096699297e-07
-2.35213822076677e-07
5.3128186025884e-06
1.85329328402944e-07
-5.38089850423707e-07
5.35596272606244e-06
5.77127866242195e-07
-7.97211564720573e-07
6.97205535722994e-06
2.17180408514837e-06
-9.98849524625969e-07
1.69455132645079e-05
3.26505663964434e-07
-7.35767796327795e-07
6.2524990703788e-06
-1.29410239177146e-06
1.06064879385611e-05
9.25367321467276e-07
-1.06939272447568e-06
9.50509378225878e-07
8.41449788047292e-06
7.63808381117048e-06
2.0168098703921e-07
-4.5774703153333e-07
6.02943163910768e-06
2.80668470831988e-07
-3.64715944798047e-07
1.25714990882166e-05
-1.17483783867012e-06
3.5868905173933e-07
-8.05649251098637e-07
-7.72978241803236e-07
1.27713614574631e-05
-2.07542547075122e-06
5.53035697354771e-07
1.54748543375663e-05
-2.31642119000777e-06
2.81405468410105e-06
1.84869168008203e-05
-1.42314708754146e-06
3.82434216255384e-06
1.87799704680529e-05
1.21044601749687e-05
-1.11258090793715e-06
2.64068016203302e-07
1.27622282626683e-05
-7.61839015482009e-07
-2.62230846016226e-07
9.3947725586332e-06
-2.9082993476943e-07
-4.78662863177416e-09
6.77241064729471e-06
-5.48742320154011e-08
-1.26868268162923e-07
5.85214333099726e-06
1.39856104722953e-07
-2.02092222842479e-07
1.5651246230317e-07
-1.17681014252632e-07
5.22785134783276e-06
1.97519282319303e-07
-2.77987311322109e-07
5.13026544718793e-06
1.98149513432238e-07
-4.55663954548807e-07
5.03224329008972e-06
2.06329722927808e-07
-6.81278592895165e-07
5.03369916216637e-06
5.3182150769469e-07
-8.02338512463588e-07
6.24372333501419e-06
1.92490412006872e-06
-7.68607770880423e-07
1.57892245992248e-05
-9.08588110860486e-07
7.1393618206131e-06
4.39695693647731e-07
3.51651423879226e-07
5.75738392499199e-06
-6.17226106002154e-07
3.82099983319901e-07
-8.71177133480048e-07
5.87850868192024e-06
-1.34705328416982e-06
9.46507310205061e-06
1.12254962342027e-06
-1.56739962762042e-06
1.19865825780874e-05
1.00222971486657e-06
-1.01635814281445e-06
1.03957487096733e-06
7.49995651166939e-06
8.71461106242081e-06
3.11601030129515e-07
-6.04608807386175e-07
6.77346662397829e-06
2.98305226588661e-07
-4.76446914604658e-07
5.74146463612576e-06
3.25194692469893e-07
-3.81716251711627e-07
1.34398597548116e-05
-1.24818568345948e-06
1.23529873056515e-07
-3.99415815976651e-07
-1.08037512016705e-06
1.28112446258232e-05
-1.83258409881443e-06
3.61424016631992e-08
1.5120794606072e-05
-2.5949589024646e-06
2.19371227224282e-06
1.86901239795373e-05
-1.96551289823482e-06
4.54067197893516e-06
1.9736082186656e-05
-1.06309089642473e-06
3.68218125462946e-06
1.80857947229449e-05
1.47206439422521e-05
-1.4826394118729e-06
3.43951001958613e-07
1.2879072776338e-05
-1.05028361372709e-06
-1.67390498587879e-07
1.02691373072533e-05
-4.09092227495441e-07
-5.3040268510471e-08
7.52966740978643e-06
-2.07767034333967e-07
-1.37317504425024e-07
6.46934620972479e-06
6.93635621820261e-08
-2.37363519180955e-07
5.70847651903902e-06
1.99976891500106e-07
-1.925797341674e-07
1.58578601739576e-07
-1.43637277597486e-07
4.99846007534833e-06
2.17410448458248e-07
-2.41468298103307e-07
4.9739191837916e-06
1.95249654974355e-07
-3.99077033420412e-07
4.87842836477698e-06
1.64702304556325e-07
-5.72417890698793e-07
4.75867948233781e-06
2.12872097963663e-07
-7.07212156520166e-07
4.72570211808287e-06
4.94393504852553e-07
-6.92842172573454e-07
5.6735635212794e-06
1.58443763579285e-06
-5.12461337079369e-07
1.47172507283791e-05
-7.75320412526429e-07
4.48877735950278e-07
6.5429706452633e-06
-1.06037744217524e-06
6.71762805260034e-06
5.17145042613313e-07
-1.09347997402355e-06
8.10835804791735e-06
5.72012308568997e-07
3.1672582560092e-07
-7.25830970165552e-07
5.46001407398446e-06
3.47890361671917e-07
5.4984502044892e-06
-5.26855948503465e-07
4.37823194012501e-07
-8.60554172984635e-07
5.49774989805848e-06
-1.26851399838171e-06
8.41595596246658e-06
1.39168425541947e-06
-1.62859319516323e-06
1.0794426068445e-05
1.34830303653204e-06
-1.72755653670555e-06
1.32855823410178e-05
1.05142686427242e-06
-8.50418701411299e-07
1.03471194302881e-06
6.74697385656541e-06
9.72999299692085e-06
3.85997958203179e-07
-7.83443742150178e-07
7.53706109510314e-06
2.71463913773712e-07
-5.85159287568812e-07
6.44749534839945e-06
3.53473575370935e-07
-4.82877616229225e-07
5.51814393617573e-06
3.56504561514948e-07
-3.30479572917109e-07
1.42709145215905e-05
-1.06707077838321e-06
-6.00675012626406e-07
-2.56982418291904e-07
-1.87655671713112e-06
1.57738048508568e-05
-1.57512013016494e-06
-2.92243150089557e-07
1.47147188734921e-05
-2.62919282212863e-06
1.73272064231258e-06
1.82109310894978e-05
-2.50835851766751e-06
4.67265446586606e-06
2.10664634764417e-05
-1.44755222329469e-06
5.28982401955514e-06
1.9575972100438e-05
-6.90813818585394e-07
3.22863529186042e-06
1.71323977797976e-05
2.07246029698208e-05
-2.2181858915014e-07
-1.26418789759353e-07
1.45745761304231e-05
-1.72419763987512e-06
-1.03134650914569e-07
1.11318226683283e-05
-6.09595430532812e-07
-2.22800016208557e-07
8.45430107408526e-06
-3.08650278916084e-07
-1.19290120551367e-07
7.19456807274877e-06
-5.75707589347849e-08
-2.52101969256807e-07
6.29946436637125e-06
1.48190605359735e-07
-2.43760415526196e-07
5.45956126312716e-06
2.1171326662211e-07
-1.85321113098237e-07
1.62355748396969e-07
-1.16987889876998e-07
4.83262936020713e-06
2.11730087258475e-07
-2.1901380908799e-07
4.76427566395569e-06
1.90426223792553e-07
-3.30723648200365e-07
4.71513881094299e-06
1.5089291538035e-07
-4.70657287899954e-07
4.62577415148446e-06
1.57689812553402e-07
-5.93108900247794e-07
4.48688687983602e-06
2.31248465738572e-07
-6.2551107625802e-07
4.42712322947133e-06
4.43650267615554e-07
-5.14964791869972e-07
5.23241403969119e-06
1.25864821719981e-06
-2.7952735427509e-07
1.37381224059326e-05
6.22349208328759e-06
-6.5270494484253e-07
4.49277516307954e-07
-9.34084754725172e-07
7.27849541229933e-06
5.48041106648718e-07
-8.8032223772965e-07
4.55475582697648e-07
6.2241644696265e-06
-1.02634816429607e-06
6.26573130262922e-06
6.47549176083335e-07
-1.24981575798137e-06
7.55371575656723e-06
6.92999637113052e-07
-1.26696047173079e-06
9.0286287714335e-06
8.12763834288529e-07
2.88559634322198e-07
5.22181350203359e-06
-5.86861833055188e-07
3.2475572169779e-07
-7.15012221557386e-07
5.14740538151183e-06
3.35990153572257e-07
5.26660918030638e-06
-4.20884566580256e-07
4.8926302148502e-07
-7.43261613617302e-07
5.13257592074131e-06
-1.04531837211293e-06
1.52784269514358e-06
7.5205925056616e-06
-1.54716884906766e-06
9.49476241503516e-06
1.73013479083511e-06
-1.87527852325647e-06
1.20920256194234e-05
1.78790851051385e-06
-1.68703548538775e-06
1.49029914284103e-05
5.31221442521046e-07
-6.24124206025e-07
9.61507350783489e-07
6.16243166964452e-06
1.11966380679442e-05
2.8497854779434e-07
-1.03088083893576e-06
8.25626612680297e-06
3.40970442988871e-07
-6.54922570127856e-07
7.16257828789469e-06
3.52265045549127e-07
-5.51965124158778e-07
6.18314783545715e-06
3.98154043008612e-07
-4.08215808571222e-07
5.26971490208096e-06
3.50238940799559e-07
-2.79142662927721e-07
1.6865113197859e-05
-6.43434363183445e-07
-2.5047781714083e-06
-3.42237311614723e-06
6.60297849240808e-07
2.16101095600615e-05
-2.62748529831843e-06
9.24996411356932e-08
1.8016531535033e-05
-2.74149963619697e-06
1.78492779014646e-06
1.74039717495034e-05
-2.87017833515835e-06
4.71827934737635e-06
2.10354376701318e-05
-1.95667189205577e-06
6.69765894869029e-06
2.16152686069594e-05
-9.12929957772862e-07
4.98048351681167e-06
1.8737068955091e-05
-3.63125297872219e-07
2.65009754237586e-06
1.61040780857083e-05
2.41759515715344e-05
-6.08824644222075e-07
1.80128588462237e-05
-5.46576419276022e-07
5.16036965305606e-07
1.2756677549103e-05
-1.66710167561505e-06
-3.65336339818386e-07
1.00751713766214e-05
-3.1059965707754e-07
-1.24133689278106e-07
7.87226956277728e-06
-2.13521376361655e-07
-2.08183684698866e-07
6.92737867021089e-06
4.49090110981694e-08
-2.63585573507697e-07
6.02123641737772e-06
1.72904806894843e-07
-2.21004814334996e-07
5.26527899507602e-06
2.20352445688693e-07
-1.54421499012085e-07
1.58194305112915e-07
-1.04735550349898e-07
4.65564930680419e-06
2.08281734751985e-07
-1.74050223460893e-07
4.57938400046144e-06
1.77240817988903e-07
-2.68322509622167e-07
4.5246323486956e-06
1.40745429114059e-07
-3.74169058683526e-07
4.47790530292834e-06
1.38762106807127e-07
-4.78600255285075e-07
4.37250304906602e-06
1.69094812042521e-07
-5.28805112388064e-07
4.22108610223174e-06
2.36727717006733e-07
-4.85233781908179e-07
4.1606654940562e-06
3.92926078511271e-07
-3.360090637108e-07
4.89597393907736e-06
9.99526012602224e-07
-1.10523171294652e-07
1.28491291551967e-05
5.91285566462853e-06
-7.0511473640281e-07
4.23986526955176e-07
5.94110675802833e-06
-5.14808201151739e-07
4.40129650537752e-07
6.87865962010481e-06
-7.68372947253932e-07
5.67478409687824e-07
-1.02781862884494e-06
6.88435794117719e-06
6.2760593547869e-07
-1.05236549355409e-06
7.84080523348374e-06
7.48894236807674e-07
-8.40675434440683e-07
5.00567772977992e-07
5.86267525503409e-06
-8.70938366327609e-07
5.82519972232866e-06
7.55411106839418e-07
-1.19360883227567e-06
6.96717811414676e-06
8.80520941493817e-07
-1.41775952190136e-06
8.2544295821526e-06
1.00966164640554e-06
-1.4360055487399e-06
1.05532364697156e-05
1.20510876941484e-06
2.79529168051697e-07
4.93675638922199e-06
-5.70723821881793e-07
2.66370159631332e-07
5.0098734646804e-06
-4.55751292370202e-07
3.55334204831801e-07
-6.21949313610893e-07
4.83985340204007e-06
3.13999570791006e-07
5.04275084959519e-06
-3.3067916199037e-07
5.0940130547999e-07
-5.73703907662995e-07
4.80948306500446e-06
-1.27821298115227e-06
2.01340696641617e-06
8.33073394939107e-06
-7.54335520849806e-07
1.48331960549548e-06
6.84017236573876e-06
-1.82497470498792e-06
1.04891376578207e-05
2.28778727726561e-06
-2.17830341942569e-06
1.36500788834722e-05
2.47758327076248e-06
-1.26619620032562e-06
1.80139732106333e-05
-4.0381201914226e-07
8.65317358349915e-07
5.73072983325331e-06
1.55139264129006e-05
-1.94229436176611e-06
-1.17342834040292e-06
9.50344820633838e-06
6.01798172617789e-07
-7.19993337720148e-07
7.73549097040963e-06
4.08269397263743e-07
-5.74156705069317e-07
6.83293927543527e-06
4.0710170359251e-07
-4.66477139892959e-07
5.90844581599991e-06
3.94667355347404e-07
-3.39852372316491e-07
5.06550673522821e-06
3.45478138392362e-07
-2.16569403357096e-07
2.6226442074621e-06
2.19176485742222e-06
-1.99309401827925e-06
2.68293619590125e-05
-6.06131240169536e-07
2.43976514859642e-05
-4.02371799031255e-06
5.60252194160371e-06
1.82226422398231e-05
-3.28566225440021e-06
5.53123545891719e-06
1.98766304650567e-05
-2.48857451149299e-06
7.80400642098694e-06
2.24176351727677e-05
-1.21133822721636e-06
6.97938008589764e-06
2.08276889184434e-05
-4.68026967451158e-07
4.18035950437829e-06
1.76748216021759e-05
-1.36078685697824e-07
2.15314024266555e-06
1.50865437403352e-05
2.2368169006697e-05
3.60991918705041e-08
1.38929673471494e-05
-1.9963222303324e-06
-6.71798042679293e-08
1.2371118029735e-05
-7.90285746069896e-07
-2.08705094189687e-07
8.81891189340084e-06
-2.67665981194697e-07
-1.1689082889582e-07
7.43206914015946e-06
-9.92648199289225e-08
-2.37182084087722e-07
6.62321132786205e-06
9.17767955862386e-08
-2.36435487731483e-07
5.81748795085912e-06
1.90592835591183e-07
-1.82720382370495e-07
5.07814009380523e-06
2.17972219607406e-07
-1.26168653183736e-07
1.54511302432922e-07
-8.61607964593315e-08
4.51213070400548e-06
1.99221691869257e-07
-1.33417241935203e-07
4.41579396723279e-06
1.66540194503569e-07
-2.04992101298733e-07
4.34951309048877e-06
1.28066340445295e-07
-2.87984227357216e-07
4.31038030766398e-06
1.24894852853176e-07
-3.71491470902412e-07
4.24590171407041e-06
1.43497441938135e-07
-4.25151954136256e-07
4.12535269979183e-06
1.76786398161937e-07
-4.1769461255307e-07
3.97676147381375e-06
2.34140994474321e-07
-3.37055371293234e-07
3.92757059908778e-06
3.51257510066196e-07
-1.85353211511426e-07
4.61954328350315e-06
8.11271308017822e-07
6.41515803493755e-09
1.20314423240085e-05
-6.63985115329577e-07
4.34115688744273e-07
5.58157604640741e-06
5.64879766423524e-06
3.9500323270222e-07
-5.41441000595314e-07
6.48580392997028e-06
-8.12429756504142e-07
6.01449720353031e-07
5.6924925384527e-06
-3.97673746714204e-07
4.12818138557263e-07
6.54137491713023e-06
-5.98571196495503e-07
5.61888897908688e-07
7.3190180187019e-06
-8.4729108180806e-07
7.78873927774093e-07
-9.566101753871e-07
6.43573904578601e-06
7.12181135463555e-07
-1.14356629367067e-06
7.30597538550638e-06
8.88232188087339e-07
-1.147048813298e-06
8.69714966472216e-06
1.26621990817261e-06
-7.1604580879942e-07
5.59765911834045e-07
5.503350069316e-06
-6.66495488212832e-07
5.44186241117793e-06
8.04894644114365e-07
-9.98781506740097e-07
6.39953380125713e-06
1.04362257523795e-06
-1.3522118533414e-06
7.43809279338247e-06
1.22408292097536e-06
-1.64278728945469e-06
9.2826527467544e-06
1.74470822321191e-06
-1.60957849428864e-06
1.65079757598195e-05
5.54422491903198e-07
2.95765533515764e-07
-4.95677479006882e-07
4.65821644005226e-06
2.48643370302301e-07
4.75250737974191e-06
-4.37105681665984e-07
2.43083640364267e-07
4.81554446425145e-06
-3.43563373042814e-07
3.77407560310959e-07
-4.89242237795453e-07
4.55477013954888e-06
2.96121945590129e-07
4.85194224132298e-06
-2.46698278370274e-07
5.08200899807172e-07
-4.00582691387483e-07
4.5321932076805e-06
-1.52296696013979e-06
8.92317064836432e-06
2.61374365659195e-06
-9.07947438863185e-07
2.03302064371521e-06
7.47763897424193e-06
-4.83011104384717e-07
1.35828644082217e-06
6.36218544932653e-06
-2.27427033946797e-06
1.13429889558903e-05
3.58345456309788e-06
-2.40738366621491e-06
1.6689591303659e-05
-2.21198486818031e-07
7.7407440595839e-07
5.39303469989956e-06
1.73058243601613e-05
-2.4872005833494e-06
-2.45321442358065e-07
1.25649442580913e-05
2.77182234021979e-07
-1.04265273868996e-06
8.45470243577421e-06
6.29340278516665e-07
-5.76859938076952e-07
7.31984166188541e-06
4.39419782815188e-07
-4.9424970119728e-07
6.52937555020086e-06
4.03457387229567e-07
-3.81432884705027e-07
5.69090678821753e-06
3.91478552148445e-07
-2.59271853214658e-07
4.88841069543949e-06
3.3333495544106e-07
-1.60953535858174e-07
4.94947165338778e-07
2.20719050133594e-05
-1.22562249611218e-06
2.74488590269351e-05
1.4349260799672e-05
1.68512395438267e-05
-3.93421403081358e-06
9.28263937127934e-06
1.84054198216551e-05
-2.99423162737373e-06
9.12525091385418e-06
2.15496012661471e-05
-1.58271075219653e-06
8.864009110009e-06
2.21156800566747e-05
-5.89898865775337e-07
6.01159273313752e-06
1.95863361164331e-05
-1.79042565190629e-07
3.42901954984393e-06
1.65779804879039e-05
1.06471502396129e-08
1.76461910092666e-06
1.41225557645047e-05
2.56478630857087e-05
-1.67133078777734e-07
1.39580164397311e-05
-1.91084627015853e-06
8.79846704406887e-09
1.15185076345683e-05
-2.19733364981449e-07
-1.19104403436169e-07
8.10122723282507e-06
-1.5193452071583e-07
-1.57186225263463e-07
7.12713581292858e-06
-2.33880043834429e-08
-2.18049847490003e-07
6.39420055547748e-06
1.25807767797436e-07
-1.93535601278064e-07
5.62240417346331e-06
1.94040909923961e-07
-1.45165940688851e-07
4.9225500291463e-06
2.16072569371056e-07
-9.93313637823685e-08
1.53699510159058e-07
-6.38848707365033e-08
4.41479289000777e-06
1.9161675970362e-07
-9.77468129062838e-08
4.28484374052216e-06
1.56220167851685e-07
-1.46203498413524e-07
4.2007858247645e-06
1.17378948047057e-07
-2.09219192103726e-07
4.15336946671347e-06
1.114999464976e-07
-2.75053752061387e-07
4.10244304088868e-06
1.25707585244492e-07
-3.24101140692922e-07
4.01914351026283e-06
1.48258010382587e-07
-3.35186265628505e-07
3.89458656239801e-06
1.800069753043e-07
-2.95730634920398e-07
3.75542990682772e-06
2.2820285807899e-07
-2.04707825936778e-07
3.71872307951729e-06
3.1847230537799e-07
-6.75109156213461e-08
4.37499977705757e-06
6.74975112463817e-07
8.32331372725095e-08
1.12732478471862e-05
-5.03925266699684e-07
5.34900922919818e-06
3.88370862983629e-07
-7.44195877300012e-07
6.07763734084159e-06
6.2986599044149e-07
-5.6384611994532e-07
4.65232733933923e-07
5.25990803644846e-06
6.17232621495078e-06
5.68650045366218e-07
-6.17034510271636e-07
5.43383680949063e-06
3.63785745778441e-07
-4.03490527847524e-07
6.79907188691761e-06
-8.89577202517085e-07
8.67398811010632e-07
5.49152041709778e-06
-2.9289943109956e-07
3.90731485598507e-07
6.26943082652412e-06
-4.54384474411153e-07
5.28570965775381e-07
6.92285026482818e-06
-6.56777872506352e-07
7.68363398196329e-07
7.75063904271702e-06
-9.09749635721977e-07
1.24562360840921e-06
-7.97042868733156e-07
7.94577311555657e-07
5.99918544876913e-06
-1.04962313813608e-06
6.71516703596053e-06
1.00039287957716e-06
-1.25577302990436e-06
7.76014436448991e-06
1.43820585561507e-06
-1.41791161653298e-06
1.1441938555411e-05
2.19755229468861e-06
-5.57270958434685e-07
5.99896827038178e-07
5.17163821042177e-06
-4.62975843679937e-07
5.12138152659534e-06
8.08649120566048e-07
-7.51747440407818e-07
5.92728868896873e-06
1.12093693260528e-06
-1.11279029188164e-06
6.67430007097187e-06
1.39723220746536e-06
-1.59572801124514e-06
7.84225868888865e-06
1.98591918237154e-06
-1.89572392993133e-06
1.24084398916395e-05
5.33254389881392e-06
-1.36978002212807e-06
2.27312806257424e-05
-2.63417277196263e-06
2.57041377867943e-07
-3.74972478191208e-07
4.50046971797862e-06
3.11222923691923e-07
-3.89517753860381e-07
4.39552805388279e-06
2.22799584378625e-07
4.58731119233249e-06
-3.20170953009268e-07
2.23959550168362e-07
4.64809011565217e-06
-2.46292330194862e-07
3.87462536999843e-07
-3.49083101987581e-07
4.29581593805503e-06
2.79376043488336e-07
4.69248821036308e-06
-1.73930508399839e-07
4.95338387256725e-07
-2.46259448867317e-07
4.29011672453782e-06
-1.05900717738148e-06
7.8181402691753e-06
2.61433410049981e-06
-1.85535900804204e-06
9.23669208068609e-06
3.58115119541093e-06
-5.61922041197563e-07
1.88898645258283e-06
6.91895082504962e-06
-2.63006703484269e-07
1.22475743916013e-06
5.99545771308032e-06
-3.55968515905367e-06
1.1756523528597e-05
8.14194856544124e-06
-8.16569235306951e-08
6.94837994496033e-07
5.10897727609764e-06
2.36013968047923e-05
5.42258675818504e-08
1.65124923167996e-05
-1.74867822680678e-06
-7.73944678323817e-07
1.08474551405759e-05
9.8610770387679e-07
-7.28364054424161e-07
7.85766553346067e-06
5.98852847830804e-07
-4.92737599791967e-07
7.00151803494782e-06
4.32002827834723e-07
-3.97183602001495e-07
6.29070388558252e-06
4.01566141885576e-07
-2.88028193457042e-07
5.50479719900183e-06
3.81362249965136e-07
-1.89694899419208e-07
4.7459334377453e-06
3.2311060708658e-07
-1.15831483109756e-07
7.90240208555907e-07
1.85306507846375e-05
1.21074883325742e-05
-1.48725341499582e-06
1.68286383673687e-05
1.44644779071073e-05
1.25475977186914e-05
-2.1700273433735e-06
1.25168926073874e-05
1.57869732149645e-05
-3.41733624390408e-06
1.07667706170279e-05
2.01811729500561e-05
-1.97662705517811e-06
1.04666961483499e-05
2.19235049663026e-05
-7.47097567174188e-07
7.92595561908317e-06
2.09483848211008e-05
-2.12028682848317e-07
4.89323077119633e-06
1.83341397474616e-05
4.23322124928738e-09
2.81343828799834e-06
1.55249100896044e-05
1.03125621126467e-07
1.47042778507083e-06
1.32239737825521e-05
2.38262340058976e-05
3.33262626204127e-07
1.42746148564723e-05
-1.00463020697572e-06
3.16062757815377e-08
1.05665969490506e-05
1.36641447542489e-07
-8.80703635482259e-08
7.72213219859589e-06
-7.07237819392422e-08
-1.64152858688634e-07
6.87736008111247e-06
2.87116858747548e-08
-1.80087457496763e-07
6.17453993963073e-06
1.36503623687204e-07
-1.52393891105563e-07
5.45595583043331e-06
1.96357971009185e-07
-1.11375495916672e-07
4.81388472767841e-06
2.17034286638924e-07
-7.09161560999753e-08
1.53545349215721e-07
-3.71385430432986e-08
4.34099893574978e-06
1.88102776085023e-07
-6.08308584777618e-08
4.18977376425238e-06
1.48463094030502e-07
-9.42093532540019e-08
4.08438624108229e-06
1.08528590817109e-07
-1.38558733253692e-07
4.02159679320352e-06
1.00491027165163e-07
-1.88704788880283e-07
3.96652966931394e-06
1.10890580934043e-07
-2.30195957373101e-07
3.8976475636299e-06
1.28399991064623e-07
-2.4894824851861e-07
3.80450617280568e-06
1.50984058953212e-07
-2.34150686950206e-07
3.68202275824145e-06
1.80260340171423e-07
-1.82298215076306e-07
3.55276076964997e-06
2.20348916185697e-07
-9.51570543748244e-08
3.52601974245759e-06
2.90551062799749e-07
1.96308480244882e-08
4.14805141108391e-06
5.72096105934368e-07
1.3047421696645e-07
1.05706827600077e-05
3.5172460677382e-07
5.16700345136111e-06
-3.66017688177592e-07
-4.22541179842962e-07
5.05970123914368e-06
4.0504523379415e-07
-5.58373314126444e-07
5.80372492632439e-06
5.71145995933241e-07
-6.15907618296208e-07
5.69495743595312e-06
6.66777300640513e-07
-7.97851560915501e-07
6.2791104936155e-06
8.98051613971264e-07
-4.3720107313739e-07
4.92009909425639e-07
4.95905196886908e-06
6.43914781544943e-06
8.31327968844758e-07
-6.68557334026416e-07
5.94078737752496e-06
5.29780487372641e-07
-4.54387894329608e-07
5.26078293854863e-06
3.37903798687021e-07
-2.86697866607075e-07
6.98853273953504e-06
-9.57909271707896e-07
1.33162720941226e-06
5.32577913453297e-06
-2.04651079772711e-07
3.70142413967231e-07
6.05680327671438e-06
-3.30046483824181e-07
5.00290699262494e-07
6.63667887021124e-06
-4.9009446155296e-07
7.26720472831424e-07
7.23760868862223e-06
-6.98184544194847e-07
1.17684988151827e-06
9.45145000896441e-06
-1.07692985506292e-06
2.30063991639828e-06
-8.51804873257192e-07
1.08423204031878e-06
6.1645263090075e-06
-6.07981248492149e-07
8.45712782022488e-07
5.6096024143224e-06
-1.15325256392975e-06
6.83266835125918e-06
1.48538902608009e-06
-1.48373397141341e-06
8.77395063453024e-06
3.69418291372619e-06
-2.03283958380012e-06
2.0988024928549e-05
-1.61492848686819e-06
-3.94705614430001e-07
6.17575316237329e-07
4.87325562770368e-06
-2.82739297769936e-07
4.84837752068452e-06
7.8807803312471e-07
-5.10964170956745e-07
5.55542919086093e-06
1.12954723631198e-06
-8.09771790917622e-07
6.08233333089871e-06
1.46366679488166e-06
-1.25902320491317e-06
6.71063994890519e-06
1.93250681373401e-06
-2.03083969518882e-06
8.25168582799845e-06
4.6137986702078e-06
-2.68167703475399e-06
1.39943349552449e-05
1.48000102375516e-05
6.91032155867466e-08
2.16883797147337e-05
2.27912999550419e-07
-2.65464686551854e-07
4.36078148584874e-06
2.67768737858411e-07
-2.87805843305062e-07
4.25938969664731e-06
3.20050737563445e-07
-2.74631731765115e-07
4.15201074903585e-06
2.02390933103399e-07
4.44453504591001e-06
-2.18516130787743e-07
2.08081418680487e-07
4.50922013312019e-06
-1.62578241391097e-07
3.87709573180705e-07
-2.18864472480887e-07
4.06097181044125e-06
2.66642885945913e-07
4.56599761808998e-06
-1.12175796526676e-07
4.75254610163716e-07
-1.18593823685428e-07
4.07214855834521e-06
-6.24937979393996e-07
2.43135991306886e-06
7.15359648902313e-06
-1.21523440365437e-06
7.85127413734172e-06
3.23835156191119e-06
-2.29322045715193e-06
9.20916448314976e-06
5.00437985924196e-06
-2.93942788516067e-07
1.70370373621042e-06
6.5219048423449e-06
-9.60390833519793e-08
1.10038613454342e-06
5.69017657954758e-06
-5.68424921694152e-06
1.01875560885221e-05
8.38042181221726e-06
2.0184005051857e-08
6.27535109441204e-07
4.85493199739812e-06
2.20590808619508e-05
7.27305186196642e-08
1.5589132233605e-05
-3.68852526474313e-07
-7.3349647592046e-07
9.67338353374615e-06
1.26223741320266e-06
-4.98544257917478e-07
7.48250882387073e-06
5.60614577980913e-07
-3.8172571670186e-07
6.7442992021042e-06
4.32764775264419e-07
-2.95324791686301e-07
6.08676235367824e-06
3.90003001922805e-07
-2.0889320501605e-07
5.35307124846192e-06
3.70404944272328e-07
-1.34106797540283e-07
4.64044977845738e-06
3.17728625810663e-07
-7.20233230191203e-08
3.15297874865044e-07
1.19635968868548e-05
6.5467437321739e-06
1.86761814195784e-07
1.00950969693323e-05
1.1738757831501e-05
8.48625820767456e-06
7.86149504383176e-07
-1.49912560625097e-06
1.32071812704833e-05
1.33563817390267e-05
-3.18062480772336e-06
1.17689980575557e-05
1.79653225687094e-05
-2.25610374707925e-06
1.18055709933729e-05
2.10983800469066e-05
-9.38285666836305e-07
9.52902861652886e-06
2.12586977823361e-05
-2.37977041181175e-07
6.4786198417009e-06
1.96009451223489e-05
1.21269611599916e-08
3.98427442936665e-06
1.71511570791968e-05
1.18906290097803e-07
2.33759226493924e-06
1.45388221681248e-05
1.59145456868088e-07
1.24405059437499e-06
1.23928755058578e-05
2.31032858236189e-05
2.72641920302228e-07
1.40023932472213e-05
-3.5113939112421e-07
1.38861758218921e-07
9.72555484926355e-06
2.77407218531698e-07
5.20224714298795e-09
7.42169270254724e-06
-7.44673833072227e-08
-1.44765063878819e-07
6.62046071554545e-06
4.21615840848354e-08
-1.41877818337374e-07
5.99317029606172e-06
1.47105098985565e-07
-1.15356454354484e-07
5.33646719464608e-06
2.01032665305197e-07
-7.75383775678634e-08
4.73124839003355e-06
2.18777855283457e-07
-4.1115252154606e-08
1.53880470234439e-07
-9.61097304052376e-09
4.28175097267796e-06
1.85673819193902e-07
-2.37531486566505e-08
4.11824765695707e-06
1.4348846825922e-07
-4.56580712255069e-08
3.997733085362e-06
1.02040534356648e-07
-7.58909519741637e-08
3.91967799861494e-06
9.19144172981551e-08
-1.12093971705294e-07
3.8530716964359e-06
9.98646553147027e-08
-1.45346807206165e-07
3.78181596694808e-06
1.12686791323617e-07
-1.65506424149216e-07
3.70151906791884e-06
1.30283327162118e-07
-1.64351278392698e-07
3.60442415940921e-06
1.51753898711549e-07
-1.37651334823754e-07
3.48562217901096e-06
1.77678137065721e-07
-8.48975191731454e-08
3.36482331241884e-06
2.10247577157635e-07
-8.98096395311155e-09
3.34438396491151e-06
2.6479232508359e-07
8.1404173824316e-08
3.93232987280824e-06
4.91213300788695e-07
1.56427822785341e-07
9.92303841460784e-06
-4.00991762776465e-07
5.24271391375046e-07
5.61085649997241e-06
3.62158129998908e-07
-2.96295648349381e-07
4.90651269617065e-06
3.22863820023795e-07
5.02208133442185e-06
-2.47789327290705e-07
-3.18991972841814e-07
4.78609827009947e-06
4.23163587924342e-07
-4.54972570698421e-07
5.46262635661942e-06
5.85207943736681e-07
-5.88584746644733e-07
5.97557958423132e-06
8.25441362034766e-07
-4.66143676044733e-07
5.34964193153323e-06
6.95487697030955e-07
-6.3922156369633e-07
5.81474837601988e-06
9.185550302361e-07
-8.43373061267279e-07
6.28296760676981e-06
1.29372772436412e-06
-3.04591561129787e-07
5.0704358589884e-07
4.68194560549722e-06
6.55543836151105e-06
1.26423949115907e-06
-7.08655401831681e-07
6.19891870575909e-06
7.84418895174834e-07
-4.85440209666756e-07
5.76352175520231e-06
4.96073452157883e-07
-3.19280655608346e-07
5.11934847399968e-06
3.15766298878734e-07
-1.87954274408696e-07
7.40395062200222e-06
-1.08965747871653e-06
2.98503854107082e-06
5.19273907147182e-06
-1.31087299065588e-07
3.53411055116919e-07
5.8824550663584e-06
-2.28461135181555e-07
4.72861612078254e-07
6.41630054400538e-06
-3.50289446707046e-07
6.88480235891258e-07
6.91576849835392e-06
-5.11826483069541e-07
1.1070988594018e-06
8.35295349362783e-06
-7.66440903481158e-07
2.18678663889142e-06
1.81010240007818e-05
-1.71937547900147e-06
-5.24719491865411e-07
-9.00695942702707e-07
1.47648016842485e-06
6.08208733365281e-06
-6.25886442171158e-07
1.1184069728186e-06
5.70794379311702e-06
-4.20738281985127e-07
8.65709790347931e-07
5.27124226885665e-06
-1.31910189835057e-06
6.92127179484655e-06
2.62631271465392e-06
-2.44110651642506e-06
1.02044507637099e-05
1.42371588067561e-05
-1.59931566690146e-07
2.06731925120335e-05