/*--------------------------------*- C++ -*----------------------------------*\
  =========                 |
  \\      /  F ield         | OpenFOAM: The Open Source CFD Toolbox
   \\    /   O peration     | Website:  https://openfoam.org
    \\  /    A nd           | Version:  12
     \\/     M anipulation  |
\*---------------------------------------------------------------------------*/
/*   Windows 32 and 64 bit porting by blueCAPE: http://www.bluecape.com.pt   *\
|  Based on Windows porting (2.0.x v4) by Symscape: http://www.symscape.com   |
\*---------------------------------------------------------------------------*/
FoamFile
{
    format      ascii;
    class       volVectorField;
    location    "300";
    object      U;
}
// * * * * * * * * * * * * * * * * * * * * * * * * * * * * * * * * * * * * * //

dimensions      [0 1 -1 0 0 0 0];

internalField   nonuniform List<vector> 
10228
(
(-9.44873598634474e-05 0.00161059258369847 4.54684725006081e-05)
(-0.000155799363441419 0.000617674212297261 8.59410977921163e-05)
(-7.48133261514834e-05 0.00150197467299745 0.000241203505572485)
(7.55930448672929e-05 0.00290203786858867 -0.000211101968826012)
(8.7930853197191e-05 0.00131810811701792 -0.00017948943008942)
(-0.000380122822108042 -0.00010852854489677 9.00991606496768e-05)
(-0.000207725181493251 0.000817892769260388 0.000321257104465119)
(-7.61682124749011e-05 0.00179270628431406 0.000220361436207349)
(-9.62272413180442e-06 0.00208843238454484 -1.49267593145111e-05)
(0.000295110584328533 0.00303449923859079 -0.000326524212747724)
(-7.11718776814696e-05 0.00160686766119278 -6.88625443795708e-05)
(-0.000259555488110157 0.00057166525316414 -0.000170856741117135)
(0.000559002972387647 0.00176923495778901 -0.000412162960383598)
(-0.000592038851842233 -0.000219177716737789 0.000141156517175505)
(-0.000343460425114978 0.000406126151894188 0.000330764146553373)
(-0.000203710185308905 0.00144876352836876 0.000328232732066613)
(-4.17580971124819e-05 0.00215558037329065 7.34855777151382e-05)
(-4.42938535526546e-05 0.00213269762484828 2.64121091931583e-05)
(5.89392254715615e-05 0.00235897782413175 -0.000272720226680537)
(0.000311117378081948 0.00271046130465838 -0.000234409227026216)
(0.00011074778601571 0.00200339576104918 -0.000349203942037967)
(-0.000124629174862971 0.00186025140074518 4.61454842984916e-05)
(-0.000225026906559786 0.00131206291363513 -7.28531682836439e-05)
(-0.000584266397922235 0.000486507695919158 -7.16636967127035e-05)
(0.000153586692226476 0.000952738548404516 -0.000462922959020207)
(0.000775880872369476 0.00173763133601121 -0.000351228112208459)
(-0.000811713862435146 -0.00040786331745448 0.000161251580291064)
(-0.000514036709683896 0.00020366600303294 0.000337142956272864)
(-0.000281264582115564 0.00123759735554961 0.000332830619074251)
(-0.000119100833188533 0.001953828947218 0.000136648985683444)
(-2.94062892217411e-05 0.0022929090818881 -3.62090285080272e-06)
(-2.38788080894251e-05 0.00234759084625225 -5.71072240998024e-05)
(2.91962747761963e-06 0.00235324160223816 -0.000220589019557033)
(7.57475354060055e-05 0.00225184225188056 -0.000353459350710071)
(0.000255962241493928 0.00260352685264632 -0.000159687417296295)
(-4.55445517827403e-06 0.0021495392425129 -0.000219816596563829)
(5.93281977674689e-06 0.00177916601964133 -0.000376014111115638)
(0.00018512840862375 0.00190615094547806 -0.000385609499015209)
(-0.000197088054801568 0.00166702647857763 4.88032672447801e-05)
(-7.17946611629289e-05 0.0021762808659071 -2.83505526234193e-05)
(-0.000404495996986583 0.00115756084856218 -6.10566667808714e-05)
(-0.000890265003308084 0.000355036654218677 -1.78093924599396e-06)
(-0.000296881024926875 0.000768023985242243 -0.000430361831372284)
(0.000611983929581202 0.00105391937208641 -0.00046735291760383)
(0.000707333191283083 0.00178150047492348 -0.00021427541143969)
(-0.00108075750239263 -0.000510874065144373 0.000207798603408478)
(-0.000685423768854211 -7.44756031132935e-05 0.000284246592607157)
(-0.000390959905398042 0.000993703915639502 0.000332645715871634)
(-0.000182356713201914 0.00177499020521278 0.000185035455078983)
(-8.86382339468854e-05 0.00216414737035525 2.47984752797565e-05)
(-2.02997393922795e-05 0.0023493464966492 -5.50637023516091e-05)
(-1.91842382367512e-05 0.00241626916869977 -0.000100122169806644)
(3.8770337512014e-07 0.00244794110455754 -0.000222015747835704)
(2.53934412988788e-05 0.00236519029628551 -0.000331274061165912)
(7.45675696196834e-05 0.00219328559197692 -0.000346736572003991)
(0.000190825349832987 0.00241214784762178 -0.000101943477317276)
(-5.19249308874036e-05 0.00199764052490781 -0.000218441477405979)
(-5.0061434608429e-06 0.00232387826528666 -0.000209093191897668)
(6.0103483929282e-05 0.00218678310043925 -0.000324768465416247)
(0.000150623025727722 0.00169906254680632 -0.000430484725107017)
(-0.000150231190721854 0.00166454788563875 -0.000390306952514268)
(0.000207097492743111 0.00184389904727719 -0.000357192179974707)
(-0.00028264716403353 0.00151922526261659 2.97690414917854e-05)
(-0.000121991669706606 0.00203288365350612 -3.69549704407593e-06)
(-5.88744878324639e-05 0.00229734534198738 -8.34331307836985e-05)
(-0.000585507719918057 0.000940254652708786 -7.32801025714458e-05)
(-0.00127102021799082 0.000166638799292698 9.76442040935402e-05)
(-0.000728004380332523 0.000606271071683938 -0.000371450703599562)
(0.00015553139692 0.000754979953890522 -0.000540299196886012)
(0.000807646191022165 0.00127646993414221 -0.000321650957510968)
(0.000553647815143665 0.00167411491211673 -0.000116943884845241)
(-0.0012174584475748 -0.000255414455631289 0.000341582036388158)
(-0.000894213851115874 -0.000469380266753402 0.000259295613031982)
(-0.000514759615477464 0.000656718593468663 0.000294802708414442)
(-0.000270613659580194 0.00157744147063663 0.000223635508929766)
(-0.000133693150224853 0.00204304982256995 5.08143314532895e-05)
(-6.68229932350748e-05 0.00225088696408264 -3.9940540673696e-05)
(-1.85483259738385e-05 0.00236145275958911 -8.26860114592085e-05)
(-1.4884361017602e-05 0.00242336953122836 -0.000126472455174282)
(-2.15722341996322e-06 0.00245949124035893 -0.000207876765135651)
(1.34322451456008e-05 0.00242980147136268 -0.000305049761927015)
(3.22139184956151e-05 0.00231537309735502 -0.00035373317493524)
(6.9249438190505e-05 0.00205706307414301 -0.000286040730206762)
(0.000145914856791915 0.00223382999704075 -3.87985947625276e-05)
(-2.70703982279379e-05 0.00221067059054467 -0.000200288685481597)
(5.21595500361463e-05 0.00204455166362943 -0.000324409339396181)
(-0.000115791822337636 0.00187332199999656 -0.000235562312272314)
(3.7937607394216e-05 0.00232571377728421 -0.00029784663584152)
(-6.64546918514164e-06 0.00236932148696138 -0.000197993017671739)
(9.17531770531764e-05 0.00214337989702444 -0.000343868068961033)
(0.000245289706235627 0.00163117091802554 -0.000389091885811986)
(4.16760597225504e-05 0.00159277442033157 -0.000478982863421494)
(-0.000334611909013658 0.0015048237635268 -0.000409407622319899)
(0.000199161905185094 0.0016872132871935 -0.000277904863377467)
(-0.000369926896317839 0.00129417895021646 -1.4755753699463e-05)
(-0.000182787072678064 0.00188456733440601 3.49715522919501e-06)
(-9.23971661929868e-05 0.00219321920428437 -6.89149161842229e-05)
(-4.40429275763941e-05 0.00232798562409372 -0.000113402442078454)
(-0.000882829251602835 0.000598648077094162 -3.02844430666965e-05)
(-0.00176709423349549 0.000272009473665219 0.000162284830625052)
(-0.00136476850536086 0.00044052634651505 -0.000285420467642036)
(-0.000341661428422569 0.000575059852146397 -0.000588019355430506)
(0.000626070644970957 0.000986855876975993 -0.00044049434582059)
(0.000747463336774741 0.00124920381915937 -0.000157681720435466)
(0.000400268310749156 0.00156575730740942 -2.56554096808591e-05)
(-0.000645556258483947 8.92200929555678e-05 0.000181172103212901)
(-0.00120132978019795 -0.000780391826119216 0.000228788198955321)
(-0.00068564388224049 0.000153407166491031 0.000210345734144436)
(-0.000393996933860303 0.0013194836752029 0.000249762110204501)
(-0.000195883471912816 0.0018996250353 7.7379156119575e-05)
(-0.000102414855386787 0.00216023677550478 -2.39192394143226e-05)
(-5.56459467956298e-05 0.00228104406590706 -7.31928406534501e-05)
(-1.53999283697103e-05 0.00235275044115298 -9.07637479034922e-05)
(-1.1455996389192e-05 0.00240291959763575 -0.000127934375021122)
(-1.8131672090607e-06 0.00243854144663549 -0.000189139315086088)
(9.20594863270337e-06 0.0024266011576804 -0.000264185284164704)
(2.14128681374778e-05 0.00235634373036241 -0.00032274138209805)
(3.78260489972425e-05 0.00219824147011947 -0.000311820034467952)
(6.28470532867697e-05 0.00192937014373686 -0.000199781906949894)
(0.000111409266230173 0.00214038870601843 1.22696691944484e-05)
(-1.67949083924605e-05 0.00228502372300945 -0.000190156945055714)
(-5.46191375656052e-05 0.00209536027823472 -0.000203588063459243)
(4.65563720467665e-05 0.00222578217122425 -0.000292279135515339)
(0.000124490008985396 0.00201046645118846 -0.000343076792430723)
(1.93220007617814e-05 0.00192036506733301 -0.000339101036131522)
(-0.000189767068998325 0.0017086428920547 -0.000270801417426355)
(3.0222582429361e-05 0.00234958893037998 -0.00025707305753011)
(6.35557105912241e-05 0.00225725347188762 -0.000315366105045344)
(-3.14699516075253e-06 0.00236298785036282 -0.000180295122420125)
(0.000110441926730583 0.00202661749336093 -0.00030123791830174)
(0.000276867438723476 0.00146849233764578 -0.000286934197522402)
(0.000202515826085703 0.00150795716019018 -0.000440153112657307)
(-0.000117959492203125 0.00147386307332305 -0.000535008686935396)
(-0.000688306975934715 0.00125351276507572 -0.000419779481565714)
(0.000181590926511943 0.00156017153628388 -0.000181718524598461)
(-0.000490497684016688 0.000941572892185392 -9.32320219024362e-05)
(-0.000252247201428348 0.00167214864137883 -1.26726363378729e-06)
(-0.000131406171038437 0.0020789604521044 -5.85440321017431e-05)
(-6.68947800141504e-05 0.00224532821573461 -0.000101182193503191)
(-3.38786860238374e-05 0.00232253239288773 -0.000118264941692562)
(-0.00160087813631329 0.000489997701083985 3.05250172371955e-05)
(-0.00115370035165295 0.000958941586442417 -0.000276545734165363)
(-0.00204156767442711 0.000437646212119661 -0.000391252455890932)
(-0.00115501279669637 0.000404606793273381 -0.000644942146029039)
(0.000229308691051116 0.000701382577563136 -0.000544021316886422)
(0.000821929829606491 0.00100758417411427 -0.000227394507623266)
(0.000595926643365347 0.00122639550814036 -2.46337986265688e-05)
(0.000313017661866848 0.00154403856243793 4.36997222995006e-05)
(-0.000740635895350484 0.000607330058555061 2.04769561835856e-05)
(-0.000836123005741775 -0.000651874643599936 0.00018647039550469)
(-0.00104962176822551 -0.000628865917317225 3.5475994142737e-05)
(-0.00054861044967358 0.000894572070920564 0.000184219843758593)
(-0.000300865466143294 0.00166834744778817 0.000109588122440422)
(-0.000152425646869382 0.00204443077900745 -4.51024270737516e-06)
(-8.64378052498884e-05 0.0022060454267405 -6.23570783146497e-05)
(-4.63708561749508e-05 0.00228405591335511 -8.47043073425829e-05)
(-1.3807164343281e-05 0.00232747881592562 -8.39479904555572e-05)
(-8.73264576530472e-06 0.00237231136388059 -0.000116284532542391)
(-5.61390653201006e-07 0.00240045727772632 -0.000161931907658219)
(8.49615062550476e-06 0.00239765715782326 -0.000220806872120028)
(1.71005075071331e-05 0.00234747904481015 -0.000273306289687165)
(2.67330887035752e-05 0.00223851046286677 -0.000286245632409445)
(3.99969916454207e-05 0.00207829429332116 -0.000236087272780415)
(5.77195630176649e-05 0.00184043489143323 -0.000118977919319999)
(9.02542373549685e-05 0.0020835117937033 4.76376500739961e-05)
(4.34542536591844e-05 0.00227367066336823 -0.000250978949511013)
(-6.74930654175448e-06 0.00229365892006534 -0.00017261961067102)
(-2.69288773237049e-05 0.00219378229694843 -0.000189261570248524)
(4.46186502001721e-05 0.00211923841392179 -0.000296508565869498)
(-8.86805966829321e-05 0.00193157228993826 -0.000216639909655553)
(9.70940760764617e-05 0.00216577704068531 -0.000309612206256425)
(0.000166291466886684 0.00189905616899913 -0.000294859227032479)
(0.000128474436501071 0.00188982705734023 -0.000353656941971901)
(-4.49367941400437e-05 0.00176419349869159 -0.000368404183525388)
(-0.000315540241726637 0.00144331188045782 -0.000326787180212438)
(5.35697228007084e-05 0.00227442899824567 -0.000266298455695424)
(2.82279471463981e-05 0.00233291256170019 -0.000214335102248211)
(8.08855404889753e-05 0.00214153121717615 -0.000277806618328219)
(-5.99104556575067e-07 0.00233495725186494 -0.000154926903536795)
(0.000118242322611134 0.00191130069565231 -0.000224034008263907)
(0.000299312517054462 0.00131750913409074 -0.000315424096810679)
(0.000271732653817784 0.0013473065275087 -0.000167921698166448)
(8.35241012521517e-05 0.00139835373253352 -0.000508015589062517)
(-0.000450521490967125 0.00130140784443794 -0.000610960152257386)
(-0.00141169502816267 0.00121862711592097 -0.000387072234725871)
(0.000168128999284887 0.00148983210811274 -9.80386022999116e-05)
(-0.00103047097320092 0.000475448586297168 -0.000167418228956567)
(-0.000347655443644944 0.00133113947436845 -4.07052280820179e-05)
(-0.000180711460992899 0.00189997712663814 -4.83671281283685e-05)
(-9.50869968280498e-05 0.00215073948734359 -8.85558312501054e-05)
(-5.31392764050229e-05 0.00225284433349753 -0.000109117254369083)
(-2.61264142287484e-05 0.00230275187947627 -0.000109916803855936)
(-0.00134989065328104 0.000564850438819704 6.77952859640443e-05)
(-0.0010808119667048 0.00148745837553501 -0.000376729313428777)
(-0.0019707188622507 0.00148503988478885 -0.000652592000096097)
(-0.00203213567403447 0.00047051078981304 -0.000837106505264021)
(-0.000461521494506768 0.000438555936102225 -0.000658671700394284)
(0.000724428421597801 0.00072731987857338 -0.000325198018787038)
(0.000765689782327527 0.00101413594164444 -3.12611153650481e-05)
(0.000482147968337065 0.0012786789072947 5.62611025266018e-05)
(0.000258482503590377 0.00155573613252985 8.41448509404836e-05)
(-0.000808308923285798 -0.000706829347217906 -0.000130142312447782)
(-0.00152803819333357 -0.00131526217386529 3.17417880429983e-05)
(-0.000857673731032566 0.0001133336691438 0.000106923603403051)
(-0.000496035412730897 0.00129370970917551 0.000146362573977858)
(-0.000235215862475961 0.0018523675360638 2.35890537890418e-05)
(-0.000128363478195852 0.00211184947146267 -4.7119973543005e-05)
(-7.29432651409405e-05 0.00222207875312279 -7.70227873949522e-05)
(-4.12385391864491e-05 0.00226754093028911 -8.03481326103297e-05)
(-1.25389458142845e-05 0.00229838388352475 -7.18898574105037e-05)
(-7.65292629556326e-06 0.00233742466668376 -9.48682123957746e-05)
(2.2744749681516e-07 0.00236093266550667 -0.00013178935543658)
(8.01598377357576e-06 0.00235749720404918 -0.000175918119869323)
(1.53371991469992e-05 0.00231991160834143 -0.000220330647845477)
(2.20550108751815e-05 0.00223621519419331 -0.000241366151344335)
(2.99206006541036e-05 0.00211785034349908 -0.000221044873374935)
(4.05385795664124e-05 0.00197351803133859 -0.000156004558405325)
(5.3703783005964e-05 0.00177376703014211 -5.33767554972211e-05)
(7.51052911736594e-05 0.00202649459794454 7.13260903096242e-05)
(8.5855546119266e-05 0.00220303523988 -0.000259147079953776)
(4.3404258632652e-05 0.00226948242691672 -0.000207879814149646)
(5.47938634017256e-05 0.00218799552669846 -0.000250630199330756)
(-1.79050855990803e-06 0.00227562072446044 -0.000148428184882569)
(-8.71373245575507e-06 0.00221638307996657 -0.00016751457707413)
(-3.64512397100973e-05 0.00205759887650171 -0.000192104684278978)
(0.000121617182550935 0.00206607945701897 -0.000310553229302633)
(2.7318312997803e-05 0.00197452870220285 -0.000309005674756903)
(-0.000156270093739919 0.00166723110585317 -0.000241789239639097)
(0.000130918109818766 0.00205492398918688 -0.000269998068510675)
(0.000187422777149828 0.00178954719273363 -0.000214192500022322)
(0.000203945596605561 0.00177749061315936 -0.000296749984649324)
(9.68843029546884e-05 0.00175025925724316 -0.000374236290981238)
(-0.00018887973225619 0.0015294547989688 -0.000417828076397983)
(-0.000779989050322585 0.00111268931944235 -0.000296938181236079)
(6.84470713421141e-05 0.00216502765470026 -0.000233275913083515)
(4.90239110228176e-05 0.00225897801565959 -0.000213864828091)
(2.67996218854422e-05 0.00230045609652185 -0.000170345441933722)
(9.10125464868659e-05 0.00202439505956666 -0.000211564316173002)
(1.69840476501683e-06 0.00230250944987018 -0.000126545087432782)
(0.000121167636641232 0.0018165930978451 -0.000143404732713327)
(0.000259317637922821 0.00118436820718194 -0.000359802646316162)
(0.00033411611008334 0.00118138643267213 -0.000168371001745561)
(0.000260296138455662 0.00129638855320609 -7.8726758244001e-05)
(-0.000185497030214398 0.00123591765891165 -0.000601533323293886)
(-0.000783023597124609 0.00137104090293972 -0.000700731851646934)
(0.000158127307699892 0.00145179572510702 -3.30354109993174e-05)
(-0.00196403349381912 -1.58041832271452e-05 0.000266963472655648)
(-0.000610971890111117 0.000803365817620135 -0.00013290424984864)
(-0.00026160267212694 0.00158576789287803 -4.04268219169214e-05)
(-0.000131980374132361 0.00200187544710593 -7.36664619638888e-05)
(-7.61897944060036e-05 0.00217270940699647 -9.82326564431353e-05)
(-4.16576217105096e-05 0.00224312981936153 -0.000103072268199188)
(-2.25007006986997e-05 0.00227569213179578 -9.11212892740642e-05)
(-0.00110973382228643 0.000941105024365916 -0.000314454427068235)
(-0.000802739223516856 0.00188458543573823 -0.000454157599179231)
(-0.00216608654134756 0.00108621154748525 -0.000565006180531483)
(-0.00119943630466086 0.000328596513306941 -0.000739152349029744)
(0.000337481412493162 0.000396792591422779 -0.000418230288013119)
(0.000855428685407793 0.000754221266630951 -4.82266308567025e-05)
(0.000648376745575238 0.00110819300627804 6.82617944322363e-05)
(0.000414494696639653 0.00133494614268862 9.79897718061575e-05)
(0.000220210681573533 0.00155804669380298 0.000104302102514237)
(-0.00144878529227672 0.000658019829881225 -0.000183423371263237)
(-0.00126445100334669 -0.000965759873506177 8.30370071643648e-05)
(-0.000689927052166738 0.000614411121633401 0.000148097590389379)
(-0.000390082918178133 0.0015409548126198 7.06499710857181e-05)
(-0.000194668814074557 0.00195911875873567 -2.32745209488024e-05)
(-0.000108954730411619 0.00214368252686062 -6.49099833345374e-05)
(-6.5189386358542e-05 0.00221390879676727 -7.52838951587196e-05)
(-3.72692820401817e-05 0.00224484942371762 -6.94828333277855e-05)
(-1.1439055130767e-05 0.00227422634151447 -5.51418917630228e-05)
(-6.71837571470762e-06 0.00230358360459171 -7.37043953835198e-05)
(4.11015058881422e-07 0.00232115494204923 -9.92314457428959e-05)
(7.63361698807465e-06 0.00231702274682901 -0.000133015646349817)
(1.40353755434097e-05 0.00228429623241982 -0.000167970481634092)
(1.95534209536097e-05 0.00221703004422493 -0.000190780158144173)
(2.48773004162636e-05 0.00212056275304338 -0.000186851823120065)
(3.15745411185359e-05 0.00200628621088453 -0.000149987968198715)
(4.01313849918803e-05 0.00187868273317676 -8.48060851119292e-05)
(5.02460590161096e-05 0.00171237180670411 -1.52842010406234e-06)
(6.37054188436598e-05 0.00195804555182335 8.56306457825518e-05)
(7.94817318030309e-05 0.00219817442488681 -0.000206699000087526)
(0.000116792070678813 0.00212077133280535 -0.000255470981267318)
(0.000113527455128159 0.00209634299273268 -0.000224588236276587)
(5.97691658760631e-05 0.00219636754613327 -0.000204009938351373)
(4.22942017285916e-05 0.00224528679842969 -0.000164611108667561)
(6.09662358574966e-05 0.00206701266323425 -0.000254321487289606)
(2.32643349886262e-06 0.00225008481045168 -0.000121371927630655)
(-1.06876455228728e-06 0.00220878965993613 -0.000142471721683642)
(-8.09697985680137e-06 0.00210057148038261 -0.000163645509720735)
(-6.63970664826465e-05 0.00182118080920195 -0.000196916026866178)
(0.000176170637512103 0.00195833012242597 -0.000265529815073423)
(0.000130323249354413 0.00193985042443064 -0.000316725822641695)
(-3.8711371096975e-05 0.00174498292824975 -0.000328298688770884)
(-0.000377102459430577 0.00132353569259466 -0.000306418562530572)
(0.000151079631110526 0.00194216709042487 -0.000201974715778332)
(0.000196994671189414 0.00170342674104663 -0.000132183687946884)
(0.000246988059965766 0.00166897082928903 -0.000207252808495136)
(0.000215499474184903 0.00164143830808516 -0.000303241402023489)
(-9.35819153740166e-06 0.00156095743429957 -0.000405516527731346)
(-0.000567960077045747 0.00123882393815283 -0.000391660525498358)
(-0.00199884565780615 0.00107926119381138 0.000215933146442161)
(6.15867373375179e-05 0.00215800793813429 -0.000183490549629848)
(7.70266201910958e-05 0.00205240010677457 -0.000177897954188332)
(4.5556825218948e-05 0.00223088572018404 -0.000162477352161217)
(2.56476883163519e-05 0.00226538509296914 -0.000128571398362484)
(9.65209851948361e-05 0.00191812065345312 -0.000139615757936811)
(2.399634947853e-06 0.00226815354085183 -9.58460069624116e-05)
(0.000121082631350559 0.00173457528957661 -7.21970243695723e-05)
(0.00035665558542662 0.00101532112456221 -0.000176890136272392)
(0.000124152280635146 0.00103746068969922 -0.000417516046256007)
(0.000339083765012239 0.00113952790140585 -6.08222840657271e-05)
(0.000250163109259803 0.00127936181332153 -1.53598155700395e-05)
(-0.000542652341162066 0.00106891433779154 -0.000699490241329641)
(0.000149100639849198 0.00142250174789343 1.60576963448957e-05)
(-0.00209816328252774 0.00115463644607446 0.000205600447987536)
(-0.00133897708816341 0.00012069489486196 -3.38400580229203e-06)
(-0.000420539831634302 0.00106243686655483 -3.68444542703174e-05)
(-0.000189792061290168 0.001736448821584 -5.17832290210075e-05)
(-0.000105293241597447 0.00204844964857839 -8.33293656150297e-05)
(-6.04799709536658e-05 0.00217385059952873 -9.34927748852793e-05)
(-3.56759885708022e-05 0.00222302781061761 -8.67715458132165e-05)
(-1.97974021768038e-05 0.00224776224792158 -7.16976864774015e-05)
(-0.00115345041975515 0.00132641157343338 -0.00016384375739905)
(-0.00083027536763148 0.0015947364314035 -0.000319555977472719)
(-0.00127315242214229 0.000722110356234883 -3.46892959359613e-05)
(-0.00161709059007342 0.000347335266807354 -0.000476593255955439)
(-0.000162018980421888 0.000166078620689943 -0.00043729435819068)
(0.000753008064662447 0.000433033331726904 -7.78763120095735e-05)
(0.000792593929281649 0.000909385021841295 8.45209674188433e-05)
(0.000567966752216588 0.00120035552236164 0.000112298077856596)
(0.000361812937374793 0.00136866428057254 0.000121721957126934)
(0.000191734612831186 0.00154042920212948 0.000115004119252516)
(-0.00145208190043336 0.000486706942774574 0.000182954350257624)
(-0.000937400967236525 -0.000627730344716556 0.000192113945472359)
(-0.000551896600549523 0.00100363892031136 0.000113261718153673)
(-0.000323558833323513 0.00170651760901751 1.69905701444382e-05)
(-0.000163509078843481 0.0020196064485677 -4.52325952553097e-05)
(-9.79418808620975e-05 0.00214560354347266 -6.64311720631653e-05)
(-5.9265232795507e-05 0.00219647604423514 -6.55839530589015e-05)
(-3.40104374734313e-05 0.00222485897807359 -5.38195437680887e-05)
(-1.06213993744993e-05 0.00225317442756432 -3.59631617583184e-05)
(-5.92274051011847e-06 0.00227439878883029 -5.07515845962378e-05)
(5.96413427368626e-07 0.00228531371686778 -6.88522354222975e-05)
(7.16833175553689e-06 0.00227843161483743 -9.26254575283159e-05)
(1.30274781723383e-05 0.00224821736023186 -0.000119520263795498)
(1.77474148694672e-05 0.00219007671742303 -0.000140019774617093)
(2.18810567647618e-05 0.00210843867987117 -0.000144504108177672)
(2.65224638364301e-05 0.0020099271645718 -0.000126175180463357)
(3.21739460855223e-05 0.0019024016236959 -8.43912437610339e-05)
(3.9101316040374e-05 0.00178852095279823 -2.62433825884013e-05)
(4.68336858760975e-05 0.0016488494846299 3.68799362372823e-05)
(5.40827302161499e-05 0.00187461075752581 9.29742639890125e-05)
(7.4120862388256e-05 0.00217730646529832 -0.000155977766132004)
(0.000102432008984719 0.00209884317200075 -0.000175062216787431)
(0.000111776778508909 0.00212673372152324 -0.000200734451447525)
(0.000159062226642031 0.002015280781549 -0.000216766258593595)
(0.00014172436622505 0.00201206143502856 -0.000253623133241351)
(0.00013017268538764 0.00198672985102943 -0.000168056973900565)
(7.56484006683569e-05 0.00209199227283837 -0.000201230576291839)
(6.00604982338739e-05 0.00218128915455938 -0.000159468854331205)
(4.10293421832046e-05 0.0022160283055721 -0.000123773518611527)
(3.93600839073573e-05 0.00187028509671136 -0.000258598906842292)
(3.91880607228377e-06 0.00222091762281475 -9.22033315697078e-05)
(4.99903797430963e-06 0.00219045182368673 -0.000115251414883283)
(3.93918789161986e-06 0.00210897298395368 -0.000135470050344573)
(-1.41854177998537e-05 0.00189749831339096 -0.000158610803908725)
(-0.000197427951484909 0.00146079928905644 -0.00020134661103251)
(0.000210976418749215 0.0018386802535583 -0.000262047985061804)
(0.00020968949366192 0.00184854927462809 -0.000192545665145634)
(9.9493845129853e-05 0.00176540939713485 -0.000324139346833326)
(-0.00026917070024922 0.0014102734281224 -0.000351350273320775)
(-0.00110796463008582 0.00114325908425837 -0.000271878028441004)
(0.000162214919898399 0.00184090007429106 -0.000129294598373323)
(0.000199471387026762 0.00163080123641745 -6.09689863671792e-05)
(0.000268669149400109 0.00158921701423884 -0.000120229536855433)
(0.000290311582137043 0.00153155974944413 -0.000199771688847024)
(0.000182656734345563 0.00147793189455905 -0.00030961275923567)
(-0.000260686082065972 0.00130212481319096 -0.000431648372537624)
(-0.00120648391934339 0.00132944151872203 -0.000225844537897295)
(-0.0018624567495619 0.00123213142989012 0.000503216055554435)
(5.6580265213421e-05 0.00213872772114355 -0.000133997353705251)
(6.84370110567705e-05 0.00205221956266724 -0.000136537606967444)
(8.18286714145292e-05 0.00194585068495724 -0.000116763324560162)
(4.26309265741122e-05 0.00219994447908343 -0.000115127867463883)
(2.41715437632036e-05 0.00223088915149909 -8.94890936124738e-05)
(9.86528468685758e-05 0.00182035906827216 -7.34668641905082e-05)
(2.89597342684688e-06 0.00223637021465672 -6.69896676434078e-05)
(0.000118652109621625 0.00165817760278058 -1.41507789389602e-05)
(0.000396272600924144 0.000972829117177871 -4.40420490966619e-05)
(0.000319045798458726 0.00084435413055028 -0.000187157062469033)
(-7.58714044640548e-05 0.000874260326625276 -0.00044470918958275)
(0.000336357933367433 0.00113835854502053 5.93623588558695e-06)
(0.000238516052779488 0.00126965321644766 3.18317930453735e-05)
(-0.000793985414328506 0.000747307991169953 -0.00067837318979479)
(0.000139975960200004 0.00139039589125875 5.23742652420882e-05)
(-0.00195204771750288 0.000886511929149117 0.000331555363011125)
(-0.000857893349746085 0.000307632407955354 3.44867953575585e-05)
(-0.00029915280788524 0.00126017993236364 -1.81494028546711e-05)
(-0.000150087467774815 0.00182329425655991 -5.93810102204403e-05)
(-8.34862144963562e-05 0.00206768965656109 -7.91524266786884e-05)
(-5.18402678287886e-05 0.00216154625358709 -7.99006388462832e-05)
(-3.1615728094786e-05 0.00219992839728488 -6.86955328215895e-05)
(-1.75385230426367e-05 0.00222278914498343 -5.01660547750687e-05)
(-0.00116115055557375 0.00101301783863551 8.52327211568372e-05)
(-0.000813586030059367 0.000736004621887753 0.000176211816731339)
(-0.00083946548640848 0.000627467127892633 0.000558410892923301)
(-0.00136859026710465 0.000348984138687006 1.86312677116984e-05)
(-0.000545237136674635 -3.12701399127506e-06 -0.000275162681901019)
(0.000545435581092284 0.00019439008446883 -8.37183925902325e-05)
(0.000833023153003058 0.000651816398661531 0.000100231796356377)
(0.000711409869519208 0.00104557411126638 0.000136167908223262)
(0.000504452502526249 0.00125411864648902 0.000135242222406896)
(0.000319618000648905 0.00137628070804651 0.000134460874727601)
(0.000169197627181886 0.00149955632770239 0.00011972334357662)
(-0.00120552571892516 0.000172912742323843 0.000379357554965545)
(-0.000654339906179206 -0.000204679274104906 0.00017872818531061)
(-0.000476950692293005 0.00123882565692586 7.39387077628994e-05)
(-0.000269485916192945 0.00181320839723095 -1.28377359565816e-05)
(-0.000147828355646796 0.0020392833315167 -5.17496690972625e-05)
(-8.89150509301669e-05 0.00213556575164652 -5.86070798399478e-05)
(-5.44676263623515e-05 0.0021804246069057 -5.1029348909877e-05)
(-3.15287380550814e-05 0.00220689915065515 -3.55422841112632e-05)
(-9.86069829282558e-06 0.00223300696820378 -1.61014899271353e-05)
(-5.42005718058245e-06 0.00224963411365638 -2.64653868855285e-05)
(7.66873398544154e-07 0.00225503030762255 -3.93347475272906e-05)
(6.80717064721199e-06 0.0022445809608116 -5.59481108105283e-05)
(1.21481988521197e-05 0.00221453399118781 -7.54860242961037e-05)
(1.63333327880721e-05 0.00216174578943934 -9.25130250407978e-05)
(1.97803719755184e-05 0.00208941182889387 -0.000100098421876023)
(2.31584364665148e-05 0.00200233856608106 -9.29680678135635e-05)
(2.72401368968645e-05 0.00190550440617325 -6.85894221270649e-05)
(3.19689409232705e-05 0.0018043331181493 -2.8455746007489e-05)
(3.75985346374954e-05 0.0017012434704273 1.9084828178252e-05)
(4.31804668885105e-05 0.00158023313693839 6.39316114934208e-05)
(4.65661958747032e-05 0.00177894799999805 9.57141893677137e-05)
(0.000105731865376294 0.00211356660879859 -0.000149286566332691)
(9.39717987161959e-05 0.00208599244924746 -0.000126361265298229)
(6.94904828631832e-05 0.00215160694579504 -0.000109568663759558)
(0.000115959009197652 0.00199541632262375 -0.00012729579667522)
(0.00014594327937821 0.00202738167708767 -0.000166098254733292)
(0.00014270354169464 0.00203062786519338 -0.000193889767208227)
(0.000184948292275656 0.00190753413820645 -0.000156929037163548)
(0.000200926025862311 0.00191040981558322 -0.000207586654726053)
(0.000146382192770473 0.00185975236333942 -0.000248962907020263)
(0.000139527830787774 0.00188388616309316 -0.000106504277590751)