/*--------------------------------*- C++ -*----------------------------------*\
  =========                 |
  \\      /  F ield         | OpenFOAM: The Open Source CFD Toolbox
   \\    /   O peration     | Website:  https://openfoam.org
    \\  /    A nd           | Version:  12
     \\/     M anipulation  |
\*---------------------------------------------------------------------------*/
/*   Windows 32 and 64 bit porting by blueCAPE: http://www.bluecape.com.pt   *\
|  Based on Windows porting (2.0.x v4) by Symscape: http://www.symscape.com   |
\*---------------------------------------------------------------------------*/
FoamFile
{
    format      ascii;
    class       volScalarField;
    location    "300";
    object      nut;
}
// * * * * * * * * * * * * * * * * * * * * * * * * * * * * * * * * * * * * * //

dimensions      [0 2 -1 0 0 0 0];

internalField   nonuniform List<scalar> 
10116
(
4.06690889298181e-05
4.26362535191846e-05
4.30904048878411e-05
0.000405403176347922
4.44322349026666e-05
4.51621784807309e-05
0.000415015005555208
4.61666461879268e-05
0.000414835556147425
0.00101693456030316
4.60632809529624e-05
4.70547883306904e-05
0.00042360054691446
4.83697934276571e-05
0.000424620400941995
0.00103597201117153
4.80151475303726e-05
0.000426829214889503
0.00102762491119468
0.00170763899677397
4.75390644587281e-05
4.87744779119413e-05
0.000431275655537664
5.03820850213113e-05
0.000433361074199397
0.00105288961710955
5.02955823056726e-05
0.000436834679684917
0.00104681943568073
0.0017368633408637
4.74804802141797e-05
0.000434090029096422
0.00104027692923004
0.00171517351311683
0.00239274162958993
4.88703396880358e-05
5.03317916349774e-05
0.000438124568159723
5.22092200435398e-05
0.000441176414125061
0.00106795250667975
5.23810322612075e-05
0.000445780217467624
0.00106387133774911
0.00176278663938899
4.97391960358167e-05
0.000444230926579484
0.00105965154170093
0.00174452929673749
0.0024323545092141
4.51500441978693e-05
0.00043220379292681
0.00104659588453086
0.00172139866279491
0.00239517603404873
0.00303342006487739
5.00668486794333e-05
5.17366366793026e-05
0.000444221446228316
5.38658336769397e-05
0.000448153016999552
0.00108134745758785
5.42746433460957e-05
0.000453781932611917
0.00107905493464049
0.00178581439127672
5.18061451943641e-05
0.000453305241324061
0.00107687236685621
0.00177054653274597
0.00246744816240121
4.73098878435086e-05
0.000442305149502228
0.00106605903614715
0.00175084465991926
0.00243487727345908
0.00308323485010815
4.21081500035105e-05
0.000422505090205981
0.00104081172358894
0.00171969015664843
0.00239216172635193
0.00303061542814019
0.00361548515742574
5.11382406379369e-05
5.2999078915355e-05
0.000449635087498794
5.53602126716651e-05
0.000454364584157516
0.00109323321738134
5.59922998157907e-05
0.000460929064979609
0.00109255851814372
0.00180624746105769
5.36836143727469e-05
0.000461425440091824
0.0010922112457744
0.00179365534528142
0.0024985665690258
4.92874629925799e-05
0.000451348448101731
0.00108336845255039
0.00177694647135775
0.00247000557201252
0.00312731656858248
4.41353952565501e-05
0.000432408426398662
0.00106017355411686
0.00174909934440869
0.00243183438407578
0.00308046627071372
0.00367508081630097
3.88624572809097e-05
0.000408542476207906
0.00102333669554816
0.00170502981552205
0.00237880337013996
0.00301825498697805
0.00360880364276276
0.00413722161946133
5.20937568154238e-05
5.41289780922358e-05
0.000454428642155014
5.67035783940209e-05
0.000459880230502434
0.00110375384617412
5.75424205372432e-05
0.000467294858564167
0.00110454137103501
0.00182434234536098
5.53862607382968e-05
0.000468682368628734
0.00110585701270848
0.00181416028354398
0.00252612982980249
5.10834004834378e-05
0.00045944378093776
0.00109879212532842
0.00180013338310627
0.0025011478790085
0.00316634810338348
4.59940083625684e-05
0.000441277025211363
0.00107739967442409
0.00177518040785676
0.00246693569889482
0.00312451605387479
0.00372776673378128
4.07461408401645e-05
0.000418155406311113
0.00104240019460482
0.00173419506342228
0.00241826361881711
0.00306794751933862
0.00366839526380654
0.00420605196721379
3.54425989369736e-05
0.000392378831106471
0.00099761117045092
0.00167695215491526
0.00235153530833488
0.00299273861140263
0.00358889665948922
0.00412823543606583
0.00460248327796265
5.29422158976722e-05
5.51365112865851e-05
0.000458660077202376
5.79061055988733e-05
0.000464763790187065
0.00111304094189317
5.89361716272034e-05
0.000472949458440247
0.00111514818483034
0.00184032842403402
5.69240670750229e-05
0.000475149322345128
0.00111796916001642
0.00183231882868142
0.00255049849037827
5.27125620784379e-05
0.000466681157746194
0.00111251886215693
0.00182071103353114
0.00252873082416891
0.00320086942575191
4.76813878444824e-05
0.000449217548514194
0.00109275487705022
0.00179835626144205
0.00249805407685564
0.00316350825049499
0.00377436183488932
4.2474531784578e-05
0.000426766833580313
0.00105936590269357
0.00176007144306377
0.00245319086892128
0.00311184914240789
0.00372099519172607
0.00426685435434795
3.71746876500763e-05
0.000401651323537505
0.00101622867331758
0.00170564889313629
0.00239054278146826
0.00304202336671095
0.00364821527136499
0.00419704027252257
0.00467993996056405
3.17992586237678e-05
0.000374336435492708
0.000966057726036807
0.00163753451409691
0.00230965145416467
0.00295167809360822
0.00355280585559715
0.00410297339499171
0.00459214677864009
0.00501672960104703
5.36920462339809e-05
5.60314904374213e-05
0.000462382530823332
5.89783698165532e-05
0.000469074465408522
0.0011212144626807
6.01842291160497e-05
0.000477956567515986
0.00112451111693812
0.00185441324048468
5.83070708211958e-05
0.00048089543174668
0.00112869264364503
0.00184836101161165
0.00257199303666252
5.41841446988652e-05
0.00047313381591179
0.00112470722788238
0.00183893694192469
0.00255311637519831
0.00323134649033241
4.92112642159466e-05
0.000456318686780163
0.00110642595363001
0.00181893020085571
0.0025256183491511
0.00319799211214981
0.00381552401735828
4.40435329018659e-05
0.000434477744890211
0.00107449344635094
0.0017830740514022
0.00248416254798371
0.0031507071852386
0.00376749963098373
0.00432058057294615
3.87651695223961e-05
0.000409959164701212
0.00103280186125751
0.00173111955131103
0.00242508531791764
0.00308557993857297
0.00370055961868639
0.00425772193026211
0.00474832622372898
3.3368247132424e-05
0.000383227811481324
0.000984120710784927
0.00166556526343657
0.00234794730829354
0.00300026480832186
0.00361153019078223
0.00417141633900193
0.00466956884460955
0.00510217087577417
2.7943511237364e-05
0.000354135244531058
0.000929332788181768
0.00158840033961604
0.00225395711373488
0.00289440051867379
0.00349871326824907
0.00405839545885543
0.00456304050764362
0.00500541517929702
0.00538528513873626
5.43513580025543e-05
5.68226260406831e-05
0.000465644651569395
5.99305235953577e-05
0.000472866684350471
0.00112838375128185
6.12971457848292e-05
0.000482376651730612
0.00113275112543265
0.00186678510349812
5.95457310378935e-05
0.000485985014972702
0.00113815947184992
0.00186249496546018
0.00259090142234637
5.55076100469298e-05
0.000478868228048349
0.00113550086361839
0.00185504093557672
0.00257462549607564
0.0032581924123467
5.05925182775115e-05
0.000462650743983464
0.0011185692104282
0.00183715769914338
0.00254999036899427
0.00322843527951726
0.00385182161379918
4.54658706850345e-05
0.000441372505597425
0.00108796609717178
0.0018035011697712
0.00251160356368145
0.00318507417012559
0.0038085776141034
0.00436799818632084
4.02065544618122e-05
0.000417398229553948
0.0010475824494985
0.00175376957676714
0.00245572739539448
0.0031241403434719
0.0037468322752501
0.00431132251327785
0.00480871513842791
3.48105017934184e-05
0.000391194542083968
0.00100020332717734
0.00169045368000904
0.00238187557408906
0.00304322524271097
0.0036633663372559
0.00423175833210899
0.00473781150812223
0.00517758464165022
2.93393047211296e-05
0.00036260000295197
0.000946745655308404
0.0016155923880084
0.00229129362672326
0.00294198297082028
0.00355648684206225
0.00412607878957719
0.00464003146506626
0.00509081673708232
0.00547804596955965
2.39394033402948e-05
0.000331509777239479
0.000887177889431284
0.00152993926297006
0.00218497560610947
0.00282086202673396
0.003426013987507
0.00399271996663047
0.00451156276962033
0.00497322608572723
0.00537307925166632
0.00571287897165544
5.49277463182497e-05
5.75183612825086e-05
0.000468490838173563
6.07719295238194e-05
0.000476189917340355
0.00113464806701049
6.22854327173898e-05
0.000486265343660295
0.00113997855698281
0.00187761483249724
6.0650520713495e-05
0.000490478690357081
0.00114649164726359
0.00187490969651355
0.00260748334675575
5.66931872710076e-05
0.000483948467979661
0.00114503177801861
0.00186923103046673
0.00259354642357845
0.00328177671522461
5.18349726450877e-05
0.00046827816777255
0.00112932524070968
0.001853266809827
0.00257149029900823
0.00325525097553713
0.00388375850935691
4.67486473203497e-05
0.000447519424830595
0.00109993567105954
0.00182160417560895
0.00253587246262139
0.00321541738300894
0.00384479995881509
0.0044097742073605
4.15124584245565e-05
0.000424048560832869
0.00106074724296539
0.00177389037443876
0.0024828855721499
0.00315825143701848
0.00378770657256572
0.00435862450531667
0.00486197803515678
3.61159071745536e-05
0.000398325640739519
0.00101454837990084
0.00171259286944806
0.00241198528197565
0.00308127238334938
0.00370919758820326
0.00428505005888792
0.00479805160618976
0.00524415364446361
3.06239165883237e-05
0.000370184461890088
0.000962251524556441
0.00163974412772546
0.00232438704591521
0.00298407762289262
0.00360750907662906
0.00418576786524386
0.00470786776155192
0.00516606915381057
0.00555991561445856
2.51535529213934e-05
0.000339499738723901
0.000903842989362749
0.00155612775907991
0.00222111509430944
0.00286713596243057
0.00348246691383438
0.0040592076259208
0.00458764736328139
0.0050581373149766
0.00546579472723046
0.00581227764769443
1.98830253662028e-05
0.000306303168398625
0.000839030880362615
0.0014616625828196
0.00210239845109661
0.00273064811949151
0.00333425081090149
0.00390538545830485
0.00443564291152286
0.00491582361683824
0.00533814039741854
0.00569978846520815
0.00600366782053068
5.54280912339774e-05
5.81266567934352e-05
0.000470961089341293
6.15118405641407e-05
0.000479089388219373
0.00114009713327133
6.31590233216735e-05
0.000489673336648494
0.00114629341452863
0.00188705685816944
6.16317390078263e-05
0.000494432547008989
0.00115380045863431
0.00188577664484069
0.00262197330279185
5.77508955603157e-05
0.00048843472829747
0.00115342180834876
0.00188169639502609
0.00261013909349672
0.00330243018063807
5.29476959210195e-05
0.000473263993255501
0.00113882488613284
0.00186746438394729
0.00259040554244208
0.00327880836547512
0.00391178373848359
4.79021056484462e-05
0.00045298270459037
0.00111053926961917
0.00183760732016957
0.00255728641856071
0.0032421484359758
0.00387667030491751
0.00444649875561064
4.26906097339709e-05
0.000429974907133224
0.00107244388202631
0.00179172676523353
0.00250691177736313
0.0031883757223724
0.00382375284993815
0.00440029726596269
0.00490887282466968
3.72966350249738e-05
0.000404698690739154
0.00102732498695781
0.00173226469058969
0.00243868150028007
0.00311494105766109
0.00374968992836195
0.00433207985178398
0.00485117735367315
0.00530284245608882
3.17839974289518e-05
0.000376970005933046
0.000976082252884292
0.00166123393422896
0.00235376811936375
0.00302137538540187
0.00365263802349656
0.00423849054201262
0.00476773751092155
0.00523247056483534
0.00563217197172285
2.62725954760979e-05
0.000346658319724547
0.000918684554716068
0.00157939608016547
0.00225316229167844
0.00290809518053502
0.00353235112889445
0.00411787143860982
0.00465470173292194
0.00513292556676088
0.00554748609150605
0.00590002033941822
2.09115830385152e-05
0.00031376681423547
0.000854844418883855
0.00148667902455244
0.00213710180490942
0.0027753081025697
0.0033890125047935
0.00397022991925078
0.00451029877583236
0.00499969433706474
0.00543031059581537
0.00579913496348158
0.00610901738416088
1.5885687901169e-05
0.000278408127575848
0.000784167182251048
0.00138250249647844
0.00200515212830114
0.00262267143064371
0.00322239957029883
0.00379582908385746
0.00433472165410416
0.00483070544823279
0.00527540721095097
0.00566227488933042
0.00598970685451193
0.00626134090283974
5.58583766619465e-05
5.86549101242322e-05
0.000473090559849827
6.21590176075685e-05
0.000481605868157079
0.0011448111241878
6.39272468953373e-05
0.000492646976002947
0.00115178622014128
0.00189524989101992
6.24993568432168e-05
0.000497897997902834
0.00116018685989568
0.00189525077940176
0.00263458226170267
5.86904446577904e-05
0.000492382655207235
0.00116078232552094
0.00189260865390534
0.00262463813541854
0.00332045101628491
5.39404344623039e-05
0.000477667264105036
0.00114718885224068
0.00187993860805308
0.00260699526002957
0.00329943843190642
0.0039362985383953
4.89345941520974e-05
0.000457822584518877
0.00111990544101349
0.00185171467416669
0.00257613017700887
0.00326563460800615
0.00390463699613804
0.00447869663904294
4.37490176037836e-05
0.000435241246192027
0.00108280665938019
0.00180749760058885
0.00252811756451029
0.00321492025207799
0.00385547230769723
0.00443693063848352
0.00495006991602066
3.83598233426586e-05
0.000410375569318957
0.0010386753854638
0.00174970647735484
0.00246230668495815
0.00314468427843538
0.00378540744504326
0.00437351646115225
0.00489794960733444
0.00535449151595583
3.28309475898936e-05
0.000383030254401307
0.000988399451855515
0.0016803321792718
0.00237982771511686
0.00305439465705471
0.00369252379426543
0.00428502650436221
0.00482053606176488
0.00529100468375204
0.00569586122749819
2.7280583107834e-05
0.000353057217737507
0.000931921410500058
0.00160010485740818
0.00228162644347219
0.00294440524719439
0.00357649565618745
0.00416970817297649
0.00471388829638225
0.00519890285228062
0.00561955697351489
0.00597746369261127
2.18608410042203e-05
0.000320453199388814
0.000868928812502766
0.00150891426174689
0.00216789164980961
0.00281486174137159
0.00343743156675513
0.00402747766260098
0.00457612603274299
0.00507358192195591
0.00551148373896189
0.00588668229741565
0.0062020466296172
1.67297185209118e-05
0.000285294294309775
0.000799016022946567
0.00140616738590488
0.00203817174529187
0.00266540333331988
0.00327509295621441
0.00385858452426791
0.0044074162776959
0.00491292688706021
0.00536641197034906
0.00576102396057699
0.006094996669708
0.00637196318673343
1.2013249439498e-05
0.000247615455004451
0.000721567396702201
0.0012908279611492
0.00189144309192252
0.00249515670871751
0.00308873738155412
0.00366272046790559
0.00420827797968157
0.00471727265706383
0.00518192175910599
0.0055946394390549
0.00594977151470688
0.00624654941814516
0.00648918438479512
5.62230279841955e-05
5.91090670525764e-05
0.000474908908247277
6.27210703032612e-05
0.000483775143672485
0.00114886051926417
6.45990104796146e-05
0.000495227934303872
0.00115653774538263
0.00190231736748932
6.32625466086502e-05
0.000500921910702893
0.00116574211748167
0.00190347128790271
0.00264549871334838
5.95211480935073e-05
0.000495843248206784
0.00116721453333441
0.00190212293076987
0.00263725460650182
0.00333610626508816
5.48225518326019e-05
0.000481542489735207
0.00115452748380328
0.00189086032679653
0.00262149327659135
0.00331743864213733
0.00395766181188404
4.98554600062883e-05
0.000462096507297798
0.00112815270165989
0.0018641120608714
0.0025926606085197
0.00328620517060208
0.00392910049884675
0.00450683527663715
4.46954172665466e-05
0.000439905260941863
0.0010919602343489
0.00182140274641099
0.00254678297413198
0.00323824807127787
0.0038833104408423
0.00446904844571308
0.00498616462434696
3.93142901061339e-05
0.000415417486179083
0.00104873080578534
0.00176513105530541
0.00248316445400083
0.00317090108289963
0.00381684523020988
0.00440994669765086
0.00493903851664303
0.00539984429774693
3.37718891522513e-05
0.000388424281454656
0.000999339201549608
0.00169726722955838
0.00240289658886411
0.00308357512513077
0.00372771809744763
0.00432603689886289
0.00486702374513748
0.00534251538685407
0.0057518967314258
2.81881148072107e-05
0.000358766317356637
0.000943706507821369
0.00161851116228646
0.00230688145818049
0.00297656464256446
0.00361552903743654
0.00421547807149182
0.00476609269918004
0.00525706137806657
0.00568307477422683
0.00604572278915756
2.27131921584969e-05
0.000326424043838825
0.000881487173471683
0.00152870765966537
0.00219525111872038
0.00284994483474231
0.00348030401281233
0.00407808950386471
0.00463425073440916
0.00513877039219141
0.00558307987576593
0.0059639222791545
0.00628417414105008
1.75098261918312e-05
0.000291462095476298
0.000812242353986817
0.00142721045330661
0.00206748536949364
0.00270327447612758
0.00332171450840591
0.00391402377925734
0.00447155229987556
0.00498539516439555
0.00544657285548894
0.00584800137534903
0.0061878137520477
0.00646969934945485
1.26790219920993e-05
0.000253874515784076
0.000735326830997764
0.00131294434169374
0.00192251466556316
0.00253563177329146
0.00313897178511322
0.00372293453235944
0.00427848561565078
0.00479722646181542
0.00527107027751263
0.00569210697573877
0.00605441522188123
0.00635710450744008
0.00660442488092407
8.27284936947937e-06
0.000213207804673771
0.000649540628597194
0.00118420648443938
0.00175864413018431
0.00234557361327828
0.00293087780563673
0.00350391420993108
0.00405487100468949
0.0045750918140258
0.00505701871639209
0.00549350562058448
0.00587761746013044
0.00620436578002248
0.00647362224854429
0.0066901104323537
5.65247393619884e-05
5.9493189326122e-05
0.000476441941120789
6.32041873127223e-05
0.000485627315144115
0.00115230665274829
6.51824993602155e-05
0.000497452645606552
0.00116061898537392
0.001908367815815
6.39299123518158e-05
0.000503546433812721
0.00117054749966423
0.00191056198489188
0.00265488973437197
6.02518364226695e-05
0.000498862851548881
0.00117280975969741
0.00191037851756299
0.00264817711109618
0.00334963244331273
5.56024414002361e-05
0.000484939280769437
0.00116094099852668
0.00190038394611391
0.00263410989338292
0.00333307530020933
0.00397619284222636
5.06737214000292e-05
0.000465857602612834
0.00113538934107324
0.00187496817722654
0.00260710943046568
0.00330415566040077
0.00395041880343247
0.00453133103113082
4.55391016369787e-05
0.000444022612671518
0.0011000199298783
0.00183362419772432
0.00256316073488579
0.00325868458109892
0.00390766488953727
0.00449711708279945
0.00501768583167276
4.01681919355086e-05
0.000419880607598387
0.00105761162919244
0.00177873244615542
0.00250152807854558
0.00319394754902254
0.00384444292523315
0.00444189073159541
0.00497503824186241
0.00543956047197747
3.46151814289544e-05
0.000393211559485867
0.00100902815182867
0.0017122446692017
0.0024232684594177
0.00310930458937938
0.00375870541804147
0.0043621009956284
0.00490786729186177
0.0053877459273445
0.00580108691987715
2.90014867212837e-05
0.000363842833027475
0.000954169409320324
0.00163483290083616
0.00232924418036825
0.00300499647625294
0.00364998541403649
0.00425582699515514
0.00481206657356482
0.0053082446838189
0.00573895673184917
0.0061057734952717
2.34775866102157e-05
0.000331745429943194
0.000892662787819677
0.00154630106316239
0.0022195338982437
0.00288103232527986
0.00351823229292008
0.00412279898741548
0.00468553582874
0.00519624146545395
0.00564617625841905
0.0060319931156814
0.00635657078556813
1.82070602528741e-05
0.000296964797857527
0.000824031162681398
0.00144594583021088
0.00209354507426743
0.00273688536332142
0.00336302174919304
0.0039630668681187
0.00452821336694203
0.00504935342174454
0.00551728022085615
0.0059247179017402
0.00626972033966222
0.00655601360285225
1.32943986324544e-05
0.000259480860633741
0.000747584048243558
0.00133262092190406
0.00195011897207626
0.00257153102923497
0.003183452386002
0.00377616757678025
0.00434046851631435
0.00486773695297745
0.00534963001860656
0.0057779673065937
0.00614661365586165
0.00645461269971501
0.00670630651088066
8.76391321337967e-06
0.000218804035774581
0.000662069258421574
0.00120455210991307
0.00178747913856152
0.00238344258035308
0.00297824489786952
0.00356111997753443
0.00412206279401058
0.00465217222873754
0.0051436104486159
0.00558892554121451
0.00598087358665858
0.00631423079896704
0.00658878890708225
0.00680935137699299
4.80134057009401e-06
0.000173646579356958
0.000565059086219615
0.00105891146372987
0.00160302076042471
0.00217047932988727
0.00274570914902237
0.00331659262851262
0.00387211975978399
0.00440271447961348
0.00490035608402269
0.00535813592009876
0.00576950721715644
0.00612807745174308
0.00642938474035766
0.00667384781795261
0.00686667522282114
5.67765419462352e-05
5.98084574389224e-05
0.000477717504990178
6.36121481302635e-05
0.000487187935488371
0.00115520448820201
6.56837119268008e-05
0.000499351234095275
0.00116409164198727
0.00191349599426421
6.45091529930661e-05
0.000505808239686369
0.00117467448029548
0.00191663169627052
0.00266290177235574
6.08907274127128e-05
0.000501483121001142
0.00117764940216545
0.00191749928206192
0.00265757280087812
0.00336123913261121
5.62878925144069e-05
0.000487902580909733
0.00116651969570947
0.00190864805302325
0.00264503308580074
0.00334658511483554
0.00399217548848993
5.13968919734112e-05
0.000469153627522013
0.00114171347612537
0.00188443543635971
0.00261968501665317
0.0033197506057457
0.00396891085350671
0.00455255419593538
4.628800449106e-05
0.000447644775450779
0.00110709130981445
0.00184432719162827
0.00257747883515052
0.00327652173292546
0.00392889088155175
0.00452155190799139
0.00504510422774788
4.09287978274954e-05
0.000423818548849412
0.00106542962307636
0.0017906874370332
0.00251764432412626
0.00321414290808465
0.00386859275128357
0.00446981134356076
0.00500647656029555
0.0054742254097442
3.53679209520861e-05
0.000397446715421386
0.00101758274834018
0.00172545178327708
0.00244120795551605
0.00313192945805125
0.00378591609445449
0.00439373171001893
0.00494365661673691
0.00542735470893889
0.00584414891881906
2.97278002188723e-05
0.000368343437288015
0.000963431735871408
0.00164926716637446
0.00234899659807723
0.00303007445900727
0.00368033447381936
0.00429132114943648
0.00485246786034164
0.00535319230685809
0.00578801112375807
0.00615848073828352
2.41596392158125e-05
0.000336470133725748
0.000902578692354319
0.00156190053023005
0.0022410406119147
0.00290852763667803
0.0035517287158122
0.00416223023194651
0.0047307150666043
0.0052468291053163
0.0057016900314896
0.00609187499763053
0.00642026426779155
1.88286720846294e-05
0.000301860839880275
0.000834515373590404
0.00146259776353024
0.00211668153601973
0.00276668334597268
0.00339958642284424
0.0040064149800718
0.00457823091452803
0.00510575788366415
0.00557960033776863
0.00599232296890318
0.00634191219265466
0.00663211985703152
1.38391143412943e-05
0.00026447500783367
0.000758504312601746
0.00135014207288406
0.00197467161889122
0.00260341345520568
0.0032228913828298
0.00382329222241441
0.00439526213452888
0.00492999922054528
0.00541894684613893
0.00585370041209763
0.00622795053257858
0.00654068945993031
0.00679632430847994
9.21709525596057e-06
0.000223808915844839
0.000673233869271447
0.00122266540462728
0.0018131196604172
0.00241706294967591
0.00302022600570243
0.00361173719288014
0.00418142840573671
0.00472019336358229
0.00521995903211365
0.00567301490686365
0.00607185798286217
0.00641107571313545
0.00669042831690182
0.00691484526941728
5.11791492417925e-06
0.000178516823959803
0.000576194880172301
0.00107722658347551
0.0016292968095464
0.0022053665353765
0.00278978018306505
0.00337030616792662
0.00393575464135108
0.00447631776733532
0.00498370865014857
0.00545073173316683
0.00587054218037913
0.00623646036582379
0.00654382301775424
0.0067930094295031
0.0069893450814571
2.02301059336909e-06
0.000127393363880411
0.000463292208596833
0.000909340696433197
0.00141935050288312
0.00196531488606182
0.00252927472504818
0.00309727921747896
0.0036569586647541
0.00419765633191724
0.00471052757396766
0.00518827437441577
0.00562464122268741
0.00601364265817737
0.00634935298571027
0.00662776076415998
0.00684978552293205
0.00702110096913541
6.00737903163263e-05
0.000478783053821998
6.39429464587835e-05
0.000488484349421354
0.00115760947446171
6.61053006167524e-05
0.000500948518566013
0.00116701079813561
0.00191778519187958
6.50060980970004e-05
0.000507736679688716
0.00117818490469175
0.00192177539022585
0.0026696618406512
6.144514310963e-05
0.000503739987710422
0.00118180477615239
0.00192359404015722
0.00266558816398737
0.00337110842009031
5.68867608881213e-05
0.000490472832031626
0.00117134402896421
0.00191577579136838
0.0026544294162025
0.0033581771459072
0.00400585851361631
5.20321030957161e-05
0.000472027604740895
0.00114721332774072
0.00189265055099944
0.00263057360362417
0.00333322538618784
0.00398485945079222
0.00457083089317154
4.69495524283321e-05
0.000450817438048918
0.00111326970225876
0.00185366091271888
0.00258994226979121
0.00329202080517717
0.00394730495383943
0.00454272179947869
0.00506883497893982
4.16025227638336e-05
0.000427280342113267
0.00107228704180875
0.00180115683019041
0.00253173583632985
0.00323177355846558
0.00388964496872743
0.00449412042493613
0.0050338223296066
0.00550435750003345
3.60377978298705e-05
0.000401180572015782
0.00102511062278344
0.00173705951315463
0.00245695423333992
0.00315176048404354
0.00380973406675776
0.0044213850355367
0.00497491528653688
0.00546192567490269
0.00588171870447702
3.0374504025462e-05
0.000372319957215893
0.000971605535044286
0.00166199378098664
0.00236639308326531
0.00305213282786974
0.00370699378472087
0.0043224618911081
0.00488787800317261
0.00539255795691822
0.00583095377324457
0.00620461142814581
2.47666718369377e-05
0.000340650354583717
0.000911350508215173
0.00157569352202555
0.00226003975634549
0.00293278770523091
0.00358124438285232
0.00419693105346941
0.00477043101899329
0.00529126306104286
0.00575042557264676
0.00614443266363073
0.00647616711993843
1.93800141682353e-05
0.000306196947225961
0.000843809412712167
0.00147735905294899
0.00213717676218978
0.00279304891474057
0.00343189494328151
0.00404466509911244
0.00462231299012825
0.00515542236252061
0.00563444012360158
0.00605179698803358
0.00640542179454868
0.00669908731545013
1.43197553083767e-05
0.000268906591162117
0.000768206542522925
0.00136571192739293
0.00199647628823227
0.00263169425004702
0.0032578246875705
0.00386497163267394
0.00444365956744593
0.00498493371430808
0.00548005929772933
0.0059204445731051
0.00629963423867809
0.00661657523057547
0.00687572355632203
9.61078674604208e-06
0.000228248786845724
0.000683172172579812
0.00123879565828734
0.0018359382099334
0.00244694485660487
0.00305748021170748
0.00365658291918349
0.00423394735317761
0.00478029553748129
0.00528735768453583
0.00574720657900281
0.00615212309672837
0.0064965399903636
0.00678019353458593
0.00700810554805375
5.40676078873482e-06
0.000182889338053003
0.000586122118626274
0.00109354683375968
0.00165268843940713
0.00223637700621484
0.0028288851807714
0.00341788330015265
0.00399202905629459
0.0045413203100475
0.00505724758964491
0.00553237363095207
0.00595959981736437
0.00633200355714167
0.00664475950384783
0.00689824867568398
0.00709795348703992
2.17082315959126e-06
0.000131402450966884
0.000472831655204112
0.000925313656521297
0.00144269857087455
0.00199681067839049
0.00256959794630952
0.00314700007142408
0.00371648251507772
0.0042671710965598
0.00478996626037436
0.00527729262256762
0.00572261007541329
0.00611965044304921
0.00646222708208291
0.00674616168494968
0.00697237185262115
0.00714667924744285
3.93445873088392e-07
7.39871125077098e-05
0.000338770973378778
0.000728468978703004
0.00120088921879109
0.00172430089231135
0.00227671147935214
0.00284180612150681
0.00340574914653398
0.00395674985200553
0.0044850299762777
0.00498258093878013
0.00544284668856722
0.00586021694754497
0.00622922912201404
0.00654437487598101
0.00680205285875514
0.00700365635406735
0.00715529491688997
6.42208999234397e-05
0.000489565393452102
0.00115957673830423
6.64450570100978e-05
0.000502272639816312
0.00116943218069096
0.0019213139083059
6.54230957174809e-05
0.000509355292046271
0.00118113367972826
0.00192607649098496
0.00267527874057972
6.19201670649887e-05
0.000505661926203567
0.00118533709441762
0.00192875767521615
0.0026723501548264
0.00337939801575243
5.74062909411193e-05
0.000492684903461583
0.00117548427770444
0.00192187529365014
0.00266244482759712
0.00336803369576602
0.00401745901881758
5.25865058126231e-05
0.000474518491819144
0.00115196744859871
0.00189973491621092
0.00263994016224184
0.00334478776073079
0.00399851305849361
0.00458644664081954
4.75302444171729e-05
0.000453581737762883
0.00111864060236601
0.00186175904484779
0.00260073422113602
0.00330541433751831
0.00396318768599588
0.0045609522997935
0.00508924496941823
4.21972489232742e-05
0.00043031025686947
0.00107827583629274
0.00181028555394043
0.00254400279079725
0.00324709580975447
0.00390791166921759
0.00451518365493326
0.00505749032219023
0.0055304163019
3.66315973587829e-05
0.000404459387459863
0.00103171003389412
0.00174722317829825
0.00247072314861865
0.00316907653521828
0.00383050218913107
0.00444546666463135
0.00500210800767207
0.00549197625420745
0.00591435928098655
3.09492360408335e-05
0.000375821955040417
0.000978793910931921
0.00167317682090759
0.00238166370426428
0.00307147168340241
0.00373033610961624
0.00434969491834565
0.00491881262226774
0.0054269208518009
0.00586841916034505
0.00624484716384355
2.53058210384156e-05
0.000344337451068287
0.000919085008123999
0.00158785138323107
0.00227677386343539
0.00295413225305709
0.00360718083608396
0.00422738693525819
0.00480525150792771
0.00533018749287408
0.00579309367616034
0.00619043215773975
0.00652508993346533
1.98682090177101e-05
0.000310024317349478
0.000852021473516547
0.00149040615649384
0.0021552837264363
0.00281631956043651
0.00346037625676821
0.00407834189191593
0.00466108038449298
0.00519905920517915
0.00568259335730272
0.00610400068207228
0.00646116163569143
0.00675786768182675
1.47427046159014e-05
0.000272817568766243
0.000776794850644216
0.00137950798238905
0.00201579381652866
0.00265672758619691
0.00328870861573571
0.00390177058951393