/*--------------------------------*- C++ -*----------------------------------*\
  =========                 |
  \\      /  F ield         | OpenFOAM: The Open Source CFD Toolbox
   \\    /   O peration     | Website:  https://openfoam.org
    \\  /    A nd           | Version:  12
     \\/     M anipulation  |
\*---------------------------------------------------------------------------*/
/*   Windows 32 and 64 bit porting by blueCAPE: http://www.bluecape.com.pt   *\
|  Based on Windows porting (2.0.x v4) by Symscape: http://www.symscape.com   |
\*---------------------------------------------------------------------------*/
FoamFile
{
    format      ascii;
    class       volScalarField;
    location    "300";
    object      p;
}
// * * * * * * * * * * * * * * * * * * * * * * * * * * * * * * * * * * * * * //

dimensions      [0 2 -2 0 0 0 0];

internalField   nonuniform List<scalar> 
10116
(
83333.3330038648
83333.3329946042
83333.3330038789
83333.3330031796
83333.3329850914
83333.3329945951
83333.3329938949
83333.3330038731
83333.3330031898
83333.3330022989
83333.3329753436
83333.3329850635
83333.332984392
83333.3329945731
83333.3329938746
83333.3329929731
83333.3330038357
83333.3330031798
83333.3330023265
83333.3330019952
83333.3329653558
83333.3329753215
83333.3329746428
83333.3329850328
83333.332984352
83333.3329834548
83333.3329945292
83333.3329938416
83333.3329929773
83333.3329925815
83333.3330037609
83333.3330031383
83333.3330023265
83333.3330020091
83333.3330023816
83333.3329551423
83333.3329653408
83333.3329646586
83333.332975295
83333.3329746056
83333.3329736954
83333.3329849833
83333.3329843099
83333.3329834377
83333.332983001
83333.3329944537
83333.3329937882
83333.3329929541
83333.332992579
83333.3329928371
83333.333003651
83333.3330030729
83333.3330023175
83333.3330020122
83333.3330023981
83333.3330034633
83333.332944708
83333.3329551315
83333.3329544526
83333.3329653196
83333.3329646249
83333.3329637092
83333.3329752492
83333.3329745656
83333.3329736792
83333.3329732021
83333.3329849065
83333.3329842517
83333.3329834079
83333.3329829835
83333.3329831487
83333.3329943474
83333.3329937178
83333.332992927
83333.33299257
83333.3329928404
83333.3329937437
83333.3330035121
83333.3330029913
83333.3330022806
83333.3330020119
83333.3330024079
83333.3330034677
83333.3330051623
83333.3329340588
83333.3329446999
83333.3329440272
83333.3329551155
83333.3329544229
83333.3329535062
83333.3329652799
83333.3329645891
83333.3329636976
83333.3329631883
83333.3329751782
83333.3329745117
83333.3329736523
83333.3329731835
83333.3329732674
83333.3329848033
83333.3329841802
83333.3329833741
83333.3329829682
83333.3329831388
83333.3329839037
83333.3329942154
83333.3329936355
83333.3329928862
83333.332992555
83333.3329928407
83333.3329937436
83333.3329952362
83333.3330033509
83333.3330028899
83333.333002229
83333.3330019941
83333.33300241
83333.3330034746
83333.3330051573
83333.3330073842
83333.3329232056
83333.3329340531
83333.3329333888
83333.3329446891
83333.3329440023
83333.3329430855
83333.3329550829
83333.3329543924
83333.3329534989
83333.3329529624
83333.3329652168
83333.332964541
83333.3329636757
83333.332963173
83333.3329631855
83333.3329750832
83333.3329744461
83333.3329736223
83333.3329731728
83333.3329732537
83333.3329738945
83333.3329846769
83333.3329840992
83333.3329833316
83333.3329829546
83333.3329831341
83333.332983899
83333.3329852128
83333.3329940636
83333.3329935404
83333.3329928338
83333.3329925313
83333.3329928314
83333.3329937424
83333.3329952282
83333.3329972227
83333.333003175
83333.33300277
83333.3330021628
83333.333001949
83333.333002392
83333.3330034658
83333.333005149
83333.3330073703
83333.3330100412
83333.3329121587
83333.3329232018
83333.3329225464
83333.3329340472
83333.3329333683
83333.3329324532
83333.3329446631
83333.3329439767
83333.3329430801
83333.3329425228
83333.332955028
83333.3329543514
83333.3329534842
83333.3329529504
83333.3329529027
83333.3329651316
83333.3329644834
83333.3329636528
83333.3329631713
83333.3329631723
83333.332963704
83333.3329749667
83333.3329743721
83333.3329735859
83333.3329731623
83333.3329732502
83333.3329738895
83333.3329750467
83333.3329845322
83333.3329840086
83333.3329832812
83333.3329829256
83333.3329831261
83333.3329838936
83333.3329852006
83333.3329869917
83333.3329938977
83333.3329934304
83333.3329927724
83333.3329924886
83333.3329928093
83333.3329937281
83333.3329952159
83333.3329972079
83333.3329996252
83333.3330029923
83333.333002641
83333.3330020848
83333.3330018914
83333.3330023423
83333.3330034327
83333.33300512
83333.3330073438
83333.3330100207
83333.3330130584
83333.3329009273
83333.3329121559
83333.332911509
83333.3329231992
83333.3329225286
83333.332921619
83333.3329340263
83333.3329333445
83333.3329324476
83333.3329318751
83333.3329446163
83333.3329439419
83333.3329430722
83333.3329425126
83333.3329424179
83333.3329549524
83333.3329543022
83333.3329534699
83333.3329529551
83333.3329528899
83333.3329533314
83333.3329650261
83333.3329644181
83333.3329636256
83333.3329631668
83333.3329631731
83333.3329637003
83333.3329647199
83333.3329748321
83333.3329742894
83333.3329735433
83333.3329731456
83333.3329732518
83333.3329738862
83333.3329750346
83333.3329766441
83333.3329843741
83333.3329839078
83333.3329832239
83333.3329828918
83333.3329831047
83333.3329838797
83333.3329851879
83333.3329869747
83333.3329891697
83333.3329937233
83333.3329933101
83333.3329927038
83333.3329924364
83333.3329927682
83333.3329936959
83333.3329951855
83333.3329971801
83333.3329996058
83333.333002375
83333.3330028098
83333.3330025098
83333.3330020022
83333.3330018251
83333.3330022717
83333.333003357
83333.3330050503
83333.3330072853
83333.3330099769
83333.3330130328
83333.3330163657
83333.3328895201
83333.3329009248
83333.3329002861
83333.332912155
83333.3329114924
83333.3329105908
83333.3329231816
83333.3329225052
83333.3329216118
83333.3329210287
83333.3329339864
83333.3329333145
83333.3329324435
83333.3329318669
83333.3329317339
83333.3329445495
83333.3329438996
83333.3329430656
83333.3329425206
83333.3329424043
83333.3329427741
83333.3329548577
83333.3329542462
83333.3329534508
83333.3329529592
83333.3329528958
83333.3329533265
83333.332954229
83333.332964903
83333.3329643437
83333.332963591
83333.3329631616
83333.3329631817
83333.3329636997
83333.3329647088
83333.3329661609
83333.3329746847
83333.3329741985
83333.332973493
83333.33297312
83333.3329732391
83333.3329738817
83333.3329750282
83333.3329766282
83333.3329786256
83333.3329842063
83333.3329837964
83333.3329831633
83333.3329828468
83333.3329830725
83333.332983851
83333.33298516
83333.3329869493
83333.332989149
83333.3329916835
83333.3329935458
83333.3329931875
83333.3329926324
83333.3329923823
83333.3329927095
83333.3329936319
83333.332995125
83333.3329971291
83333.3329995653
83333.3330023527
83333.333005409
83333.3330026356
83333.3330023837
83333.3330019205
83333.3330017584
83333.3330021899
83333.3330032547
83333.3330049335
83333.333007169
83333.3330098787
83333.3330129652
83333.3330163311
83333.3330198948
83333.3328779471
83333.3328895175
83333.3328888867
83333.3329009245
83333.3329002707
83333.3328993786
83333.3329121403
83333.3329114704
83333.3329105834
83333.3329099925
83333.3329231472
83333.3329224788
83333.332921609
83333.3329210214
83333.3329208575
83333.3329339277
83333.3329332785
83333.3329324423
83333.3329318732
83333.3329317191
83333.3329320321
83333.3329444648
83333.3329438524
83333.3329430541
83333.3329425306
83333.3329424136
83333.3329427654
83333.3329435715
83333.332954746
83333.3329541799
83333.332953424
83333.3329529608
83333.332952908
83333.3329533277
83333.3329542218
83333.332955535
83333.3329647665
83333.3329642618
83333.3329635479
83333.332963145
83333.332963181
83333.3329637024
83333.3329647097
83333.3329661475
83333.3329679699
83333.3329745271
83333.3329741003
83333.3329734409
83333.3329730845
83333.3329732176
83333.3329738617
83333.3329750076
83333.3329766084
83333.3329786061
83333.3329809328
83333.3329840319
83333.3329836814
83333.3329831016
83333.332982803
83333.3329830279
83333.3329838052
83333.3329851155
83333.3329869052
83333.3329891124
83333.3329916608
83333.3329944768
83333.3329933704
83333.3329930679
83333.3329925626
83333.3329923315
83333.3329926468
83333.3329935506
83333.3329950275
83333.3329970274
83333.3329994784
83333.3330022923
83333.3330053797
83333.3330086658
83333.3330024797
83333.3330022719
83333.3330018517
83333.3330016976
83333.3330021065
83333.3330031366
83333.3330047826
83333.3330069987
83333.3330097127
83333.3330128295
83333.3330162419
83333.333019852
83333.3330235863
83333.332866224
83333.332877944
83333.3328773188
83333.3328895172
83333.332888872
83333.3328879894
83333.3329009122
83333.332900251
83333.3328993709
83333.3328987763
83333.3329121099
83333.3329114456
83333.3329105809
83333.3329099846
83333.3329097973
83333.3329230953
83333.3329224487
83333.3329216112
83333.3329210245
83333.3329208412
83333.332921108
83333.3329338516
83333.332933238
83333.3329324372
83333.3329318882
83333.3329317268
83333.3329320173
83333.3329327479
83333.332944364
83333.3329437952
83333.3329430359
83333.3329425401
83333.3329424277
83333.3329427683
83333.3329435661
83333.3329447627
83333.3329546204
83333.3329541065
83333.3329533893
83333.3329529539
83333.332952918
83333.3329533372
83333.3329542197
83333.3329555234
83333.3329571944
83333.3329646204
83333.3329641767
83333.3329635044
83333.3329631207
83333.3329631726
83333.3329636986
83333.3329646962
83333.3329661364
83333.3329679531
83333.3329700955
83333.3329743614
83333.3329739954
83333.3329733907
83333.3329730508
83333.3329731889
83333.3329738338
83333.3329749728
83333.3329765727
83333.332978575
83333.3329809112
83333.3329835143
83333.3329838539
83333.3329835674
83333.3329830421
83333.3329827658
83333.3329829837
83333.3329837452
83333.3329850393
83333.3329868242
83333.3329890393
83333.3329916072
83333.3329944471
83333.332997492
83333.3329932041
83333.3329929572
83333.3329925011
83333.3329922884
83333.3329925875
83333.3329934615
83333.3329949076
83333.3329968862
83333.3329993361
83333.3330021736
83333.3330053018
83333.3330086301
83333.3330120913
83333.3330023563
83333.3330021859
83333.3330018028
83333.3330016508
83333.3330020289
83333.3330030123
83333.3330046082
83333.3330067844
83333.3330094806
83333.3330126114
83333.3330160696
83333.3330197426
83333.3330235353
83333.3330273851
83333.3328543723
83333.3328662195
83333.3328655975
83333.3328779429
83333.3328773038
83333.3328764294
83333.332889506
83333.3328888541
83333.3328879816
83333.3328873874
83333.3329008848
83333.3329002261
83333.3328993695
83333.3328987677
83333.3328985628
83333.332912063
83333.3329114202
83333.3329105847
83333.332909987
83333.3329097792
83333.3329100073
83333.3329230264
83333.3329224129
83333.3329216107
83333.3329210425
83333.3329208479
83333.3329210871
83333.332921757
83333.3329337602
83333.3329331898
83333.3329324269
83333.3329319044
83333.3329317463
83333.3329320201
83333.3329327368
83333.3329338395
83333.3329442495
83333.33294373
83333.3329430103
83333.3329425439
83333.332942446
83333.332942783
83333.3329435599
83333.3329447536
83333.3329462938
83333.3329544861
83333.3329540305
83333.3329533555
83333.332952943
83333.3329529216
83333.3329533471
83333.3329542145
83333.3329555177
83333.332957181
83333.332959161
83333.3329644662
83333.3329640843
83333.3329634666
83333.3329631
83333.3329631601
83333.3329636878
83333.3329646778
83333.3329661099
83333.3329679285
83333.3329700757
83333.3329724918
83333.3329741887
83333.3329738897
83333.3329733426
83333.3329730272
83333.3329731629
83333.3329737969
83333.3329749248
83333.3329765173
83333.3329785196
83333.3329808666
83333.3329834864
83333.3329863171
83333.3329836761
83333.3329834587
83333.332982987
83333.3329827381
83333.3329829461
83333.3329836827
83333.3329849491
83333.3329867127
83333.3329889229
83333.3329915071
83333.3329943788
83333.3329974568
83333.3330006808
83333.3329930536
83333.3329928631
83333.3329924576
83333.3329922585
83333.3329925373
83333.3329933723
83333.3329947737
83333.332996714
83333.3329991429
83333.3330019873
83333.3330051522
83333.3330085355
83333.3330120491
83333.3330156355
83333.3330022838
83333.3330021367
83333.3330017809
83333.333001624
83333.3330019647
83333.3330028901
83333.3330044204
83333.3330065366
83333.3330091913
83333.3330123112
83333.3330157975
83333.3330195342
83333.3330234066
83333.3330273261
83333.3330312419
83333.3328424018
83333.3328543633
83333.3328537531
83333.3328662173
83333.3328655815
83333.3328647136
83333.3328779323
83333.3328772863
83333.3328764217
83333.332875831
83333.3328894809
83333.3328888298
83333.3328879815
83333.3328873782
83333.3328871614
83333.3329008414
83333.3329002024
83333.3328993739
83333.3328987695
83333.3328985427
83333.3328987394
83333.332912
83333.3329113894
83333.3329105874
83333.3329100059
83333.3329097853
83333.3329099829
83333.3329106014
83333.3329229426
83333.3329223717
83333.3329216065
83333.3329210638
83333.3329208686
83333.33292109
83333.3329217378
83333.3329227658
83333.3329336557
83333.3329331328
83333.3329324104
83333.3329319178
83333.3329317697
83333.33293204
83333.3329327278
83333.3329338285
83333.3329352614
83333.3329441256
83333.3329436619
83333.3329429858
83333.3329425457
83333.3329424619
83333.3329428006
83333.332943565
83333.3329447402
83333.3329462828
83333.3329481223
83333.3329543444
83333.3329539523
83333.3329533288
83333.3329529382
83333.332952926
83333.3329533499
83333.3329542148
83333.3329554952
83333.3329571652
83333.3329591445
83333.3329613942
83333.3329643047
83333.3329639904
83333.3329634319
83333.3329630905
83333.3329631529
83333.3329636716
83333.3329646512
83333.3329660688
83333.3329678892
83333.3329700433
83333.3329724675
83333.3329751085
83333.3329740113
83333.3329737879
83333.3329732978
83333.332973015
83333.3329731461
83333.3329737603
83333.3329748644
83333.3329764348
83333.3329784298
83333.3329807864
83333.3329834286
83333.3329862842
83333.332989297
83333.3329835019
83333.33298336
83333.332982948
83333.3329827227
83333.3329829198
83333.3329836248
83333.332984852
83333.33298658
83333.3329887679
83333.3329913533
83333.3329942524
83333.3329973743
83333.3330006401
83333.3330039973
83333.3329929236
83333.3329927914
83333.3329924367
83333.3329922478
83333.3329925014
83333.3329932897
83333.3329946338
83333.3329965193
83333.3329989075
83333.3330017361
83333.3330049197
83333.3330083551
83333.3330119383
83333.3330155867
83333.3330192528
83333.3330022459
83333.3330021288
83333.3330017945
83333.3330016204
83333.3330019194
83333.3330027786
83333.3330042296
83333.3330062666
83333.3330088563
83333.3330119383
83333.3330154251
83333.333019207
83333.3330231625
83333.3330271785
83333.3330311749
83333.3330351135
83333.3328303346
83333.3328423864
83333.3328418027
83333.3328543592
83333.3328537334
83333.3328528806
83333.3328662079
83333.3328655641
83333.3328647069
83333.3328641192
83333.3328779092
83333.3328772631
83333.3328764222
83333.3328758216
83333.3328755978
83333.3328894403
83333.3328888053
83333.3328879864
83333.3328873791
83333.3328871391
83333.3328873106
83333.3329007827
83333.3329001766
83333.3328993782
83333.3328987891
83333.3328985476
83333.3328987117
83333.3328992865
83333.3329119219
83333.332911352
83333.3329105878
83333.3329100307
83333.3329098062
83333.3329099856
83333.3329105745
83333.3329115396
83333.3329228458
83333.3329223224
83333.3329215981
83333.332921085
83333.3329208973
83333.3329211128
83333.3329217297
83333.3329227464
83333.332924093
83333.3329335402
83333.3329330723
83333.3329323948
83333.3329319309
83333.3329317963
83333.3329320637
83333.3329327432
83333.3329338091
83333.3329352485
83333.332936973
83333.3329439951
83333.3329435957
83333.3329429689
83333.3329425542
83333.3329424817
83333.332942818
83333.3329435742
83333.3329447317
83333.3329462637
83333.3329481091
83333.3329502105
83333.3329541963
83333.3329538718
83333.3329533089
83333.3329529442
83333.3329529382
83333.3329533546
83333.3329542065
83333.3329554754
83333.3329571299
83333.3329591179
83333.3329613741
83333.3329638485
83333.3329641366
83333.3329638992
83333.332963402
83333.3329630943
83333.3329631566
83333.33296366
83333.332964619
83333.3329660179
83333.332967824
83333.3329699805
83333.3329724207
83333.3329750798
83333.3329779052
83333.3329738319
83333.3329736927
83333.3329732662
83333.3329730153
83333.3329731418
83333.3329737311
83333.3329748015
83333.3329763393
83333.3329783114
83333.3329806646
83333.3329833256
83333.3329862139
83333.3329892593
83333.3329924123
83333.3329833325
83333.3329832721
83333.3329829278
83333.3329827256
83333.3329829077
83333.3329835762
83333.3329847544
83333.3329864333
83333.3329885823
83333.332991149
83333.3329940591
83333.3329972215
83333.3330005436
83333.333003951
83333.3330073998
83333.3329927939
83333.3329927353
83333.3329924375
83333.3329922589
83333.3329924837
83333.3329932192
83333.332994496
83333.3329963113
83333.3329986392
83333.3330014293
83333.3330046065
83333.3330080751
83333.3330117272
83333.3330154599
83333.3330191973
83333.3330229031
83333.3330021551
83333.3330021291
83333.3330018353
83333.3330016411
83333.3330018968
83333.3330026856
83333.3330040467
83333.3330059872
83333.3330084893
83333.3330115063
83333.3330149632
83333.3330187602
83333.3330227801
83333.3330268993
83333.333031009
83333.3330350387
83333.3330389632
83333.3328181191
83333.3328303389
83333.3328297521
83333.3328423825
83333.3328417804
83333.3328409486
83333.3328543508
83333.3328537159
83333.3328528723
83333.332852284
83333.3328661873
83333.3328655421
83333.3328647083
83333.3328641105
83333.332863879
83333.3328778714
83333.3328772384
83333.3328764282
83333.3328758214
83333.3328755734
83333.3328757236
83333.3328893845
83333.3328887818
83333.3328879911
83333.3328873993
83333.3328871427
83333.3328872795
83333.3328878159
83333.3329007089
83333.3329001418
83333.3328993816
83333.3328988163
83333.3328985691
83333.3328987133
83333.3328992529
83333.3329001637
83333.332911831
83333.332911309
83333.3329105854
83333.332910058
83333.3329098393
83333.3329100085
83333.332910568
83333.3329115118
83333.332912785
83333.3329227379
83333.3329222681
83333.3329215906
83333.3329211079
83333.3329209329
83333.332921142
83333.332921748
83333.332922729
83333.3329240721
83333.3329257018
83333.3329334187
83333.3329330132
83333.3329323865
83333.3329319507
83333.3329318296
83333.3329320937
83333.3329327589
83333.3329338147
83333.3329352224
83333.3329369584
83333.332938937
83333.3329438592
83333.3329435275
83333.3329429622
83333.3329425751
83333.3329425112
83333.3329428413
83333.3329435833
83333.3329447265
83333.3329462395
83333.3329480864
83333.3329501938
83333.332952524
83333.3329540423
83333.3329537936
83333.3329532952
83333.3329529645
83333.3329529623
83333.3329533667
83333.3329541988
83333.3329554483
83333.3329570873
83333.3329590724
83333.3329613365
83333.3329638241
83333.3329664852
83333.3329639657
83333.3329638139
83333.3329633813
83333.3329631117
83333.3329631735
83333.3329636578
83333.332964588
83333.3329659571
83333.3329677389
83333.3329698877
83333.3329723391
83333.3329750218
83333.3329778723
83333.3329808438
83333.3329736531
83333.332973602
83333.3329732513
83333.3329730321
83333.3329731516
83333.332973713
83333.332974742
83333.3329762361
83333.3329781716
83333.3329805046
83333.3329831702
83333.3329860882
83333.332989177
83333.3329923697
83333.3329956246
83333.3329831545
83333.3329831821
83333.3329829186
83333.3329827474
83333.3329829125
83333.3329835405
83333.3329846623
83333.3329862798
83333.3329883738
83333.3329909025
83333.3329938017
83333.3329969875
83333.3330003644
83333.3330038407
83333.3330073478
83333.333010851
83333.3329926004
83333.3329926529
83333.3329924369
83333.3329922848
83333.3329924857
83333.3329931665
83333.3329943682
83333.3329960998
83333.332998349
83333.3330010779
83333.3330042228
83333.3330076975
83333.3330113994
83333.3330152184
83333.3330190549
83333.3330228411
83333.3330265517
83333.3330018998
83333.333002067
83333.333001874
83333.3330016749
83333.3330019003
83333.3330026185
83333.3330038821
83333.3330057123
83333.333008106
83333.3330110315
83333.3330144276
83333.3330182063
83333.3330222587
83333.3330264628
83333.333030696
83333.3330348553
83333.3330388809
83333.3330427599
83333.3328181566
83333.3328175097
83333.3328303543
83333.3328297439
83333.3328288921
83333.3328423789
83333.3328417644
83333.332840936
83333.3328403368
83333.3328543329
83333.3328536967
83333.332852875
83333.3328522734
83333.332852022
83333.3328661531
83333.33286552
83333.3328647171
83333.3328641103
83333.3328638537
83333.3328639806
83333.3328778182
83333.3328772153
83333.3328764336
83333.3328758425
83333.3328755756
83333.3328756894
83333.3328761904
83333.3328893138
83333.3328887511
83333.3328879963
83333.3328874285
83333.3328871647
83333.3328872795
83333.3328877774
83333.3328886391
83333.3329006216
83333.3329001028
83333.3328993835
83333.3328988484
83333.3328986061
83333.3328987368
83333.332899247
83333.3329001276
83333.3329013382
83333.3329117285
83333.3329112597
83333.3329105849
83333.3329100891
83333.3329098826
83333.3329100437
83333.3329105868
83333.3329114973
83333.3329127539
83333.3329143051
83333.3329226223
83333.3329222138
83333.3329215898
83333.3329211379
83333.3329209777
83333.3329211826
83333.3329217715
83333.3329227378
83333.3329240495
83333.3329256784
83333.3329275596
83333.3329332923
83333.3329329562
83333.3329323893
83333.332931984
83333.3329318738
83333.3329321332
83333.3329327829
83333.332933818
83333.3329352153
83333.3329369282
83333.3329389216
83333.3329411228
83333.3329437191
83333.3329434619
83333.3329429628
83333.3329426104
83333.3329425537
83333.3329428746
83333.332943598
83333.3329447192
83333.3329462163
83333.3329480473
83333.3329501645
83333.3329525031
83333.3329550214
83333.3329538871
83333.3329537208
83333.3329532875
83333.3329529982
83333.3329529998
83333.3329533897
83333.3329541964
83333.3329554178
83333.3329570332
83333.3329590044
83333.3329612736
83333.332963777
83333.3329664572
83333.3329692694
83333.3329637971
83333.3329637308
83333.332963375
83333.3329631415
83333.3329632047
83333.3329636677
83333.332964563
83333.3329658931
83333.3329676403
83333.3329697673
83333.3329722177
83333.3329749207
83333.3329778038
83333.3329808067
83333.3329838889
83333.3329734736
83333.3329735011
83333.3329732368
83333.3329730602
83333.3329731764
83333.332973708
83333.3329746902
83333.3329761308
83333.3329780167
83333.3329803131
83333.3329829646
83333.3329858977
83333.3329890283
83333.3329922754
83333.3329955771
83333.3329988992
83333.3329829278
83333.3329830485
83333.332982887
83333.3329827734
83333.3329829321
83333.3329835207
83333.3329845813
83333.3329861269
83333.3329881511
83333.3329906232
83333.3329934892
83333.3329966744
83333.3330000889
83333.3330036352
83333.3330072239
83333.3330107933
83333.333014318
83333.33299238
83333.3329924906
83333.3329923994
83333.3329923018
83333.3329925042
83333.3329931354
83333.3329942579
83333.3329958953
83333.3329980493
83333.3330006953
83333.333003782
83333.3330072339
83333.3330109566
83333.3330148433
83333.333018784
83333.3330226836
83333.3330264834
83333.3330301685
83333.3330022412
83333.3330019017
83333.3330018789
83333.3330017268
83333.333001929
83333.3330025849
83333.333003747
83333.3330054563
83333.3330077236
83333.333010533
83333.3330138381
83333.3330175641
83333.3330216125
83333.3330258681
83333.3330302073
83333.3330345101
83333.333038681
83333.3330426709
83333.3330464795
83333.3328182016
83333.3328175397
83333.332816562
83333.3328303708
83333.3328297496
83333.3328288831
83333.3328282276
83333.3328423693
83333.3328417549
83333.3328409397
83333.3328403202
83333.3328400249
83333.3328543028
83333.3328536813
83333.3328528897
83333.3328522745
83333.3328519953
83333.3328520858
83333.3328661029
83333.3328654984
83333.332864726
83333.332864134
83333.3328638542
83333.3328639442
83333.3328644077
83333.3328777498
83333.3328771887
83333.3328764408
83333.3328758744
83333.3328755986
83333.3328756882
83333.3328761487
83333.3328769648
83333.3328892284
83333.3328887135
83333.3328880018
83333.3328874648
83333.3328872055
83333.3328873042
83333.3328877713
83333.3328885964
83333.332889752
83333.3329005213
83333.3329000572
83333.3328993887
83333.3328988862
83333.332898656
83333.3328987774
83333.3328992671
83333.3329001172
83333.3329013001
83333.3329027793
83333.3329116152
83333.332911209
83333.3329105902
83333.3329101283
83333.3329099373
83333.3329100937
83333.3329106181
83333.3329115079
83333.3329127405
83333.332914275
83333.3329160696
83333.3329225012
83333.3329221646
83333.3329215994
83333.3329211812
83333.3329210347
83333.332921236
83333.3329218085
83333.3329227517
83333.3329240475
83333.3329256569
83333.3329275383
83333.3329296379
83333.3329331622
83333.3329329009
83333.3329324023
83333.3329320319
83333.3329319322
83333.3329321848
83333.332932817
83333.3329338288
83333.3329352041
83333.3329369078
83333.3329388917
83333.3329411048
83333.3329434997
83333.3329435788
83333.3329434014
83333.3329429699
83333.3329426592
83333.3329426105
83333.3329429202
83333.3329436213
83333.3329447154
83333.3329461871
83333.3329480036
83333.3329501163
83333.3329524648
83333.3329549975
83333.3329576714
83333.3329537379
83333.3329536511
83333.3329532922
83333.332953041
83333.3329530512
83333.3329534254
83333.3329542025
83333.3329553889
83333.3329569713
83333.3329589185
83333.3329611814
83333.3329636971
83333.332966401
83333.3329692379
83333.3329721684
83333.332963637
83333.332963636
83333.3329633628
83333.3329631768
83333.3329632479
83333.3329636906
83333.3329645472
83333.3329658308
83333.332967533
83333.3329696248
83333.3329720583
83333.3329747691
83333.3329776829
83333.3329807278
83333.3329838475
83333.3329870082
83333.332973282
83333.3329733566
83333.332973187
83333.3329730821
83333.3329732101
83333.3329737164
83333.3329746496
83333.3329760292
83333.3329778534
83333.3329800978
83333.3329827164
83333.3329856441
83333.3329888018
83333.3329921038
83333.3329954708
83333.3329988466
83333.3330022053
83333.3329827619
83333.3329828391
83333.3329827953
83333.3329827716
83333.3329829582
83333.3329835171
83333.3329845159
83333.3329859824
83333.3329879238
83333.3329903216
83333.3329931328
83333.3329962927
83333.3329997192
83333.3330033183
83333.3330069926
83333.3330106561
83333.3330142548
83333.3330177725
83333.3329928295
83333.3329923077
83333.3329923109
83333.3329923029
83333.3329925315
83333.3329931284
83333.3329941722
83333.3329957086
83333.3329977535
83333.3330002968
83333.3330033003
83333.3330067005
83333.3330104125
83333.3330143363
83333.333018363
83333.3330223845
83333.3330263115
83333.3330300945
83333.3330337286
83333.3330018794
83333.3330017287
83333.3330018457
83333.3330017915
83333.3330019833
83333.33300259
83333.3330036539
83333.3330052342
83333.3330073607
83333.3330100321
83333.3330132174
83333.3330168565
83333.3330208634
83333.3330251315
83333.3330295421
83333.3330339721
83333.3330383058
83333.3330424558
83333.333046385
83333.3330501081
83333.3328182415
83333.3328175813
83333.3328165758
83333.3328158077
83333.3328303825
83333.3328297615
83333.3328288969
83333.3328282066
83333.3328278417
83333.332842349
83333.3328417519
83333.3328409645
83333.3328403218
83333.3328399967
83333.3328400295
83333.3328542577
83333.3328536667
83333.3328529066
83333.3328523041
83333.3328519934
83333.3328520488
83333.3328524663
83333.3328660362
83333.3328654754
83333.3328647374
83333.332864171
83333.3328638802
83333.3328639425
83333.3328643655
83333.3328651359
83333.3328776656
83333.3328771534
83333.3328764499
83333.3328759154
83333.3328756438
83333.3328757144
83333.3328761426
83333.3328769193
83333.3328780236
83333.3328891283
83333.3328886707
83333.3328880112
83333.3328875087
83333.332887262
83333.3328873501
83333.3328877934
83333.3328885908
83333.3328897111
83333.332891126
83333.3329004079
83333.3329000082
83333.3328993991
83333.3328989336
83333.3328987198
83333.332898836
83333.3328993054
83333.3329001298
83333.3329012927
83333.3329027509
83333.3329044664
83333.3329114945
83333.3329111625
83333.3329106051
83333.3329101799
83333.3329100056
83333.3329101592
83333.3329106666
83333.3329115314
83333.3329127405
83333.3329142618
83333.3329160479
83333.3329180572
83333.3329223752
83333.3329221161
83333.3329216215
83333.3329212394
83333.3329211067
83333.3329213036
83333.3329218594
83333.3329227783
83333.3329240492
83333.3329256431
83333.3329275149
83333.3329296199
83333.3329319085
83333.3329330308
83333.3329328499
83333.3329324226
83333.3329320943
83333.3329320057
83333.3329322502
83333.3329328625
83333.3329338482
83333.3329351966
83333.3329368807
83333.3329388556
83333.3329410734
83333.3329434787
83333.3329460334
83333.3329434453
83333.3329433445
83333.3329429849
83333.3329427168
83333.3329426804
83333.3329429793
83333.332943655
83333.3329447172
83333.332946157
83333.3329479483
83333.332950049
83333.3329524026
83333.3329549515
83333.3329576445
83333.3329604435
83333.3329536055
83333.3329535725
83333.3329532897
83333.3329530879
83333.3329531125
83333.332953474
83333.332954219
83333.3329553647
83333.3329569059
83333.3329588189
83333.3329610621
83333.3329635791
83333.3329663041
83333.3329691728
83333.3329721333
83333.3329751523
83333.3329635033
83333.3329635053
83333.332963315
83333.3329632002
83333.3329632961
83333.3329637247
83333.3329645425
83333.3329657743
83333.332967422
83333.3329694661
83333.332971867
83333.3329745682
83333.3329775001
83333.332980587
83333.3329837583
83333.3329869626
83333.332990173
83333.3329731877
83333.3329731568
83333.3329730743
83333.3329730678
83333.3329732425
83333.3329737359
83333.3329746225
83333.3329759363
83333.332977689
83333.3329798672
83333.3329824348
83333.3329853359
83333.3329884989
83333.3329918412
83333.3329952766
83333.3329987287
83333.3330021478
83333.3330055162
83333.3329833341
83333.3329826453
83333.3329826498
83333.3329827312
83333.3329829786
83333.3329835277
83333.3329844694
83333.3329858537
83333.3329877021
83333.3329900098
83333.3329927458
83333.3329958559
83333.3329992672
83333.3330028924
83333.3330066354
83333.3330103999
83333.333014105
83333.333017704
83333.33302119
83333.3329923376
83333.3329921856
83333.332992251