/*--------------------------------*- C++ -*----------------------------------*\
  =========                 |
  \\      /  F ield         | OpenFOAM: The Open Source CFD Toolbox
   \\    /   O peration     | Website:  https://openfoam.org
    \\  /    A nd           | Version:  12
     \\/     M anipulation  |
\*---------------------------------------------------------------------------*/
/*   Windows 32 and 64 bit porting by blueCAPE: http://www.bluecape.com.pt   *\
|  Based on Windows porting (2.0.x v4) by Symscape: http://www.symscape.com   |
\*---------------------------------------------------------------------------*/
FoamFile
{
    format      ascii;
    class       surfaceScalarField;
    location    "300";
    object      phi;
}
// * * * * * * * * * * * * * * * * * * * * * * * * * * * * * * * * * * * * * //

dimensions      [0 3 -1 0 0 0 0];

internalField   nonuniform List<scalar> 
28903
(
4.16854953016575e-06
2.76193133961806e-08
-1.13507030328036e-07
4.25166762456891e-06
2.93658065306918e-08
-1.12483326811413e-07
5.06853862700842e-06
6.16523189909025e-08
-1.29436130196688e-07
1.0490038027018e-06
1.85482818839601e-08
-1.86583581141715e-07
4.3304895098776e-06
3.22178639268103e-08
-1.1104815234992e-07
5.16534706850485e-06
6.09230205609432e-08
-1.28369880303768e-07
1.10197462449619e-06
2.01905777370649e-08
-1.85646317204667e-07
5.64943081118157e-06
1.04408958352535e-07
-1.46203023149724e-07
1.44576673330325e-06
4.46463069494609e-08
-2.12785984010988e-07
7.39463999004468e-07
1.38839596103823e-08
-2.49401350513332e-07
4.40764577735816e-06
3.14543941462403e-08
-1.08616754513216e-07
5.26157191750063e-06
6.13130073335582e-08
-1.25332413220183e-07
1.15284080134123e-06
2.21706660462226e-08
-1.84088287145666e-07
5.75777511171255e-06
1.00133382566375e-07
-1.47567087176156e-07
1.5020073702262e-06
4.77027942727346e-08
-2.12125082319853e-07
7.86373990114119e-07
1.53809273589387e-08
-2.47937751544666e-07
6.27928009914677e-06
1.48626546121738e-07
-1.61928015797759e-07
1.70357819294302e-06
7.8684776699558e-08
-2.43786802206528e-07
9.83207378320321e-07
3.44501040873393e-08
-2.87646440392154e-07
7.60361266997107e-07
1.24054892369133e-08
-3.0479049890689e-07
4.48408035143948e-06
2.92942869512944e-08
-1.0572994371257e-07
5.35532190056113e-06
5.91386047129297e-08
-1.21442925599141e-07
1.20251309676238e-06
2.30750870535831e-08
-1.81367617600195e-07
5.86576493689559e-06
9.69736018378636e-08
-1.43662053060801e-07
1.55822861170737e-06
5.0175309356704e-08
-2.09562909040854e-07
8.31159156991784e-07
1.68887299542283e-08
-2.45762465943694e-07
6.40248905322017e-06
1.41247287964405e-07
-1.64326795647563e-07
1.76627899065131e-06
8.14244743815613e-08
-2.43990854929356e-07
1.0350846191929e-06
3.67524040866497e-08
-2.85374734828593e-07
8.02004225709564e-07
1.3455830798146e-08
-3.03036514269634e-07
6.7868584901502e-06
1.88307930339792e-07
-1.71442674088786e-07
1.93407642605609e-06
1.14972751201208e-07
-2.69674973798018e-07
1.17080425853033e-06
6.11376770386691e-08
-3.32702925155367e-07
9.49491586754881e-07
2.96285326940001e-08
-3.52620117296053e-07
8.44048343513921e-07
1.17509779213671e-08
-3.53942338023947e-07
4.55965336819782e-06
2.7070048804121e-08
-1.0264709323768e-07
5.44688900871389e-06
5.57659126782492e-08
-1.18046064784548e-07
1.25131537623542e-06
2.31736477688134e-08
-1.77707021952859e-07
5.97046746759123e-06
9.25480848904557e-08
-1.38117936209453e-07
1.61434347365705e-06
5.10716367086583e-08
-2.05556686514967e-07
8.74687197638673e-07
1.76750551525999e-08
-2.42571218255274e-07
6.52438814534978e-06
1.34930455015757e-07
-1.59867347683037e-07
1.82992312780966e-06
8.36928546250466e-08
-2.40830622491832e-07
1.08557418524692e-06
3.89030211136228e-08
-2.82067648268089e-07
8.4225809010828e-07
1.44723719832868e-08
-3.00489522989013e-07
6.92411728136176e-06
1.78717770769368e-07
-1.74732141193869e-07
2.00423737319233e-06
1.17652693612748e-07
-2.70718181011771e-07
1.2299635315428e-06
6.40887570455059e-08
-3.30487557690229e-07
9.95653562055815e-07
3.17166627332729e-08
-3.49798247789964e-07
8.80820162120983e-07
1.25027401061537e-08
-3.52311242134422e-07
7.10392129579718e-06
2.20494655775017e-07
-1.75358711875806e-07
2.07240525781618e-06
1.48737118895874e-07
-2.826887050091e-07
1.31446916390285e-06
9.03034154599212e-08
-3.686213147705e-07
1.11316993869904e-06
5.09744773645306e-08
-4.08727826651767e-07
1.00669094484054e-06
2.66050880774504e-08
-4.08581550359182e-07
9.38418888401401e-07
1.1531389268578e-08
-3.97509042986926e-07
4.63413812393403e-06
2.50425158036852e-08
-9.95294591601651e-08
5.5364513828749e-06
5.21533218612011e-08
-1.14650065196292e-07
1.2991882565926e-06
2.29656252817278e-08
-1.73487035018027e-07
6.0724163050444e-06
8.74994151309298e-08
-1.33683664744502e-07
1.66954501000794e-06
5.10780160072198e-08
-2.01153698282305e-07
9.17345032729161e-07
1.81254200970448e-08
-2.38490572790355e-07
6.64210522812474e-06
1.28059961942643e-07
-1.53238889081566e-07
1.89397010317264e-06
8.46812195496904e-08
-2.35781092564574e-07
1.13533975062699e-06
4.01727982292656e-08
-2.77821621767794e-07
8.8155889878351e-07
1.51621769647842e-08
-2.97034856471371e-07
7.05924672085744e-06
1.7000961878573e-07
-1.70218917321559e-07
2.07553720719953e-06
1.19855226120622e-07
-2.6733238616612e-07
1.28798368228538e-06
6.65901958477747e-08
-3.2653933032965e-07
1.04078892123175e-06
3.33859748690727e-08
-3.46118145053588e-07
9.1681330900433e-07
1.32234295995384e-08
-3.49706577458054e-07
7.2528695161277e-06
2.09569157139539e-07
-1.79788051397974e-07
2.148259985243e-06
1.51852948122646e-07
-2.84788372011581e-07
1.38066273013426e-06
9.40175258483056e-08
-3.66841534597578e-07
1.16600381067575e-06
5.39732810824291e-08
-4.05578766208132e-07
1.04708962742494e-06
2.81280462821359e-08
-4.05823421418521e-07
9.70422787227506e-07
1.1823934985162e-08
-3.96138966112804e-07
7.26037861996323e-06
2.44378434615607e-07
-1.76257341815426e-07
2.12819638055771e-06
1.7705186359546e-07
-2.85242423248466e-07
1.36725986295759e-06
1.17541687194137e-07
-3.84804769196354e-07
1.22943514848351e-06
7.36330890970649e-08
-4.52343157264604e-07
1.16000860787842e-06
4.3905863399326e-08
-4.72740997618622e-07
1.08970346776117e-06
2.47873441851167e-08
-4.56814099721344e-07
1.03185728300189e-06
1.12962889171494e-08
-4.35855274150861e-07
4.70737134358547e-06
2.33512522533206e-08
-9.65856879489633e-08
5.62413815898653e-06
4.86192241996683e-08
-1.11270224180995e-07
1.34609460787778e-06
2.27094130215029e-08
-1.69147255390399e-07
6.17185006202076e-06
8.22683976142025e-08
-1.29553092822945e-07
1.72365145364795e-06
5.06365588541439e-08
-1.96432324918761e-07
9.59261057686116e-07
1.84130892764387e-08
-2.33817321734988e-07
6.75670639018478e-06
1.2103257884735e-07
-1.48147286670684e-07
1.95693171966412e-06
8.47860870132477e-08
-2.30358018469141e-07
1.18430397428885e-06
4.08798197888453e-08
-2.72872502583303e-07
9.20240166420119e-07
1.55991762093871e-08
-2.92771554829929e-07
7.18929659071274e-06
1.61013332334365e-07
-1.63011484830949e-07
2.14742390069978e-06
1.20965128980724e-07
-2.61417266380249e-07
1.34554153752505e-06
6.83425587740766e-08
-3.21509562112117e-07
1.08524934572874e-06
3.45183437451607e-08
-3.41639650669505e-07
9.52226197093631e-07
1.37466464688806e-08
-3.46194554609768e-07
7.39925016942594e-06
1.99331088767765e-07
-1.75710988978584e-07
2.22525210303884e-06
1.5434988228589e-07
-2.8170776563279e-07
1.44560266742686e-06
9.71407934011889e-08
-3.6282653901794e-07
1.21781612416569e-06
5.6266465328976e-08
-4.01233871971322e-07
1.08698130091516e-06
2.93585696558546e-08
-4.02146671650819e-07
1.00208474671052e-06
1.23226031259688e-08
-3.93691548219054e-07
7.41857254767901e-06
2.32940408938366e-07
-1.81551554881356e-07
2.20790109291138e-06
1.81010284338765e-07
-2.88646607891473e-07
1.43817905311433e-06
1.22263388155057e-07
-3.8395232696504e-07
1.28831426967915e-06
7.75686355133303e-08
-4.49316920092716e-07
1.20599484227911e-06
4.60939591360699e-08
-4.69531471936392e-07
1.12465454646208e-06
2.53654089154637e-08
-4.54316133981278e-07
1.05920802732955e-06
1.13570014981182e-08
-4.34846752678821e-07
7.32443357488928e-06
2.59864751405636e-07
-1.76383501513702e-07
2.13387396828947e-06
1.99093243707293e-07
-2.82829027181596e-07
1.34962384813731e-06
1.40255723680791e-07
-3.8603045836481e-07
1.25716239785304e-06
9.4844947114211e-08
-4.71022384468187e-07
1.26511203415319e-06
6.18356844220027e-08
-5.22047339950397e-07
1.24252858348723e-06
3.9415011979733e-08
-5.27046979980513e-07
1.18252733519902e-06
2.3432811691394e-08
-4.98469985801334e-07
1.12379905762341e-06
1.09904182000705e-08
-4.69305034639536e-07
4.7794327330477e-06
2.1893237729926e-08
-9.39532145172795e-08
5.70999623734108e-06
4.54521894942075e-08
-1.0796475228703e-07
1.39199925550728e-06
2.24622039107677e-08
-1.64953954784192e-07
6.26902229329345e-06
7.71890995706065e-08
-1.25736521011004e-07
1.77668346403991e-06
5.00586518409557e-08
-1.91654041250575e-07
1.00050771627564e-06
1.85255654640871e-08
-2.2891919361905e-07
6.8685615539807e-06
1.14060150200683e-07
-1.43654301016308e-07
2.01857714788759e-06
8.43344482110785e-08
-2.24898471674747e-07
1.23247887939229e-06
4.12793916776948e-08
-2.67474489090378e-07
9.58480401947018e-07
1.58852584418162e-08
-2.87943151932255e-07
7.31582482373779e-06
1.52148474191094e-07
-1.57647271026784e-07
2.21815819591124e-06
1.21194660864293e-07
-2.55294421333942e-07
1.40223763593865e-06
6.95221303012836e-08
-3.15699099259241e-07
1.12918461118152e-06
3.52418429993383e-08
-3.36451262756098e-07
9.87300585846704e-07
1.40812171306596e-08
-3.41927659966957e-07
7.5398195790475e-06
1.88821688340757e-07
-1.68391657004807e-07
2.30293235254868e-06
1.55773714316838e-07
-2.75502189074623e-07
1.51014787553253e-06
9.95907425423449e-08
-3.57211482524034e-07
1.26910197684643e-06
5.77057404281511e-08
-3.95984439767993e-07
1.12650871128407e-06
3.02400062568274e-08
-3.97662079405785e-07
1.03351702528086e-06
1.26877746424742e-08
-3.90315171313487e-07
7.57437416632735e-06
2.22133196508712e-07
-1.78609473533149e-07
2.28864472099708e-06
1.84179796035941e-07
-2.86284896717599e-07
1.50765088520593e-06
1.2627779496157e-07
-3.80317310984441e-07
1.34617786461826e-06
8.02890024193766e-08
-4.44713879357411e-07
1.25152511472418e-06
4.78414060006725e-08
-4.65247579973794e-07
1.15953599686763e-06
2.6134914308373e-08
-4.50841524330847e-07
1.08658485807747e-06
1.15881542291347e-08
-4.32656808231557e-07
7.49096772759153e-06
2.48922791384735e-07
-1.8247958761207e-07
2.21647005731586e-06
2.04464604565865e-07
-2.87593022973292e-07
1.42335431854508e-06
1.46244395167108e-07
-3.86358986837695e-07
1.32009498959225e-06
9.94114282173996e-08
-4.68728821891887e-07
1.31616139317828e-06
6.45521081350027e-08
-5.18825445274223e-07
1.28217892361182e-06
4.03288379448395e-08
-5.24146199307819e-07
1.2123817460099e-06
2.35813662790498e-08
-4.96394872848158e-07
1.14678732985154e-06
1.08360298391189e-08
-4.68671149116252e-07
7.34966950719564e-06
2.6656826064098e-07
-1.76441044087823e-07
2.11755616533968e-06
2.14581361986409e-07
-2.78889943633385e-07
1.29570627567321e-06
1.57678123561489e-07
-3.80649664739847e-07
1.21986924138142e-06
1.12486384401606e-07
-4.71245106641109e-07
1.28474675374802e-06
7.85616072550446e-08
-5.42765923535266e-07
1.34723236460543e-06
5.42636021637083e-08
-5.80898762772593e-07
1.3433574218604e-06
3.65250761733029e-08
-5.73720324959097e-07
1.28016959142337e-06
2.25722299294483e-08
-5.34561603615096e-07
1.21631161361107e-06
1.08127767148398e-08
-4.98302761802737e-07
4.8505795448201e-06
2.05429658569983e-08
-9.16926217559305e-08
5.79424392518619e-06
4.26184745588648e-08
-1.04977685480305e-07
1.43689857996574e-06
2.22417829939575e-08
-1.61095706136942e-07
6.36411341545898e-06
7.24510700306103e-08
-1.22097765068451e-07
1.82867521107727e-06
4.95244061692716e-08
-1.87023278357609e-07
1.04109056500263e-06
1.85714425861761e-08
-2.24107966966527e-07
6.97782678101588e-06
1.07419575981051e-07
-1.39503845712748e-07
2.0789744618773e-06
8.3663022174321e-08
-2.19739514970461e-07
1.27984976633818e-06
4.14635096841695e-08
-2.61963734199316e-07
9.9636037020292e-07
1.60662155172394e-08
-2.82865586410849e-07
7.43932796149545e-06
1.43625498810852e-07
-1.53075370810803e-07
2.28747053291593e-06
1.20783140031669e-07
-2.4941781991591e-07
1.45811839661006e-06
7.0124266909182e-08
-3.09623789474425e-07
1.17267014045354e-06
3.57123329036265e-08
-3.30788033066741e-07
1.02220900017547e-06
1.42770680448924e-08
-3.37128749787111e-07
7.67646202691749e-06
1.7867032505633e-07
-1.631662110321e-07
2.37946492897108e-06
1.56292544662352e-07
-2.69281627572961e-07
1.57389063301731e-06
1.01324549544868e-07
-3.50840423316108e-07
1.31996092934118e-06
5.86770769544814e-08
-3.89993868875218e-07
1.16579828373644e-06
3.08103101943123e-08
-3.9247096294755e-07
1.06491140139876e-06
1.28684605878957e-08
-3.8619112220354e-07
7.72403491051432e-06
2.11084352814556e-07
-1.71929291106219e-07
2.37018590491479e-06
1.86253674082045e-07
-2.80417100428938e-07
1.57680898300274e-06
1.2958728712918e-07
-3.74658453120086e-07
1.40353440206819e-06
8.23042864518244e-08
-4.39167951340968e-07
1.29679478613078e-06
4.90817431817442e-08
-4.60097296767055e-07
1.19440260041459e-06
2.66804380777289e-08
-4.46522564523704e-07
1.11406340183911e-06
1.17066413389899e-08
-4.29500804760687e-07
7.65503290861194e-06
2.38319361888051e-07
-1.80246420871794e-07
2.29995406998254e-06
2.08668739958601e-07
-2.86584574629979e-07
1.49549696631406e-06
1.5136113736856e-07
-3.83511817581322e-07
1.38177978318061e-06
1.03009981922194e-07
-4.64724569308356e-07
1.36668050825918e-06
6.69797591945269e-08
-5.14373017583027e-07
1.32187541323585e-06
4.138355736945e-08
-5.20193882619097e-07
1.24254814492167e-06
2.38192862739318e-08
-4.93240292178965e-07
1.17009288935219e-06
1.08327976696687e-08
-4.66795432288787e-07
7.52506787294045e-06
2.57381508928428e-07
-1.83816193376637e-07
2.2026428861966e-06
2.22005699958474e-07
-2.85093836132439e-07
1.37152935503568e-06
1.65259196965886e-07
-3.82430339740109e-07
1.28504695570822e-06
1.18073610394398e-07
-4.70199765457921e-07
1.33897903901891e-06
8.1838406559052e-08
-5.40247678680776e-07
1.39119407257927e-06
5.55763577538332e-08
-5.7803570724362e-07
1.37727826574483e-06
3.68153109142588e-08
-5.71301438948298e-07
1.3052816020893e-06
2.22818579884409e-08
-5.32953188480486e-07
1.23522948195647e-06
1.0432736753581e-08
-4.98021916766473e-07
7.36172535892464e-06
2.64147592816126e-07
-1.77654813803225e-07
2.09654329742243e-06
2.23319461299723e-07
-2.74650479166468e-07
1.22652657420679e-06
1.69712900545007e-07
-3.7339285798018e-07
1.15104141723587e-06
1.2588717930506e-07
-4.63576166854452e-07
1.24251500327311e-06
9.24247454019568e-08
-5.42370519868167e-07
1.36730284383006e-06
6.79032775532766e-08
-6.034390190115e-07
1.45534364140586e-06
4.96365873495123e-08
-6.31447057343409e-07
1.45412228668882e-06
3.49926365963561e-08
-6.14158363722973e-07
1.38115892234196e-06
2.23708663754488e-08
-5.65895281335622e-07
1.31063081001182e-06
1.08943704075159e-08
-5.23306701352331e-07
4.92105245369406e-06
1.93587592556145e-08
-8.98317550699237e-08
5.87723367695402e-06
4.00456161099862e-08
-1.02500304897148e-07
1.48085996427769e-06
2.20427157640398e-08
-1.57696163726263e-07
6.45743689928899e-06
6.81208450301203e-08
-1.18821346758406e-07
1.8796768623787e-06
4.90279382917273e-08
-1.82768772503781e-07
1.08102611388111e-06
1.85767458493694e-08
-2.19608465737743e-07
7.08464757947761e-06
1.01226466455362e-07
-1.35605857996399e-07
2.13816499560001e-06
8.29130882832887e-08
-2.14675794306235e-07
1.32647404671852e-06
4.15231927730208e-08
-2.56601323694646e-07
1.03393261346341e-06
1.61462990243845e-08
-2.77826911104724e-07
7.55987779160668e-06
1.35625103038464e-07
-1.48757331611923e-07
2.35536002365685e-06
1.20083359158287e-07
-2.43812992440507e-07
1.51305776949033e-06
7.04124763297671e-08
-3.03629256096996e-07
1.21571986390607e-06
3.60109435112622e-08
-3.24959295653257e-07
1.05705397216627e-06
1.43665389657481e-08
-3.32077165549807e-07
7.80969514159829e-06
1.69019898894636e-07
-1.58632240187278e-07
2.45452580071307e-06
1.56130483161456e-07
-2.63485830172323e-07
1.63674878715611e-06
1.02126372841244e-07
-3.44278425812691e-07
1.37035433455155e-06
5.92817613151067e-08
-3.83587687784212e-07
1.20495658932579e-06
3.11273635378502e-08
-3.86797548878187e-07
1.09641426300123e-06
1.29191775011462e-08
-3.81551210516242e-07
7.86929152630355e-06
2.00303388603187e-07
-1.66886374089376e-07
2.4505932177519e-06
1.87413243137261e-07
-2.74693981961614e-07
1.6453172910285e-06
1.3186935015901e-07
-3.68334207108617e-07
1.46048503830254e-06
8.37695805037759e-08
-4.32885116779643e-07
1.34189055889038e-06
4.99181861685415e-08
-4.54198091429178e-07
1.22933399378447e-06
2.69722143167182e-08
-4.41506888770381e-07
1.1417912646525e-06
1.16911561561466e-08
-4.25610414704625e-07
7.81309752478375e-06
2.27381182237767e-07
-1.7436469004086e-07
2.38433088097261e-06
2.11727076847e-07
-2.81778898814599e-07
1.56748058555886e-06
1.5562028439921e-07
-3.78434917735674e-07
1.44301338777595e-06
1.05829507457048e-07
-4.59418315626845e-07
1.41702871599807e-06
6.84765347874947e-08
-5.08912129488279e-07
1.36165735642934e-06
4.21348386684989e-08
-5.15334706442129e-07
1.27302768468264e-06
2.39079695207799e-08
-4.89204340245713e-07
1.19378518223208e-06
1.07447859421711e-08
-4.63938061792821e-07
7.6981164578642e-06
2.4798200384872e-07
-1.82700514593578e-07
2.28850131041748e-06
2.27834454710376e-07
-2.85267278018334e-07
1.44562041976307e-06
1.71639377468059e-07
-3.80953158010515e-07
1.34897914466838e-06
1.22739719380195e-07
-4.67174520143333e-07
1.39282325489173e-06
8.47207033671203e-08
-5.36310670837871e-07
1.43525887758527e-06
5.69005365560277e-08
-5.73955652470715e-07
1.41168914231769e-06
3.69445991980004e-08
-5.67730911368808e-07
1.33100476048804e-06
2.20736635587857e-08
-5.30205056359212e-07
1.25471527354604e-06
1.02160377880845e-08
-4.96497570137887e-07
7.54730083851626e-06
2.58041133952216e-07
-1.86186969598494e-07
2.18402940012129e-06
2.33250659458253e-07
-2.82533975718345e-07
1.30423982972047e-06
1.79231721418606e-07
-3.76778476869976e-07
1.21797329354245e-06
1.32824322788224e-07
-4.64113303567638e-07
1.29873312772817e-06
9.67111492016374e-08
-5.41291407042357e-07
1.41411442156043e-06
7.00242598555784e-08
-6.01507607901323e-07
1.49312557650952e-06
5.02582409126891e-08
-6.29261346374713e-07
1.48278068455808e-06
3.46528685883627e-08
-6.12331601720502e-07
1.40179693191015e-06
2.15841341319204e-08
-5.64742923418456e-07
1.32567640641611e-06
1.03055818278552e-08
-5.23373187605571e-07
7.36288633178933e-06
2.52294471482102e-07
-1.8026488178475e-07
2.08170691619104e-06
2.24611523736713e-07
-2.70919796630994e-07
1.1505397973628e-06
1.76240773210573e-07
-3.65730134231454e-07
1.06883455891153e-06
1.34914788145534e-07
-4.53787041764598e-07
1.17062933186789e-06
1.03032488694511e-07
-5.33154320653329e-07
1.3252874302432e-06
7.95611863243899e-08
-6.03058978583645e-07
1.48035463466114e-06
6.18405638738838e-08
-6.55905328796268e-07
1.57717229296285e-06
4.74317325786598e-08
-6.75386858056683e-07
1.57030832651156e-06
3.46539702571084e-08
-6.49248892440704e-07
1.48489494830757e-06
2.27097811525483e-08
-5.92985307080972e-07
1.40649043415078e-06
1.12895340936819e-08
-5.44743132137599e-07
4.99103207181798e-06
1.83991520117547e-08
-8.83787199986574e-08
5.95930905652386e-06
3.7797387836247e-08
-1.00509949460314e-07
1.52400452940399e-06
2.18602218150962e-08
-1.54838371997835e-07
6.54933730253864e-06
6.41885472834908e-08
-1.16042486662103e-07
1.92977014331849e-06
4.8514150966016e-08
-1.79064623691456e-07
1.12037413739044e-06
1.85418845253416e-08
-2.15586271617955e-07
7.18931761468671e-06
9.5523474516144e-08
-1.32072723364082e-07
2.19624763873393e-06
8.21304095210813e-08
-2.1001074522638e-07
1.37237961874409e-06
4.15130123820651e-08
-2.51611066309531e-07
1.07124223427614e-06
1.61543841488908e-08
-2.73072468119298e-07
7.67759405533939e-06
1.28191814959618e-07
-1.44679031187431e-07
2.42186254376001e-06
1.19216557664505e-07
-2.3841553010672e-07
1.56709890809201e-06
7.04700947845444e-08
-2.97665069043746e-07
1.25845234327708e-06
3.60341432679255e-08
-3.19221748445534e-07
1.09190977233985e-06
1.4369854576088e-08
-3.27052703962346e-07
7.93952507517009e-06
1.599613750056e-07
-1.54172689687078e-07
2.5280102695264e-06
1.55568089267721e-07
-2.57726629225153e-07
1.69856855793101e-06
1.02500246202511e-07
-3.37722072843856e-07
1.42024558232675e-06
5.95734137816036e-08
-3.77083395105824e-07
1.24406572825931e-06
3.12286493727627e-08
-3.80931115663574e-07
1.12812818394338e-06
1.28713728734222e-08
-3.76662616531968e-07
8.01059913385902e-06
1.89955495967977e-07
-1.62239476128257e-07
2.52944599180107e-06
1.87803738084041e-07
-2.69156769331344e-07
1.71281770268736e-06
1.33064658807766e-07
-3.61924960086586e-07
1.5168962638179e-06
8.47180955135069e-08
-4.26126294937269e-07
1.38685358528152e-06
5.03680658035262e-08
-4.47791937772879e-07
1.26443635342195e-06
2.70475231530488e-08
-4.36028778462081e-07
1.1698884812191e-06
1.15772594885486e-08
-4.21225792556412e-07
7.96667566419551e-06
2.1667981124213e-07
-1.69962389755682e-07
2.46748435066921e-06
2.13831032096063e-07
-2.76459430188228e-07
1.63878875098635e-06
1.58656381536092e-07
-3.72790387447509e-07
1.50382642691007e-06
1.07914506816364e-07
-4.53294036647205e-07
1.46725965427237e-06
6.95034970775673e-08
-5.02702368121166e-07
1.40158631491456e-06
4.25056690982237e-08
-5.09661438602773e-07
1.30387231210561e-06
2.38183767164592e-08
-4.84479268212532e-07
1.21798841578347e-06
1.05437376776417e-08
-4.60357760418142e-07
7.86466093414861e-06
2.37733276542447e-07
-1.76907805663657e-07
2.37531426498487e-06
2.32150711754686e-07
-2.81603123656957e-07
1.51951998622178e-06
1.76943830967472e-07
-3.77002688479683e-07
1.41252720343612e-06
1.26501524399663e-07
-4.62655800222999e-07
1.44644989769863e-06
8.67693804115375e-08
-5.31338640429497e-07
1.47939725424871e-06
5.79415809698168e-08
-5.6885881711698e-07
1.44657955670426e-06
3.69029593024544e-08
-5.63220896511647e-07
1.35733481933231e-06
2.17533530313819e-08
-5.26543787870847e-07
1.27483294029396e-06
9.94294779901014e-09
-4.93998822694237e-07
7.73063716633868e-06
2.5091311199143e-07
-1.86256447740971e-07
2.27205035065645e-06
2.41143066188172e-07
-2.84030598580193e-07
1.38008518655533e-06
1.8721391267153e-07
-3.76687581690136e-07
1.28352510350738e-06
1.38642148116853e-07
-4.62408681562742e-07
1.35452255150445e-06
1.00209808209203e-07
-5.38453152008852e-07
1.46106137471391e-06
7.16244231644911e-08
-5.97982837294952e-07
1.53147382731478e-06
5.03250095005658e-08
-6.25685148977309e-07
1.51225155916621e-06
3.41282655877217e-08
-6.09256844488026e-07
1.42330749862016e-06
2.09444667410991e-08
-5.62444644499913e-07
1.34152554829181e-06
9.87870609182888e-09
-5.22225622778462e-07
7.56045382643195e-06
2.50819956721308e-07
-1.90295474912249e-07
2.17170013882833e-06
2.37619775827452e-07
-2.80534603508088e-07
1.23010342534343e-06
1.87991105337437e-07
-3.70853322796059e-07
1.13748082886235e-06
1.43410332457227e-07
-4.56009778716815e-07
1.22852197411115e-06
1.08370772696956e-07
-5.33665872626677e-07
1.3741305953563e-06
8.2348970349652e-08
-6.02460111728494e-07
1.52100621515957e-06
6.2711931768081e-08
-6.5461369723184e-07
1.60939200315836e-06
4.7030259608093e-08
-6.73859128626832e-07
1.59400587744591e-06
3.35808835096555e-08
-6.48026750990014e-07
1.50122590502637e-06
2.15409871861244e-08
-5.92309896330851e-07
1.41777260668851e-06
1.05008678806639e-08
-5.45156449114537e-07
7.33893487541153e-06
2.30773422842343e-07
-1.84565779684699e-07
2.0818683956349e-06
2.17451869092122e-07
-2.67686457851628e-07
1.07171561581844e-06
1.76772329241308e-07
-3.58132675041646e-07
9.79185243930289e-07
1.39367454943909e-07
-4.43477286342115e-07
1.08592927203707e-06
1.1001427629023e-07
-5.21518138019403e-07
1.25339256678599e-06
8.85175981213483e-08
-5.92844023999856e-07
1.44060833717116e-06
7.23811212875767e-08
-6.55872218990685e-07
1.60893671429364e-06
5.92031415848003e-08
-7.01829809896176e-07
1.70582590420418e-06
4.72887230098658e-08
-7.13849888422525e-07
1.68971548351971e-06
3.56019850694074e-08
-6.79834354023965e-07
1.59039525612129e-06
2.38416516311544e-08
-6.16356358389075e-07
1.50282168939598e-06
1.20567590530377e-08
-5.63006248691753e-07
5.06061292846418e-06
1.77149824707278e-08
-8.72943088359717e-08
6.04082301207534e-06
3.58683360698632e-08
-9.89836105686264e-08
1.56650185032813e-06
2.16937055626968e-08
-1.52570493701961e-07
6.64020730475297e-06
6.06627860732655e-08
-1.13747773570322e-07
1.97910450009865e-06
4.79917967942561e-08
-1.75976972185189e-07
1.15923383073495e-06
1.84693616786099e-08
-2.12167705913424e-07
7.2922549120883e-06
9.0270858025805e-08
-1.29023496844636e-07
2.25333378796512e-06
8.13157623506385e-08
-2.05930988769398e-07
1.417616880866e-06
4.1413869768087e-08
-2.47174036787946e-07
1.10835936462531e-06
1.60989069612906e-08
-2.68802584365586e-07
7.79276715218603e-06
1.21319756102262e-07
-1.40979435065267e-07
2.48710149634534e-06
1.18244234355232e-07
-2.33426415737803e-07
1.62033939679888e-06
7.03661218886229e-08
-2.92104408555723e-07
1.30092359937783e-06
3.59187884208079e-08
-3.13846697099501e-07
1.12684666924844e-06
1.42975456424936e-08
-3.22306938619594e-07
8.06611161403354e-06
1.51552146609804e-07
-1.49944919916429e-07
2.59996865970044e-06
1.54734174081085e-07
-2.52156557984687e-07
1.75935490667878e-06
1.02568631084747e-07
-3.31300486801326e-07
1.46972972386058e-06
5.96080987784276e-08
-3.70723442572005e-07
1.28320961059372e-06
3.11676359810252e-08
-3.75163605111875e-07
1.1601422050195e-06
1.27367401770146e-08
-3.7180330060764e-07
8.14805318016645e-06
1.80224125909779e-07
-1.57718108175415e-07
2.60661801019289e-06
1.87612270344479e-07
-2.63386043512286e-07
1.77916310812206e-06
1.3372417779737e-07
-3.55297686723623e-07
1.57273273167251e-06
8.51823179341013e-08
-4.19168067564239e-07
1.43179080440215e-06
5.03935574592146e-08
-4.41185981925707e-07
1.29979908520677e-06
2.69336097394401e-08
-4.30356383453221e-07
1.19844483642691e-06
1.14000260839604e-08
-4.16619143770214e-07
8.11561389680809e-06
2.06304297374867e-07
-1.65286361267754e-07
2.54896700285152e-06
2.15028466164473e-07
-2.70943838892715e-07
1.70894236673732e-06
1.60585678632992e-07
-3.66832015054645e-07
1.56398255171251e-06
1.0926513540752e-07
-4.46628824682664e-07
1.51738585173458e-06
7.00783807885892e-08
-4.9596330614863e-07
1.44173293974974e-06
4.25738797029489e-08
-5.0346561927105e-07
1.33518624769662e-06
2.35363166883482e-08
-4.79302412632547e-07
1.24279940323823e-06
1.02780301576618e-08
-4.56315102087785e-07
8.02643072258447e-06
2.27532161575571e-07
-1.72619620541458e-07
2.46085334230728e-06
2.35346082925757e-07
-2.77016055902828e-07
1.5925787210842e-06
1.81074063018604e-07
-3.71936362597944e-07
1.4755447092548e-06
1.29286540851913e-07
-4.57180984480868e-07
1.49989785274352e-06
8.81870287172605e-08
-5.25426028245734e-07
1.52377347430266e-06
5.83182773998186e-08
-5.62891932642871e-07
1.48190654688842e-06
3.68014085458992e-08
-5.57972429225137e-07
1.38432606955707e-06
2.12663416822818e-08
-5.22193912976175e-07
1.29569283735956e-06
9.57890952298428e-09
-4.90796596616891e-07
7.90727028227316e-06
2.4222131611758e-07
-1.81119266852415e-07
2.36113051820354e-06
2.47301054011773e-07
-2.81136143096901e-07
1.45565990200468e-06
1.93813996892816e-07
-3.74049175741891e-07
1.34855888226255e-06
1.43438120150234e-07
-4.58973352205505e-07
1.41006168894533e-06
1.02906007116019e-07
-5.34332476250866e-07
1.50822497101414e-06
7.27586751291883e-08
-5.93320391909797e-07
1.5702749691952e-06
5.03050055236248e-08
-6.21062863036364e-07
1.54250263732333e-06
3.34731743787718e-08
-6.05192795188219e-07
1.4456899186969e-06
2.02470363653975e-08
-5.5923097365007e-07
1.35823454792547e-06
9.42406937979206e-09
-5.20132088239602e-07
7.75602934486977e-06
2.47162919603669e-07
-1.91815250479738e-07
2.2619755110798e-06
2.47988768920278e-07
-2.83377300244843e-07
1.30759930647277e-06
1.97890356060202e-07
-3.72203539832326e-07
1.20462521840894e-06
1.50566003911601e-07
-4.55756147915204e-07
1.28581471516945e-06
1.12726153705024e-07
-5.32218435165948e-07
1.42300519195039e-06
8.44368244485767e-08
-6.00141156080826e-07
1.56205588438753e-06
6.30889339777308e-08
-6.5179721176678e-07
1.64242394404469e-06
4.63624517833714e-08
-6.70952381211546e-07
1.61877284822022e-06
3.24643426463109e-08
-6.45544562477104e-07
1.51868014436191e-06
2.04787260425088e-08
-5.9049925339078e-07
1.43008852905992e-06
9.85954802808554e-09
-5.44401294028309e-07
7.55023343835547e-06
2.3569381718728e-07
-1.96127203634133e-07
2.17447028820688e-06
2.34170963181208e-07
-2.7942934980226e-07
1.15313929861835e-06
1.91116197985597e-07
-3.65080328454159e-07
1.04959707683546e-06
1.49594704621784e-07
-4.47448383377906e-07
1.14550375792393e-06
1.16522447455094e-07
-5.23735596544294e-07
1.30390945468026e-06
9.20200927081993e-08
-5.93854165127306e-07
1.48322727483401e-06
7.3576363372439e-08
-6.55943962369582e-07
1.64383456931267e-06
5.87416251934265e-08
-7.01223690181704e-07
1.73267370577746e-06
4.5828686603855e-08
-7.12955118622564e-07
1.70859953899016e-06
3.37698594448027e-08
-6.79140104567739e-07
1.60252602657543e-06
2.2179866295924e-08
-6.16120030916621e-07
1.51039262492024e-06
1.1031843047004e-08
-5.63759316648212e-07
7.25612627310342e-06
1.99433395717332e-07
-1.9044723763164e-07
2.10579084483095e-06
2.00609666107958e-07
-2.65083958692607e-07
9.93704452783218e-07
1.70851309469395e-07
-3.50692532658884e-07
8.84384454049823e-07
1.38925294391007e-07
-4.33024391208006e-07
9.93378283488305e-07
1.13117545551394e-07
-5.09230278823384e-07
1.16842798159043e-06
9.43298736836447e-08
-5.79837626644825e-07
1.3692245305839e-06
8.05221287450211e-08
-6.45056828511432e-07
1.57183287812605e-06
6.93897265990691e-08
-7.02276875151208e-07
1.7446401900169e-06
5.92699324493653e-08
-7.4214727047793e-07
1.83804243678844e-06
4.89235095265129e-08
-7.47461762085329e-07
1.81078717774059e-06
3.76844634135167e-08
-7.0632473641542e-07
1.69643083468998e-06
2.56259654944816e-08
-6.36315850337907e-07
1.59844242260034e-06
1.30964158090701e-08
-5.78371269465043e-07
5.12960893604318e-06
1.74995249932063e-08
-8.64935529452848e-08
6.12218527003589e-06
3.42580323926487e-08