/*--------------------------------*- C++ -*----------------------------------*\
  =========                 |
  \\      /  F ield         | OpenFOAM: The Open Source CFD Toolbox
   \\    /   O peration     | Website:  https://openfoam.org
    \\  /    A nd           | Version:  12
     \\/     M anipulation  |
\*---------------------------------------------------------------------------*/
/*   Windows 32 and 64 bit porting by blueCAPE: http://www.bluecape.com.pt   *\
|  Based on Windows porting (2.0.x v4) by Symscape: http://www.symscape.com   |
\*---------------------------------------------------------------------------*/
FoamFile
{
    format      ascii;
    class       volVectorField;
    location    "300";
    object      U;
}
// * * * * * * * * * * * * * * * * * * * * * * * * * * * * * * * * * * * * * //

dimensions      [0 1 -1 0 0 0 0];

internalField   nonuniform List<vector> 
10116
(
(7.71999623144474e-06 0.000109295963273451 4.00178220307895e-05)
(9.68729781772519e-06 0.000137822767464316 4.11174567165027e-05)
(2.3419641661524e-05 1.05510089103234e-05 4.14342240969501e-05)
(5.92352065307747e-06 0.000129245366535608 7.98422945094145e-05)
(1.0812491651722e-05 0.000166166852343725 4.19996562807268e-05)
(2.75413144368641e-05 2.90903393849685e-05 4.32993883035658e-05)
(6.033424170607e-06 0.000157101849100661 8.06589805861064e-05)
(4.07689734859438e-05 -1.04150543675458e-05 4.14867012183865e-05)
(1.73035151034576e-05 8.29399479120692e-05 7.99026932457403e-05)
(3.8602022753066e-06 0.000223346009657974 0.000118837209465524)
(1.05852506611398e-05 0.00019558793476687 4.15493469045475e-05)
(2.95894169653321e-05 5.51061420897459e-05 4.484709809167e-05)
(6.12721131613061e-06 0.000183999709063031 8.12034794401491e-05)
(4.45387921102876e-05 4.77377629866323e-06 4.56144220346748e-05)
(1.94617445002545e-05 0.000104775025685872 8.13434378983356e-05)
(4.27180335820832e-06 0.000249221166656109 0.000119397561849316)
(5.89098208159392e-05 -2.86872210382711e-05 4.26707999989388e-05)
(3.03404171888878e-05 6.97544647484077e-05 8.02589082474194e-05)
(1.22808279564716e-05 0.000204352624483148 0.000119213158051823)
(3.04746543622646e-06 0.000310454768713349 0.000155050694254298)
(1.01814629249429e-05 0.00022526862850101 4.04544703159138e-05)
(2.9405032102419e-05 8.25585705718621e-05 4.42493806141151e-05)
(6.42938626770572e-06 0.000210795952000807 8.06103665521135e-05)
(4.67099044272405e-05 3.0390393509173e-05 4.77305189959579e-05)
(2.04415316297996e-05 0.000129023547762166 8.22287618336768e-05)
(4.51543454728178e-06 0.000274003937580114 0.000119341469509681)
(6.23652998806453e-05 -1.44454322044711e-05 4.72159341557974e-05)
(3.28963532301037e-05 8.90261654419036e-05 8.21966185822973e-05)
(1.35817889447555e-05 0.00022701720246878 0.000119980249632384)
(3.30554215461488e-06 0.000333473187198426 0.000155312833780586)
(7.73379198026798e-05 -5.36685192473885e-05 4.30407144632685e-05)
(4.36699061094483e-05 5.23426249476099e-05 8.03834213011968e-05)
(2.2101992061161e-05 0.000193197535976499 0.000119647711991245)
(9.51660123782748e-06 0.000297404549647035 0.000154933149851319)
(2.54492058264005e-06 0.000390162867219131 0.00018708486067354)
(9.88085199821526e-06 0.00025387673803478 3.92830869556308e-05)
(2.87907063108308e-05 0.000110185846403206 4.33494539632066e-05)
(6.48496006724767e-06 0.000237121748300583 7.91807605959155e-05)
(4.70214461755561e-05 5.76391439212442e-05 4.67730894204327e-05)
(2.06578484430563e-05 0.000154574922870603 8.14996920619441e-05)
(4.62866847143632e-06 0.000298345937318652 0.000118465162097768)
(6.48742338567377e-05 1.10746305397147e-05 4.9577584738891e-05)
(3.44335479545337e-05 0.000112333086042218 8.3259665355873e-05)
(1.42790016087472e-05 0.000250378977970658 0.000119865738951786)
(3.46067525337245e-06 0.000355829339129681 0.000154925810760088)
(8.09132832593548e-05 -3.9698694899791e-05 4.79588248567892e-05)
(4.64178944381379e-05 7.06028377030342e-05 8.2647388596167e-05)
(2.38743583624638e-05 0.000214259126018142 0.000120702635056449)
(1.03687564717768e-05 0.000318504275424292 0.000155393944210273)
(2.72050924346465e-06 0.000410485234746045 0.000187341071779979)
(9.52694609276628e-05 -8.54516949208417e-05 4.26447100957223e-05)
(5.68331825159077e-05 2.65101995154603e-05 7.98425602147947e-05)
(3.23783262758152e-05 0.000175946057986141 0.000119285878163996)
(1.71926569735786e-05 0.000286359176201452 0.000154875250347222)
(7.83049595041957e-06 0.000379456782557188 0.000186201913833397)
(2.23764486723327e-06 0.000464977466978861 0.00021513535063456)
(9.67146864438338e-06 0.000281425673449481 3.81806882757583e-05)
(2.83151722210157e-05 0.00013642182853857 4.23712620597375e-05)
(6.42463610240895e-06 0.000262674902462254 7.73314019931875e-05)
(4.68667496169534e-05 8.51529430218701e-05 4.55592875364402e-05)
(2.06734492600216e-05 0.000179785876670271 8.01122367564457e-05)
(4.69243608678417e-06 0.000322138572598657 0.000116878854136802)
(6.58442961014902e-05 3.84232490871433e-05 4.8615469292628e-05)
(3.5088307106551e-05 0.000137746677437405 8.24558097484335e-05)
(1.45951526479631e-05 0.000274182008689584 0.000119006951999517)
(3.55425893179086e-06 0.000377810141564668 0.000153853634092771)
(8.38510426560405e-05 -1.40918278482709e-05 5.06495293364262e-05)
(4.84427007845662e-05 9.34454789928018e-05 8.39535259280408e-05)
(2.4984612204749e-05 0.000236975732386643 0.000120596570902944)
(1.08581176434882e-05 0.000339898214438486 0.00015507805602246)
(2.82553302027794e-06 0.000430475233709722 0.000186877293686305)
(9.93835122051625e-05 -7.13877565959338e-05 4.81753319728621e-05)
(5.99568956564983e-05 4.43667257830068e-05 8.2529059172305e-05)
(3.45076466588456e-05 0.000196333783569646 0.000120661989123664)
(1.847896095249e-05 0.000306433192942444 0.000155597952540099)
(8.44084164671727e-06 0.000398464223544073 0.00018670997378617)
(2.35467389933738e-06 0.000482808807230039 0.000215572391312741)
(0.000111958072055084 -0.000124129274437055 4.19645984715358e-05)
(6.91778057535591e-05 -5.13097331796373e-06 7.87732766499584e-05)
(4.24796482739631e-05 0.000151084988615386 0.000118013917867387)
(2.53727500399225e-05 0.000269382524592302 0.000153765517616025)
(1.41134971188563e-05 0.000368773636912232 0.000185476050690103)
(6.82894735985549e-06 0.000454885161775558 0.000213430170804467)
(2.0468833956548e-06 0.000536647823238006 0.000239551265281443)
(9.52189290815099e-06 0.000307823642296202 3.7156723267974e-05)
(2.79560667612894e-05 0.000161383413206194 4.14707479530492e-05)
(6.36729336906739e-06 0.000287553828932504 7.54033659085326e-05)
(4.66277782444839e-05 0.000111029294350646 4.42858018004196e-05)
(2.06238727101442e-05 0.000204067446999473 7.83754139188983e-05)
(4.73573364426723e-06 0.000345400065528075 0.000114805079605509)
(6.61959077844484e-05 6.62646174320312e-05 4.73704964492957e-05)
(3.54248492108645e-05 0.000162890719823279 8.09864890102327e-05)
(1.48110243835327e-05 0.000297539250082268 0.000117530021041985)
(3.62025808399647e-06 0.00039938370966611 0.000152149299980494)
(8.54749398236493e-05 1.33576658471699e-05 4.97330216823122e-05)
(4.96415604791159e-05 0.000118891008000426 8.31783971514756e-05)
(2.56474475441075e-05 0.000260713024331656 0.000119675192211071)
(1.11465266929988e-05 0.000361491796165175 0.000154152112335605)
(2.89487282595431e-06 0.000450253921891949 0.000185731295688253)
(0.000102913921053487 -4.54285036285308e-05 5.13320805075879e-05)
(6.25092136885102e-05 6.70079791512232e-05 8.41739003740457e-05)
(3.61199762931283e-05 0.000218747862260878 0.000120702047287033)
(1.93219506688032e-05 0.000327380544605545 0.0001553767321963)
(8.7947953490506e-06 0.000417727221474334 0.000186430175665443)
(2.41606644908759e-06 0.000500531317216024 0.000215179199448185)
(0.000116942483286207 -0.000110011045876226 4.77630452716812e-05)
(7.29440327342439e-05 1.26659071860895e-05 8.19550510402616e-05)
(4.5053178941924e-05 0.000171282133339121 0.000119805911994794)
(2.70716212522852e-05 0.000289032217010985 0.00015483555097394)
(1.50833626876145e-05 0.000387073329262802 0.000186245977925852)
(7.25640651817375e-06 0.000471739860781943 0.000214142805203327)
(2.12258393435409e-06 0.00055213888444223 0.000240227310458759)
(0.000127014165159456 -0.000169665676399653 4.16190923910495e-05)
(8.02653054310307e-05 -4.16379648286471e-05 7.74798480948329e-05)
(5.16873475216282e-05 0.000120543942349333 0.000116051091133196)
(3.34071240823116e-05 0.000245190620923782 0.00015159000468867)
(2.08719206745074e-05 0.000352061129374747 0.000183657215058761)
(1.21881208050698e-05 0.000444036071751363 0.000211998914350039)
(6.24712454854737e-06 0.000526189441234982 0.000237164360368823)
(1.95273810903255e-06 0.000605851819555461 0.000260753922173273)
(9.41789713914661e-06 0.000332987380518088 3.6193835070494e-05)
(2.77183556158077e-05 0.000185193080664636 4.05294298624632e-05)
(6.31033238080915e-06 0.000311761371841419 7.35531044169342e-05)
(4.6364946161764e-05 0.000135437190254742 4.32272467262255e-05)
(2.05461231846697e-05 0.000227598109291891 7.6567668786082e-05)
(4.76291319039451e-06 0.000368254164260935 0.000112509655727632)
(6.62798778690812e-05 9.24318370786566e-05 4.59857631134504e-05)
(3.56080473856851e-05 0.000186966566628416 7.91361058918458e-05)
(1.50170185623405e-05 0.000320306419773893 0.000115617581807503)
(3.66669537553883e-06 0.000420626355698145 0.000149955579173703)
(8.63822113059755e-05 4.15377564523566e-05 4.85208739646974e-05)
(5.04120285613512e-05 0.000144209271062184 8.16489311462253e-05)
(2.612864973355e-05 0.000284054264574784 0.000118024576714448)
(1.13527404035688e-05 0.000382789552430946 0.000152655342785935)
(2.94353262724214e-06 0.000469813765737494 0.000183977477825411)
(0.000105246695568103 -1.77768205291709e-05 5.04948861056661e-05)
(6.43278503077117e-05 9.25257776894305e-05 8.35047871822625e-05)
(3.72919800844073e-05 0.000242523059502834 0.000119683177195119)
(1.98988831373763e-05 0.000348908277255728 0.000154554334795486)
(9.02002941864732e-06 0.000437192250168072 0.00018550708498413)
(2.45350982873566e-06 0.000518221809686661 0.000214065942886345)
(0.000121359198579507 -8.35153770190645e-05 5.16459966173715e-05)
(7.61359053785016e-05 3.5337374633016e-05 8.4032722846572e-05)
(4.71957685980048e-05 0.00019366001110485 0.000120079791266879)
(2.83645798345394e-05 0.000309809169779026 0.000154828599701507)
(1.57231298836765e-05 0.00040601323437802 0.000186141892142144)
(7.48295360120891e-06 0.000488914447488778 0.000213994157342768)
(2.15261341625828e-06 0.000567690144794287 0.000239979962042565)
(0.000133168398339859 -0.000155307993687779 4.75556939264774e-05)
(8.48880460347075e-05 -2.37421807329326e-05 8.11367044515374e-05)
(5.48835312029333e-05 0.000140843152733931 0.000118335607149652)
(3.5549379864689e-05 0.000264829868737887 0.000153087578730674)
(2.22046298266665e-05 0.000370110787626425 0.000184791090685543)
(1.28897924427637e-05 0.000460385466176485 0.000212978839744048)
(6.52713364376975e-06 0.000540941962732215 0.000238123430827251)
(1.98600821914969e-06 0.000619112765288507 0.000261658792807374)
(0.000140066958761573 -0.000222150672003254 4.1225087878547e-05)
(8.97189871573763e-05 -8.2705295712671e-05 7.62225940999894e-05)
(5.96275985777115e-05 8.51242413950775e-05 0.000113763849713254)
(4.06479178174676e-05 0.000215318566775339 0.000148682784793709)
(2.7482775597675e-05 0.000328322806891319 0.000180714521589393)
(1.796387029885e-05 0.000427227658351902 0.000209537617639536)
(1.1040413513087e-05 0.000514718251648135 0.000235157329330547)
(5.96588043957119e-06 0.00059481982779388 0.000257891763667408)
(1.93846223777227e-06 0.000672980202838091 0.000279206837940722)
(9.34767265258245e-06 0.000357064250608781 3.53041332610764e-05)
(2.75725144027854e-05 0.00020784896057781 3.95870901159919e-05)
(6.26613218252784e-06 0.000335255311837825 7.18416091347147e-05)
(4.61325497522156e-05 0.000158663321635095 4.22833923848683e-05)
(2.04801293073817e-05 0.000250470000576969 7.47911931937172e-05)
(4.78363968027082e-06 0.000390728444513471 0.000110195513344121)
(6.62568139968961e-05 0.000117083113008152 4.48072634521508e-05)
(3.57136458530261e-05 0.000210201898029627 7.73268242746224e-05)
(1.51473898094347e-05 0.000342631870597763 0.000113505938513681)
(3.69642725759048e-06 0.000441639390775891 0.000147489401791885)
(8.6905567574437e-05 6.80713149053069e-05 4.70956424638357e-05)
(5.09061051948521e-05 0.00016842008997244 7.98085069519901e-05)
(2.65174280916975e-05 0.000306771107214901 0.000116136700306777)
(1.15101375066934e-05 0.000403746647618615 0.00015068774674776)
(2.9747823748099e-06 0.000489218470120117 0.00018175443230802)
(0.000106799648025315 1.07749246665124e-05 4.93647677907531e-05)
(6.56096196212661e-05 0.000118058321983103 8.2011508391401e-05)
(3.82208570066602e-05 0.000266010137841876 0.000118059760115921)
(2.03200193162861e-05 0.000370214524215632 0.000153195016569668)
(9.18179027723082e-06 0.000456542315090315 0.000183998073444444)
(2.47642937776245e-06 0.000535872668640875 0.00021234737848607)
(0.000124554349956457 -5.55002422249564e-05 5.11474867220273e-05)
(7.861483507549e-05 6.10138972955868e-05 8.3519567297956e-05)
(4.89731374187488e-05 0.000217559153599492 0.000119085414792645)
(2.93155712888894e-05 0.000331413343240586 0.00015417888627236)
(1.6161310608163e-05 0.000425431626118602 0.00018539978936501)
(7.61406149411134e-06 0.000506372259749093 0.000213141987156575)
(2.16182387978309e-06 0.000583364557673968 0.000238973326627271)
(0.000138632665965636 -0.000128412835324793 5.16460448068441e-05)
(8.88448704758563e-05 -8.94166943443426e-07 8.37881729044042e-05)
(5.76463935539315e-05 0.000163379059281481 0.000118905573880832)
(3.73040788902207e-05 0.000285664250502221 0.000153393307875379)
(2.32047404895556e-05 0.000388973440888656 0.00018494992960541)
(1.33314141344426e-05 0.00047734157140113 0.00021305695475481)
(6.64017417812966e-06 0.000556088506954085 0.000238152391206813)
(1.97919975664387e-06 0.000632570015576666 0.00026159215045916)
(0.000147769152726754 -0.000207509538949401 4.77369884303578e-05)
(9.54169979292352e-05 -6.46618969663107e-05 8.03660136593908e-05)
(6.35678274057889e-05 0.000105681408993539 0.000116577690720427)
(4.33400359968057e-05 0.000235145571404626 0.000150691469727437)
(2.91979331787758e-05 0.000346451985432691 0.000182298496954546)
(1.89442385386319e-05 0.00044345476498788 0.000210886218821158)
(1.14972056404585e-05 0.000529111638711204 0.000236383473842468)
(6.10641630369769e-06 0.000607506085542821 0.000259086407376374)
(1.92816436956753e-06 0.000684073680632569 0.000280310288869195)
(0.000150963226263298 -0.000282288264808074 4.1153443078661e-05)
(9.72486313397709e-05 -0.000128276023208294 7.50858204246416e-05)
(6.60610340507237e-05 4.50977261588893e-05 0.000111354924907225)
(4.67109874210194e-05 0.000180584732341231 0.000145373161611089)
(3.3390697938328e-05 0.000298898380297736 0.000177029449974937)
(2.35993687677766e-05 0.000403655309897602 0.000205977660052224)
(1.61773577013e-05 0.000497535441934643 0.000232203223534841)
(1.04591794786414e-05 0.000582660137405192 0.000255489505761024)
(5.92351369938592e-06 0.000661502574768486 0.000276057451191479)
(1.99283985735935e-06 0.000738363072831814 0.000295307224164086)
(9.30134446727356e-06 0.000380204501504691 3.45562540150815e-05)
(2.74648899904352e-05 0.00022949877984456 3.8791808076964e-05)
(6.23396329442479e-06 0.000358039571538657 7.03069072717423e-05)
(4.59693140618299e-05 0.000180803365544804 4.14040189972131e-05)
(2.04303049906267e-05 0.000272666048579523 7.31321212900256e-05)
(4.79778596765624e-06 0.000412813811095587 0.000108007083056519)
(6.62163262609107e-05 0.000140510032293867 4.38477130893678e-05)
(3.57696745028927e-05 0.000232750169095454 7.55578954704472e-05)
(1.52435773531433e-05 0.000364564098666246 0.000111334824359739)
(3.71237667945953e-06 0.000462466623705898 0.000144954154319396)
(8.72168061902159e-05 9.30666607077013e-05 4.5808013375094e-05)
(5.12565482411396e-05 0.000191731137268362 7.79787699600362e-05)
(2.68226436626595e-05 0.000329021550301384 0.000114254965207802)
(1.16220841918309e-05 0.000424457490468122 0.000148437157553504)
(2.99178544980692e-06 0.000508547898216732 0.000179253417682131)
(0.000107837909997056 3.77124450607778e-05 4.79498259024015e-05)
(6.64951179101404e-05 0.000142504589611092 8.02615790776021e-05)
(3.88035905331593e-05 0.000288873813930062 0.000116334580603702)
(2.06240177927001e-05 0.000391168424997774 0.000151408433988445)
(9.29255469838285e-06 0.000475748946641061 0.000182017536168888)
(2.48612928303091e-06 0.000553528634385596 0.000210173304715077)
(0.000126875499273368 -2.65538665581655e-05 5.00808823707354e-05)
(8.0479628225346e-05 8.67931347244059e-05 8.2184304722763e-05)
(5.0324477328225e-05 0.000241274515640206 0.000117647847121621)
(3.00232872593595e-05 0.000352851487166202 0.000153017851998889)
(1.64780100894635e-05 0.000444795713104717 0.000184077032098154)
(7.69858622655784e-06 0.000523876567914472 0.00021168544983053)
(2.15777421493842e-06 0.000599164299468279 0.000237363460355793)
(0.000142875921721399 -0.000100155781641061 5.149070951476e-05)
(9.20508483182932e-05 2.50233399406704e-05 8.36644053411466e-05)
(5.99860030690569e-05 0.000187532389609458 0.00011815092201645)
(3.86794261800688e-05 0.000307425615138886 0.000152995992806519)
(2.39311988358016e-05 0.000408490898358192 0.000184447828208217)
(1.36104540580232e-05 0.000494790919919505 0.000212432974394573)
(6.67367614910586e-06 0.000571605947478354 0.000237426256194315)
(1.95667657725258e-06 0.000646282991126297 0.000260742716719533)
(0.000154541065974402 -0.000180065182700466 5.23666242778051e-05)
(0.000100285349436245 -4.16177528047021e-05 8.35345873449856e-05)
(6.69530178964151e-05 0.000128519477598464 0.000117744989447392)
(4.55853304048859e-05 0.000256226708726481 0.000151409767151158)
(3.05704895904093e-05 0.000365448241174237 0.000182824916125231)
(1.96491917199118e-05 0.000460424256349095 0.000211270883473898)
(1.1731007747946e-05 0.000544128285053393 0.000236666469083278)
(6.10137311561461e-06 0.000620668785783913 0.000259317283423323)
(1.88303437603297e-06 0.000695483471327114 0.00028043264542864)
(0.000160502933716068 -0.000267361194687417 4.80609449154614e-05)
(0.000104226962034952 -0.000110138799138916 7.97960312789688e-05)
(7.08664977098777e-05 6.59440586812323e-05 0.000114719365505127)
(5.00405716140697e-05 0.000200740322779313 0.000147930836065017)
(3.55537955832475e-05 0.000317290059310099 0.000179131797035208)
(2.4883635707919e-05 0.00042003742823045 0.000207794602560863)
(1.68128456592003e-05 0.000511897418855926 0.00023379573522435)
(1.06783685181926e-05 0.000595093550917577 0.000256949499471754)
(5.9277044188953e-06 0.000672135947662894 0.000277450331676148)
(1.93888119292143e-06 0.00074730876759493 0.000296574144591281)
(0.000159340209494386 -0.000351823409613626 4.1725815123027e-05)
(0.000102576844544371 -0.000178438606782565 7.42835131419477e-05)
(7.07980220163608e-05 5.37339780898728e-07 0.00010890627370866)
(5.14277828643073e-05 0.000141301593577497 0.000141840583607021)
(3.82486576468168e-05 0.000264620766553997 0.00017289034913338)
(2.86061334998142e-05 0.000374505079855361 0.000201690712270892)
(2.11766916281096e-05 0.000473907520210087 0.000228189614267153)
(1.52432519786873e-05 0.00056504216301807 0.000252193864519626)
(1.03368195113144e-05 0.000648784926587129 0.000273403330304446)
(6.09287060683661e-06 0.000726596264572502 0.00029200006413509)
(2.1088720859146e-06 0.000802220259372217 0.000309347009645377)
(9.27955865130494e-06 0.00040245832626884 3.39767892422233e-05)
(2.73977519094909e-05 0.000250255090393396 3.8149454648824e-05)
(6.21393156665185e-06 0.00038017106847559 6.90058282417273e-05)
(4.58596517503255e-05 0.000201935177790867 4.06206910953887e-05)
(2.03727883560431e-05 0.000294195049413821 7.16740685144881e-05)
(4.79868246274053e-06 0.000434512032980127 0.000106040614952267)
(6.61765997118662e-05 0.000162784544832919 4.30091156374094e-05)
(3.5790831962618e-05 0.000254626290548419 7.39147733089916e-05)
(1.53101119891779e-05 0.000386112533585158 0.000109266246323683)
(3.71658541106425e-06 0.000483128247730233 0.000142515917779779)
(8.74001786748389e-05 0.000116808814586187 4.47698110729345e-05)
(5.14933178377404e-05 0.000214311975768957 7.62311097280044e-05)
(2.70185862793529e-05 0.000350848022175634 0.000112212827691232)
(1.16966634553271e-05 0.000444977361087116 0.000146092554588184)
(2.99628059969435e-06 0.00052785508276006 0.000176666776050944)
(0.000108552202957669 6.30686601583329e-05 4.65676557907885e-05)
(6.71463329204877e-05 0.000166012640062522 7.84636014430321e-05)
(3.9220514210363e-05 0.000311233524422943 0.000114536599400222)
(2.0834024381541e-05 0.000411857764782494 0.000149327803097096)
(9.35881034151696e-06 0.000494877291271356 0.000179744722736747)
(2.48341611071512e-06 0.000571254509619215 0.000207727107109704)
(0.000128526316799248 7.61877101115318e-07 4.86303902347895e-05)
(8.18498672380418e-05 0.000111502781288473 8.05555526108879e-05)
(5.11714736291607e-05 0.000264387672077007 0.000116234837252746)
(3.05221991287318e-05 0.000373940156401745 0.000151412281071246)
(1.66905369093229e-05 0.000464013395801237 0.000182281339130009)
(7.74332867565842e-06 0.000541400220202961 0.000209767035184673)
(2.13831641336238e-06 0.00061511969373806 0.000235313493561932)
(0.000146118115773424 -7.06760024326185e-05 5.07552726283342e-05)
(9.45881216716401e-05 5.10779824411764e-05 8.25419330793984e-05)
(6.17221701391206e-05 0.000211553846831787 0.000117095031804546)
(3.97279768426033e-05 0.000329093140165417 0.000152110061355952)
(2.44472053490133e-05 0.000428006104317661 0.000183348403248732)
(1.37897640339327e-05 0.000512337578005903 0.000211197875499486)
(6.66648419535305e-06 0.000587314172544166 0.000236086479746673)
(1.92399772178426e-06 0.000660261061140189 0.000259292667258962)
(0.000159819164539086 -0.000151643366175299 5.1907879170692e-05)
(0.000104315603563054 -1.54803560403169e-05 8.37789084181702e-05)
(6.98306046854939e-05 0.000153013793204228 0.000117526236424247)
(4.74267037654544e-05 0.000278289704673436 0.000151361777542322)
(3.16246110021319e-05 0.000385162137105661 0.000182625277817133)
(2.01328920692184e-05 0.00047801061298553 0.000210918206734025)
(1.18341720293191e-05 0.000559681807270069 0.000236188390546216)
(6.03525830911476e-06 0.000634293774717349 0.000258762158099984)
(1.82650535983846e-06 0.000707271645695573 0.00027977333241083)
(0.000168761216400193 -0.000239402206712565 5.33064469791177e-05)
(0.000110171208810981 -8.69539466531897e-05 8.35336642214395e-05)
(7.4993093898055e-05 8.91023667349982e-05 0.00011639840505747)
(5.28524961320054e-05 0.000222166892945315 0.000149140752325703)
(3.73143754219946e-05 0.000336588696178437 0.000180102972381455)
(2.58560898698139e-05 0.000437209495699359 0.000208588289011431)
(1.72013261723219e-05 0.000526999160383405 0.000234407930824202)
(1.07032524680181e-05 0.000608199393520145 0.0002574460142915)
(5.80417190793669e-06 0.000683333519577232 0.000277878572950628)
(1.85439615010078e-06 0.000756687452258342 0.00029688162221482)
(0.000171118521721401 -0.000336677683564364 4.89430949001185e-05)
(0.000111043076974413 -0.00016032086028205 7.95652155000222e-05)
(7.65864201467994e-05 2.16373404173487e-05 0.000112865749158384)
(5.54543205122895e-05 0.000161829594362378 0.000144975872040067)
(4.09241857530614e-05 0.000283386761474594 0.000175564567274531)
(3.02293582043026e-05 0.000391204757536107 0.000204038455629886)
(2.20138803605574e-05 0.000488479629980855 0.000230256524474611)
(1.55362708420262e-05 0.000577517373547666 0.000254017475911929)
(1.03222773339789e-05 0.000659245225256116 0.000275061891432474)
(5.96141805653021e-06 0.000735166553273839 0.000293552355249013)
(2.01079603174273e-06 0.000809008909763355 0.000310750420851785)
(0.00016428481392522 -0.000432851373394176 4.31686670116851e-05)
(0.000105394358474017 -0.000233328054052228 7.35862949566295e-05)
(7.36409196070927e-05 -4.85464443837838e-05 0.000106486238835854)
(5.46624338879824e-05 9.7573940018201e-05 0.000138157065502068)
(4.18989701531151e-05 0.000225838340219822 0.000168448111644269)
(3.26661384029987e-05 0.000340535494936152 0.000196918884863871)
(2.56020277611787e-05 0.000444864540526083 0.000223465448719979)
(1.98969690080635e-05 0.00054126841658733 0.000247879407707587)
(1.5015042682212e-05 0.000630792148279026 0.000269894809785681)
(1.06054247018955e-05 0.000713469285189598 0.000289198116592034)
(6.44615958964012e-06 0.000790255472316069 0.000305966401555671)
(2.27546575679128e-06 0.000864625437547524 0.000321529754909764)
(9.28094483223952e-06 0.000423968889501961 3.35861960560406e-05)
(2.73507195092757e-05 0.000270180384202273 3.76510341834054e-05)
(6.21007026186286e-06 0.000401740207631181 6.79662763096624e-05)
(4.57983677615428e-05 0.000222138796074222 3.99126014814383e-05)
(2.03112158797438e-05 0.000315117964345743 7.0455148660962e-05)
(4.79144080571907e-06 0.000455863241346205 0.00010436113331166)
(6.61026704283858e-05 0.000183982379147616 4.22090267556695e-05)
(3.57857380353079e-05 0.000275845673751235 7.24812320065087e-05)
(1.53326839784721e-05 0.000407292819230388 0.000107412985577068)
(3.70938548591481e-06 0.000503650217871422 0.000140302693188609)
(8.75011780607414e-05 0.000139353870077679 4.39379245826588e-05)
(5.16284511972474e-05 0.000236211275525785 7.46189779944283e-05)
(2.71439925495435e-05 0.000372280368070074 0.000110255089102413)
(1.17315730693516e-05 0.000465339125640502 0.000143824855045357)
(2.98698756422239e-06 0.000547180122089135 0.000174164544918695)
(0.000109049579110327 8.71514239991264e-05 4.53922351814331e-05)
(6.76265176464873e-05 0.000188740622170071 7.67396770222459e-05)
(3.95029448537549e-05 0.00033315294373984 0.000112631759167796)
(2.09618519624566e-05 0.000432340206866032 0.000147125613036681)
(9.38791359334008e-06 0.000513980881616198 0.000177364358796402)
(2.47085208487007e-06 0.000589107392344278 0.000205198133457736)
(0.000129712984034832 2.64876605192607e-05 4.72138564705664e-05)
(8.28747203596974e-05 0.0001352725897185 7.87957307832212e-05)
(5.17802219942403e-05 0.000286956692478313 0.000114575250614014)
(3.08568543523647e-05 0.000394750110933387 0.000149498333744708)
(1.68101121207966e-05 0.000483146148310906 0.000180183584315477)
(7.74829906769956e-06 0.000558994614762684 0.000207562319865506)
(2.10730229469821e-06 0.000631280334694203 0.000233004328191839)
(0.000148490988487595 -4.2961412863361e-05 4.93353758367074e-05)
(9.65475656211245e-05 7.60405705962671e-05 8.09399278427589e-05)
(6.2941400365659e-05 0.000234950507699839 0.000115914393232331)
(4.0487011314549e-05 0.000350417789175806 0.000150739927276151)
(2.4789954092485e-05 0.000447369387254976 0.000181754172178764)
(1.38792737765067e-05 0.000529900738933884 0.000209480426541129)
(6.62815394783044e-06 0.000603189870227405 0.000234293917698568)
(1.8804106249794e-06 0.000674535350024386 0.000257422084839551)
(0.000164003601027872 -0.000122083931720023 5.09665764540582e-05)
(0.000107601656237866 1.08487079085278e-05 8.29396082352056e-05)
(7.21146029327483e-05 0.000177339023452928 0.000116607476236517)
(4.88686608943199e-05 0.000300263472260693 0.000150777702633351)
(3.23894786355057e-05 0.000404908429324501 0.000181810531548476)
(2.04339072804351e-05 0.00049572740489193 0.00020993038738815)
(1.18540730496818e-05 0.000575471145268685 0.000235086137633365)
(5.93509252362762e-06 0.000648234570030649 0.000257586396477947)
(1.76368449253544e-06 0.000719450075180579 0.000278522221468988)
(0.000175236861782215 -0.000210840098500417 5.31442440196521e-05)
(0.000115127262684724 -6.06643315553752e-05 8.40164913775768e-05)
(7.84946802352255e-05 0.000113953364151611 0.000116775876625663)
(5.5190733007064e-05 0.000244591120587876 0.000149482590112626)
(3.8715670871339e-05 0.00035662506340907 0.000180284472865546)
(2.65609122843751e-05 0.000455036620816549 0.000208577764576219)
(1.74202971108395e-05 0.000542735896726663 0.000234227354093911)
(1.06230162488327e-05 0.000621904408946338 0.000257148390094132)
(5.63269234342405e-06 0.000695090320620821 0.000277520725991362)
(1.76245218424262e-06 0.000766562259714743 0.000296427931922535)
(0.000181106619478739 -0.000308142260059361 5.47050146840309e-05)
(0.000118223669038222 -0.000137100977740287 8.38710310030483e-05)
(8.15620522953384e-05 4.50752014776337e-05 0.00011505357189724)
(5.88844950487436e-05 0.00018364114134355 0.000146695667044428)
(4.31268535927618e-05 0.000303074367670928 0.000177035019641476)
(3.14835611015956e-05 0.000408718958888714 0.000205299360380487)
(2.25709210591276e-05 0.000503842965627553 0.000231295889003329)
(1.56124267526769e-05 0.000590763541403637 0.00025485197445975)
(1.01361626706551e-05 0.000670441750999671 0.000275762002165417)
(5.7175235715846e-06 0.000744395119380183 0.000294166637008344)
(1.88699268623073e-06 0.000816352312630992 0.000311237300202047)
(0.000178855069460437 -0.000417760522811733 5.07072150855795e-05)
(0.000115525770930581 -0.000215419614000366 7.96971420647921e-05)
(8.05308097927715e-05 -2.72760286057248e-05 0.000111064754259085)
(5.94509476364177e-05 0.000118465087492931 0.000141897164601046)
(4.51217294997846e-05 0.00024503100974679 0.000171726716950598)
(3.46664714936264e-05 0.000357665569798212 0.00019985622757576)
(2.66644066241425e-05 0.000459816919576214 0.000226082424254435)
(2.02762106050292e-05 0.000554014500456627 0.00025018118929767)
(1.49598330282763e-05 0.000641356651353228 0.000271916981778386)
(1.03509736497433e-05 0.000721929665705986 0.000291017788326363)
(6.17600525283942e-06 0.000796736786374798 0.00030765075422129)
(2.13186644443366e-06 0.000869236431966203 0.000323056086082887)
(0.000164582070820898 -0.000528594433273336 4.56363677266925e-05)
(0.000105140908137048 -0.00029306325215718 7.30540609788926e-05)
(7.43750324269436e-05 -0.000102191330507745 0.000104052354499798)
(5.62861715857147e-05 4.9460672845265e-05 0.000134353598941623)
(4.42367699673718e-05 0.000182692332968264 0.000163763670605866)
(3.56402580578442e-05 0.000302109082856116 0.00019178447515736)
(2.91745160323137e-05 0.000411082841916673 0.00021822763234944)