/*--------------------------------*- C++ -*----------------------------------*\
  =========                 |
  \\      /  F ield         | OpenFOAM: The Open Source CFD Toolbox
   \\    /   O peration     | Website:  https://openfoam.org
    \\  /    A nd           | Version:  12
     \\/     M anipulation  |
\*---------------------------------------------------------------------------*/
/*   Windows 32 and 64 bit porting by blueCAPE: http://www.bluecape.com.pt   *\
|  Based on Windows porting (2.0.x v4) by Symscape: http://www.symscape.com   |
\*---------------------------------------------------------------------------*/
FoamFile
{
    format      ascii;
    class       volScalarField;
    location    "100";
    object      k;
}
// * * * * * * * * * * * * * * * * * * * * * * * * * * * * * * * * * * * * * //

dimensions      [0 2 -2 0 0 0 0];

internalField   nonuniform List<scalar> 
10068
(
0.000472787408872023
0.000472515754724339
0.00134573852334128
0.000474492016852048
0.000472293639383132
0.00134499024353466
0.000474231441400983
0.00197243152213249
0.00134701431745428
0.000476858879006005
0.000472111926417791
0.00134433933519094
0.000474011001551815
0.00197132501672243
0.00134630271904153
0.00047660132791874
0.00247616634805296
0.00197223362250275
0.00134581963209173
0.000474606986956483
0.000471957375399108
0.00134379783919898
0.000473826661097204
0.0019703204918156
0.00134565858888984
0.000476381081099487
0.00247475974882894
0.0019711816718911
0.00134512626498964
0.000474351068999548
0.00290744394313812
0.00247468989336058
0.00196413570349698
0.00133607131312837
0.000466299989150668
0.000471819905522012
0.00134333452257324
0.000473668656382139
0.00196945869124383
0.00134511304758976
0.000476193353791954
0.00247345666359455
0.001970189164668
0.00134448470821231
0.000474128539356694
0.00290578363504076
0.00247335479562653
0.0019631184850984
0.00133538191131118
0.00046604329596661
0.00328572199492969
0.00290407621008413
0.00246098769285286
0.00194479688170932
0.00131425508011902
0.000453662167221499
0.000471691372022531
0.00134291992174209
0.000473528606006665
0.00196871240171486
0.00134464386892498
0.00047603100027746
0.00247232749802429
0.00196932997584457
0.0013439338598151
0.00047393708026137
0.00290422815715595
0.00247207072791899
0.00196213981756842
0.00133473670589285
0.000465818844326823
0.00328384817694865
0.00290250133160755
0.00245970237416018
0.00194379065008374
0.00131356436538564
0.000453404985854266
0.00362026211454935
0.00328006057541085
0.00288523980830345
0.00243307511143197
0.00191194015585974
0.00128166084802053
0.00043864447443925
0.000471561055413854
0.00134253256020549
0.000473397740417026
0.00196804873327583
0.00134422650067019
0.000475887072036411
0.00247134154578926
0.00196858312794899
0.00134345875536619
0.000473770972525711
0.00290286911653201
0.00247094534160152
0.00196128365539921
0.00133418119691113
0.000465625543642229
0.00328208055879591
0.00290097025205604
0.00245844154306404
0.00194281961513543
0.00131291680558973
0.000453179969542503
0.00361821175594332
0.00327828422443415
0.00288372707484851
0.00243180828811852
0.0019109335187114
0.00128096851722537
0.00043838697429864
0.00391666828120536
0.00361272400589838
0.00325633871756683
0.00284961963048923
0.00239023823975282
0.00186629521683139
0.00124114696294841
0.000421861225610948
0.000471414974026136
0.00134213756326028
0.000473263557149485
0.00196742392439396
0.00134383525853143
0.000475752621243751
0.00247045593620978
0.00196791548514453
0.00134303528980463
0.000473623248221081
0.00290167407111755
0.00246995856727199
0.00196053478606949
0.00133370053160216
0.000465457042084538
0.0032805259756678
0.0028996169597497
0.00245732381211591
0.0019419646278496
0.00131235845041101
0.00045298660473522
0.00361626872245065
0.00327654564032501
0.0028822269212691
0.00243056244107361
0.00190996399730191
0.00128031996254595
0.000438163506036644
0.0039144765713961
0.00361078114799298
0.00325463486040601
0.00284813208965548
0.00238897334990043
0.00186528578780115
0.00124045434070604
0.000421603102616157
0.00417904685596997
0.00390798016734203
0.00358502398879593
0.00321387528039438
0.00279769230966759
0.00233349425454752
0.00180973549313236
0.00119417282235577
0.000402976064933553
0.000471231880755085
0.00134169889973041
0.000473116521862305
0.00196679278160508
0.00134343768732861
0.000475614055524805
0.00246962140052186
0.00196728727580678
0.00134263691913219
0.000473484935693112
0.00290059553533317
0.00246907057783815
0.00195986162877971
0.00133327012906197
0.000465306459502337
0.0032791527778726
0.00289842257912586
0.00245633737729536
0.00194121236004832
0.00131187351967353
0.000452817438228587
0.00361455213950165
0.00327499932439625
0.00288088538838971
0.00242945078586447
0.00190910783784303
0.00127976020649861
0.000437969821079681
0.00391239261839507
0.00360887103423894
0.0032529335850504
0.00284665331812249
0.00238773307914035
0.00186431509801978
0.00123980666932349
0.00042137955624762
0.00417674648385593
0.0039059035166629
0.00358316207768717
0.00321220254124009
0.00279620958858083
0.00233222723973343
0.0018087244599969
0.00119348120732113
0.000402719056307919
0.00441053529957741
0.00416974233769158
0.00387750349592394
0.0035370329176131
0.00315397562194267
0.00273098753404374
0.00226414321842684
0.00174323177906856
0.00114063480839966
0.000381512240497695
0.000470989095089957
0.00134115634627477
0.00047293102548104
0.00196609142836074
0.00134299348161097
0.000475463582726724
0.00246877986744538
0.00196665161761893
0.00134223104033037
0.000473344064221468
0.00289957819036611
0.00246823338177482
0.00195922578160113
0.00133286335398658
0.00046516570492607
0.0032779086821481
0.0028973428339332
0.00245544549603224
0.00194053209209261
0.00131143700516629
0.000452665091786453
0.00361302945704635
0.00327362796874653
0.00287969387265456
0.00242846382763914
0.00190835105779485
0.00127927229975522
0.000437798120935411
0.00391054465544585
0.00360716436877377
0.00325140276055215
0.00284532231991547
0.0023866235019641
0.00186345577928937
0.00123924529701353
0.000421184739582371
0.00417455301829968
0.00390385520033734
0.00358129428253982
0.00321052805118608
0.00279474047304425
0.00233098796121602
0.00180775240030464
0.001192835412993
0.000402495667442543
0.00440815592310264
0.00416756236419603
0.00387551412147648
0.00353520707308767
0.00315231070175923
0.00272950430952282
0.00226287602283243
0.00174222332261859
0.00113994768822914
0.0003812574908688
0.00461356527956355
0.00440088062640933
0.00413744548112709
0.00382540717224712
0.00347057305227886
0.00307855671546967
0.00265058097243491
0.00218263260067233
0.00166669684809334
0.00107985993333251
0.000357163366706697
0.000470656868339619
0.0013404438672208
0.000472686415232485
0.00196524727290892
0.00134244720400846
0.000475270474507469
0.0024678564024558
0.00196594779851369
0.00134177626223238
0.000473186097061036
0.00289855318706864
0.00246738856924784
0.00195858011818839
0.00133244710946214
0.000465021441611193
0.0032767324600263
0.00289632320159714
0.00245460138082738
0.00193988586555683
0.0013110227302355
0.000452520887822077
0.0036116459793891
0.00327238369260094
0.00287861196502781
0.00242756636568989
0.0019076628634686
0.00127883055527494
0.000437642662115672
0.00390890035668434
0.00360564472404406
0.00325003648720869
0.00284413324172267
0.00238563410980066
0.0018626933790904
0.00123875339282789
0.000421010285144104
0.00417260255966148
0.00390201842401899
0.00357960581999063
0.00320901156048895
0.00279341502760941
0.00232987777966289
0.00180689076732061
0.00119227307610038
0.000402299286758337
0.00440588167483861
0.00416540650690351
0.00387351161434946
0.00353337025481899
0.00315064951970289
0.00272803884345144
0.0022616380636756
0.00174125428155131
0.00113930655983546
0.000381035873174623
0.00461113298890828
0.00439862514558757
0.00413535713462694
0.00382345751021824
0.00346875761788547
0.00307689314234669
0.00264909937666854
0.00218137025652749
0.00166569678691875
0.00107918124599133
0.000356912573936267
0.00479016568766352
0.00460366564617659
0.00436736201831037
0.00408238152773316
0.00375378871409589
0.00338780668043493
0.0029885998466913
0.00255657179758067
0.00208868525510487
0.00157958790674157
0.00101122350205632
0.000329769321976497
0.000470196239076813
0.00133947467046148
0.000472352568151274
0.00196415997878368
0.00134173125106063
0.000475019187806538
0.00246675616504341
0.00196509971793778
0.00134121755094394
0.000472987492243486
0.00289743471512085
0.00246646175090878
0.00195786432627813
0.00133197913203635
0.000464857532266802
0.00327554863236823
0.00289529587377913
0.00245374670463051
0.00193922647908657
0.00131059674593527
0.000452372254483571
0.00361033508330455
0.00327120638516825
0.00287758635744833
0.00242671228485257
0.0019070050522008
0.00127840844543382
0.000437494256901809
0.0039074014590828
0.00360426157222726
0.00324879151402974
0.00284304763988613
0.0023847297311745
0.00186199709664882
0.00123830588702528
0.000420851767945085
0.00417086124348548
0.00390037743680762
0.00357809282979906
0.00320765023665892
0.00279222604466386
0.002328884807043
0.00180612436701655
0.00119177794148372
0.00040212263875734
0.00440385352267071
0.00416346755353134
0.0038716947059382
0.0035316988771992
0.00314914162281722
0.00272671541173116
0.00226052771659674
0.0017403940947258
0.00113874522627434
0.000380839815511968
0.00460880309611586
0.0043963896153517
0.00413324930378848
0.00382148884565134
0.00346693697873798
0.00307523811882371
0.00264763764199588
0.00218013767061068
0.00166473640132791
0.00107854895265618
0.000356694189619109
0.00478770283500088
0.00460135930325052
0.00436520084627902
0.00408033522047474
0.00375185122824976
0.00338599415008962
0.00298693972609454
0.00255509762431643
0.00208743491723152
0.00157860321899393
0.00101055963410159
0.000329526911819322
0.00494223728370088
0.00478006159079897
0.00456927664719291
0.00431012343662459
0.00400675944601503
0.0036649807757089
0.0032897095572219
0.00288398760654455
0.00244848222120726
0.00198176987527736
0.00148132856258463
0.000934307538781641
0.000299281796300038
0.000469555762303396
0.00133813623463588
0.000471889331644557
0.00196270107180078
0.00134075820273887
0.000474677035366251
0.00246535517622685
0.0019640079079172
0.00134048664607592
0.000472729428540782
0.00289611179244812
0.00246535762219475
0.00195700086486533
0.00133140492346734
0.000464655534416106
0.0032742606489323
0.00289417484609004
0.00245280697652567
0.00193849329742474
0.00131011625837599
0.000452204390692108
0.00360901479079208
0.00327002092758037
0.00287654968659043
0.0024258432859292
0.00190633068277948
0.00127797279142468
0.000437342292762238
0.00390597787371536
0.00360295005847448
0.00324760922380288
0.00284201301153983
0.00238386436290851
0.0018613289907473
0.00123787655683742
0.000420699669141933
0.0041692692135455
0.00389887919963293
0.00357670979024679
0.00320640315155026
0.00279113512726117
0.00232797344304749
0.00180542206319771
0.00119132610025715
0.000401961402867212
0.00440203806674063
0.00416172984277364
0.00387006102774536
0.00353019251602881
0.00314778260718662
0.00272552489354018
0.00225953221699394
0.00173962704198046
0.00113824886800919
0.000380662466836996
0.00460672004005991
0.00439437349068062
0.00413133093080739
0.00381969066470767
0.00346527644036948
0.00307373459091903
0.00264631640935971
0.00217903045645114
0.00166388201506273
0.00107799347199933
0.00035650068734366
0.00478533896666316
0.0045990687779409
0.00436301451857115
0.00407826290777596
0.00374990063890439
0.00338418166420976
0.0029852906697823
0.00255364421759097
0.00208621468034069
0.00157765856085527
0.00100994263503165
0.000329315221582665
0.00493976238000088
0.00477772556289051
0.00456706596962042
0.00430800549029422
0.00400472617613612
0.00366304712020661
0.0032879019101247
0.00288233728035663
0.0024470240451355
0.00198054148678086
0.00148036863741999
0.000933667783206566
0.000299051787734818
0.00507172141568467
0.00493195291574669
0.00474502659616154
0.00451040833007587
0.00423138175777738
0.00391303673859326
0.0035600212983191
0.00317605948419441
0.0027640787354209
0.00232570568608457
0.00186136358628146
0.00137147049973323
0.000848873215740057
0.000265720914743456
0.000468673281419669
0.00133628454367287
0.000471245046612125
0.00196070696026516
0.0013394146322891
0.000474202718319668
0.0024634938724797
0.00196254396155735
0.00133949488722958
0.000472378352888974
0.00289444035506714
0.00246395232733909
0.00195588977855882
0.00133065477909142
0.000464390689063794
0.00327274381623305
0.00289284906462721
0.00245168611033406
0.00193760772939257
0.00130952657462305
0.000451997815042766
0.00360758038764579
0.00326873116948903
0.00287541568304385
0.00242488451292701
0.00190557895473772
0.00127748100490214
0.00043717072150782
0.00390454228267177
0.00360162874769584
0.00324641485720794
0.0028409621262638
0.00238297964775597
0.00186064177113421
0.00123743288502383
0.000420544446697669
0.00416775316341247
0.00389745516314294
0.00357539367753798
0.00320521265943402
0.00279008989466438
0.00232709755746046
0.0018047460970436
0.00119089128215252
0.000401807141135477
0.0044003729756535
0.00416013850178808
0.00386856310265421
0.00352880824261411
0.00314653160814541
0.00272442825816314
0.00225861563045639
0.00173892212267408
0.00113779487816737
0.000380499877852891
0.00460484995624881
0.00439256147247111
0.00412960063902063
0.0038180643822592
0.00346377390368841
0.00307237590187811
0.00264512525819006
0.00217803558591507
0.00166311824868019
0.00107750024428634
0.000356324365519942
0.00478322039308733
0.0045969978481222
0.0043610192263536
0.0040763639686775
0.00374811463502299
0.00338252728756386
0.002983791531092
0.00255232910258454
0.00208511750496531
0.00157681666577511
0.00100939914371143
0.000329126271568553
0.00493738259243573
0.00477540132287512
0.00456482506002603
0.0043058553854911
0.00400267288958772
0.00366110594654695
0.00328609717257458
0.00288069918890565
0.00244558718218107
0.00197934372297781
0.00147944908983506
0.000933074124306617
0.000298850768066794
0.00506924916682545
0.00492960475517992
0.0047427865388129
0.00450824115501873
0.004229276928228
0.00391100752609706
0.00355809334932413
0.00317426346740757
0.00276244760853428
0.00232427476024888
0.00186016888878361
0.00137054737048264
0.000848268911243768
0.00026550841221663
0.00518065927439101
0.00506128049033259
0.00489643963262215
0.00468492525026866
0.00442922422141846
0.00413367466856659
0.00380233762165117
0.00343866588719046
0.00304610530894394
0.00262817517859041
0.00218771808077381
0.00172706178230262
0.00124971608694145
0.000754745985833307
0.000229012742843006
0.000467471769971165
0.00133374130775087
0.000470358411615925
0.00195796844858865
0.0013375563993216
0.00047354508852427
0.00246096620767489
0.0019605432597999
0.00133812753337396
0.000471892393867729
0.00289223396391212
0.00246208579979521
0.00195440188063963
0.00132963871061052
0.000464031742710316
0.00327083753026541
0.00289117442277957
0.00245025955771076
0.00193646919932178
0.0013087575866313
0.000451727363487795
0.00360589618447574
0.00326721272702349
0.00287407270925524
0.00242373910943075
0.00190467113293013
0.00127687839078488
0.000436960613218784
0.00390298281527572
0.00360019312531401
0.00324511216216152
0.00283980833150174
0.00238200045747352
0.00185987450032357
0.00123693239903112
0.00042036952516256
0.00416622137280761
0.00389601862534693
0.00357406349774334
0.00320400415557636
0.0027890230340054
0.00232619867154203
0.0018040494732467
0.00119044137893716
0.000401648901570031
0.00439878273112084
0.00415862192202871
0.00386713428752181
0.00352748416597207
0.00314533112647514
0.00272337292550148
0.00225773167268436
0.00173824177098109
0.00113735705949598
0.000380343615309105
0.00460312982889002
0.00439089702739633
0.00412800935275122
0.00381656538469619
0.00346238654629911
0.00307112041894231
0.00264402467801602
0.00217711721293462
0.00166241465496826
0.00107704772631727
0.000356162292543057
0.00478131319470741
0.00459513131876847
0.00435921432509363
0.00407464114682769
0.00374649292223393
0.00338102643679061
0.00298243405760148
0.00255114121163937
0.00208412992324133
0.00157606220822891
0.00100891452153549
0.000328953409532085
0.00493524479847828
0.00477329490814243
0.00456277478543197
0.00430387957875366
0.00400078665387473
0.00365932719694884
0.00328444888340092
0.00287920873798164
0.00244428555526919
0.00197826548627253
0.0014786283939186
0.000932549483697675
0.000298669512687683
0.00506686784452371
0.00492726453470162
0.00474051174609949
0.00450603642221452
0.00422714600087278
0.00390896416394067
0.0035561610494137
0.00317247177868791
0.00276082947752701
0.00232286582231076
0.00185900528336836
0.00136966465983491
0.000847709084370517
0.000265322779093633
0.00517820024602083
0.00505893406676345
0.00489418691207032
0.00468272827542412
0.00442706963589941
0.00413157351434256
0.00380031430542781
0.00343675073109961
0.00304433103127081
0.00262657571501024
0.00218632837203885
0.00172591489542483
0.00124884402854833
0.00075419023755225
0.00022882375537547
0.00527117682419516
0.0051700866715309
0.0050254284092264
0.00483541699995017
0.00460183340509394
0.00432829687505575
0.00401820244591759
0.00367443395694266
0.00330010129834302
0.00289906731199425
0.00247571116356282
0.00203414393162847
0.00157860977688855
0.00111586778818735
0.000651667950424391
0.000188991107981855
0.000465857133504348
0.00133028434701048
0.000469150637649886
0.00195422560802096
0.00133500403914943
0.000472640367525959
0.00245751408623133
0.00195779694268302
0.00133623955702826
0.000471219881081747
0.0028892535223549
0.00245955266073364
0.00195237135732508
0.0013282408510053
0.000463536847186447
0.00326833211029139
0.00288896443102926
0.00244836642752989
0.00193494759567533
0.00130771893733071
0.000451362917157934
0.00360378571581237
0.00326530439153676
0.00287237592378526
0.00242228166064363
0.00190350578427484
0.0012760947849646
0.000436685895385328
0.00390115414048108
0.00359850758683991
0.0032435763044727
0.00283843925910622
0.00238082940457642
0.00185894847162065
0.00123632057567957
0.000420156733896137
0.00416455590988825
0.00389445792964318
0.00357261456302765
0.0032026810373053
0.00278784755740653
0.00232520157533296
0.00180327127874668
0.00118993468111788
0.000401471563765166
0.00439717192095434
0.00415708902127952
0.0038656883440263
0.0035261394744459
0.00314410646524707
0.00272229147820789
0.0022568218688772
0.00173753934669325
0.0011369039031541
0.00038018349347893
0.00460148174042311
0.0043893060982014
0.00412648743393907
0.00381512823988135
0.00346105264873636
0.00306991038457751
0.00264296199047426
0.00217622942078457
0.00166173424459215
0.00107661070178731
0.000356006602956175
0.00477955358404166
0.00459341165760477
0.00435754941622594
0.00407304841050395
0.00374499104305429
0.00337963543317468
0.0029811759896345
0.00255004101147911
0.00208321636344553
0.00157536564643954
0.00100846868048954
0.000328794002530108
0.00493331510213345
0.00477139121726677
0.00456091494977823
0.00430208174169692
0.00399906849441306
0.00365770792223004
0.00328295067288988
0.00287785679081358
0.00244310781593187
0.00197729316823978
0.00147789127635891
0.000932080465908901
0.000298502956957948
0.00506472387829023
0.00492513882958796
0.00473842554129068
0.00450400519096323
0.00422518278090128
0.00390708559543477
0.00355438948519515
0.00317083418838743
0.00275935579458964
0.00232158846261618
0.00185795671151625
0.00136887578007714
0.000847212651008233
0.000265153150567844
0.00517582813643636
0.00505659198888556
0.00489189551964204
0.0046804890463613
0.0044248836020425
0.00412945235800363
0.00379828027035447
0.00343483287598669
0.00304256202070002
0.00262498991948316
0.00218496124889033
0.00172479955839685
0.0012480122211847
0.000753676751302276
0.000228659847817499
0.00526873834298117
0.00516775216307663
0.00502317625527393
0.00483320642938953
0.00459964805366175
0.00432614510942247
0.00401610681485176
0.00367242392747315
0.00329820963188972
0.00289732805997076
0.00247415873081412
0.00203281128807866
0.00157752702097484
0.00111506295265014
0.000651175489361795
0.000188830195707687
0.00534543428105535
0.00526049703055626
0.00513401418775485
0.00496374149434495
0.00475085347445852
0.00449831930122658
0.00420887697575064
0.0038847593478049
0.00352847828838551
0.00314348180533177
0.00273432424883783
0.00230630249818396
0.00186476261836896
0.00141586912614776
0.000969847564529981
0.000539545694736917
0.000148806037073057
0.000463714981620764
0.00132564857521184
0.000467527327037123
0.00194915861589323
0.00133153601249956
0.000471409654359335
0.00245281322771563
0.00195404459168385
0.00133364989542885
0.000470296883082178
0.00288519643531565
0.00245609361038697
0.00194958845394903
0.0013263151881298
0.000462853943940494
0.00326495989599738
0.00288598008349854
0.00244580075731884
0.00193287623360257
0.00130629457012779
0.000450862620668653
0.00360102088569894
0.00326279711483122
0.00287013814583712
0.00242035037671372
0.00190195222467712
0.00127504019576476
0.000436317997472093
0.00389886704489479
0.00359639585387277
0.00324164522564831
0.00283670917263414
0.00237934041422923
0.0018577623015004
0.00123552753243508
0.000419879715025755
0.00416260322047302
0.00389262784124143
0.00357091076516563
0.00320111776124883
0.00278645057169125
0.00232400881359612
0.0018023331802893
0.00118931744272645
0.000401257233907438
0.00439541753839053
0.00415542207677824
0.0038641133908926
0.00352466908373165
0.00314276066740999
0.00272109682612647
0.00225581159295846
0.00173675500509985
0.00113639478409006
0.00038000537324287
0.0045998073167168
0.00438769396315153
0.00412494424382827
0.00381366687770543
0.00345969128368115
0.00306867097068641
0.00264186991532832
0.0021753144549412
0.00166103123515064
0.00107615863903653
0.000355848265912187
0.0047778620020639
0.00459176271675201
0.00435595240516593
0.00407151736618809
0.00374354373619734
0.00337829224445463
0.00297995940983425
0.00254897609262317
0.0020823316062655
0.00157469110864242
0.00100803822839275
0.000328640745420828
0.00493152939654815
0.0047696319593861
0.00455919416748992
0.00430041465915556
0.00399747255882442
0.00365620273425131
0.00328155811174716
0.00287660092233109
0.00244201487950375
0.00197639204616475
0.00147720939952832
0.000931648144875734
0.000298348477552074
0.00506278371524782
0.00492321259925046
0.00473652796823426
0.00450215171782789
0.00422338919962839
0.00390537005131134
0.00355277374925505
0.00316934327968409
0.00275801698785221
0.00232043103285434
0.00185700957807881
0.00136816585891897
0.000846767375235373
0.000264995835748695
0.00517368815715167
0.00505446000887119
0.00488978938448429
0.00467842109148371
0.00442286434677925
0.00412749663465688
0.00379640937329129
0.00343307339604162
0.00304094382460266
0.00262354439508726
0.00218372076528642
0.0017237935898429
0.00124726784346659
0.000753219342558254
0.000228506507460025
0.00526638277226559
0.00516541878328298
0.00502088205090403
0.00483094957302221
0.00459742657703223
0.004323968161579
0.00401399483530894
0.00367040504684311
0.003296316401705
0.00289559500205875
0.00247262095039923
0.00203150194622108
0.00157647623361065
0.00111429796058502
0.000650723383519089
0.000188694143112251
0.00534302036284629
0.00525818129100201
0.00513177239244863
0.00496153021219448
0.00474865327258731
0.0044961355787068
0.00420672990571011
0.00388267689948801
0.00352649273356145
0.00314162765322363
0.00273263631816941
0.00230481462258588
0.0018635049806093
0.0014148685386063
0.000969127643017301
0.000539132492013652
0.000148653005988428
0.00540556341675176
0.00533466955745837
0.00522430171652447
0.00507187645313253
0.00487806847835341
0.0046452833926451
0.00437565667412447
0.00407077271339223
0.00373247374658942
0.00336356982003565
0.00296812196115409
0.00255143982840183
0.00211970646585254
0.0016794350794372
0.00123884999424021
0.000812199954479961
0.000419651003611406
8.48208062305735e-05
0.000460913039816181
0.00131950776780963
0.000465375688244553
0.0019423800810387
0.00132688443255644
0.000469755447606286
0.00244646730924382
0.0019489661031833
0.00133013599319703
0.00046904420173264
0.00287968674982987
0.00245138481108234
0.00194579209768897
0.00132368017153906
0.000461919964976098
0.00326038136737514
0.0028819190549284
0.0024423022769924
0.00193004468108
0.00130433849174137
0.000450175236676698
0.00359730818032394
0.00325942310898292
0.00286711978384853
0.00241773847173767
0.00189984350349577
0.00127359922972942
0.000435815347658307
0.00389587613013135
0.00359362975582487
0.00323910934908879
0.0028344300354428
0.00237737122666642
0.00185618560071075
0.00123446432659167
0.000419510574954933
0.00416016309564123
0.00389033926716294
0.00356877515633224
0.00319915134081544
0.00278468575232191
0.00232249428890324
0.00180113434404214
0.00118852072579904
0.000400980328448884
0.00439335909105586
0.0041534676312124
0.00386226363102235
0.00352293612864246
0.00314116763835523
0.00271967603118863
0.00225460398678245
0.0017358114755139
0.00113577721445773
0.000379791577999386
0.00459797935501456
0.00438593780571685
0.00412326178233949
0.00381206894694876
0.00345819696393503
0.0030673050958987
0.00264066172207841
0.00217429847987765
0.00166024708073438
0.00107565234743818
0.000355671879166561
0.00477613764232129
0.00459008677805513
0.00435432898323794
0.00406995749899541
0.00374206476963055
0.00337691576175522
0.00297870960624461
0.00254787974919384
0.00208141895240578
0.00157399417717757
0.00100759369316152
0.000328485255412159
0.00492980663362687
0.00476793938789509
0.00455753834038136
0.00429880748597942
0.00399593060559028
0.00365474600179757
0.00328020893081905
0.00287538343944249
0.00244095506749576
0.00197551811612905
0.0014765485462878
0.000931230590489097
0.000298199676995668
0.00506098255251518
0.00492142706078001
0.00473476689454159
0.00450042783642624
0.00422171822587597
0.00390377067814027
0.00355126759780747
0.00316795434439011
0.00275677099150839
0.00231935513389449
0.00185613035655072
0.00136750800633312
0.000846355920919237
0.000264848781726231
0.00517174650775452
0.00505252311887905
0.00488786861480226
0.00467652896985777
0.00442101436476177
0.00412570536654001
0.00379469773876058
0.00343146619515893
0.00303946842970668
0.00262222935774869
0.00218259522319841
0.00172288353700954
0.00124659649992373
0.000752806897580068
0.000228361738832858
0.00526425346499685
0.00516329043963837
0.00501876886031612
0.00482886065090625
0.00459536962884887
0.00432195576801163
0.00401204672060339
0.00366854699940683
0.0032945782225855
0.0028940084239331
0.00247121822543636
0.00203031300174126
0.00157552771106765
0.00111361229319123
0.00065031750620604
0.000188561384683003
0.00534068519855453
0.00525586376257256
0.00512948571162021
0.00495926923811004
0.00474641290089102
0.00449392211049252
0.0042045614890189
0.00388058016549386
0.003524499659116
0.00313977308044179
0.00273095567372701
0.00230334242388945
0.00186227140701296
0.00141390022460663
0.000968447065861549
0.000538758273934134
0.000148534438608901
0.00540317492984395
0.00533237631635605
0.00522207685269017
0.00506967406632769
0.00487586615383469
0.00464308342033221
0.00437347648504727
0.00406863822411557
0.00373041608124964
0.00336162337322346
0.00296632250556296
0.00254982225348095
0.00211830247850462
0.00167827198856686
0.00123795078012519
0.000811583634611092
0.000419336889028756
8.47349475771352e-05
0.00545360781237901
0.0053947330356195
0.00529842785599093
0.00516188677755695
0.00498539475635262
0.00477088929662197
0.00451998125827277
0.00423365582636482
0.00391308899198432
0.00356039498920504
0.00317895413212194
0.00277350526450977
0.00235009197639192
0.00191569069603839
0.0014780518098089
0.00104819435370144
0.000645069256413052
0.000291326513281357
2.88380194775956e-05
0.000457288584172376
0.00131147958879122
0.000462561078886857
0.00193343123070591
0.0013207263467178
0.000467569995164303
0.00243799929313636
0.00194217435936011
0.00132542832627284
0.000467364119470756
0.0028722622619472
0.00244502942782112
0.00194066165594443
0.00132011278085647
0.000460656015556268
0.003254173344261
0.00287640470416139
0.00243754670099542
0.00192619126764407
0.00130166975769974
0.0004492381790012
0.00359227684193292
0.0032548432510804
0.0028630180110933
0.0024141850235022
0.00189696934231552
0.00127162702712621
0.000435128210456537
0.00389186751049265
0.00358991647472183
0.00323570032200454
0.0028313615677285
0.00237471491140937
0.00185405202309742
0.00123301730464761
0.000419009058410153
0.00415697616498819
0.00388734727889133
0.00356597888053653
0.00319657136921542
0.0027823646224276
0.00232049607766794
0.00179954555547854
0.00118745716227465
0.000400612972228105
0.00439078705666283
0.0041510256394231
0.00385994927823443
0.00352076271478961
0.00313916378223656
0.00271788285669177
0.00225307388662488
0.00173460932191613
0.00113498387178024
0.000379517403413608
0.00459583153314193
0.00438387720242924
0.00412128595592226
0.00381018779752468
0.00345643219949687
0.0030656865733299
0.00263922505955262
0.00217308574623735
0.00165930624608505
0.00107504102519008
0.000355461252041997
0.0047742498471989
0.00458825679267964
0.00435255598643762
0.00406825024678857
0.00374044129836467
0.00337540032084059
0.00297732980956179
0.00254666605955767
0.00208040589189341
0.00157321812146048
0.00100709712500486
0.000328312995230556
0.00492804427724478
0.00476621336064624
0.00455585012706578
0.00429716597549647
0.00399435188760286
0.00365325124190814
0.0032788220982367
0.00287413019139207
0.00243986281446819
0.00197461628514494
0.00147586612593615
0.000930800039056732
0.000298048418226223
0.00505923908885479
0.00491970323404846
0.00473306664669842
0.0044987606989583
0.00422009912677457
0.00390221879735044
0.00354980508744751
0.00316660529346138
0.00275556085592825
0.00231831035984266
0.00185527677034035
0.00136686994932692
0.000845957731986301
0.000264706956712901
0.00516993857216754
0.00505072215561655
0.004886080542709
0.00467476376678809
0.00441928564780832
0.00412403044842141
0.00379309755655375
0.00342996466165615
0.00303809138674844
0.00262100355664262
0.00218154740682732
0.0017220374516627
0.00124597315909498
0.000752424252934955
0.000228224589945967
0.00526231689828206