/*--------------------------------*- C++ -*----------------------------------*\
  =========                 |
  \\      /  F ield         | OpenFOAM: The Open Source CFD Toolbox
   \\    /   O peration     | Website:  https://openfoam.org
    \\  /    A nd           | Version:  12
     \\/     M anipulation  |
\*---------------------------------------------------------------------------*/
/*   Windows 32 and 64 bit porting by blueCAPE: http://www.bluecape.com.pt   *\
|  Based on Windows porting (2.0.x v4) by Symscape: http://www.symscape.com   |
\*---------------------------------------------------------------------------*/
FoamFile
{
    format      ascii;
    class       volScalarField;
    location    "100";
    object      nut;
}
// * * * * * * * * * * * * * * * * * * * * * * * * * * * * * * * * * * * * * //

dimensions      [0 2 -1 0 0 0 0];

internalField   nonuniform List<scalar> 
10068
(
0.000107276271553452
0.000107245173789257
0.000888281105820661
0.00010937255087507
0.000107220196245075
0.000888099094373177
0.000109341856484153
0.00209119048647285
0.000901610927371114
0.000111891624698643
0.000107199815328377
0.000887968966569755
0.00010931672113008
0.00209091478282243
0.000901438084020057
0.000111860242173509
0.00338913732042663
0.00210856876393924
0.000918398845103456
0.000113398226781446
0.000107182198710229
0.000887872667652055
0.00010929503087599
0.00209065282153635
0.000901304718084033
0.000111833661214183
0.00338883827171947
0.00210831069069465
0.000918227534042424
0.00011336636235939
0.00462814200384363
0.00340226445633963
0.00212870174105931
0.000928878845688764
0.000113136288465458
0.000107166277681245
0.000887793434385386
0.000109275307423425
0.00209042736357602
0.000901200735381878
0.000111809141837963
0.00338847901147392
0.0021080465697162
0.000918084215074818
0.00011333544039755
0.00462786238503522
0.0034019911910048
0.00212845285212923
0.000928703315259782
0.00011310413528033
0.00574400584352379
0.00463293534592944
0.00341304279286278
0.00213941684889984
0.000927689825468158
0.000111611516388804
0.000107151187513778
0.000887719793935922
0.000109257621390665
0.00209023486812712
0.000901113739370035
0.000111788196197821
0.00338815775252433
0.00210781940843476
0.000917967890552026
0.000113309625383157
0.00462745535141498
0.00340163784133902
0.00212818451500975
0.000928540654853701
0.000113072070122087
0.00574377453945595
0.0046326843446225
0.00341278781108252
0.00213916288670887
0.000927508600600904
0.000111578923546429
0.00671926405662787
0.00574023118372212
0.00462902401570984
0.00341176037677329
0.00213281499410063
0.000916829277715676
0.000109595777204202
0.000107135918049519
0.000887652071461859
0.000109240971906504
0.00209006874930615
0.000901037481778056
0.000111769609154364
0.00338787247100793
0.00210762470845993
0.00091787617571858
0.000113287787919334
0.00462707475150154
0.00340131543187649
0.00212794992267147
0.000928416409025505
0.000113045444214603
0.0057433564300343
0.00463228731290674
0.00341243799018277
0.00213888288921051
0.000927337498034254
0.000111546307558029
0.0067191028530526
0.00574002836273868
0.00462879809336057
0.00341150150771767
0.00213254805691402
0.000916642821015812
0.000109562675784321
0.00755856675954844
0.00670955256569813
0.00572170002408428
0.00460962147487178
0.00339152392369718
0.00210984684483301
0.000900776164636314
0.000107396974133848
0.000107118678918586
0.000887575571466797
0.000109223774828043
0.00208990138231418
0.00090096571082619
0.000111752216348162
0.00338760404143624
0.00210745125660644
0.000917797247020441
0.000113268416920601
0.00462671894670297
0.00340102646561707
0.00212774897354045
0.000928321479917825
0.000113022999738292
0.0057429435320442
0.00463190648197024
0.0034121111411353
0.00213863794198721
0.000927209473258494
0.000111519395398686
0.00671870031455747
0.00573962184191389
0.00462840945956296
0.00341114428436794
0.00213225467258688
0.000916466888421394
0.000109529962451112
0.00755849317590317
0.00670941833173143
0.00572152629653378
0.00460939251837142
0.00339124640583754
0.00210956438858586
0.000900585442150219
0.000107363246469391
0.00827519141926786
0.00754576541839579
0.00668004653340716
0.00568393141146702
0.00457006254509049
0.00335190354060344
0.00207525544057122
0.000881915930065045
0.000104948943522388
0.000107096244083444
0.000887483052105849
0.000109205575217418
0.00208971209297081
0.000900887386267543
0.000111734076746622
0.00338732162503967
0.00210727881850727
0.000917722646815041
0.000113250262577502
0.00462636480528641
0.00340075344232106
0.00212756793820136
0.000928239820184608
0.000113003030886207
0.00574254038403969
0.00463154844585008
0.00341181480086943
0.00213842797625755
0.000927112357364965
0.000111496729210274
0.00671827915056589
0.00573921031508814
0.00462802558940352
0.00341080638202918
0.00213199770451954
0.000916335451717189
0.000109502822355043
0.00755812826202487
0.00670902826755461
0.00572113043325877
0.00460899789874396
0.00339087163326402
0.00210925519702168
0.00090040581601741
0.000107330086556597
0.00827521853697728
0.00754571574064712
0.00667994330899381
0.00568375448562609
0.00456980980858908
0.00335160045890286
0.00207495562821288
0.00088172112493256
0.000104914488388067
0.00888392345145155
0.00826092729140105
0.00750941680620784
0.0066273898959919
0.00562401412831203
0.0045093315644358
0.0032955282558761
0.00203193464463898
0.000860331010298941
0.000102113762414231
0.000107066699651087
0.000887343959394146
0.000109182548605169
0.00208945756663468
0.000900788820615914
0.000111715341872559
0.00338698710375675
0.00210708239734016
0.00091764120308716
0.000113231879284751
0.00462597571670261
0.00340046718434597
0.00212738744949711
0.000928162249853059
0.000112984413552363
0.0057421169214104
0.00463119100458741
0.0034115322639905
0.00213823714736206
0.000927027758557983
0.000111476419363298
0.00671784520271167
0.00573880463639656
0.00462765993513168
0.0034104968544635
0.00213177585852401
0.000916235323054585
0.000109479604739654
0.00755771688398648
0.00670860840114062
0.00572071642449736
0.00460860209740208
0.00339051530158946
0.0021089806019862
0.000900269404708161
0.000107302501214339
0.00827490819738806
0.00754536310557617
0.00667956462529115
0.00568335231115123
0.00456939372336816
0.00335120081521633
0.00207462634662244
0.000881539670969459
0.000104880725747917
0.00888406077797484
0.00826097396919661
0.0075093981791053
0.0066272824450423
0.00562380851604187
0.00450904446982068
0.00329519660763019
0.00203162004245001
0.000860132599831055
0.000102078842640508
0.00939833862732842
0.00886878136285516
0.00822046844768131
0.00744599168143565
0.00654938441440053
0.00554069255384016
0.00442784077317402
0.00322386627075473
0.00198013285209477
0.000835262686118524
9.87937489421435e-05
0.000107026877081872
0.000887138701371039
0.000109152603240903
0.00208910123002453
0.000900647797833602
0.00011169066925841
0.00338654317792321
0.00210682559031846
0.000917538005827524
0.00011321155839208
0.00462549533791678
0.00340012767097362
0.00212718153969526
0.000928077140341727
0.000112965389422465
0.0057416283802446
0.00463079736252309
0.00341123496431419
0.00213804536518121
0.000926946862917199
0.000111457211087872
0.00671736726011768
0.00573837806199219
0.00462729211001237
0.00341019893250878
0.00213157175431502
0.000916146838301905
0.00010945872742228
0.00755726938775002
0.00670817236368231
0.00572030235054682
0.00460822067691746
0.00339018605295189
0.00210874085893283
0.000900163770106373
0.000107278599655316
0.00827452414435419
0.00754495329174294
0.00667914170323624
0.00568292495326695
0.00456897492794854
0.00335081899243155
0.00207433351339152
0.000881397431830233
0.000104852612501801
0.0088838194295729
0.00826067553118251
0.00750905638854949
0.0066268960493379
0.00562338089038768
0.00450859603873876
0.00329476796112044
0.00203127647015756
0.000859949698638575
0.000102044514079869
0.00939859223260697
0.00886893270026389
0.00822054457859678
0.00744596697671122
0.00654924348447807
0.00554044459099882
0.00442751438373543
0.00322350593197143
0.00197980496633557
0.000835059408196632
9.87585276510948e-05
0.00983036000373108
0.0093824277048633
0.00882555589435648
0.00814929469703386
0.00735310528934523
0.00644457617259198
0.00543276958907975
0.00432508024960862
0.00313635144494962
0.00191867260565114
0.000805894721777762
9.49166348479375e-05
0.000106972364304012
0.00088683828706125
0.000109112235948071
0.00208858367593218
0.000900441028391229
0.00011165943779437
0.00338591858083576
0.00210646459040344
0.000917391829535947
0.000113185798413213
0.00462484957028549
0.00339967907690153
0.00212691467471183
0.000927968787391279
0.000112943840557168
0.00574100873224379
0.00463031316170259
0.00341088227216716
0.00213782637796278
0.000926857478750484
0.000111437411731092
0.0067167916662459
0.00573788609365377
0.00462688548042351
0.0034098838479778
0.00213136375458266
0.000916060739721974
0.000109438726239754
0.00755674929306419
0.00670769056186349
0.00571986423117335
0.004607833960382
0.00338986656393406
0.00210851922291957
0.000900069448535169
0.000107257089436515
0.008274075851093
0.00754450262826221
0.00667869617581588
0.00568249279325174
0.00456856849737221
0.00335046387540612
0.0020740770786821
0.00088128474643239
0.000104828061280061
0.0088834741352297
0.00826029169563958
0.00750864230426994
0.00662645768054422
0.00562292652305659
0.00450814498400158
0.00329435731056165
0.00203096891245528
0.000859801521892828
0.000102015757530736
0.00939843030100165
0.00886870185592423
0.00822025555526554
0.00744561523760034
0.00654882750241475
0.00553997788049801
0.00442702771943762
0.00322304819315402
0.00197944948339068
0.000834874278562715
9.87232350092791e-05
0.00983073301374735
0.00938268889907172
0.0088257336174815
0.00814936207890379
0.00735304227486673
0.00644438540426035
0.0054324725544257
0.00432471271754829
0.0031359626927088
0.00191833059160805
0.000805687093809199
9.48815485196492e-05
0.0101905441770404
0.00981367432435923
0.00933702244936317
0.00874846736491152
0.00804429943424503
0.00722907005070316
0.00631086601486106
0.00529801201434561
0.00419904389793708
0.00303096875672737
0.00184576333710845
0.000771457722695801
9.04252386108154e-05
0.000106897037529412
0.00088640349718445
0.000109056772398195
0.00208782982971896
0.000900138146173415
0.000111617468460029
0.00338501634200173
0.00210594133291059
0.000917178372883988
0.000113153245010171
0.00462393721925158
0.00339904870830918
0.00212654048649123
0.000927816524611547
0.000112917687540855
0.00574016300885543
0.00462966345125692
0.00341041827895663
0.00213754410665493
0.000926743424183953
0.00011141527401166
0.00671604076600981
0.00573726262789596
0.00462638591000152
0.0034095105328981
0.00213112686363624
0.000915965463299582
0.000109418414913983
0.00755609812169641
0.00670711120315827
0.00571935793530989
0.00460740521974796
0.00338952758749032
0.00210829501683297
0.000899977258213864
0.000107236331415018
0.00827352625167398
0.00754397839373562
0.00667820113831743
0.00568203292174751
0.00456815446818957
0.00335011817762221
0.00207383931044687
0.000881184616007218
0.000104805749344705
0.00888303818611174
0.00825983995594691
0.00750818034862525
0.0066259915407307
0.00562246509490568
0.00450770578569333
0.00329397393174691
0.00203069764416366
0.000859681622806222
0.000101990541643747
0.00939813506027862
0.00886835654733227
0.00821986544898513
0.00744518305716357
0.00654835813234118
0.0055394852177213
0.00442653901056399
0.00322260737774113
0.00197912745228804
0.000834722355412054
9.86937874852132e-05
0.00983065795940339
0.00938253575436384
0.00882550987764722
0.00814906016918911
0.00735265657890088
0.00644392399789747
0.0054319591685408
0.00432418589554434
0.00313547772155273
0.00191796362602374
0.000805500344337086
9.48458856322058e-05
0.010191037129342
0.00981404791075373
0.0093373057930256
0.00874863287677657
0.00804432351722438
0.00722894998474038
0.00631061704200082
0.0052976628284968
0.00419863553497557
0.00303055472450874
0.00184540831550367
0.000771248908577964
9.03901304275622e-05
0.0104883926498948
0.0101730988679918
0.00976640020776778
0.0092551325664076
0.00863346191980906
0.00790349037655978
0.00707138368065648
0.00614484679954415
0.00513290249183492
0.00404635472667733
0.00290457692015889
0.00175910721518174
0.000731091294558177
8.52616297499514e-05
0.000106793699555629
0.000885782803917567
0.000108979979052023
0.00208674515216603
0.000899698324258055
0.000111559754294145
0.0033837114588649
0.00210518034391694
0.000916865869957465
0.000113109535211777
0.0046226224732728
0.00339813979179112
0.0021260001159771
0.000927594660073741
0.000112883856728498
0.00573896114366586
0.00462874665100419
0.00340976862116346
0.00213714994955332
0.000926584015742782
0.000111388331564033
0.0067150030188594
0.00573641350043955
0.00462571777280116
0.00340902235273865
0.00213082500344355
0.000915844964072357
0.000109395618012944
0.00755522806924962
0.00670635693524451
0.00571871714662565
0.00460687994265921
0.00338912795709173
0.00210804151251982
0.000899875919587103
0.000107215411162333
0.00827281173915158
0.00754332313103756
0.00667760565761939
0.00568150118117384
0.00456769572611861
0.00334975243281939
0.00207359961073046
0.00088108629123892
0.00010478446028522
0.00888247077688354
0.00825928572054267
0.00750764107083246
0.00662547185905889
0.00562197338609796
0.00450725813051643
0.00329360035650884
0.00203044551351715
0.000859575627333888
0.00010196757951499
0.00939772070543859
0.00886791598224876
0.00821940052959977
0.00744469761731641
0.00654785875893854
0.00553898522708846
0.00442606258179588
0.0032221943140387
0.00197884106219433
0.000834597106851896
9.86680488211161e-05
0.00983042076618777
0.00938223953379896
0.00882515627691085
0.0081486488436936
0.00735218926513868
0.00644341073623355
0.00543142132124721
0.00432365742458062
0.00313501110464773
0.00191762908720494
0.000805345768893981
9.48160921987663e-05
0.0101910535911999
0.00981397961981689
0.00933715681213369
0.00874839269943679
0.00804398299921426
0.00722851268804687
0.00631010119600809
0.00529709971495678
0.00419806990296729
0.00303004743937153
0.00184503173341898
0.000771061279800302
9.03543504088605e-05
0.0104890039402471
0.010173585063401
0.0097667908265089
0.00925539957044123
0.00863357893540618
0.00790345033718123
0.00707119664280702
0.0061445355231019
0.00513250072387164
0.00404590780796033
0.00290414000923576
0.00175874327656386
0.000730885407666036
8.52268667943486e-05
0.0107325266874123
0.0104702452785195
0.0101242139027432
0.00968049225745873
0.00913172872582656
0.00847816556107591
0.00772418602795627
0.00687596259528386
0.00594176444674852
0.00493261305861391
0.00386224722213529
0.00275277150048973
0.00165552123871018
0.000683479292558629
7.9262434853717e-05
0.000106653533853838
0.000884913951144911
0.000108874902595277
0.00208520416110765
0.000899069474428689
0.000111480192766637
0.00338183759303816
0.00210408395321528
0.000916411877463953
0.000113049465307509
0.00462072611925159
0.00339682552182027
0.00212521658780205
0.000927269952543183
0.000112838601134356
0.00573723169152288
0.00462742677161795
0.00340883525380472
0.00213658461823078
0.000926352910473627
0.000111353382896582
0.00671352356839569
0.0057352094185471
0.0046247783288168
0.00340834335821324
0.00213041004462371
0.000915678240281544
0.000109367997841961
0.00755401181147552
0.00670531647714042
0.00571784741993298
0.0046061816196501
0.0033886105312702
0.00210772193009925
0.000899749133005281
0.000107191896317024
0.00827183567790021
0.00754244946885689
0.00667683220288285
0.00568083074894886
0.00456713727868805
0.00334932459017129
0.00207333106587541
0.000880978443892184
0.000104762746532276
0.00888170508546299
0.00825856664908059
0.00750696770725421
0.00662484774618995
0.00562140679487499
0.00450676451247007
0.00329320657547096
0.00203019117088178
0.000859471256888752
0.000101945602490843
0.00939714654054789
0.00886734353453476
0.0082188293448525
0.00744413072265768
0.0065473032136169
0.00553845406049299
0.00442557795706944
0.00322179197081281
0.00197857433833986
0.000834485510914064
9.86446654755472e-05
0.00983003694916996
0.00938182027495522
0.00882470039408785
0.00814815738684818
0.00735166666123937
0.00644286766685868
0.00543087708918495
0.00432314214067531
0.00313457309363784
0.00191732902879314
0.000805216221782644
9.47899317191788e-05
0.0101908801790157
0.00981374054079739
0.00933684996210327
0.00874801451971026
0.00804353223937129
0.00722799609910358
0.00630953601945773
0.00529651382693181
0.00419750321866767
0.00302955865059083
0.00184468697106331
0.000770903947816125
9.03243183579285e-05
0.0104891138838692
0.0101736060419397
0.0097667232927494
0.00925523011074625
0.00863329522217206
0.00790305207839383
0.00707069751048828
0.00614396137145431
0.00513188848707099
0.00404530752001593
0.00290361387365921
0.00175836045071856
0.000730700326580284
8.51912923583883e-05
0.0107332517365256
0.0104708421889474
0.0101247113844337
0.00968086190292584
0.00913194185075548
0.00847821146435307
0.00772407048200549
0.00687570351984896
0.00594138979540447
0.00493216104144988
0.00386176684183308
0.00275231643493662
0.00165515483691456
0.000683283124373578
7.92282605738385e-05
0.0109307599982308
0.0107137617959884
0.0104200158433033
0.0100349458748225
0.00955001582445095
0.00896400565946515
0.00827977361430833
0.00750193390140291
0.00663718096518186
0.00569554747298827
0.00469081703411459
0.00364021168444585
0.00256930177230679
0.00153003614553477
0.000625960429758411
7.19896009946723e-05
0.00010646554679801
0.000883716661614351
0.000108732128143006
0.00208305298731368
0.000898187297182416
0.000111371196746123
0.00337918965031248
0.00210252694565998
0.000915763146307487
0.000112966752910247
0.00461801428877361
0.0033949408372837
0.00212408940512593
0.000926798765807821
0.000112776627850458
0.00573474161059055
0.00462552402476532
0.00340748957232175
0.00213576950154031
0.000926016055019506
0.000111306907374294
0.00671139239417281
0.0057334769767539
0.00462343022676868
0.00340737398832041
0.0021298202532315
0.00091543852739818
0.000109332012513684
0.00755227102231628
0.00670383515298244
0.00571661873709133
0.00460520610230352
0.00338789838098322
0.0021072878025271
0.000899575493611889
0.00010716359130381
0.00827045649226138
0.00754123040266792
0.00667576900657671
0.00567992634799116
0.00456640180748642
0.00334877709790201
0.00207299591776117
0.000880844988258431
0.000104738513978855
0.00888063659649955
0.0082575865436822
0.00750607264182914
0.00662404109376659
0.00562069787677423
0.0045061693405678
0.00329274945290095
0.00202990716725772
0.000859357057550348
0.000101923218332683
0.0093963413525506
0.00886657282570852
0.0082180901118071
0.00744342555097923
0.00654664007957386
0.00553784661898312
0.00442504738442332
0.00322137050989668
0.00197830545096787
0.00083437572752541
9.86220919546984e-05
0.00982946521634519
0.00938124040940716
0.00882410904815226
0.00814755556979528
0.00735106010236261
0.00644226780766976
0.00543030227035593
0.00432261993537358
0.00313414667634913
0.00191704850378717
0.000805099925106701
9.47660761511787e-05
0.0101905334527592
0.00981335124342154
0.00933641342691392
0.00874752892897868
0.00804299968263637
0.00722742504094598
0.00630894278085164
0.00529592328664931
0.00419695074257331
0.00302909836774109
0.00184437552189439
0.000770772004321909
9.02980502088568e-05
0.0104890074760144
0.0101734297908317
0.00976647111508857
0.00925489510353882
0.00863287317695305
0.00790254675819886
0.00707012275913747
0.00614334084990419
0.00513125541853169
0.00404470835067773
0.00290310654584698
0.00175800833915496
0.000730543908901225
8.5161348781051e-05
0.0107334545745603
0.0104709542619901
0.0101247293873838
0.00968076949117001
0.00913172369800847
0.0084778638507737
0.00772360319968518
0.00687513800185662
0.00594075756604241
0.00493150355201257
0.00386113860326131
0.00275177738589786
0.00165477269777292
0.000683106356039365
7.91931001527766e-05
0.0109315930311918
0.0107144653754657
0.0104206179012922
0.0100354174133069
0.00955032609305507
0.00896414075449564
0.00827973565200227
0.00750173682318424
0.00663684820017917
0.00569511138789693
0.00469032013719669
0.00363970361808216
0.00256883615657582
0.00152967660415806
0.000625779879398489
7.19564325625665e-05
0.0110901300891227
0.0109114719123015
0.0106624576547207
0.0103279923060604
0.00989855676905355
0.0093717249325578
0.00874902960895754
0.00803361836566806
0.00723054051615734
0.00634804352040873
0.00539863390839781
0.00439931887661884
0.00337136639149015
0.00234497773458446
0.00137432523122515
0.000553410289045471
6.71475386480903e-05
0.000106216248992692
0.000882099877036764
0.000108540484526338
0.00208010084075291
0.000896972010371262
0.000111223308817308
0.00337550338200748
0.00210035354802104
0.000914853307047262
0.00011285368138915
0.0046141877417089
0.00339227677062122
0.00212249104191045
0.000926126459151915
0.00011269144382585
0.00573119013141119
0.00462280442925927
0.00340556499337137
0.00213460244348313
0.000925529233332501
0.000111243490981811
0.00670833047992321
0.00573098466585223
0.00462149223749772
0.00340598378129255
0.00212897529642631
0.000915091414547914
0.000109284468719941
0.00754976265850625
0.00670170321477856
0.00571485600443065
0.00460381436540744
0.00338689015817055
0.00210667659990765
0.000899327784643551
0.000107126735792554
0.00826847457195223
0.0075394878761696
0.00667426061219177
0.0056786567085408
0.00456538402140011
0.00334803230310039
0.00207254518109153
0.000880664531886705
0.000104709495386963
0.00887911108468999
0.00825620417670482
0.00750482826476911
0.00662293921126107
0.00561975050169718
0.0045053947240841
0.00329217210510142
0.00202955651228966
0.000859217368472926
0.000101898356680084
0.00939519392635293
0.00886549987481518
0.00821708624105583
0.0074424937750075
0.00654579053507528
0.00553709494865656
0.00442441492596388
0.00322088748917009
0.00197800695911412
0.000834256172449227
9.85993445138536e-05
0.00982863116098917
0.00938042976974649
0.00882331613854344
0.00814678139178718
0.00735031211872086
0.00644155915016138
0.00542965154888212
0.00432205322461651
0.00313370220545812
0.00191676633860549
0.000804986931372677
9.47428991953494e-05
0.0101899721847564
0.00981277333205954
0.0093358126991698
0.00874690394245473
0.00804235454014754
0.00722676989877344
0.0063082939968319
0.00529530403398138
0.00419639312841272
0.0030286503933067
0.00184408358638979
0.000770653890676752
9.0273944559965e-05
0.0104887027983193
0.0101730771085678
0.00976606252647271
0.00925442569241005
0.00863234254613904
0.00790196121131815
0.00706949626617808
0.00614269506067835
0.00513062001543831
0.0040441253198107
0.00290262779027749
0.0017576893473431
0.000730412665918848
8.51352690781343e-05
0.0107334168018308
0.0104708441928273
0.0101245374971181
0.00968048544199559
0.00913134028817077
0.00847738200084696
0.00772303376054492
0.0068745012188536
0.00594008238426411
0.00493082769871022
0.00386051317375281
0.00275125743189423
0.00165441982286024
0.000682955665107767
7.91636964483109e-05
0.0109318859713935
0.0107146679037745
0.0104207230711354
0.0100354059125102
0.00955017968063528
0.00896385251823991
0.00827931194471604
0.00750119534972154
0.00663621627275563
0.00569442513033086
0.00468962600402986
0.00363905562620983
0.0025682936583318
0.0015293055322281
0.000625619876496685
7.19222863342076e-05
0.0110910638068317
0.0109122765506488
0.0106631602478144
0.0103285632910183
0.00989896341577862
0.00937195036170866
0.00874907264337177
0.00803348955778868
0.00723025966171669
0.00634763878604298
0.00539814156419779
0.00439878442944148
0.00337083932641188
0.00234451233054279
0.00137398257153801
0.000553247536039332
6.7078445842103e-05
0.0112169168682218
0.0110704108210282
0.0108593471312685
0.0105682373550769
0.0101867339010584
0.00971138180911956
0.00914254428050094
0.00848198948773765
0.00773314716745204
0.00690238919107969
0.00600012834678096
0.00504167360146174
0.00404753205444136
0.00304360527884527
0.00206637959046209
0.00117522257503598
0.000458698140047971
3.70881767165641e-05
0.000105890247968253
0.000879942324467938
0.000108286418817478
0.00207611588403275
0.000895327516963234
0.000111024418735195
0.00337045630227932
0.00209737141999452
0.000913600855096616
0.000112700597847685
0.00460887303584422
0.0033885696894465
0.00212026371405316
0.000925185448462934
0.000112575417302013
0.00572618919777821
0.0046189689781034
0.00340284957914893
0.00213295399108772
0.000924837029877065
0.000111156691314028
0.0067039697627775
0.00572743094641473
0.00461872902545275
0.00340400409386869
0.00212777157596688
0.000914592424543518
0.000109219824363238
0.00754616080114469
0.00669864120230155
0.00571232689475695
0.00460182339908343
0.00338545371510981
0.0021058071192441
0.000898971619941395
0.000107078191005215
0.00826561661750796
0.00753697899015364
0.00667209619354381
0.0056768450844813
0.00456394342039042
0.00334698746299637
0.00207191556241322
0.000880409592361859
0.000104671986908512
0.00887690995462071
0.00825422027920251
0.00750305569454954
0.00662138541575396
0.0056184323109809
0.00450433476782437
0.00329139688725388
0.00202909028924776
0.000859030871685435
0.00010186870859026
0.00939353896627517
0.0088639708038356
0.00821567580745524
0.00744120673874088
0.00654464101555819
0.00553610240597199
0.0044236026966386
0.00322028564942354
0.00197764227983703
0.00083411139583854
9.85739830932768e-05
0.00982741767821368
0.00937927755327699
0.00882221714681927
0.00814573737656143
0.00734933356424318
0.0064406623777834
0.00542885687576618
0.0043213863152517
0.00313319769434984
0.00191645534612353
0.000804864995054076
9.47195567721757e-05
0.0101891184940635
0.00981193347535966
0.00933497790223502
0.00874607305303742
0.00804153402328094
0.00722597252198361
0.0063075374252179
0.00529461100367106
0.00419579339120673
0.00302818586211533
0.0018437914748212
0.000770539629408292
9.02506320927462e-05
0.010488157314499
0.0101725089888966
0.00976546187832167
0.00925378836767058
0.00863167068566831
0.00790126358435645
0.00706878781697814
0.00614199656465996
0.00512995891293684
0.00404353936187944
0.00290216231265279
0.001757390415746
0.000730295564184876
8.51111543066025e-05
0.0107331563406269
0.0104705327834456
0.0101241635280427
0.00968004080126584
0.00913082191406896
0.00847679398084255
0.00772238792959967
0.00687381675320859
0.00593938556553469
0.0049301524862339
0.00385990560816046
0.00275076634539088
0.00165409923246211
0.000682828988953639
7.91380142395438e-05
0.0109319153879516
0.0107146252222708
0.0104205948012612
0.0100351783753385
0.00954984263502801
0.0089634040791211
0.00827876019126596
0.00750055758585647
0.00663551807586826
0.00569369992198838
0.00468891685154566
0.00363841233488001
0.00256777048208654
0.00152896143948627
0.000625482034913629
7.18938428081023e-05
0.011091441384938
0.0109125666376881
0.0106633518890956
0.0103286342387116
0.009898892555483
0.00937172769889077
0.00874870132643353
0.00803298401408912
0.00722964372890168
0.00634694469095695
0.00539740935144298
0.00439806378586808
0.00337018326060722
0.00234398002663853
0.00137363720288163
0.000553113322586214
6.70248872132566e-05
0.0112179425503528
0.0110713094949558
0.0108601447233154
0.010568903787125
0.0101872345754645
0.0097116969835494
0.00914266965041891
0.00848193253405219
0.00773292465915253
0.00690202603971546
0.00599965708058104
0.00504113396974992
0.00404696997462141
0.00304307135045072
0.00206592800731076
0.00117490631567335
0.000458563265808245
3.70508051655087e-05
0.0113166636247972
0.0111968501407244
0.0110176889627961
0.0107634311134051
0.0104230461353755
0.00999219475169583
0.00947020306857917
0.00885755664966864
0.008156106545226
0.00737035546151106
0.00650852806121097
0.00558343254302462
0.00461326643910452
0.00362210856832886
0.00264133342792723
0.00171654913069929
0.000916288490655241
0.000309611934729879
1.21082165528266e-05
0.000105468412073679
0.000877111467618948
0.000107953896474331
0.00207083197190596
0.000893135636955781
0.00011076213130183
0.00336365738632175
0.00209334780744948
0.000911906472803503
0.000112495129670673
0.00460160232574785
0.00338349460710813
0.00211721228351378
0.000923892619287612
0.000112418754327351
0.00571925027755722
0.00461364162530018
0.00339907752988611
0.00213066311785272
0.000923871252261259
0.000111038802460136
0.00669783982188956
0.00572242854036895
0.00461483986831362
0.00340122036208207
0.00212607820470343
0.000913885935083047
0.000109131869516642
0.00754104053985008
0.00669428281900914
0.00570872870834006
0.00459899603090997
0.00338341884732929
0.00210457471080041
0.000898462767474319
0.000107012582691046
0.00826151637750568
0.0075333790236167
0.00666899522955388
0.00567425765352643
0.00456189549788696
0.00334550941917503
0.00207102558686439
0.000880045843978156
0.000104622642563769
0.0088737328794675
0.00825136188247888
0.0075005110686082
0.00661916743233428
0.00561656531228673
0.00450284821286043
0.00329032118169994
0.0020284450828113
0.000858770063789612
0.000101830646811508
0.00939114107801063
0.0088617673649536
0.00821365865135963
0.00743938428958949
0.00654303382800032
0.00553473615329685
0.00442250489297566
0.00321948722568521
0.00197716289393192
0.000833920261391466
9.8543935144458e-05
0.00982564984014185
0.00937761876426899
0.00882065737077563
0.00814428040999789
0.00734799485739332
0.00643946352256824
0.0054278216995751
0.00432054121846792
0.00313257597671825
0.00191607940740399
0.000804717824762702
9.46938165856382e-05
0.0101878507744604
0.00981071496245022
0.00933379755542137
0.00874493067130721
0.00804043971216551
0.00722494325967363
0.00630659380813223
0.00529377662133473
0.00419509680902273
0.00302766354247165
0.00184347220615543
0.000770417150630351
9.02270232890143e-05
0.0104872921459015
0.0101716493088318
0.00976459606038952
0.00925291270232932
0.00863079015307556
0.00790039031942415
0.00706793902076135
0.00614119348380732
0.00512922783556539
0.0040429143990001
0.0029016824518169
0.00175709253520945
0.000730181541731524
8.50877907034424e-05
0.0107326308848065
0.0104699802811392
0.0101235708397811
0.00967940069214156
0.00913013427346696
0.00847606597858096
0.00772163317286739
0.0068730544258758
0.00593864030400734
0.00492945548634366
0.00385929768847301