/*--------------------------------*- C++ -*----------------------------------*\
  =========                 |
  \\      /  F ield         | OpenFOAM: The Open Source CFD Toolbox
   \\    /   O peration     | Website:  https://openfoam.org
    \\  /    A nd           | Version:  12
     \\/     M anipulation  |
\*---------------------------------------------------------------------------*/
/*   Windows 32 and 64 bit porting by blueCAPE: http://www.bluecape.com.pt   *\
|  Based on Windows porting (2.0.x v4) by Symscape: http://www.symscape.com   |
\*---------------------------------------------------------------------------*/
FoamFile
{
    format      ascii;
    class       volScalarField;
    location    "100";
    object      omega;
}
// * * * * * * * * * * * * * * * * * * * * * * * * * * * * * * * * * * * * * //

dimensions      [0 0 -1 0 0 0 0];

internalField   nonuniform List<scalar> 
10068
(
4.40719463890439
4.40593956845889
1.51499172336666
4.33830986893626
4.40489437552981
1.51445964989296
4.33714459082478
0.943209877288288
1.49400842044124
4.26179242897156
4.40403675110454
1.51394855654039
4.33612531231863
0.942805050171117
1.49350548075088
4.26068564360401
0.730618477194445
0.935342330889042
1.46539778361777
4.18531224364911
4.40331865812028
1.51350287958814
4.33529921076488
0.942442700920416
1.49301181042346
4.25972892175216
0.730267882501594
0.934957869630512
1.46491606396056
4.18423118751729
0.628209752579656
0.727365531138932
0.922691829302287
1.43836983620579
4.12157757228386
4.40269006007086
1.51311608144886
4.33463577042842
0.94213208531424
1.49257872833379
4.2589840684232
0.729960744988842
0.9346041937457
1.46444594748069
4.18340933509923
0.627888945971466
0.727031510888778
0.922321809071114
1.4378993693348
4.12047972261595
0.572026227764766
0.626832880937068
0.721053863725113
0.909031301080668
1.4166966630854
4.06465373735399
4.402110540883
1.51277456120238
4.33405560160879
0.941861812629151
1.49220216070061
4.25832973845533
0.729696690238904
0.93429729699043
1.46403144777419
4.18267273110072
0.627608034352594
0.726729547124831
0.921978241891041
1.43745639882957
4.1196631831704
0.571723028888195
0.626526893630622
0.720731117877491
0.908668835908186
1.41622877085412
4.06353611814151
0.538788486959123
0.571416110332331
0.623293333219188
0.713143609966266
0.896439757385509
1.39792748679868
4.00238481471739
4.40152158117407
1.51245358780552
4.33351820434364
0.941619137614097
1.49186524185162
4.25775016694538
0.729467111568698
0.934029251055548
1.46366012203599
4.18201274141796
0.627365943372753
0.726467565590735
0.921677542550897
1.43705042687853
4.11892356102644
0.571456882186974
0.626250069587263
0.720435521505952
0.908333796551411
1.41579177847635
4.06270704484544
0.538496259854022
0.571126833747911
0.622996945791362
0.712826385278494
0.896079932415068
1.39745655325792
4.00124377357872
0.518176051862952
0.538444847182216
0.569120838887037
0.618189507755298
0.704768208489347
0.884564309206578
1.37786390412487
3.92805504077971
4.40086620545821
1.51213891684996
4.33297199162519
0.941395580214123
1.49154983634075
4.25720971619526
0.729263487111197
0.933789324415219
1.46332460046562
4.18142374633065
0.627155896985121
0.726239149339828
0.921412633938333
1.43667959909774
4.11825064953431
0.571227273498908
0.626009391820949
0.720176955108882
0.908038050631955
1.41538507560647
4.06195355629193
0.538239325039583
0.570864375837075
0.622725138398032
0.712535805715405
0.895748534102033
1.39701715219771
4.00039857798924
0.51789112992463
0.538166048003923
0.568840321922095
0.61789749480085
0.704452895486497
0.884204245148233
1.37738662279989
3.92688481841275
0.505009086102773
0.517903744769852
0.536676499312856
0.565431749213329
0.612178122742125
0.696169870725879
0.872054330157169
1.3540665063933
3.83973436423959
4.40007849750477
1.51180227785396
4.3323476930585
0.941178829476464
1.49123820336146
4.25666071957037
0.729077918750315
0.933567622152792
1.46300946565046
4.18087274075046
0.626970776714094
0.726036338627649
0.921174639638804
1.43634231162029
4.1176458352776
0.571028248575559
0.625799905369204
0.719950384372977
0.907775422694206
1.4150102835455
4.06126207859073
0.538017557546294
0.570635879257887
0.622486918608636
0.712280473809577
0.895454921830347
1.39660667291697
3.99962130345502
0.517640410794897
0.537912629119738
0.568582314806189
0.617629554332895
0.704164986877414
0.883873653909798
1.37694209351877
3.92601524667008
0.504729447952632
0.517631945187473
0.536406060941091
0.565155048368746
0.611887519547373
0.695854791861702
0.871693078832111
1.35358127822152
3.83854568130099
0.496462550997867
0.504754755804708
0.516352147708529
0.533699235011391
0.56080506733885
0.605630234774149
0.687034988818484
0.857917248307109
1.32580924637753
3.73614908977759
4.39902506217932
1.51142782015497
4.33156242937023
0.940957815921268
1.49090824716574
4.2560276391502
0.72890146664777
0.933352971911064
1.46269700599187
4.18030741175919
0.626803590839626
0.725851257479358
0.920953906193379
1.43602409406069
4.11707854473652
0.57085369855948
0.625615059077298
0.719748578065648
0.907538293629705
1.41466853938254
4.06063537357826
0.537825649151299
0.570437255867638
0.622278627431731
0.712055730079585
0.895193108677073
1.39622678537467
3.99890118325243
0.517424073364223
0.537691895708276
0.568355870014626
0.617393790954401
0.703911733076462
0.88358127975876
1.37652717123632
3.92520896359208
0.504483302862182
0.517384669990542
0.536156843064261
0.564900410077823
0.611621725383779
0.695567973913121
0.871362885778311
1.35312732061304
3.83765143282807
0.496187051537428
0.504488015545863
0.51608851056267
0.533432383847208
0.560529522434359
0.605339851445593
0.686719577700654
0.857553718813276
1.3253162226999
3.73493155884887
0.490891578022977
0.496221571640203
0.503310183289386
0.513753887448549
0.529908283387351
0.55562669928978
0.598617047951092
0.677023305982651
0.84170960869123
1.29283870964072
3.61524256879716
4.39755770860791
1.51097440022535
4.3305097743684
0.940714238575144
1.49053515396091
4.25523884549277
0.728724328260067
0.933132674839271
1.46236586791
4.17966242830326
0.626647088649771
0.72567527105278
0.920739523937849
1.43570728287901
4.11649483074961
0.570697412479822
0.625448054591419
0.719563854881181
0.907317448520283
1.41434507487255
4.06004136838947
0.537657960259542
0.570262826403052
0.622094282485251
0.711854766755206
0.894955968339722
1.3958794614685
3.99824365239779
0.517237133695471
0.537500309855607
0.568158165083355
0.617186858252886
0.703688255611651
0.883320191383335
1.37614224651755
3.92445731484938
0.504270999379282
0.517169328044654
0.535937996083569
0.564676040397855
0.611387690162627
0.695315916772991
0.871070517665387
1.35270768105667
3.83680746868778
0.49594453261534
0.504245263136154
0.515845322490339
0.533186310531009
0.560276741184017
0.605075021139971
0.686433184480309
0.857221706219165
1.32485256014294
3.7340162438952
0.490619539052951
0.495958791688282
0.503051482184508
0.51349375066756
0.529642488648733
0.555351306526106
0.598326543308377
0.676707380896118
0.841343877423337
1.29234068306817
3.6139924564004
0.487282834590537
0.490668917575599
0.494854043256707
0.50094906117692
0.510503871001982
0.525683394796833
0.550106128685927
0.591103898664542
0.66596020623525
0.823271204315501
1.25478362710406
3.47430482027527
4.3954926315411
1.51039337160346
4.32905222816695
0.940426759730865
1.49008231383884
4.25417857361351
0.728533810294557
0.932889983952409
1.46198985838186
4.17885899887129
0.626492747728871
0.725498405913275
0.920518509537014
1.43537061820886
4.11582898167438
0.570552804417706
0.625291588855411
0.719387685893798
0.907101951344869
1.41402187065708
4.05942894272513
0.53750886773036
0.570106539547077
0.621927292046343
0.711670072366749
0.894734673093947
1.39554986912966
3.99761831971039
0.517074380470599
0.537332713694226
0.567984025971067
0.617003057039503
0.703487788146722
0.883082817746662
1.37578926719553
3.9237664396458
0.504087866554247
0.516982712975213
0.535747208078672
0.564479420100308
0.611181827802279
0.69509324489007
0.87080870117141
1.35231881217537
3.83602094560368
0.495735503433966
0.50403396235137
0.515631794543799
0.532969355190863
0.560053845609451
0.604841996299515
0.686181705108164
0.85692798351197
1.32442801888444
3.73314696405823
0.490380089920407
0.495719631437936
0.502812750284983
0.513253602785279
0.529398121642326
0.555099349701242
0.598062133284365
0.676421058562341
0.841009793529216
1.29186990227195
3.61307233890364
0.487013819651671
0.490409450078405
0.494599206759728
0.500693818849635
0.510244751492029
0.525417698924579
0.549830615096463
0.590813261178868
0.665644053127566
0.822904678630321
1.25428301119207
3.47303471497495
0.484982666071541
0.487081742557324
0.489371924719379
0.492671831172588
0.498086810264425
0.506978179766347
0.521277040183577
0.544352787184227
0.583104697336018
0.653840416823412
0.802556065993411
1.21109363649478
3.30971530623356
4.39259845881323
1.5096242725647
4.32700621215495
0.940067549501855
1.48950270404446
4.25271278694369
0.728314113476025
0.932603333827334
1.46153320412569
4.17778057092654
0.626330258202961
0.725308118170839
0.920274444477831
1.43498729344658
4.11499335963631
0.570412485478382
0.625137199833455
0.719210013522467
0.906878735923869
1.41367742590633
4.0587288834813
0.537372377049506
0.569961868519098
0.621770371635401
0.711493119766731
0.894517691699873
1.39521940796876
3.99697156192625
0.516930538858385
0.537183587589529
0.567827588434876
0.616835914357734
0.703302835388212
0.882859835026004
1.37545315233206
3.92310762211523
0.503928927850072
0.516820037935221
0.535579823992534
0.564305627177558
0.610998412312301
0.694892932015848
0.870569891361875
1.35195971265957
3.83529916422012
0.495555459124676
0.503851147839406
0.515445933375051
0.532779508444634
0.559858096769462
0.604636820395537
0.685959349956248
0.856664726519106
1.32403536124648
3.7323310642535
0.490173849440651
0.495511594197519
0.502603230727757
0.513041873568502
0.529182486714509
0.554877298180322
0.597829682070854
0.676170008019569
0.840714938868207
1.29143956072339
3.6121897479826
0.486777079054592
0.490173328228657
0.494364017383467
0.500458067937149
0.510006226819442
0.525174050053035
0.549578996666915
0.590549129773134
0.665357838775385
0.822569593838447
1.25380782532478
3.47210866752498
0.484716355882792
0.486825172073526
0.489120317022469
0.492420421678673
0.49783256075682
0.506719112449104
0.521011160753664
0.544077147539887
0.582814113002009
0.65352440949632
0.802190293054983
1.21059203173211
3.30845620335149
0.483555639551266
0.484803399607604
0.485852155883142
0.487341299296655
0.490114139273456
0.495102360116559
0.503440551254122
0.516865527783382
0.538502093078491
0.574765645421879
0.640838110832211
0.779640085548471
1.1611042588779
3.11653572096547
4.38858550054758
1.50859165222317
4.32414330330501
0.939600582385423
1.48873749808711
4.25066119336688
0.72804490052651
0.932245053127282
1.46094966681628
4.17629116771219
0.626146818565066
0.725088571485863
0.919985734647953
1.43452181902992
4.11388043004875
0.570267638045469
0.624974595228627
0.719018321394933
0.906631623952053
1.41328422719799
4.05785604915836
0.537241811733179
0.569821399597251
0.621615028039769
0.711313761547786
0.894291624914381
1.39486600354469
3.99623613311542
0.516800055125215
0.537046981315278
0.567682361965306
0.616678133926782
0.70312472055521
0.882640004992181
1.37511501095797
3.92242535040909
0.50378919463238
0.516676151271656
0.535430491235781
0.564148903119968
0.610830944519866
0.694707326625272
0.870344538889959
1.35161708222468
3.83460620059281
0.495399656940655
0.503692285573908
0.515283438054033
0.532612365984052
0.559684543496092
0.604453567839252
0.685758861421329
0.856423928195894
1.32367047411107
3.73157703323687
0.489996468354706
0.495331877440412
0.502421146669891
0.512856878616314
0.528993374965516
0.554682089934566
0.597624911375925
0.675947932880905
0.840450645811829
1.29104239092163
3.61134500760173
0.486573312257341
0.489968075485793
0.494157733814106
0.5002502926399
0.509795722043656
0.524959128950562
0.549357406581531
0.590317144016586
0.665106896072577
0.822274065561562
1.25337362248477
3.47120687993125
0.484482055584442
0.48659173015118
0.488888122141637
0.492188169121432
0.49759837756727
0.506481222977028
0.520767745318164
0.543825743127276
0.58255037164876
0.653238525990984
0.801855633720477
1.21011669078789
3.30754154851948
0.483291759227431
0.484549421315987
0.485603369936017
0.487093087738384
0.489863700774635
0.494848118131141
0.503181219397073
0.516599416745682
0.538226443044798
0.57447546275668
0.640523143811211
0.779276537255818
1.1606045247949
3.11531354141293
0.482706395733187
0.483396554301951
0.483636525231399
0.48395527062779
0.485036771722273
0.487567108567058
0.492263858986476
0.500099562721443
0.51266005851357
0.532816003882724
0.566436573048865
0.62739017095875
0.75487771326637
1.10427044981551
2.88929734830455
4.38308748973856
1.507198870608
4.32017297286959
0.938981652304297
1.48771194814677
4.24779574534419
0.727700884495761
0.931779959066728
1.46018135107224
4.17421163898585
0.625926291511208
0.72481962466999
0.919624800529589
1.43392839050136
4.11234930285777
0.570107275796144
0.624790961687912
0.718796707754045
0.906338641024803
1.41280668720753
4.05670085395907
0.537109335766796
0.569676273103061
0.621450911786845
0.711119407494597
0.894039688620857
1.3944618694797
3.9953242432965
0.5166768218904
0.536916212320133
0.567540881005102
0.616521137461675
0.702943119456292
0.882409806418817
1.37475253229708
3.9216539645805
0.503663459362287
0.516545538877491
0.53529329315782
0.564002748395418
0.610672038920314
0.694527690259804
0.870121276307113
1.35127185822818
3.83389052754826
0.495263318112249
0.503552504778983
0.515139326333438
0.532462677048055
0.559527399679156
0.604285606218386
0.685572441613834
0.856196104047735
1.32332181021755
3.73084866846777
0.489843359261016
0.495176149462975
0.502262448767915
0.512694567960731
0.528826363058631
0.554508602111423
0.597441668334516
0.675747296118987
0.840208337263247
1.29067277050444
3.61055806541658
0.486398293254752
0.489791019663336
0.493978733602572
0.500069028293992
0.509611370437508
0.524770430127285
0.549162503334996
0.590112730191393
0.664884774092982
0.82200925587663
1.25297341787511
3.47034124369485
0.484280524526288
0.486388945000026
0.488684599618878
0.491983588853966
0.497391759591859
0.506271329809195
0.520553155298921
0.543604497611503
0.582318923401572
0.65298801390979
0.801560599230719
1.20968310817381
3.30663455996584
0.483059665537223
0.484318393536122
0.485373815148294
0.486863791423464
0.489632972357601
0.494614501481952
0.502943457012365
0.516356074995467
0.537975344647978
0.574212420395079
0.640238462914351
0.778944191604851
1.1601323463722
3.11443542818268
0.48244468434475
0.483144906156971
0.483390264298786
0.483709851703273
0.484789512269305
0.487316638858786
0.492009273385228
0.499839866739208
0.512393755687522
0.532540542155151
0.566147170863649
0.627077204320285
0.754517946415426
1.1037741320535
2.88815826219247
0.482233332819339
0.482565019642936
0.482286062209407
0.481857805738856
0.481866573803139
0.482852983307241
0.485303419283555
0.48979823139411
0.497214301622193
0.509005907815426
0.527778241094862
0.558798253497208
0.614411975231401
0.729308122192985
1.04106892296036
2.62525566707671
4.37566092989866
1.50532903224926
4.31473793130264
0.938154535637203
1.48633146264403
4.24382947597634
0.727249530373082
0.931163782097676
1.45915410815144
4.17131473590406
0.625648458771268
0.724475853517827
0.919156864402007
1.43314913658476
4.11022085002487
0.569917937410753
0.624570192601223
0.71852499488697
0.90597210713977
1.41219898968508
4.05512045753035
0.536965431933524
0.56951556704174
0.621265117651135
0.71089398139053
0.893740108531091
1.3939710278433
3.99412656316622
0.516553779512615
0.536783423923988
0.567394198152012
0.616354446695977
0.702745223392876
0.882152152824766
1.37433776760149
3.9207041196015
0.503546075574546
0.516422085216413
0.535161501170584
0.563859606813037
0.610512976067059
0.694343489385926
0.869886555635002
1.35090134697884
3.83308439764781
0.495141522026423
0.503426636740498
0.515008117891633
0.532324516791433
0.559380086632854
0.60412542726698
0.685391312384522
0.855969856513465
1.32297034528921
3.73009702497805
0.489709937918981
0.495039761639881
0.502122436940726
0.512550063643674
0.52867617688884
0.554350922984071
0.597273150063385
0.675560111480119
0.839978600766206
1.29031881713568
3.60980583457614
0.486247570833645
0.489637985718676
0.49382316021337
0.499910479359429
0.509449112224054
0.524603374785366
0.548988958848343
0.589929498684627
0.6646837492214
0.821766190749673
1.25260063880379
3.46953272609482
0.484107640194019
0.486214250250679
0.488508246285512
0.491805374594996
0.497211072014145
0.506087285790969
0.520364629530959
0.543409833384196
0.582114960547265
0.652766245328083
0.801296297210092
1.20928168210897
3.30575196549116
0.482860164784125
0.484117837430452
0.485172739001922
0.486661938420137
0.489429497491187
0.494408412247758
0.502733772281597
0.516141667190236
0.537754519999948
0.573981672183404
0.639989157192367
0.778651471434504
1.15970120438412
3.1135386459126
0.48221456572833
0.482916061169436
0.483163088362411
0.483483162224909
0.484561704709432
0.487086420670317
0.49177568709243
0.499602026178838
0.512150510583267
0.532289978461413
0.5658852150619
0.626794728104098
0.754189516701804
1.10330806416745
2.88737083630236
0.481973517304163
0.482315447573326
0.482042073018627
0.481614887586113
0.481622094245198
0.482605664938142
0.48505254076325
0.489543157009116
0.496954206636922
0.508739489473036
0.527503167895247
0.558510115488412
0.614101844112016
0.728953394213592
1.04058233701556
2.62422953699793
0.481999240594861
0.482107003787967
0.481503829042812
0.48061049497803
0.479954157490049
0.479988404866559
0.481067862822348
0.483562844409756
0.48799647557479
0.495189076008314
0.506484472781989
0.524240811558653
0.55311775755845
0.603787876219926
0.705689994256602
0.974946988549006
2.21610560966242
4.36576311080867
1.50283274005784
4.30740040527159
0.937050059163339
1.48447888797381
4.23840703331042
0.726651094704844
0.930340795969784
1.45777457998515
4.16731538832541
0.625288045658734
0.724025124264019
0.918537895073616
1.4321102426383
4.10726784773272
0.569682704836988
0.624292056404594
0.718177677442474
0.905497058482052
1.41140282022675
4.05293484310352
0.536798372780847
0.569325745063048
0.621041429551581
0.71061711744124
0.893365098162354
1.39334734813862
3.99249776828056
0.516422465347567
0.536639080934234
0.567231304364467
0.616164977013163
0.702514785869067
0.881845035722063
1.3738344945328
3.9194670865248
0.503430612775073
0.516298706911517
0.535027169697673
0.563710385316
0.610343085845537
0.694141693747699
0.869623107246368
1.35047728126226
3.83209977685936
0.495029006447439
0.503309025290692
0.514883652838854
0.532191066730404
0.559234910243945
0.603964134725096
0.685204637225053
0.855731286408239
1.32259289184267
3.72925909331316
0.489591524429807
0.494917830365769
0.501995977992589
0.512417879409188
0.528536815399541
0.55420233879698
0.597111699407979
0.675377349334763
0.839749945012608
1.28996185413543
3.60903277467721
0.48611672610401
0.489504514128046
0.493686538798894
0.499770052783374
0.509304050730408
0.524452568966939
0.548830690700174
0.589760458780406
0.664495689041097
0.821535247633815
1.25224173102267
3.46876386739239
0.483959063590521
0.486063602814826
0.488355359560218
0.491649924070013
0.497052516009955
0.505924885594027
0.520197396220784
0.543236215309107
0.581931865003182
0.65256526488913
0.801053385232007
1.20890604218919
3.30492346386718
0.482689214538432
0.483945275034249
0.484998734689137
0.486486343665852
0.489251808191667
0.494227945047059
0.502549773772745
0.515953217338139
0.53756017392697
0.573778221334387
0.639768414089798
0.778388889360382
1.15929996116668
3.11264460215061
0.482016887322328
0.482717526475426
0.482964222896713
0.483283727816782
0.484360916054006
0.486883407429854
0.491569697996947
0.49939236124161
0.511936304563457
0.532069777204649
0.565655566242665
0.626547545082351
0.753900446689676
1.10288175505419
2.8865062864924
0.481745124861953
0.482088556516376
0.481817050182581
0.481390550132101
0.48139686694632
0.482378324808497
0.484822272927006
0.489309353472492
0.496716241035984
0.508496456760071
0.527253334972655
0.55824976446896
0.613822421940111
0.728630046189366
1.04012581435708
2.62358376978493
0.481741017444619
0.481859240516536
0.48126186544936
0.480369831930935
0.479712175218076
0.479743853219372
0.480820091132412
0.483311376900173
0.487740814100188
0.494928548885195
0.506217979960572
0.5239662592146
0.552831149799396
0.603480954300946
0.705342020410404
0.974486928352671
2.21610688980994
0.48191169465346
0.481885419042008
0.481088011403701
0.47991697032581
0.478864818275714
0.478333926515268
0.478603826229947
0.479931355642131
0.482659086367706
0.487305152885694
0.494676411838169
0.506070013668099
0.523703441341887
0.551791354519653
0.59952682457688
0.69110309122091
0.914874003124405
2.2870039387159
4.35274303970248
1.49953892558524
4.29763670575315
0.935583652134928
1.48201011073239
4.2311002656695
0.72585640929074
0.929242233685245
1.45592682600583
4.16186081254469
0.624813642605017
0.723427592094987
0.917712303800803
1.43071875345442
4.10320455430228
0.569380656971687
0.623931242792574
0.717722667483655
0.904869345116886
1.41034414670307
4.0499157662485
0.536593735893216
0.56908990077362
0.620759470418917
0.710263091660938
0.892879444840063
1.39253201267777
3.99025863847658
0.516272609714384
0.536471449551613
0.567038513160338
0.615936290820579
0.70223120051999
0.881460407151173
1.3731961045357
3.91779662148477
0.503309467176267
0.516166924738056
0.534880651119139
0.563543886297146
0.610149052216711
0.693905882403289
0.869308757903388
1.34996339897958
3.83082752407632
0.494919866655736
0.503193213982617
0.514758758065467
0.532054231469519
0.559082581134954
0.603790830694019
0.684999124691868
0.855462906067827
1.32216111422086
3.72824573173885
0.489483183230761
0.494805082595598
0.501877371864877
0.512291766750966
0.528401321892837
0.554054977846849
0.596948212389189
0.675188078506908
0.839508286034014
1.28957876946018
3.6081719334604
0.486001287287247
0.489385963042688
0.493564022600354
0.499642611939137
0.509170625733587
0.524311874102211
0.548680813366298
0.589597773335255
0.664311401785863
0.821304905622424
1.25187913420663
3.4679771169353
0.483830533180977
0.485932706318141
0.488221652810788
0.491512872109671
0.496911484055371
0.50577911702248
0.520045892665589
0.543077373852171
0.581762455847171
0.652376771467079
0.800821875169476
1.20854340899274
3.30412840421131
0.482542585962052
0.483796776798311
0.484848228740956
0.486333559577515
0.489096303556338
0.494069162034951
0.50238706971482
0.515785756478276
0.537386563575841
0.573595290245042
0.639568072556936
0.778146958171856
1.15892244513891
3.11179872819191
0.481847682417382
0.482546898364841
0.482792341437735
0.483110460572255
0.484185805655653
0.486705867320128
0.491389162698706
0.499208273708661
0.511747957119374
0.53187591358899
0.565453004494216
0.626328564727556
0.753640697884963
1.1024823341693
2.88561370950789
0.481549049565344
0.481891837794405
0.481620191172649
0.481193305220484
0.481198466244192
0.482177945996988
0.484619270025006
0.489103237647888
0.496506555315865
0.508282569082502
0.527033919277487
0.558021690471269
0.613578091211404
0.728345571334617
1.03970613048197
2.62277515456097
0.481514080379771
0.481634058885898
0.481038773264685
0.480147628766131
0.479489283703961
0.479519065734744
0.480592642511997
0.483080777789136
0.487506686536467
0.494690474444389
0.505975273674008
0.523717375653028
0.552572742491583
0.603204894469296
0.705023905751776
0.97404682175262
2.21610874385065
0.481654715701322
0.481639170035442
0.480847814254169
0.479678325059932
0.478625098667894
0.478091875003627
0.478358800248993
0.479682926948702
0.482406882994055
0.487048781601243
0.494415341697443
0.505803311076741
0.523429254921217
0.551505960686162
0.599222613636304
0.690764551849366
0.914458091817821
2.28699341886412
0.481909509126788
0.481808094938963
0.480901927244664
0.479576328697656
0.478304968778017
0.4774616002968
0.477284512860072
0.477971069654203
0.479774138590031
0.4830696440352
0.488429042976342
0.496738385059332
0.509420387357487
0.52888825939368
0.559585470800931
0.610640461700288
0.704002356235819
0.940940837876696
2.38169009876714
4.33578713456803
1.49522567793057
4.28480206823144
0.933649497852021
1.47875226569107
4.22138857088404
0.724806070633248
0.927783884000835
1.45346958904463
4.15452758567374
0.624187415300039
0.722634350498016
0.916611749825888
1.42885953767481
4.09767941579291
0.568986001020209
0.623456466230022
0.717120065536455
0.90403370270251
1.40892982059327
4.04577651278687
0.536333644497262
0.568787050483735
0.620393793238923
0.709799650271512
0.892238741791784
1.39145048447502
3.987178194452
0.516091577803668
0.536266030548914
0.566798754559384
0.615647751965614
0.701868440936261
0.880962796703137
1.37236327345402
3.91551206291196
0.503173506537702
0.516016420613476
0.534710066178151
0.563346179253742
0.609914151632008
0.693615167952554
0.868915172701039
1.34931284591592
3.82912305033707
0.494807215441707
0.503071577582541
0.514624835951436
0.531904163292632
0.558911649325854
0.603591932974625
0.6847580409949
0.855142363288469
1.32163884098584
3.72694680135055
0.489379458253809
0.494695586319106
0.501760071955273
0.512164400870724
0.528261398360098
0.553899316682652
0.596771540885017
0.674978837903246
0.839235983629675
1.2891412704091
3.60713474168571
0.485896599703168
0.489277385658075
0.493450295536746
0.49952236931754
0.5090424491249
0.524174150379282
0.548531247773828
0.589432187030662
0.664119851315749
0.82106102460125
1.25149101214682
3.46710067318534
0.483717752285767
0.485817127384555
0.488102522045766
0.491389370254907
0.496782766937391
0.505644281291307
0.519903801955459
0.542926231493955
0.581598691410549
0.65219145306118
0.800590386450182
1.20817668492343
3.30331653823397
0.48241614884658
0.483668192313392
0.484717096071009
0.486199410249033
0.488958606561735
0.493927342773979
0.502240480148501
0.515633533092691
0.53722722878901
0.57342553688894
0.63937967063855
0.777915745435675
1.15855808951323
3.1109863650766
0.481702820832708
0.482400350334473
0.482643982053137
0.482960042204205
0.484032930452204
0.486550064480721
0.491229960247542
0.499045176878414
0.511580299736013
0.531702449470074
0.56527057069041
0.626129458188833
0.753400670012388
1.10210431723315
2.88475392271479
0.481381398132097
0.481722955612712
0.481450238376202
0.481022145610206
0.48102565316013
0.482002928884369
0.484441566258966
0.488922462764244
0.496322351589776
0.508094423569816
0.526840661857761
0.557820417215749
0.613361454272525
0.728089385964394
1.03930893299009
2.6218756023425
0.48131936727004
0.481438939392819
0.480843720652065
0.479952376612549
0.479293052679444
0.479321038727245
0.480392205293287
0.482877526341962
0.487300349535854
0.494480801586857
0.505761829849142
0.523498952106846
0.552346527296327
0.602963572612878
0.70474367509769
0.973637128422304
2.21611060402013
0.481428919013622
0.481415427844053
0.480626415627256
0.479458042905488
0.478404336745027
0.477869411751515
0.478133868217651
0.479455063953816
0.482175798792157
0.486814264497845
0.494177148162532
0.505560921976075
0.523181318511265
0.551249269172018
0.598948777100218
0.690448345059184
0.914059853718546
2.2869949506994
0.481653377951166
0.481563025904685
0.480663211803775
0.479339451751557
0.478067286322407
0.477221830439775
0.477041989286282
0.477725352452501
0.479524873003083
0.482816513474044
0.488171726357992
0.496476456292353
0.50915305632889
0.528613681694796
0.559299822747285
0.610336728021376
0.703634473834914
0.940327895755471
2.38167839879971
0.481953209733655
0.481814143699627
0.480854022689406
0.479453074457695
0.478076245336445
0.477083102237208
0.476691523854992
0.477070780150711
0.478433821518135
0.481096880823765
0.485538450487374
0.492495083402988
0.503144077764353
0.519470738945826
0.545032398836533
0.586666671649624
0.658830561975355
0.801419102824688
1.20004687774762
3.68517097144455
1.48962870413496
4.26806403734935
0.931122069551296
1.47449268619598
4.20864469068071
0.723429349606531
0.925862755974867
1.45023362762466
4.14480244322373
0.623364631605267
0.721586323922209
0.915152827548709
1.42639296747225
4.09026775632096
0.568467637001445
0.622829868935242
0.716321062985359
0.902922120218291
1.40704487409632
4.0401651868707
0.535996308618861
0.568391396355763
0.61991301613727
0.709186809339679
0.89138757940175
1.39000925605593
3.98297027972427
0.515863971519455
0.536004923529689
0.566490853726797
0.61527365006012
0.701393970430144
0.880307480976779
1.37126098169773
3.91238427167865
0.503011644596801
0.515834537129807
0.534500725884864
0.56309990780625
0.609617407530174
0.693243096699719
0.868406434224149
1.34846596399407
3.82680603023027
0.494682888562902
0.502934944415504
0.514471412068632
0.53172873000701
0.558707870571441
0.603350386763365
0.684460175821285
0.854741081975899
1.3209791816516
3.7252189926047
0.489274076464761
0.494582431726754
0.501636333204111
0.512026978696383
0.528106932162227
0.553723610843692
0.596567796246131
0.674732662283502
0.838910540428269
1.28861336878433
3.60581243291857
0.485797593578479
0.489173297614737
0.493339335632135
0.499402625700594
0.508911989218706
0.524030855896763
0.548372210583012
0.589252295426253
0.663907384447969
0.820785907145321
1.25104939292926
3.46604929876681
0.483616308123843
0.485712200084024
0.487992978435968
0.491274015857549
0.496660436418491
0.505513801576286
0.519763764754691
0.542774497989395
0.581431062761131
0.651998166801686
0.800345018156868
1.20778465297839
3.30242605492393
0.482305769904514
0.483555268451885
0.484600942005726
0.486079291253478
0.48883379729964
0.493797138407843
0.502104121908747
0.515490024937099
0.537074890016007
0.573260752890212
0.639193822822346
0.777684007072921
1.15818983003626
3.1101616964392
0.481578287443154
0.482273859670851
0.482515161423967
0.482828458471311