/*--------------------------------*- C++ -*----------------------------------*\
  =========                 |
  \\      /  F ield         | OpenFOAM: The Open Source CFD Toolbox
   \\    /   O peration     | Website:  https://openfoam.org
    \\  /    A nd           | Version:  12
     \\/     M anipulation  |
\*---------------------------------------------------------------------------*/
/*   Windows 32 and 64 bit porting by blueCAPE: http://www.bluecape.com.pt   *\
|  Based on Windows porting (2.0.x v4) by Symscape: http://www.symscape.com   |
\*---------------------------------------------------------------------------*/
FoamFile
{
    format      ascii;
    class       volScalarField;
    location    "100";
    object      p;
}
// * * * * * * * * * * * * * * * * * * * * * * * * * * * * * * * * * * * * * //

dimensions      [0 2 -2 0 0 0 0];

internalField   nonuniform List<scalar> 
10068
(
83333.3236849235
83333.3236597089
83333.3236850028
83333.3236847401
83333.323635267
83333.3236597635
83333.3236595217
83333.3236834256
83333.3236847654
83333.3236843613
83333.3236115664
83333.3236353134
83333.3236350801
83333.32365818
83333.3236595249
83333.3236591426
83333.323678613
83333.3236830634
83333.3236843442
83333.323683731
83333.3235885734
83333.3236115995
83333.3236113871
83333.3236337363
83333.3236350852
83333.3236347078
83333.3236534178
83333.3236578182
83333.3236591038
83333.3236585224
83333.323670299
83333.3236781785
83333.3236825185
83333.3236836654
83333.3236828061
83333.323566266
83333.323588591
83333.3235884009
83333.3236100283
83333.3236113811
83333.3236110267
83333.3236290226
83333.3236333843
83333.3236346767
83333.3236341002
83333.3236452011
83333.3236529835
83333.323657275
83333.3236584355
83333.3236576186
83333.3236586831
83333.3236698776
83333.3236774791
83333.323681726
83333.3236826936
83333.3236815571
83333.323544625
83333.3235662691
83333.3235660989
83333.3235870264
83333.3235883793
83333.323588052
83333.3236053695
83333.3236096893
83333.3236109871
83333.3236104361
83333.3236209095
83333.3236286003
83333.3236328559
83333.3236340258
83333.3236332179
83333.3236337221
83333.3236447788
83333.3236522881
83333.3236564947
83333.3236574859
83333.3236564016
83333.3236441129
83333.3236583174
83333.3236690876
83333.3236765552
83333.3236806558
83333.3236813954
83333.3236799757
83333.3235236322
83333.3235446144
83333.3235444627
83333.3235647116
83333.3235660635
83333.3235657608
83333.3235824299
83333.323586698
83333.3235879975
83333.3235874793
83333.3235973706
83333.3236049639
83333.3236091797
83333.3236103565
83333.3236095783
83333.3236095838
83333.3236204973
83333.3236279216
83333.3236320971
83333.3236331011
83333.3236320323
83333.3236193318
83333.3236333558
83333.3236439956
83333.3236513806
83333.323655451
83333.3236562208
83333.3236548621
83333.3236269366
83333.3236438089
83333.3236575311
83333.3236680665
83333.3236753721
83333.3236792636
83333.3236797568
83333.3236780694
83333.3235032702
83333.3235236091
83333.3235234745
83333.3235430656
83333.3235444144
83333.3235441346
83333.3235601821
83333.3235643922
83333.3235656929
83333.3235652051
83333.3235745548
83333.3235820385
83333.3235862045
83333.3235873864
83333.3235866464
83333.3235862168
83333.3235969744
83333.3236043071
83333.3236084461
83333.3236094588
83333.3236084256
83333.3235953971
83333.3236092275
83333.3236197345
83333.3236270383
83333.3236310828
83333.32363187
83333.3236305341
83333.323602379
83333.3236190295
83333.3236325793
83333.3236429942
83333.3236502275
83333.3236540957
83333.3236546254
83333.3236530067
83333.3236074348
83333.3236266552
83333.3236430616
83333.3236564781
83333.323666786
83333.3236738676
83333.3236775184
83333.3236777857
83333.3236758556
83333.323483522
83333.3235032361
83333.3235031171
83333.3235220714
83333.3235234145
83333.323523156
83333.3235386069
83333.3235427543
83333.3235440543
83333.3235435952
83333.3235524388
83333.3235598023
83333.323563913
83333.3235651002
83333.3235643966
83333.3235635873
83333.3235741732
83333.3235814019
83333.3235854945
83333.3235865152
83333.3235855265
83333.3235722565
83333.3235858752
83333.323596238
83333.3236034513
83333.3236074613
83333.3236082626
83333.3236069688
83333.3235786965
83333.3235951048
83333.3236084736
83333.3236187598
83333.3236259187
83333.3236297654
83333.3236303177
83333.3236287291
83333.3235831479
83333.3236021007
83333.3236182917
83333.3236315493
83333.3236417485
83333.3236487663
83333.3236523979
83333.3236527064
83333.3236508516
83333.3235858233
83333.3236071578
83333.3236259817
83333.3236420317
83333.3236551345
83333.3236651693
83333.3236719956
83333.3236754188
83333.3236754988
83333.3236733564
83333.3234643723
83333.3234834787
83333.3234833738
83333.3235017122
83333.3235030469
83333.3235028081
83333.3235176875
83333.3235217679
83333.3235230643
83333.3235226323
83333.3235310028
83333.3235382376
83333.323542288
83333.323543479
83333.3235428103
83333.3235416691
83333.3235520697
83333.3235591838
83333.3235632248
83333.3235642546
83333.3235633087
83333.3235498715
83333.3235632594
83333.3235734623
83333.3235805727
83333.323584539
83333.3235853531
83333.3235841105
83333.3235558339
83333.3235719778
83333.3235851496
83333.3235952932
83333.3236023662
83333.3236061829
83333.3236067543
83333.3236052137
83333.3235597655
83333.3235784301
83333.3235943907
83333.3236074731
83333.3236175519
83333.3236245018
83333.3236281156
83333.3236284494
83333.3236266322
83333.3235618532
83333.3235828732
83333.3236014394
83333.3236172895
83333.3236302457
83333.3236401819
83333.3236469505
83333.323650356
83333.3236504802
83333.3236484179
83333.3235623113
83333.3235855718
83333.3236065558
83333.323624985
83333.3236406564
83333.3236534193
83333.3236631636
83333.323669747
83333.3236729834
83333.3236729182
83333.3236705987
83333.3234458061
83333.3234643208
83333.3234642288
83333.323481971
83333.3234832957
83333.3234830743
83333.3234974063
83333.3235014166
83333.3235027065
83333.3235022997
83333.3235102283
83333.3235173281
83333.3235213139
83333.3235225056
83333.3235218703
83333.3235204402
83333.3235306444
83333.3235376357
83333.3235416201
83333.3235426582
83333.3235417539
83333.323528211
83333.3235413526
83333.3235513815
83333.3235583793
83333.323562298
83333.3235631262
83333.3235619329
83333.3235337472
83333.3235496051
83333.323562561
83333.3235725464
83333.3235795211
83333.3235832984
83333.323583888
83333.3235824041
83333.3235372309
83333.323555582
83333.3235712922
83333.3235841811
83333.3235941241
83333.3236009935
83333.3236045818
83333.3236049386
83333.3236031742
83333.3235388219
83333.3235595035
83333.3235777902
83333.3235934205
83333.323606212
83333.3236160358
83333.3236227415
83333.3236261312
83333.3236262817
83333.3236242633
83333.3235387112
83333.323561607
83333.3235822867
83333.3236004733
83333.3236159592
83333.3236285881
83333.3236382413
83333.3236447695
83333.3236479868
83333.3236479699
83333.323645731
83333.3235370635
83333.3235620819
83333.3235850157
83333.3236055893
83333.3236235918
83333.3236388631
83333.3236512868
83333.323660758
83333.3236671378
83333.3236702378
83333.3236700731
83333.3236676181
83333.3234278086
83333.323445747
83333.323445667
83333.3234628312
83333.3234641438
83333.3234639386
83333.3234777458
83333.3234816839
83333.3234829644
83333.323482581
83333.3234900963
83333.3234970566
83333.3235009747
83333.3235021638
83333.32350156
83333.3234998793
83333.3235098795
83333.3235167418
83333.3235206652
83333.323521709
83333.3235208446
83333.3235072494
83333.3235201329
83333.323529977
83333.3235368544
83333.3235407211
83333.3235415629
83333.3235404173
83333.3235124004
83333.3235279551
83333.3235406787
83333.3235504929
83333.3235573603
83333.3235610944
83333.3235617033
83333.3235602742
83333.3235154937
83333.3235335083
83333.3235489467
83333.3235616236
83333.323571415
83333.323578191
83333.3235817452
83333.3235821245
83333.3235804206
83333.3235166666
83333.3235369834
83333.3235549675
83333.3235703559
83333.3235829631
83333.3235926575
83333.3235992872
83333.3236026551
83333.3236028307
83333.3236008695
83333.3235160809
83333.3235385865
83333.323558939
83333.3235768599
83333.3235921375
83333.3236046116
83333.3236141584
83333.3236206265
83333.3236238273
83333.3236238379
83333.3236216467
83333.3235138868
83333.3235384873
83333.3235610681
83333.323581354
83333.3235991308
83333.3236142314
83333.3236265301
83333.3236359137
83333.3236422379
83333.3236453192
83333.3236452009
83333.3236428239
83333.3235102125
83333.3235368466
83333.3235615553
83333.3235840706
83333.3236041843
83333.3236217403
83333.3236366232
83333.3236487326
83333.3236579686
83333.3236641948
83333.3236672154
83333.3236669991
83333.3236644614
83333.323410366
83333.3234277426
83333.3234276737
83333.3234442767
83333.323445575
83333.3234453857
83333.3234586882
83333.3234625523
83333.3234638217
83333.3234634601
83333.3234705875
83333.3234774056
83333.323481254
83333.3234824371
83333.3234818632
83333.3234799652
83333.3234897567
83333.3234964856
83333.3235003442
83333.3235013907
83333.3235005644
83333.3234869631
83333.3234995802
83333.3235092317
83333.3235159828
83333.3235197931
83333.3235206462
83333.3235195466
83333.3234917638
83333.3235070026
83333.3235194812
83333.3235291142
83333.3235358667
83333.3235395538
83333.3235401815
83333.3235388056
83333.3234945133
83333.3235121725
83333.3235273213
83333.3235397706
83333.3235493975
83333.3235560712
83333.3235595875
83333.3235599903
83333.3235583461
83333.3234953305
83333.3235152592
83333.3235329177
83333.3235480429
83333.323560447
83333.3235699962
83333.3235765371
83333.3235798749
83333.3235800767
83333.3235781792
83333.3234943542
83333.3235164434
83333.3235364432
83333.3235540736
83333.3235691201
83333.3235814181
83333.3235908411
83333.3235972363
83333.3236004178
83333.3236004529
83333.3235983233
83333.3234917108
83333.3235158679
83333.3235380713
83333.3235580449
83333.3235755698
83333.323590474
83333.3236026256
83333.3236119063
83333.3236181704
83333.3236212331
83333.3236211424
83333.3236188133
83333.3234875173
83333.3235136767
83333.3235379799
83333.3235601604
83333.3235800058
83333.3235973528
83333.3236120758
83333.3236240652
83333.323633214
83333.3236393829
83333.3236423836
83333.3236422051
83333.3236397414
83333.3234818717
83333.323510003
83333.3235363394
83333.323560626
83333.3235826599
83333.3236022927
83333.3236194181
83333.3236339433
83333.3236457767
83333.3236548241
83333.3236609508
83333.3236639473
83333.323663741
83333.3236611937
83333.3233934657
83333.3234102943
83333.3234102353
83333.3234262927
83333.3234275755
83333.3234274011
83333.3234402168
83333.3234440053
83333.3234452624
83333.3234449219
83333.3234516832
83333.3234583574
83333.3234621343
83333.3234633094
83333.3234627639
83333.3234606766
83333.3234702568
83333.3234768497
83333.3234806407
83333.323481687
83333.3234808972
83333.3234673294
83333.3234796742
83333.3234891277
83333.3234957481
83333.3234994982
83333.3235003596
83333.3234993044
83333.3234718108
83333.3234867245
83333.3234989493
83333.3235083936
83333.3235150251
83333.3235186613
83333.3235193054
83333.3235179812
83333.3234742558
83333.3234915457
83333.3235063913
83333.3235186009
83333.3235280533
83333.3235346176
83333.3235380924
83333.323538518
83333.3235369321
83333.3234747682
83333.3234942896
83333.3235116038
83333.323526448
83333.3235386334
83333.3235480246
83333.3235544684
83333.3235577722
83333.3235580005
83333.3235561669
83333.3234734685
83333.3234951184
83333.3235147418
83333.3235320584
83333.3235468522
83333.3235589553
83333.3235682384
83333.3235745483
83333.3235777023
83333.3235777648
83333.3235757023
83333.3234704646
83333.323494153
83333.323515953
83333.323535588
83333.3235528352
83333.3235675182
83333.3235795007
83333.3235886612
83333.323594854
83333.323597895
83333.3235978303
83333.323595565
83333.3234658518
83333.3234915121
83333.3235153856
83333.3235372053
83333.3235567544
83333.3235738634
83333.3235883994
83333.3236002463
83333.3236092929
83333.3236154
83333.3236183781
83333.3236182248
83333.3236158065
83333.3234597198
83333.3234873157
83333.3235131908
83333.3235370919
83333.3235588126
83333.3235781961
83333.3235951252
83333.3236094969
83333.3236212114
83333.3236301694
83333.3236362359
83333.323639206
83333.3236390246
83333.3236365462
83333.3234521397
83333.3234816683
83333.3235095103
83333.3235354248
83333.3235592171
83333.3235807463
83333.3235999153
83333.3236166435
83333.3236308503
83333.3236424521
83333.3236513602
83333.3236574412
83333.3236604745
83333.3236603581
83333.3236579067
83333.3233770966
83333.3233933891
83333.3233933393
83333.3234088655
83333.3234101318
83333.3234099715
83333.323422316
83333.3234260286
83333.3234272722
83333.3234269519
83333.3234333655
83333.3234398951
83333.3234435988
83333.3234447654
83333.3234442471
83333.3234419939
83333.3234513613
83333.3234578164
83333.3234615378
83333.3234625821
83333.3234618272
83333.3234483252
83333.323460394
83333.3234696461
83333.3234761331
83333.32347982
83333.3234806871
83333.3234796746
83333.3234525159
83333.3234670985
83333.323479063
83333.3234883135
83333.3234948195
83333.323498401
83333.3234990588
83333.3234977846
83333.3234546909
83333.3234716009
83333.3234861345
83333.3234980954
83333.3235073659
83333.3235138149
83333.3235172444
83333.3235176907
83333.3235161614
83333.3234549413
83333.3234740416
83333.3234909973
83333.3235055467
83333.323517501
83333.3235267247
83333.3235330645
83333.3235363312
83333.3235365854
83333.3235348141
83333.323453373
83333.3234745652
83333.3234937929
83333.3235107766
83333.3235252999
83333.3235371925
83333.3235463235
83333.3235525402
83333.3235556623
83333.3235557538
83333.3235537583
83333.3234500798
83333.3234732778
83333.3234946507
83333.3235139228
83333.3235308689
83333.323545309
83333.3235571033
83333.323566128
83333.3235722376
83333.3235752508
83333.3235752149
83333.3235730184
83333.3234451398
83333.3234702777
83333.3234936962
83333.3235151283
83333.3235343534
83333.3235511968
83333.3235655201
83333.3235772026
83333.3235861306
83333.3235921652
83333.3235951184
83333.3235949919
83333.3235926367
83333.3234386238
83333.3234656621
83333.3234910525
83333.3235145423
83333.3235359206
83333.3235550236
83333.323571726
83333.3235859168
83333.3235974904
83333.3236063445
83333.3236123455
83333.3236152892
83333.3236151257
83333.3236126869
83333.3234305967
83333.3234595253
83333.3234868463
83333.3235123214
83333.3235357523
83333.3235569894
83333.3235759238
83333.3235924636
83333.3236065191
83333.323618
83333.3236268143
83333.3236328287
83333.3236358235
83333.3236357177
83333.3236333258
83333.3234211014
83333.3234519427
83333.3234811889
83333.3235086122
83333.3235340267
83333.323557299
83333.3235783402
83333.3235970797
83333.323613451
83333.3236273839
83333.3236388023
83333.3236476217
83333.3236537083
83333.3236568531
83333.3236569389
83333.3236547298
83333.3233612484
83333.3233770157
83333.3233769746
83333.3233919822
83333.3233932314
83333.3233930843
83333.3234049711
83333.3234086083
83333.3234098378
83333.3234095368
83333.3234156174
83333.323422003
83333.3234256332
83333.3234267906
83333.3234262985
83333.3234238979
83333.3234330522
83333.3234393686
83333.3234430196
83333.3234440606
83333.3234433394
83333.3234299285
83333.3234417197
83333.3234507684
83333.3234571202
83333.323460742
83333.3234616128
83333.3234606417
83333.3234338543
83333.3234481017
83333.3234598018
83333.3234688554
83333.3234752328
83333.3234787567
83333.3234794255
83333.3234781999
83333.3234357899
83333.3234523138
83333.3234665285
83333.3234782348
83333.3234873179
83333.3234936473
83333.3234970276
83333.323497492
83333.3234960176
83333.3234358159
83333.3234544855
83333.323471073
83333.3234853171
83333.3234970315
83333.3235060802
83333.3235123106
83333.3235155363
83333.3235158143
83333.3235141037
83333.3234340254
83333.3234547464
83333.3234735639
83333.3234902
83333.3235044388
83333.3235161089
83333.3235250786
83333.3235311957
83333.3235342833
83333.3235344026
83333.3235324729
83333.3234305008
83333.3234531914
83333.323474118
83333.3234930071
83333.3235096329
83333.3235238124
83333.3235354035
83333.3235442807
83333.3235502992
83333.3235532816
83333.3235532755
83333.323551148
83333.3234253079
83333.3234499034
83333.3234728442
83333.3234938643
83333.3235127407
83333.3235292947
83333.3235433834
83333.3235548829
83333.3235636775
83333.3235696289
83333.3235725531
83333.3235724542
83333.3235701686
83333.3234185021
83333.3234449623
83333.3234698447
83333.3234928967
83333.3235139038
83333.3235326968
83333.3235491438
83333.323563128
83333.3235745396
83333.3235832744
83333.3235892
83333.3235921171
83333.3235919756
83333.3235895974
83333.3234101322
83333.3234384418
83333.3234652205
83333.323490231
83333.323513271
83333.3235341835
83333.3235528505
83333.3235691713
83333.3235830485
83333.3235943872
83333.3236030939
83333.3236090364
83333.3236119977
83333.3236119001
83333.3236095389
83333.3234002369
83333.3234304096
83333.3234590714
83333.3234859974
83333.3235109988
83333.323533933
83333.3235546987
83333.3235732132
83333.3235893995
83333.3236031796
83333.3236144721
83333.3236231905
83333.3236291992
83333.3236322901
83333.3236323682
83333.3236302032
83333.3233888292
83333.3234209116
83333.3234514776
83333.3234803108
83333.3235072338
83333.3235321205
83333.3235548889
83333.3235754764
83333.3235938276
83333.323609888
83333.3236235975
83333.3236348851
83333.3236436684
83333.3236498189
83333.3236531693
83333.3236535989
83333.3236518838
83333.3233459117
83333.3233611645
83333.3233611309
83333.3233756311
83333.3233768632
83333.3233767285
83333.3233881689
83333.323391732
83333.3233929467
83333.3233926643
83333.3233984234
83333.3234046667
83333.323408224
83333.3234093715
83333.3234089048
83333.3234063701
83333.3234153126
83333.3234214909
83333.3234250713
83333.323426108
83333.3234254197
83333.323412118
83333.3234236317
83333.3234324768
83333.3234386927
83333.3234422484
83333.3234431216
83333.3234421906
83333.3234158015
83333.3234297121
83333.3234411459
83333.3234500008
83333.3234562475
83333.3234597119
83333.3234603898
83333.3234592114
83333.3234175252
83333.3234336593
83333.3234475509
83333.3234589988
83333.3234678911
83333.3234740976
83333.3234774257
83333.3234779058
83333.323476485
83333.3234173599
83333.3234355926
83333.3234518052
83333.3234657373
83333.3234772057
83333.323486074
83333.3234921906
83333.3234953717
83333.323495671
83333.3234940193
83333.3234153877
83333.3234356285
83333.3234540256
83333.3234703035
83333.3234842477
83333.3234956865
83333.3235044877
83333.3235105
83333.3235135499
83333.3235136944
83333.3235118288
83333.323411681
83333.3234338517
83333.3234543179
83333.323472809
83333.3234890994
83333.3235030045
83333.3235143806
83333.3235231015
83333.3235290233
83333.3235319725
83333.3235319938
83333.3235299354
83333.3234062957
83333.3234303337
83333.3234527783
83333.3234733664
83333.323491874
83333.3235081192
83333.323521956
83333.3235332578
83333.3235419078
83333.3235477693
83333.3235506621
83333.3235505915
83333.3235483759
83333.3233992763
83333.3234251412
83333.3234494943
83333.3234720848
83333.3234926957
83333.3235111535
83333.3235273211
83333.3235410771
83333.3235523087
83333.3235609106
83333.3235667514
83333.3235696371
83333.3235695197
83333.3235672099
83333.3233906588
83333.3234183325
83333.3234445482
83333.3234690691
83333.3234916895
83333.3235122468
83333.3235306159
83333.3235466888
83333.3235603628
83333.3235715394
83333.3235801242
83333.3235859868
83333.3235889166
83333.3235888347
83333.323586529
83333.3233804684
83333.323409958
83333.3234380169
83333.3234644224
83333.3234889815
83333.3235115447
83333.3235320009
83333.3235502573
83333.3235662284
83333.3235798297
83333.3235909761
83333.3235995805
83333.3236055087
83333.3236085556
83333.323608626
83333.3236064814
83333.3233687159
83333.3234000578
83333.323429972
83333.3234582461
83333.3234847004
83333.3235091994
83333.3235316485
83333.3235519719
83333.3235701027
83333.3235859773
83333.3235995289
83333.3236106827
83333.3236193545
83333.3236254133
83333.3236286895
83333.3236290881
83333.3236273886
83333.3233553846
83333.3233886474
83333.3234204624
83333.3234506233
83333.3234789604
83333.323505354
83333.323529728
83333.3235520269
83333.323572203
83333.3235902141
83333.3236060179
83333.3236195631
83333.3236307817
83333.323639593
83333.3236458868
83333.323649573
83333.3236505448
83333.3236496733
83333.3233310801
83333.3233458265
83333.323345799
83333.3233598029
83333.323361018
83333.3233608941
83333.3233718978
83333.3233753888
83333.3233765882
83333.3233763234
83333.3233817693
83333.3233878735
83333.3233913589
83333.3233924958
83333.3233920537
83333.3233893937
83333.3233981272
83333.323404169
83333.3234076793
83333.3234087111
83333.3234080548
83333.3233948739
83333.3234061121
83333.3234147546
83333.3234208349
83333.3234243246
83333.323425199
83333.3234243074
83333.3233983343
83333.3234119086
83333.3234230761
83333.3234317318
83333.3234378472
83333.323441251
83333.3234419368
83333.3234408045
83333.3233998701
83333.3234156133
83333.3234291798
83333.3234403675
83333.3234490671
83333.3234551487
83333.3234584226
83333.3234589165
83333.3234575481
83333.323399543
83333.3234173356
83333.3234331693
83333.3234467853
83333.3234580036
83333.323466688
83333.3234726873
83333.3234758211
83333.3234761394
83333.3234745453
83333.3233974245
83333.3234171796
83333.3234351497
83333.3234510625
83333.323464705
83333.3234759063
83333.3234845337
83333.3234904369
83333.3234934458
83333.3234936132
83333.3234918098
83333.3233935785
83333.3234152212
83333.3234352173
83333.3234532996
83333.3234692437
83333.3234828644
83333.3234940169
83333.3235025745
83333.3235083951
83333.323511308
83333.3235113539
83333.3235093634
83333.3233880522
83333.3234115218
83333.3234334571
83333.3234535981
83333.3234717214
83333.323487643
83333.3235012144
83333.3235123072
83333.3235208042
83333.3235265703
83333.3235294276
83333.3235293856
83333.3235272402
83333.3233808817
83333.3234061383
83333.3234299455
83333.3234520551
83333.3234722495
83333.3234903518
83333.3235062208
83333.3235197317
83333.3235307693
83333.323539228
83333.3235449776
83333.3235478295
83333.3235477383
83333.3235454975
83333.3233720938
83333.3233991178
83333.3234247517
83333.3234487606
83333.3234709368
83333.3234911131
83333.3235091586
83333.3235249598
83333.3235384099
83333.3235494075
83333.323557858
83333.3235636323
83333.3235665268
83333.323566464
83333.3235642222
83333.3233617032
83333.3233904973
83333.3234179361
83333.323443798
83333.3234678876
83333.3234900491
83333.3235101638
83333.3235281313
83333.3235438591
83333.3235572578
83333.3235682397
83333.3235767174
83333.3235825596
83333.3235855669
83333.3235856439
83333.3235835481
83333.3233497107
83333.3233803025
83333.3234095506
83333.323437245
83333.3234632029
83333.3234872818
83333.3235093767
83333.3235294015
83333.3235472794
83333.3235629391
83333.323576308
83333.3235873089
83333.3235958574
83333.3236018253
83333.3236050427
83333.3236054156
83333.3236037151
83333.3233360983
83333.3233685454
83333.3233996378
83333.3234291739
83333.3234569825
83333.323482935
83333.3235069424
83333.323528935
83333.323548853
83333.3235666436
83333.3235822566
83333.3235956352
83333.3236067088
83333.3236153951
83333.3236215803
83333.3236251668
83333.3236260703
83333.3236251873
83333.3233208202
83333.3233552113
83333.3233882157
83333.3234196357
83333.3234493084
83333.3234771194
83333.323502998
83333.323526894
83333.3235487665
83333.3235685818
83333.3235863112
83333.3236019249
83333.3236153811
83333.3236266146
83333.3236355519
83333.323642128
83333.3236463415
83333.3236480607
83333.3236481581
83333.3233167435
83333.3233309966
83333.3233309733
83333.3233444883
83333.3233456872
83333.3233455718
83333.3233561475
83333.3233595697
83333.3233607533
83333.3233605039
83333.3233656431
83333.3233716124
83333.3233750275
83333.3233761531
83333.3233757344
83333.3233729533
83333.3233814826
83333.3233873905
83333.3233908316
83333.3233918577
83333.3233912327
83333.3233781781
83333.3233891439
83333.3233975867
83333.3234035329
83333.3234069569
83333.323407832
83333.323406979
83333.3233814308
83333.3233946714
83333.3234055743
83333.323414032
83333.3234200165
83333.3234233595
83333.3234240521
83333.3234229652
83333.3233827994
83333.3233981527
83333.3234113945
83333.3234223218
83333.3234308283
83333.3234367841
83333.3234400029
83333.3234405094
83333.3234391922
83333.3233823361
83333.3233996878
83333.323415141
83333.3234284392
83333.3234394054
83333.3234479039
83333.3234537839
83333.3234568684
83333.3234572041
83333.3234556663
83333.3233801024
83333.3233993694
83333.3234169087
83333.3234324522
83333.3234457888
83333.3234567485
83333.3234651986
83333.3234709896
83333.3234739547
83333.3234741431
83333.3234724003
83333.3233761546
83333.3233972647
83333.3234167846
83333.3234344511
83333.3234500415
83333.3234633708
83333.3234742936
83333.323482683
83333.3234883983
83333.3234912715
83333.3234913406
83333.3234894153
83333.3233705319
83333.3233934264
83333.3234148436
83333.3234345272
83333.3234522549
83333.3234678419
83333.323481138
83333.3234920135
83333.3235003513
83333.3235060173
83333.3235088355
83333.3235088204
83333.323506744
83333.3233632631
83333.3233879029
83333.3234111524
83333.3234327669
83333.3234525292
83333.3234702604
83333.3234858161
83333.3234990688
83333.3235099019
83333.3235182094
83333.323523862
83333.3235266762
83333.3235266136
83333.3235244412
83333.3233543683
83333.3233807326
83333.3234057703
83333.3234292494
83333.3234509614
83333.323470736
83333.3234884376
83333.3235039485
83333.3235171583
83333.3235279639
83333.3235362704
83333.3235419509
83333.3235448085
83333.3235447673
83333.3235425908
83333.3233438549
83333.3233719435
83333.3233987467
83333.323424045
83333.3234476412
83333.3234693753
83333.3234891222
83333.3235067753
83333.3235222368
83333.3235354133
83333.323546215
83333.3235545549
83333.3235603039
83333.3235632698
83333.3235633588
83333.3235613198
83333.3233317156
83333.3233615503
83333.323390119
83333.323417214
83333.32344265
83333.3234662787
83333.3234879874
83333.3235076814
83333.3235252762
83333.3235406941
83333.3235538583
83333.3235646894
83333.3235731038
83333.323578977
83333.3235821448
83333.3235825127
83333.3235808504
83333.3233179256
83333.3233495536
83333.3233799138
83333.3234088081
83333.3234360631
83333.3234615431
83333.3234851491
83333.3235068003
83333.3235264262
83333.3235439651
83333.3235593595
83333.3235725482
83333.3235834586
83333.3235920097
83333.323598091
83333.3236016
83333.3236024556
83333.3236015414
83333.3233024394
83333.3233359369
83333.3233681445
83333.3233988702
83333.3234279506
83333.323455263
83333.3234807236
83333.3235042679
83333.3235258418
83333.3235453998
83333.3235629039
83333.3235783173
83333.323591594
83333.3236026677
83333.3236114618
83333.3236179069
83333.323621984
83333.3236236057
83333.3236236741
83333.323285182
83333.3233206559
83333.3233547987
83333.3233874201
83333.3234183626
83333.3234475166
83333.3234748155
83333.3235002138
83333.3235236762
83333.3235451754
83333.3235646922
83333.3235822126
83333.3235977229
83333.3236111972
83333.323622579
83333.32363182
83333.3236389142
83333.3236438429
83333.3236464293
83333.3236473401
83333.3233166557
83333.3233166422
83333.3233296805
83333.3233308638
83333.323330757
83333.3233409065
83333.3233442657
83333.3233454343
83333.3233451971
83333.3233500329
83333.3233558734
83333.3233592213
83333.3233603345
83333.3233599369
83333.3233570352
83333.3233653669
83333.3233711448
83333.3233745182
83333.3233755374
83333.3233749427
83333.3233620134
83333.3233727126
83333.32338096
83333.3233867745
83333.3233901336
83333.3233910085
83333.3233901936
83333.3233650713
83333.3233779825
83333.3233886244
83333.3233968863
83333.3234027412
83333.3234060238
83333.3234067228
83333.3234056807
83333.3233662896
83333.3233812561
83333.3233941753
83333.3234048438
83333.323413158
83333.3234189884
83333.3234221519
83333.3234226703
83333.3234214036
83333.323365712
83333.3233826243
83333.3233976977
83333.3234106782
83333.323421392
83333.323429704
83333.3234354641
83333.3234384983
83333.3234388503
83333.3234373677
83333.3233633903
83333.323382169
83333.3233992765
83333.3234144489
83333.3234274774
83333.3234381935
83333.3234464643
83333.3234521412
83333.3234550608
83333.3234552685
83333.3234535849
83333.3233593731
83333.3233799492
83333.3233989898
83333.3234162364
83333.3234314687
83333.3234445022
83333.3234551912
83333.323463409
83333.323469016
83333.3234718473
83333.3234719378
83333.3234700756
83333.3233536929
83333.3233760093
83333.3233969031
83333.3234161225
83333.3234334472
83333.3234486921
83333.323461706
83333.3234723584
83333.3234805321
83333.3234860945
83333.3234888715
83333.3234888804
83333.3234868709
83333.3233463717
83333.3233703898
83333.3233930742
83333.3234141839
83333.3234335031
83333.3234508518
83333.3234660834
83333.3234790685
83333.3234896891
83333.3234978394
83333.3235033905
83333.3235061634
83333.3235061286
83333.3235040235
83333.3233374235
83333.3233631223
83333.323387554
83333.3234104902
83333.3234317232
83333.3234510803
83333.3234684225
83333.3234836287
83333.3234965858
83333.3235071894
83333.3235153445
83333.3235209259
83333.3235237449
83333.3235237267
83333.3235216148
83333.3233268509
83333.3233542276
83333.3233803835
83333.3234051023
83333.3234281864
83333.3234494726
83333.323468831
83333.3234861498
83333.323501327
83333.3235142659
83333.3235248755
83333.323533069
83333.3235387206
83333.3235416446
83333.3235417482
83333.3235397674
83333.3233146411
83333.3233437133
83333.3233715911
83333.3233980693
83333.3234229616
83333.3234461153
83333.3234674113
83333.3234867481
83333.3235040351
83333.3235191893
83333.3235321305
83333.323542778
83333.3235510488
83333.3235568218
83333.3235599399
83333.3235603104
83333.3235586928
83333.3233007642
83333.3233315716
83333.3233611913
83333.323389428
83333.3234161064
83333.3234410858
83333.3234642588
83333.3234855358
83333.3235048381
83333.3235220963
83333.3235372471
83333.3235502256
83333.3235609581
83333.3235693648
83333.3235753405
83333.3235787865
83333.3235796256
83333.3235787339
83333.3232851705
83333.3233177778
83333.3233491847
83333.3233792037
83333.3234076699
83333.3234344545
83333.3234594633
83333.3234826206
83333.3235038609
83333.3235231289
83333.3235403781
83333.3235555653