/*--------------------------------*- C++ -*----------------------------------*\
  =========                 |
  \\      /  F ield         | OpenFOAM: The Open Source CFD Toolbox
   \\    /   O peration     | Website:  https://openfoam.org
    \\  /    A nd           | Version:  12
     \\/     M anipulation  |
\*---------------------------------------------------------------------------*/
/*   Windows 32 and 64 bit porting by blueCAPE: http://www.bluecape.com.pt   *\
|  Based on Windows porting (2.0.x v4) by Symscape: http://www.symscape.com   |
\*---------------------------------------------------------------------------*/
FoamFile
{
    format      ascii;
    class       surfaceScalarField;
    location    "100";
    object      phi;
}
// * * * * * * * * * * * * * * * * * * * * * * * * * * * * * * * * * * * * * //

dimensions      [0 3 -1 0 0 0 0];

internalField   nonuniform List<scalar> 
28770
(
3.31186031960017e-06
6.7204255387877e-08
4.54660594088363e-08
3.20172062095966e-06
6.52441409226769e-08
4.48895435213053e-08
7.95452941872594e-07
9.73606203054322e-08
1.01159525087103e-08
4.42370845012127e-06
8.69263949839903e-08
1.0355657592033e-07
3.09434400208019e-06
6.28479424108053e-08
4.45257135321926e-08
7.56853952847314e-07
9.4122988362664e-08
9.71713310240495e-09
4.28224754146322e-06
8.49489133551363e-08
1.01379852207806e-07
5.35162265392574e-07
1.24582651330372e-07
5.50844493002405e-09
1.13817465237136e-06
1.27396654977809e-07
2.24417970230442e-08
5.06936032702723e-06
1.01085273460013e-07
1.67730391136679e-07
2.99042294240362e-06
6.06666738583898e-08
4.32511804348889e-08
7.19717387906079e-07
9.0807351826923e-08
9.17436646893178e-09
4.14443065228862e-06
8.28589344263048e-08
9.94681725530683e-08
5.03821126437886e-07
1.20419802016051e-07
5.04338120691663e-09
1.08769856462649e-06
1.23687073070342e-07
2.14515363277522e-08
4.90862762924107e-06
9.88216136788823e-08
1.6328117147081e-07
4.8444760898699e-07
1.5147196812151e-07
4.84328909147156e-09
7.29423388604635e-07
1.60945742718228e-07
1.27626526184965e-08
1.35473373665342e-06
1.50838202797605e-07
3.45907420206997e-08
5.75641873370657e-06
1.14430424574888e-07
2.39135037571692e-07
2.88998838593443e-06
5.86163280399163e-08
4.18123323655602e-08
6.84228792849971e-07
8.75262253801023e-08
8.62555393337427e-09
4.01062791477785e-06
8.03125612800597e-08
9.67276098125186e-08
4.73924264178065e-07
1.16139871038921e-07
4.56383070755793e-09
1.03936621483582e-06
1.19976370249534e-07
2.03845549512234e-08
4.75199527128952e-06
9.67156793137743e-08
1.5937818944101e-07
4.54130927271232e-07
1.46404553358691e-07
4.33134669013732e-09
6.90330149719566e-07
1.56095978324106e-07
1.17260586303664e-08
1.29576299769359e-06
1.46506599245022e-07
3.27325977009144e-08
5.5753989054845e-06
1.1196266236219e-07
2.32325031155468e-07
4.75609841652301e-07
1.78745595195898e-07
4.7429343632504e-09
6.24734051471699e-07
1.94068045181142e-07
9.85000041364397e-09
8.73650374235331e-07
1.92509186122642e-07
1.89658147371147e-08
1.54545723557319e-06
1.70794474271109e-07
4.77941854990984e-08
6.30133902867258e-06
1.22872576724943e-07
3.17542089965078e-07
2.79285173046527e-06
5.66132826708287e-08
4.05198403344346e-08
6.50424605451825e-07
8.42674731506651e-08
8.14917814105754e-09
3.88093171985419e-06
7.7703882353632e-08
9.37912962295694e-08
4.45548441150026e-07
1.11809961865681e-07
4.09153909485437e-09
9.92939714438549e-07
1.16099122087974e-07
1.92610885401401e-08
4.59980826373505e-06
9.38793291306361e-08
1.55022867236029e-07
4.25298506258816e-07
1.41109189894387e-07
3.86273506731741e-09
6.53063248992271e-07
1.51111381397007e-07
1.06941268840316e-08
1.23944357332455e-06
1.4235005808564e-07
3.10658253810938e-08
5.3988634446664e-06
1.09732699736913e-07
2.26169091002328e-07
4.45100266101746e-07
1.72702200661801e-07
4.2115469497043e-09
5.88254145011563e-07
1.88154848817937e-07
8.75101995908298e-09
8.27807421533172e-07
1.86866976663759e-07
1.7206133977395e-08
1.47921726971207e-06
1.65969730012878e-07
4.49583527571715e-08
6.10499966267706e-06
1.20420712854496e-07
3.08231436878383e-07
4.77957155926517e-07
2.06668026772808e-07
4.69455541392496e-09
5.87735931248625e-07
2.26425758533558e-07
9.83820278377595e-09
7.38803114101303e-07
2.31253848219885e-07
1.54427810001091e-08
9.86628132983343e-07
2.17786974187971e-07
2.52146614782484e-08
1.6651814522414e-06
1.81159256606256e-07
6.33714154353718e-08
6.63248982244552e-06
1.26062842101022e-07
4.01030059426282e-07
2.69888545380119e-06
5.46429825877787e-08
3.93176032916351e-08
6.18268013310991e-07
8.10551481826496e-08
7.71158021036731e-09
3.75521263635412e-06
7.52363938670793e-08
9.09888754485599e-08
4.18667202772747e-07
1.07464855257832e-07
3.68340126354807e-09
9.48425386707052e-07
1.12132069186755e-07
1.82307938198526e-08
4.45222143915917e-06
9.08459868521922e-08
1.50517843143946e-07
3.97972041993327e-07
1.35703310787226e-07
3.43260540825568e-09
6.17575094670511e-07
1.45968317816294e-07
9.70882262839492e-09
1.18523926008085e-06
1.37952366030259e-07
2.93870844100385e-08
5.22740738166449e-06
1.06594120374749e-07
2.19874209337916e-07
4.16117438799158e-07
1.663468089739e-07
3.74486519985563e-09
5.53545128183233e-07
1.81947066697279e-07
7.73502781877352e-09
7.84102525696868e-07
1.81121488460227e-07
1.56260961403544e-08
1.41600953038508e-06
1.6144603849102e-07
4.25550071987335e-08
5.91330753030149e-06
1.18123108090134e-07
2.99726310830441e-07
4.46948466661687e-07
1.99559721626908e-07
4.15087362261264e-09
5.52008015827811e-07
2.19393600544818e-07
8.69985097385902e-09
6.96379643630156e-07
2.24405355740346e-07
1.36349112914022e-08
9.35589048115403e-07
2.11542494990192e-07
2.26705729693384e-08
1.59479166142577e-06
1.76191880913884e-07
5.95708424528189e-08
6.42781849791161e-06
1.23593534532725e-07
3.89290020855405e-07
4.84147742825572e-07
2.35183010046317e-07
4.82743491128646e-09
5.74472053517336e-07
2.5825040052049e-07
1.0424190348539e-08
6.83456127136994e-07
2.68484115742391e-07
1.56196595939017e-08
8.21816109063038e-07
2.60424097825414e-07
2.15580495951211e-08
1.03775117491348e-06
2.2898289827707e-07
3.27760945112371e-08
1.71586078781241e-06
1.8291654921164e-07
8.14411844790849e-08
6.79597622465365e-06
1.26021992735712e-07
4.8727215762312e-07
2.60800268043304e-06
5.27150232535004e-08
3.81667283669627e-08
5.87691589835742e-07
7.79048538757383e-08
7.31083563960351e-09
3.6333620496692e-06
7.28312892502979e-08
8.83182541028696e-08
3.93238206196097e-07
1.03155728962908e-07
3.32756640220435e-09
9.05868538026011e-07
1.08214755127466e-07
1.72842180920769e-08
4.30905130021141e-06
8.80121956209104e-08
1.46134340518454e-07
3.72118014883631e-07
1.30263093002105e-07
3.05538389550987e-09
5.83800006683881e-07
1.4074057338811e-07
8.84762319399194e-09
1.13311258354557e-06
1.3335924184678e-07
2.78392469179085e-08
5.06112632575364e-06
1.03177298130389e-07
2.13610566869151e-07
3.88656493028873e-07
1.59837292234411e-07
3.32663533895316e-09
5.20591719862873e-07
1.75538750887659e-07
6.81437083954068e-09
7.42422764004176e-07
1.75162651351686e-07
1.41768705043795e-08
1.35511436869708e-06
1.56601354620766e-07
4.02685404433574e-08
5.72711966713434e-06
1.14659415920123e-07
2.91388524719538e-07
4.17527693496484e-07
1.92088309912809e-07
3.67904911458146e-09
5.1805551234516e-07
2.11945999057474e-07
7.69765121647997e-09
6.5599479215349e-07
2.17199160334837e-07
1.20408645159331e-08
8.86942873495478e-07
2.05211588070105e-07
2.05046195219479e-08
1.52760330044303e-06
1.71503723291708e-07
5.6356723742538e-08
6.22779376481382e-06
1.21234859257933e-07
3.78506359413998e-07
4.52518166968009e-07
2.26912972150509e-07
4.27603070722865e-09
5.38743176728318e-07
2.50015803596589e-07
9.25673968255765e-09
6.42413402186533e-07
2.60369941541761e-07
1.37769226098626e-08
7.75130324382812e-07
2.52876114828644e-07
1.89858921167786e-08
9.84619327828017e-07
2.22511522763126e-07
2.94814702058777e-08
1.64434839727214e-06
1.77922826632262e-07
7.6743942099616e-08
6.58840306222433e-06
1.23514429115663e-07
4.7333550734575e-07
4.92419158939057e-07
2.64179601437564e-07
5.20241017010724e-09
5.72698957944009e-07
2.89984052166956e-07
1.12223463125921e-08
6.60210846802747e-07
3.04537424210746e-07
1.71352598407729e-08
7.49858523587387e-07
3.00281863466474e-07
2.25889702314824e-08
8.49120632304416e-07
2.71964669893619e-07
2.86028646749485e-08
1.03887213749231e-06
2.28577966692064e-07
4.19077163094908e-08
1.7236480256791e-06
1.80030451980175e-07
1.01366859962996e-07
6.87469501549915e-06
1.25037483249478e-07
5.74367253204312e-07
2.52010079756108e-06
5.08396911427808e-08
3.7058870915002e-08
5.58621762382734e-07
7.48352382704912e-08
6.94470166908344e-09
3.515283393664e-06
7.04768229549226e-08
8.57530013367279e-08
3.69205992332505e-07
9.89210831872792e-08
3.01505926705913e-09
8.65222015560081e-07
1.04362881840431e-07
1.64204156795933e-08
4.17019035276067e-06
8.52663127833841e-08
1.41899780689165e-07
3.4769384352863e-07
1.24855051294292e-07
2.72451465779144e-09
5.51716403471603e-07
1.35528143295851e-07
8.09606110638062e-09
1.0831809615173e-06
1.28804775056488e-07
2.64167476522174e-08
4.8997413552414e-06
1.00013428429551e-07
2.0749182012712e-07
3.62685010684808e-07
1.53276662693618e-07
2.95759496034747e-09
4.8933416788351e-07
1.69038058123541e-07
6.01423354444488e-09
7.02674787636114e-07
1.69052650357101e-07
1.29002933692153e-08
1.29644815166387e-06
1.51500032525215e-07
3.81762553885639e-08
5.54654995727387e-06
1.109019797874e-07
2.83259705716137e-07
3.89668421522926e-07
1.84432490143824e-07
3.26382274129305e-09
4.85851404104873e-07
2.04248971954492e-07
6.81973256255126e-09
6.17622519924493e-07
2.09709442260063e-07
1.06382308757186e-08
8.40532421452367e-07
1.98589660293905e-07
1.85978498870448e-08
1.46280384726561e-06
1.6633076634236e-07
5.33904473155164e-08
6.03338722455639e-06
1.17665101776986e-07
3.6811889333867e-07
4.22553066779964e-07
2.18255278239912e-07
3.79785030713749e-09
5.04835388000038e-07
2.41298563274696e-07
8.23350672000568e-09
6.03396565325443e-07
2.5174400231335e-07
1.21686067875673e-08
7.30677053560397e-07
2.44927914832248e-07
1.67765527137685e-08
9.33974587268498e-07
2.15946693910327e-07
2.67045483206412e-08
1.57600644300053e-06
1.73179362218806e-07
7.27485801593108e-08
6.38531916032404e-06
1.21175544502367e-07
4.60396472971849e-07
4.60048908560349e-07
2.5464883523886e-07
4.63419233826222e-09
5.365135306908e-07
2.80446302199398e-07
1.00304342115547e-08
6.19518352794884e-07
2.95069365761378e-07
1.52491697412687e-08
7.05150988808698e-07
2.91384080195952e-07
1.99753235979533e-08
8.011591988007e-07
2.64178228412213e-07
2.52787864829651e-08
9.86216450969263e-07
2.22152615466538e-07
3.79055855554858e-08
1.65293139381461e-06
1.75084161553261e-07
9.58837320229995e-08
6.6669773648891e-06
1.22478928558649e-07
5.58562246813313e-07
5.02027761174906e-07
2.93671132058568e-07
5.70162010820967e-09
5.77021006004538e-07
3.21980269783949e-07
1.22191118440606e-08
6.54605236611875e-07
3.40036225581057e-07
1.90164076007229e-08
7.18463417179347e-07
3.38629823858367e-07
2.50929043395845e-08
7.66327710042436e-07
3.11956763541017e-07
3.029262514261e-08
8.34758139483455e-07
2.69642443810573e-07
3.64229774435326e-08
1.01455826667753e-06
2.22496401850001e-07
5.21893843583041e-08
1.71257560980719e-06
1.75620749460889e-07
1.22695060102944e-07
6.93136447073209e-06
1.2419704052167e-07
6.61361987905033e-07
2.4350556844522e-06
4.9028592320961e-08
3.60145722396056e-08
5.30981885337774e-07
7.18702076330305e-08
6.60442693378458e-09
3.40087959338533e-06
6.81834208329872e-08
8.32591542357825e-08
3.46503815495176e-07
9.47974058733893e-08
2.73937534679956e-09
8.26412844015791e-07
1.00595733466183e-07
1.56282207268673e-08
4.03554680221987e-06
8.25790551231632e-08
1.37805768920096e-07
3.24645339080938e-07
1.19535400602163e-07
2.43362760940057e-09
5.21275472240379e-07
1.30383390986296e-07
7.43379398318026e-09
1.03542141786032e-06
1.24324784677392e-07
2.5115334310478e-08
4.74310886051168e-06
9.69492752549229e-08
2.01562809979834e-07
3.38157431783428e-07
1.46748712125175e-07
2.63370570172798e-09
4.59725385255781e-07
1.62540257968773e-07
5.31981787950238e-09
6.64861099552384e-07
1.62934884369521e-07
1.17779449396497e-08
1.24017538750557e-06
1.46432249515829e-07
3.62658504133626e-08
5.37120479066788e-06
1.07495752223466e-07
2.75331101089958e-07
3.63329297444476e-07
1.76716145445546e-07
2.89941042070915e-09
4.55343021954466e-07
1.96447191991941e-07
6.05560360400641e-09
5.81187582841274e-07
2.02081082084842e-07
9.41926140157891e-09
7.96215407865183e-07
1.91785710486112e-07
1.69289452631258e-08
1.40029532700955e-06
1.60882371237179e-07
5.06990191980925e-08
5.84477481621615e-06
1.13781791884919e-07
3.58073583075105e-07
3.94206381900223e-07
2.09399728509011e-07
3.3792579905045e-09
4.72705255172065e-07
2.32301073864643e-07
7.3411887948866e-09
5.66375204579035e-07
2.42784129752794e-07
1.07654665349242e-08
6.88411137666215e-07
2.36631716580442e-07
1.48602522589543e-08
8.85614576331542e-07
2.09019945638968e-07
2.42668622912089e-08
1.51000520209415e-06
1.67973900766409e-07
6.90753134096245e-08
6.18776761942034e-06
1.17655221444344e-07
4.48003501988233e-07
4.29439132349169e-07
2.44723923618184e-07
4.14090110111472e-09
5.02230008789108e-07
2.70395334761619e-07
8.98398353598211e-09
5.80889019971214e-07
2.85006042546924e-07
1.360008297823e-08
6.62634360734116e-07
2.8189584225445e-07
1.77162836249211e-08
7.55472793843519e-07
2.55964165659348e-07
2.24439273584827e-08
9.35950958457558e-07
2.15623784458022e-07
3.45229175845758e-08
1.58520594556828e-06
1.70427173139368e-07
9.1217070024909e-08
6.46364677899909e-06
1.19894649056641e-07
5.43822415566973e-07
4.68799296696011e-07
2.82760870143728e-07
5.11625916230536e-09
5.40085602592239e-07
3.1103374914077e-07
1.09817596113967e-08
6.1351796093495e-07
3.29111163855017e-07
1.70752630041783e-08
6.74386644105866e-07
3.28289023903477e-07
2.24200758284251e-08
7.20748161950676e-07
3.02820803973562e-07
2.69111229206066e-08
7.87810585564e-07
2.61984185646244e-07
3.23929936361626e-08
9.63727594731911e-07
2.16269902170555e-07
4.75482253910509e-08
1.64365162936357e-06
1.70753598363183e-07
1.1652797526619e-07
6.72442274741276e-06
1.21512056206046e-07
6.43973381743521e-07
5.11975216946903e-07
3.23733082327901e-07
6.23131261276265e-09
5.84483898114223e-07
3.54435366230944e-07
1.33523702336278e-08
6.5826153805043e-07
3.75710537495765e-07
2.08473406127714e-08
7.1007713178699e-07
3.7659862875528e-07
2.78687216616044e-08
7.30644279868554e-07
3.50562302309129e-07
3.35299877039758e-08
7.46517881982436e-07
3.08074547972954e-07
3.82316333663165e-08
8.01090837742446e-07
2.60786366571825e-07
4.46797243423433e-08
9.81161656882766e-07
2.14611137724064e-07
6.32735108128442e-08
1.69677482760261e-06
1.71159268984377e-07
1.45210427213841e-07
7.00174398157685e-06
1.24061055749189e-07
7.47514486542175e-07
2.35279157159862e-06
4.72966047141657e-08
3.49598503984488e-08
5.04701293502494e-07
6.90245559237687e-08
6.28009915974404e-09
3.29004137874186e-06
6.59875268371301e-08
8.08467528864877e-08
3.25066302864972e-07
9.0815790496462e-08
2.49114291292457e-09
7.89358279963361e-07
9.69425812485159e-08
1.48954302819377e-08
3.90502654893228e-06
7.99538562550634e-08
1.33810080699548e-07
3.02910668823543e-07
1.143541162897e-07
2.17717293062247e-09
4.92414045626713e-07
1.25349841304628e-07
6.84474921648482e-09
9.8976571588463e-07
1.19936022904342e-07
2.39208165022287e-08
4.59114270507239e-06
9.39456413389565e-08
1.95809992535938e-07
3.15018020325026e-07
1.40324885575329e-07
2.34942949739459e-09
4.31709403638085e-07
1.56117293105917e-07
4.71408981103747e-09
6.28944099037045e-07
1.56884734967717e-07
1.07890347027957e-08
1.18628491872225e-06
1.41432038795513e-07
3.45172903165015e-08
5.20091651030681e-06
1.04227204666571e-07
2.67617008408894e-07
3.38460355927376e-07
1.69036689069823e-07
2.58060680215167e-09
4.26477885437451e-07
1.88650284512702e-07
5.38763587227084e-09
5.46639791484576e-07
1.9444358969764e-07
8.35807998389685e-09
7.5400697945633e-07
1.84960387456828e-07
1.54567526608584e-08
1.34026953329093e-06
1.55522983045893e-07
4.82564778351704e-08
5.66153494500679e-06
1.10285529886844e-07
3.48273307418883e-07
3.67427205194838e-07
2.00482703671734e-07
3.0124157272896e-09
4.42296150386362e-07
2.23191423633094e-07
6.56339557894554e-09
5.31285928209204e-07
2.336779937974e-07
9.54703890796793e-09
6.48247787122466e-07
2.28161510261283e-07
1.32050970183856e-08
8.39381886003792e-07
2.01889576627797e-07
2.21524367132581e-08
1.44625539802406e-06
1.62474217804868e-07
6.57487339200304e-08
5.99597061552763e-06
1.13797012323499e-07
4.36058017497251e-07
4.00526104925622e-07
2.34604381169268e-07
3.70815790891983e-09
4.69786741070689e-07
2.60051682067388e-07
8.07133881236916e-09
5.44276650259345e-07
2.74577338964666e-07
1.21592044850499e-08
6.2227311290092e-07
2.72006147961745e-07
1.57509424682996e-08
7.12002783700066e-07
2.47364595944881e-07
1.99836411463596e-08
8.87889766147964e-07
2.0875066873139e-07
3.15494814390184e-08
1.51972616822264e-06
1.65341587264704e-07
8.68637579474409e-08
6.26558591002567e-06
1.16513552157879e-07
5.29536752545632e-07
4.37445249153735e-07
2.71470507091457e-07
4.60738374387775e-09
5.05161511339612e-07
2.99570458849802e-07
9.88931709590452e-09
5.74582756885797e-07
3.17554729161164e-07
1.53698660654784e-08
6.3253114679674e-07
3.17258985153586e-07
2.00917462922616e-08
6.77380763918757e-07
2.93052230146675e-07
2.39942349869193e-08
7.43036348491565e-07
2.53888759700752e-07
2.89516131973253e-08
9.15105524062864e-07
2.09950463761459e-07
4.36196493080545e-08
1.57734060904933e-06
1.66192038571285e-07
1.11223368179801e-07
6.52178674994975e-06
1.18677773867286e-07
6.27764520734558e-07
4.7780079285236e-07
3.11317013016372e-07
5.61812673112342e-09
5.46614782199759e-07
3.41946832515589e-07
1.20718336415833e-08
6.16328153076502e-07
3.63191204931583e-07
1.88345763003799e-08
6.65635129462516e-07
3.64692924313129e-07
2.51126856733569e-08
6.85836325680954e-07
3.39975280407909e-07
3.00727607963334e-08
7.02144392960754e-07
2.99131683367816e-07
3.41355674648375e-08
7.56282548438016e-07
2.53447833322402e-07
4.00210794582375e-08
9.32738338793918e-07
2.08639409584329e-07
5.8083584270242e-08
1.63001408395531e-06
1.66347198890735e-07
1.38446684688369e-07
6.79540128611538e-06
1.21419392596718e-07
7.28883302019139e-07
5.2093677210355e-07
3.54503672230684e-07
6.65813790596569e-09
5.93044129895528e-07
3.87738101181585e-07
1.42536470527371e-08
6.66250120321224e-07
4.12190182359067e-07
2.24564186535824e-08
7.1336382323189e-07
4.14999638461493e-07
3.03881356861297e-08
7.21185278162702e-07
3.89028596398325e-07
3.69818804031187e-08
7.09239353620436e-07
3.45432115625803e-07
4.18625383114211e-08
7.10303723616148e-07
2.96876479274344e-07
4.61322680702907e-08
7.61145871929263e-07
2.49817503085722e-07
5.32040310726316e-08
9.45863327782148e-07
2.06483324301573e-07
7.50656896141348e-08
1.68439291162266e-06
1.67392140543521e-07
1.68875801178205e-07
7.10432064166219e-06
1.2540862697826e-07
8.31900474392893e-07
2.2732565814173e-06
4.56586306198525e-08
3.38711888338456e-08
4.79704016202891e-07
6.63163771587144e-08
5.97331277429089e-09
3.18266339123375e-06
6.38714896206179e-08
7.84501240980702e-08
3.04825131775717e-07
8.70019847053379e-08
2.26275488958821e-09
7.53985779125537e-07
9.3430698704302e-08
1.42035156177757e-08
3.77853651447369e-06
7.74321193739431e-08
1.29888621922897e-07
2.82426363798487e-07
1.09351263516065e-07
1.94827960973921e-09
4.65062077987751e-07
1.20468456938141e-07
6.31481259941504e-09
9.46127712320939e-07
1.15669678557745e-07
2.28096852802146e-08
4.44375508794028e-06
9.09966242648402e-08
1.90181375377904e-07
2.93207606266344e-07
1.34065285465688e-07
2.09886437696667e-09
4.05222170088722e-07
1.49830899556063e-07
4.18208913435159e-09
5.94855142565456e-07
1.50954460420201e-07
9.91283742031648e-09
1.13471374188858e-06
1.36521263453502e-07
3.29102536430007e-08
5.03559426390651e-06
1.01025447077414e-07
2.60091015507832e-07
3.1500400328399e-07
1.61479201392103e-07
2.30167907479888e-09
3.99197418685452e-07
1.80945608027907e-07
4.80060412087397e-09
5.13921346162237e-07
1.86885302567448e-07
7.43008207247195e-09
7.13872638160527e-07
1.78198538617962e-07
1.41542887603844e-08
1.28272268297941e-06
1.50261898241127e-07
4.60225862050308e-08
5.48347337492316e-06
1.0695682508435e-07
3.38707627120759e-07
3.42156790397344e-07
1.91616814915906e-07
2.69010861539991e-09
4.13549665120448e-07
2.14094430681944e-07
5.88206490608912e-09
4.9806778872059e-07
2.2456375653848e-07
8.48421856543332e-09
6.1013334294525e-07
2.19668076171345e-07
1.1763024112129e-08
7.95299739812463e-07
1.94754186530997e-07
2.03051050455634e-08
1.3849759820258e-06
1.5707581887727e-07
6.27382421220492e-08
5.80950805083945e-06
1.10338888789679e-07
4.24383731446316e-07
3.73242438958452e-07
2.24438957085105e-07
3.32720873838221e-09
4.39116615465102e-07
2.49599304973985e-07
7.27388413438259e-09
5.09617003392753e-07
2.63997866667534e-07
1.09022653705388e-08
5.83998500256846e-07
2.61936930515012e-07
1.40450493100319e-08
6.70659694540862e-07
2.38571907810975e-07
1.78639141582313e-08
8.41893177478982e-07
2.01654400993868e-07
2.8966930802792e-08
1.45639148063182e-06
1.59984848738051e-07
8.28892918176008e-08
6.0730528457819e-06
1.1284619164595e-07
5.15731275664288e-07
4.07879449072268e-07
2.60009034437833e-07
4.16093895111602e-09
4.72168918013472e-07
2.87825148499845e-07
8.92663150496694e-09
5.37733422535887e-07
3.05624069263744e-07
1.38732547132316e-08
5.92847941274415e-07
3.05793631599628e-07
1.80539375364635e-08
6.36191861339602e-07
2.82846524576518e-07
2.14560407301689e-08
7.00399783035013e-07
2.45401891338241e-07
2.59668670980015e-08
8.68545637414206e-07
2.03294251868678e-07
4.01545236264457e-08
1.51314766792985e-06
1.61307291866254e-07
1.06254374113115e-07
6.32403876927826e-06
1.15459332352106e-07
6.1180826463481e-07
4.45630851499518e-07
2.98554279560741e-07
5.08602282747888e-09
5.10889542801113e-07
3.28960804434424e-07
1.09419578864355e-08
5.76675860360505e-07
3.5003530872846e-07
1.70606232376673e-08
6.23511813067901e-07
3.5205466758034e-07
2.26967768344519e-08
6.43268829531354e-07
3.28648559413393e-07
2.70619250585641e-08
6.59885887215469e-07
2.89542299634855e-07
3.05976604136697e-08
7.1347302484219e-07
2.45672637128661e-07
3.6037117690032e-08
8.86269151506858e-07
2.02588419873858e-07
5.36908052150801e-08
1.56544241771408e-06
1.61860218912817e-07
1.32607413943065e-07
6.59316549796521e-06
1.18433263125178e-07
7.11555101976839e-07
4.85800355849291e-07
3.40433062912434e-07
6.02030007231193e-09
5.54137520467168e-07
3.73550739905957e-07
1.29203669756112e-08
6.23222710628692e-07
3.97921525906916e-07
2.03685148943613e-08
6.67984404366065e-07
4.01371986983819e-07
2.75343452029622e-08
6.76003004797544e-07
3.76850938639178e-07
3.34183814977485e-08
6.65675887498641e-07
3.35087756950035e-07
3.76792118893102e-08
6.68131747054756e-07
2.88347370608112e-07
4.14066231820476e-08
7.18912045233595e-07
2.42878682596508e-07
4.80136206109238e-08
9.00095493861441e-07
2.00793080016942e-07
6.94036699222169e-08
1.6198350243258e-06
1.62769002084372e-07
1.6164991318689e-07
6.89795546340197e-06
1.22884323380535e-07
8.12349307596703e-07
5.27634520211032e-07
3.86109734408081e-07
6.91405500682692e-09
6.00934020359345e-07
4.22057616578601e-07
1.49205237658445e-08
6.75622825784364e-07
4.49739540414702e-07
2.37096184763276e-08
7.21813582543714e-07
4.54365923801614e-07
3.24672379148962e-08
7.24517874897477e-07
4.28121565486234e-07
4.00713829279889e-08
6.99516176055291e-07
3.82867264228687e-07
4.58006245850284e-08
6.72498655174459e-07
3.32191605975035e-07
4.98818135251329e-08
6.68753714392159e-07
2.83214068502004e-07
5.39299838109663e-08
7.19927704808839e-07
2.38396781249785e-07
6.19958641319138e-08
9.12412463805751e-07
1.98905691243806e-07
8.76301925867394e-08
1.68126664836779e-06
1.65175699948116e-07
1.93858197578629e-07
7.24908509034106e-06
1.28813827973495e-07
9.13279117677806e-07
2.19634400663644e-06
4.41176991493004e-08
3.2788183774821e-08
4.5591496791982e-07
6.3758354964293e-08
5.68467981014375e-09
3.07865675239773e-06
6.18222662752852e-08
7.60353497838455e-08
2.85710569365131e-07
8.33753787366423e-08
2.05477685745727e-09
7.20212797623835e-07
9.00656329535925e-08
1.35444433678361e-08
3.65595202368564e-06
7.50014572455816e-08
1.26014232759514e-07
2.63128057850603e-07
1.04558463860713e-07
1.7412548949833e-09
4.39150315614064e-07
1.15773092557268e-07
5.83008415112534e-09
9.04428877767646e-07
1.11570756163831e-07
2.17570805473363e-08
4.30084367959477e-06
8.81383502331712e-08
1.84641370214241e-07
2.72664126081595e-07
1.28019644507342e-07
1.87468849947725e-09
3.80194490875285e-07
1.43732639596687e-07
3.71030151574525e-09
5.6251419522075e-07
1.45192700565007e-07
9.13056593893e-09
1.08537413834143e-06
1.31725706549989e-07
3.14158132275401e-08
4.87516331172091e-06
9.78892942624163e-08
2.52712168529534e-07
2.92898908198023e-07
1.5411550776115e-07
2.05446690016734e-09
3.73437467346006e-07
1.73407206285073e-07
4.28126293560902e-09
4.82963397332985e-07
1.79478608069964e-07
6.61493291180521e-09
6.7574586537178e-07
1.7155819094428e-07
1.30002308562899e-08
1.22759833137246e-06
1.4508970753246e-07
4.39640370913204e-08
5.31049240268851e-06
1.03698608468744e-07
3.29350847246723e-07
3.18333949458816e-07
1.82896122017779e-07
2.40564199457601e-09
3.86403231306149e-07
2.05110918879769e-07
5.28185408352412e-09
4.66655709063822e-07
2.15544741098854e-07
7.55192881924934e-09
5.74011338559811e-07
2.1124993919488e-07
1.04991279229717e-08
7.53346190680777e-07
1.87692830921668e-07
1.86744559274143e-08
1.32617270798918e-06
1.51789720444337e-07
5.99866997391795e-08
5.62818483117036e-06
1.07037411959262e-07
4.12979225242315e-07
3.47520614775799e-07
2.14347693346542e-07
2.99071571233565e-09
4.10152299587273e-07
2.3917658751942e-07
6.57143974230124e-09
4.76842632195708e-07
2.53419527780664e-07
9.79979651690199e-09
5.47746733853119e-07
2.51846924261637e-07
1.25556642064671e-08
6.31398235061942e-07
2.2975317686593e-07
1.60232357786123e-08
7.97992629647886e-07
1.94559191495767e-07
2.67200594065062e-08
1.39542415595159e-06
1.54724544382552e-07
7.93118066346698e-08
5.88573964275836e-06
1.094300789005e-07
5.02249193490766e-07
3.80022549221222e-07
2.48528520699878e-07
3.76710494306002e-09
4.41025462635217e-07
2.75990624554472e-07
8.07879061624586e-09
5.02894602964744e-07
2.93549845450991e-07
1.25600893487554e-08
5.55268605639487e-07
2.94145182086357e-07
1.62720664708156e-08
5.97111465332399e-07
2.72443569796799e-07
1.92523471993855e-08
6.59808874935107e-07
2.36715614625742e-07
2.33911548311619e-08
8.23922766911759e-07
1.9643048002188e-07
3.71410602720433e-08
1.45100373108317e-06
1.5615911721907e-07
1.01712696108547e-07
6.1314772880255e-06
1.119871343797e-07
5.96287753843611e-07
4.15361414631762e-07
2.85662341784592e-07
4.61605856302722e-09
4.77206409150922e-07
3.15722583941967e-07
9.94630403207182e-09
5.39212942099373e-07
3.3651599589686e-07
1.54969221983979e-08
5.83636215562222e-07
3.38970677093684e-07
2.05711722290502e-08
6.02895952745266e-07
3.16848997675441e-07
2.44237150653342e-08
6.19721047436633e-07
2.7950436417973e-07
2.75171606315685e-08
6.72646972975417e-07
2.37507358361525e-07
3.25780825461787e-08
8.41693563809827e-07
1.96230571903254e-07
4.98042526652677e-08
1.50279367183576e-06
1.57219067183351e-07
1.27136143853587e-07
6.39552053907672e-06
1.15161847380347e-07
6.94268298452876e-07
4.5281364823161e-07
3.26072875850822e-07
5.46804712422887e-09
5.175277291356e-07
3.58908666804096e-07
1.17476503730834e-08
5.82633035046965e-07
3.83038850808722e-07
1.85278081664328e-08
6.2506776199783e-07
3.87007590583396e-07
2.50238123898883e-08
6.33164820273586e-07
3.63888214971149e-07
3.02945412989271e-08
6.24260570143397e-07
3.23987640282318e-07
3.40309494836957e-08
6.2791329354916e-07
2.79169563262159e-07
3.73180667035872e-08
6.78460864882691e-07
2.35503210370917e-07
4.35712181222635e-08
8.55978426004391e-07
1.9503270118006e-07
6.46328606770981e-08
1.5570454640246e-06
1.58362714175193e-07
1.55458878086417e-07
6.69541929742148e-06
1.19716348468675e-07
7.94358497727175e-07
4.91593390007953e-07
3.70223285137668e-07
6.25084640604624e-09
5.60970703041853e-07
4.05999367912956e-07
1.35347670042748e-08
6.31384796018474e-07
4.33537959704435e-07
2.154150699855e-08
6.75208666214821e-07
4.38836225091635e-07
2.95089561124326e-08
6.78334902681822e-07
4.14182844139409e-07
3.63846753945373e-08
6.5556062794321e-07
3.70968614596818e-07
4.14922987058712e-08
6.31125117417802e-07
3.22338519994151e-07
4.50609645813308e-08
6.29169389792374e-07
2.75194995337005e-07
4.86736746682545e-08
6.80464453877867e-07
2.31900060473899e-07
5.63679090720133e-08
8.69390624546677e-07
1.9356161445093e-07
8.16304943439486e-08
1.6186611750004e-06
1.60790146504411e-07
1.86339349102084e-07
7.04187218931558e-06
1.26272722780279e-07
8.93278131095131e-07
5.31071420789739e-07
4.18561775222049e-07
7.04451774214509e-09
6.06662377882282e-07
4.57425329550969e-07
1.53383491914853e-08
6.84236380002642e-07
4.8851635072738e-07
2.46040483894884e-08
7.3187890817016e-07
4.94978074449556e-07
3.40598587576429e-08
7.33312475567415e-07
4.68295062115476e-07
4.2590735709184e-08
7.02946390438582e-07
4.2106509816558e-07
4.93596168236622e-08
6.62681126391627e-07
3.67785732829888e-07
5.41296969730139e-08
6.3067140225695e-07
3.16133681838437e-07
5.75515711532952e-08
6.26053096235577e-07
2.68895656451633e-07
6.16521489270687e-08
6.80082128490768e-07
2.2734532372367e-07
7.11612920331775e-08
8.84139030145848e-07
1.9269367006141e-07
1.01245007255043e-07
1.6922135456082e-06
1.65229110590641e-07
2.20319936265958e-07
7.43805328188002e-06
1.35217394590309e-07
9.89338210535061e-07
2.12194534845689e-06
4.26781232738746e-08
3.17131509877451e-08
4.33262313038772e-07
6.13575435718503e-08
5.40742600865746e-09
2.9779189968782e-06
5.98810673390909e-08
7.36276998538819e-08
2.67652722053507e-07
7.99494219989608e-08
1.86586972215019e-09
6.87950181817326e-07
8.68508445174611e-08
1.29126324580358e-08
3.53716495424923e-06
7.26403576660705e-08
1.2216569230991e-07
2.44950440666449e-07
9.9999487695364e-08
1.55305092927428e-09
4.14601492249033e-07
1.1128338246053e-07
5.38379275730625e-09
8.64579503549579e-07
1.07633320498866e-07
2.0753458136204e-08