/*--------------------------------*- C++ -*----------------------------------*\
  =========                 |
  \\      /  F ield         | OpenFOAM: The Open Source CFD Toolbox
   \\    /   O peration     | Website:  https://openfoam.org
    \\  /    A nd           | Version:  12
     \\/     M anipulation  |
\*---------------------------------------------------------------------------*/
/*   Windows 32 and 64 bit porting by blueCAPE: http://www.bluecape.com.pt   *\
|  Based on Windows porting (2.0.x v4) by Symscape: http://www.symscape.com   |
\*---------------------------------------------------------------------------*/
FoamFile
{
    format      ascii;
    class       volVectorField;
    location    "100";
    object      U;
}
// * * * * * * * * * * * * * * * * * * * * * * * * * * * * * * * * * * * * * //

dimensions      [0 1 -1 0 0 0 0];

internalField   nonuniform List<vector> 
10068
(
(7.27024664236338e-07 -0.00066491136432946 1.90583630343304e-05)
(1.0216576172452e-06 -0.000636182704002813 1.80919108264991e-05)
(-4.39858338506191e-07 -0.000257542771684898 3.22362121097089e-05)
(5.72222079126168e-06 -0.000796884632223109 2.16699113236424e-05)
(1.13605824393663e-06 -0.000607769665973879 1.71464568277459e-05)
(-4.22727820329867e-07 -0.000240567327932065 3.06737186556661e-05)
(5.98361720868446e-06 -0.000764096932915235 2.08599943042992e-05)
(-3.4845128060226e-07 -0.00022633061321207 4.85254928854932e-05)
(1.53492287923493e-08 -0.000298335653102274 3.54627210971823e-05)
(1.17347171693565e-05 -0.000818272129668771 2.24077667676947e-05)
(1.02047386738139e-06 -0.000580641295961893 1.63657565663466e-05)
(-4.63154818504204e-07 -0.000224049960487388 2.92030283435037e-05)
(6.12175142160573e-06 -0.00073243401791568 2.07205661990687e-05)
(-4.07984027005113e-07 -0.000210243392108494 4.64244064584885e-05)
(-5.18225819610213e-08 -0.00027992800295495 3.37814066900363e-05)
(1.14291558699819e-05 -0.00078493671007182 2.15403021247388e-05)
(-2.3096813323755e-07 -0.000229194661953434 6.54801254695676e-05)
(2.22775511667462e-07 -0.000244162144405975 5.21892832826738e-05)
(3.10048524086844e-07 -0.000304756419621239 3.63662358279644e-05)
(1.89386258554691e-05 -0.000834274268772679 2.24790234495885e-05)
(9.04728147030159e-07 -0.000554991815968677 1.56389895397122e-05)
(-5.18155706450778e-07 -0.000208379783581486 2.78539450489338e-05)
(5.74216332079122e-06 -0.000702012211239304 1.99185218939149e-05)
(-4.67959994902329e-07 -0.000194782072225441 4.43517264529846e-05)
(-2.1968869778316e-07 -0.000262250195203051 3.23255882402478e-05)
(1.11335881890076e-05 -0.000752932362995101 2.17178806443618e-05)
(-3.12180087551799e-07 -0.000212953364338755 6.2832870841946e-05)
(3.4458910020662e-09 -0.000227463539201303 4.99880296642843e-05)
(1.18769741107652e-08 -0.000286176514838219 3.45057246080981e-05)
(1.80942869194939e-05 -0.00080073872085257 2.15505960577538e-05)
(-2.33588466025373e-08 -0.000238232218886025 8.21232886314584e-05)
(7.83562433830189e-07 -0.00023924137898047 6.95590006915847e-05)
(4.18550935412135e-07 -0.000244717415148559 5.30338298274278e-05)
(1.31394467398704e-06 -0.000303505347449021 3.64738436132428e-05)
(2.72980717792494e-05 -0.000843734567225181 2.19132810342537e-05)
(8.27327411636788e-07 -0.000530570642584063 1.49332096632244e-05)
(-5.55116628859401e-07 -0.000193630417834021 2.65450114317295e-05)
(5.31547063161691e-06 -0.000673113503319448 1.89297256753737e-05)
(-5.18238683899942e-07 -0.000180159107269849 4.23245229233551e-05)
(-4.1577864276971e-07 -0.00024546642580171 3.09592511876641e-05)
(1.05655359251196e-05 -0.000722092985224812 2.09724010410415e-05)
(-3.81119853554824e-07 -0.000197449243239972 6.01269752933798e-05)
(-2.20872650233577e-07 -0.000211487557932556 4.78763384329018e-05)
(-2.66213625325042e-07 -0.00026842657677914 3.30629956573615e-05)
(1.74058361886078e-05 -0.000768511122515692 2.18999515595506e-05)
(-1.14505858793147e-07 -0.000221568550255404 7.89094609399283e-05)
(5.06736995786352e-07 -0.000222657897838783 6.68276533059516e-05)
(-1.40469337916915e-08 -0.000228075212912931 5.07683264230349e-05)
(7.20124305725173e-07 -0.000285132821092508 3.44972142632147e-05)
(2.58934753109751e-05 -0.000810337459921231 2.09884530165018e-05)
(2.75923509522867e-07 -0.000249479058852263 9.86760430965187e-05)
(1.35589305912784e-06 -0.000244996326508749 8.63436487582171e-05)
(1.61531233772831e-06 -0.00023763892288442 7.03317568128052e-05)
(1.00106559442574e-06 -0.000239458423487876 5.2699809613809e-05)
(2.79243955659801e-06 -0.000296625798988169 3.56150047586853e-05)
(3.6713117871059e-05 -0.000845392511925452 2.09464744231347e-05)
(7.69959982855015e-07 -0.000507300652184708 1.42445595642326e-05)
(-5.83783808999051e-07 -0.000179757948671272 2.5268932801562e-05)
(4.99547366827101e-06 -0.000645480637046973 1.80709034087332e-05)
(-5.5559343540155e-07 -0.000166377327965058 4.03280993145917e-05)
(-5.68108749694036e-07 -0.000229565134392289 2.95717722093247e-05)
(9.96797204887109e-06 -0.000692800265068066 1.9915686762113e-05)
(-4.3674804897049e-07 -0.000182772400927399 5.7412227195956e-05)
(-4.11439678618246e-07 -0.000196344420938778 4.57875432697937e-05)
(-5.61898826951317e-07 -0.000251574952864995 3.17626998327815e-05)
(1.65641519957896e-05 -0.000737419045820122 2.12274028706715e-05)
(-1.89566387921004e-07 -0.000205711820955783 7.55674127718659e-05)
(2.57164254325609e-07 -0.000206851284347975 6.40482849089663e-05)
(-3.87368056524739e-07 -0.000212174691692351 4.86593472819216e-05)
(2.56062097516987e-07 -0.000267600607304861 3.30748707531595e-05)
(2.47485481382471e-05 -0.000778147200364552 2.14439107869714e-05)
(1.76487953536273e-07 -0.000232221193345957 9.48569746065295e-05)
(1.05185696372385e-06 -0.000228096975919476 8.30599185881527e-05)
(1.10773596508967e-06 -0.00022117709000119 6.75822052350446e-05)
(3.17766727909386e-07 -0.000223153060401664 5.04244179967412e-05)
(1.89236879673185e-06 -0.000278766184410932 3.3671991162835e-05)
(3.47532123574181e-05 -0.000812496190894331 2.00092321791652e-05)
(5.83214267101177e-07 -0.000261679410930266 0.000115283291785202)
(1.93343775740479e-06 -0.000254100531713569 0.00010276855497569)
(2.84023996184386e-06 -0.00024239493495547 8.68672959800589e-05)
(2.63578078555776e-06 -0.000230972499535363 6.9534368464085e-05)
(1.82863120356396e-06 -0.00022920252541866 5.1108738192623e-05)
(4.629958046029e-06 -0.00028535108787504 3.40013666554029e-05)
(4.69347568340311e-05 -0.000840266906347507 1.98486879620289e-05)
(7.25806504608452e-07 -0.000485118146419698 1.35830336178826e-05)
(-6.06775094033439e-07 -0.000166732151956143 2.40308942108535e-05)
(4.73725700617812e-06 -0.00061904240654677 1.7261020753209e-05)
(-5.85626213289012e-07 -0.000153418616810743 3.83754936802846e-05)
(-6.91256181786916e-07 -0.000214529754096185 2.8210822958915e-05)
(9.43869062567941e-06 -0.000664728327250899 1.90246825400201e-05)
(-4.80184262253137e-07 -0.000168917229635047 5.47146312957635e-05)
(-5.57584047766866e-07 -0.00018201776175428 4.37075727550686e-05)
(-8.09095050191469e-07 -0.0002355460523337 3.03908591146388e-05)
(1.57296422044623e-05 -0.00070790209426445 2.01461483700873e-05)
(-2.50460502466264e-07 -0.000190690755039597 7.21810438906106e-05)
(5.10544212175871e-08 -0.000191864641338297 6.12420426619559e-05)
(-7.03973241681528e-07 -0.000197066802821744 4.65829362178477e-05)
(-1.91054171720266e-07 -0.000250945163885169 3.1847587195479e-05)
(2.35595102680145e-05 -0.000747058325577064 2.07999930886502e-05)
(9.34003509053155e-08 -0.000215834632763914 9.08696266219816e-05)
(7.85652927617809e-07 -0.000212036544391618 7.96374936739212e-05)
(6.79516134461747e-07 -0.000205488274179063 6.47992646279458e-05)
(-2.35508589144591e-07 -0.000207573842397745 4.83507960444095e-05)
(1.20147775506337e-06 -0.000261700864314474 3.22839308290856e-05)
(3.31460516892378e-05 -0.000780716636251458 2.05299327833912e-05)
(4.77145591964938e-07 -0.000243715901681628 0.000110813409168692)
(1.60962672703247e-06 -0.000236684123191611 9.88917030401681e-05)
(2.29032648298481e-06 -0.000225645751976408 8.35912839748811e-05)
(1.87268853765407e-06 -0.000214898222119966 6.6815714292454e-05)
(8.95230193950557e-07 -0.000213504993887283 4.88786298820817e-05)
(3.46493719527762e-06 -0.000268270664454412 3.20672095962785e-05)
(4.45084161166017e-05 -0.000808202477656806 1.88809440800538e-05)
(8.4121946447691e-07 -0.000273912435154242 0.000132034992978679)
(2.4993994863711e-06 -0.000264581364655705 0.00011910335078481)
(3.89504215257772e-06 -0.000250663929988444 0.000102911115319149)
(4.40103191731111e-06 -0.000235043315452976 8.55490546224248e-05)
(3.81324554105702e-06 -0.000219660159658583 6.71580409350751e-05)
(2.83074221632083e-06 -0.000215148295270919 4.8474470681438e-05)
(6.83284996811588e-06 -0.00027077566484947 3.18306848838265e-05)
(5.78322204310212e-05 -0.000831112478575213 1.89048162860969e-05)
(6.9130912535934e-07 -0.000463972344408507 1.29528230899434e-05)
(-6.23325933449257e-07 -0.000154505539078749 2.28415735417819e-05)
(4.50719573302581e-06 -0.0005937603699582 1.64939766336342e-05)
(-6.09948048811906e-07 -0.000141256969584003 3.64793970038422e-05)
(-7.9162440174174e-07 -0.000200363223106922 2.68888958912613e-05)
(8.96868614054874e-06 -0.000637820953164464 1.81879197022817e-05)
(-5.15228212731282e-07 -0.000155872282233085 5.20622344314553e-05)
(-6.77491237175386e-07 -0.000168509773617208 4.16669063460868e-05)
(-1.01731030532358e-06 -0.000220337620604407 2.9019826516926e-05)
(1.49601744944119e-05 -0.000679599311344545 1.92501409278379e-05)
(-2.99794497368197e-07 -0.000176497674661681 6.88011870670492e-05)
(-1.13129125192089e-07 -0.000177687085144011 5.84447745790005e-05)
(-9.57691245839768e-07 -0.000182735621033084 4.44942592082593e-05)
(-5.65677617811421e-07 -0.000235074833366377 3.05270379494923e-05)
(2.24363133200936e-05 -0.000717590327896782 1.97000941047434e-05)
(2.56530874501578e-08 -0.000200316131150052 8.68125348941909e-05)
(5.63308475259155e-07 -0.000196809574184244 7.61515459791824e-05)
(3.2564433541371e-07 -0.000190588839398769 6.19794405578209e-05)
(-6.98822744976433e-07 -0.000192759804484304 4.62919898593437e-05)
(5.84623840126889e-07 -0.000245474009703219 3.10325913693887e-05)
(3.161068687511e-05 -0.000749956917440757 1.99413140387106e-05)
(3.87284483723933e-07 -0.00022669000579183 0.000106152964197654)
(1.32621966845444e-06 -0.000220167121840101 9.48285539330037e-05)
(1.82352378868242e-06 -0.000209733255650902 8.01697882002617e-05)
(1.24316876701526e-06 -0.000199571373052444 6.40754279058584e-05)
(1.46922758504787e-07 -0.000198492399672715 4.68698082137196e-05)
(2.55518646180029e-06 -0.000251900397959713 3.06838920249298e-05)
(4.24727933512381e-05 -0.000777133982275621 1.94113618494899e-05)
(7.30458953715933e-07 -0.000255178874952935 0.000126860021883738)
(2.16369733931855e-06 -0.000246527439942936 0.000114587985394062)
(3.31630654120724e-06 -0.000233432361729129 9.90655840178801e-05)
(3.58594817775991e-06 -0.000218703649273821 8.23347754998451e-05)
(2.79755588018818e-06 -0.000204227833492329 6.45210328392191e-05)
(1.67170914594639e-06 -0.000200298259600338 4.63103212760692e-05)
(5.44316940351441e-06 -0.000254683636025946 2.9893277798001e-05)
(5.49911301630909e-05 -0.00080007856178041 1.78327767531083e-05)
(1.0227364417568e-06 -0.000285405575947893 0.000149047433705986)
(2.99586136740763e-06 -0.000275446513591918 0.000135550200519893)
(4.78722709563739e-06 -0.000260352913495514 0.000118813221701372)
(5.94009737182303e-06 -0.000242753266689356 0.000101039720451314)
(6.06934715394232e-06 -0.000223293181803789 8.24279890659373e-05)
(5.0472776395086e-06 -0.000204814579469247 6.35076413642853e-05)
(4.01048798476001e-06 -0.000198426904239467 4.50978852098545e-05)
(9.43078530406692e-06 -0.000254003677753366 2.93024711164748e-05)
(6.93460554555762e-05 -0.000820801068596929 1.78187770465738e-05)
(6.63161155950341e-07 -0.000443792686697338 1.23607752137179e-05)
(-6.34055937143297e-07 -0.000143029540756181 2.17075319969849e-05)
(4.30383663633347e-06 -0.000569575557906626 1.57750332565043e-05)
(-6.28669365786929e-07 -0.000129850293652176 3.46535982699334e-05)
(-8.71586837676024e-07 -0.000187025631277381 2.5617424842795e-05)
(8.55027928824103e-06 -0.00061205842436948 1.73979769313836e-05)
(-5.43758776439338e-07 -0.00014361150864549 4.94787772308034e-05)
(-7.77534034634471e-07 -0.000155809136073004 3.96808689181982e-05)
(-1.18796472825088e-06 -0.000205984122207016 2.76807233865725e-05)
(1.42621236289873e-05 -0.000652441191842367 1.84135216240777e-05)
(-3.40154186466746e-07 -0.000163119098117159 6.54674160726396e-05)
(-2.49695193814716e-07 -0.000164319289736069 5.56914209841654e-05)
(-1.16644148517617e-06 -0.000169200993051838 4.2434293448075e-05)
(-8.76226702133574e-07 -0.000219988771435156 2.91897947221483e-05)
(2.14008007879123e-05 -0.000689312349254522 1.88167196947504e-05)
(-3.01151948974345e-08 -0.000185649541126465 8.27516228882037e-05)
(3.80240214211296e-07 -0.000182401440021888 7.26657708253567e-05)
(3.62472451437394e-08 -0.000176472111840583 5.91617103716879e-05)
(-1.07741721437977e-06 -0.000178675441986365 4.42285923330341e-05)
(6.61151100542381e-08 -0.000229996302069026 2.97040822209635e-05)
(3.01908951692779e-05 -0.000720815266668964 1.88636675406233e-05)
(3.12854592647412e-07 -0.000210579725129028 0.000101407653392762)
(1.08898618934732e-06 -0.000204518108538197 9.06762725682816e-05)
(1.43286360271803e-06 -0.00019463168280452 7.66712547194003e-05)
(7.20572106998648e-07 -0.000184995124052211 6.12912748324986e-05)
(-4.77514313005008e-07 -0.00018420138034454 4.48555631768597e-05)
(1.76294391165383e-06 -0.00023630889120091 2.9465829107772e-05)
(4.05780638349634e-05 -0.000746992102593663 1.89043664442231e-05)
(6.34804652892087e-07 -0.000237460660794411 0.000121485234497072)
(1.86683567860334e-06 -0.000229435330087787 0.000109860878858905)
(2.81936701909672e-06 -0.000217099211232755 9.50179168083298e-05)
(2.90179944139982e-06 -0.000203175652937069 7.89704626739024e-05)
(1.95827443108259e-06 -0.000189500858612803 6.18641142720487e-05)
(7.36327394724092e-07 -0.00018606581916666 4.43696286064269e-05)
(4.34404597169113e-06 -0.000239191667970509 2.85532686796451e-05)
(5.25911772541986e-05 -0.000769924454002042 1.79789388134061e-05)
(9.100513351873e-07 -0.000265892244844608 0.000143107025231897)
(2.6470655142557e-06 -0.000256673461292759 0.000130342551167367)
(4.1896635840294e-06 -0.000242514436433405 0.000114345523378971)
(5.08769544936965e-06 -0.000225954960232754 9.72797652170671e-05)
(4.99056040555821e-06 -0.000207608453094907 7.93272645499108e-05)
(3.79700550969375e-06 -0.000190239613612232 6.09901613876223e-05)
(2.65079089866028e-06 -0.000184603474200105 4.30272969550182e-05)
(7.85351154177481e-06 -0.000239072716496681 2.73784087792569e-05)
(6.62015023486127e-05 -0.000790874358452767 1.66636227614764e-05)
(1.13426707731807e-06 -0.00029557229516806 0.000166430652358775)
(3.39047735398194e-06 -0.000285903568992089 0.000152275700667228)
(5.515990861715e-06 -0.000270501562176894 0.000134836445489504)
(7.21906462029579e-06 -0.0002519117022537 0.000116408238789633)
(8.06436759059283e-06 -0.000230696046109246 9.7227008579388e-05)
(7.72798179267064e-06 -0.000208182217088207 7.78627621939479e-05)
(6.32191565967036e-06 -0.000187510068344716 5.89421486768598e-05)
(5.37746459681411e-06 -0.000179925981187928 4.12171107315192e-05)
(1.24627534819505e-05 -0.000236048647807275 2.65789813554658e-05)
(8.15122725611203e-05 -0.000811663882446323 1.65092026282028e-05)
(6.34176637494285e-07 -0.000424511901980402 1.18041209843229e-05)
(-6.40245722471838e-07 -0.000132257547301874 2.06325391408745e-05)
(4.15441921582904e-06 -0.000546434476903709 1.5127989994705e-05)
(-6.42331842497798e-07 -0.000119156414630754 3.29100101820981e-05)
(-9.34643510299851e-07 -0.00017446810413333 2.440849266731e-05)
(8.16348990976122e-06 -0.000587385701931319 1.66449967572086e-05)
(-5.66493282072989e-07 -0.000132097700082931 4.69859750801123e-05)
(-8.60046924054305e-07 -0.000143877169057831 3.7763948329143e-05)
(-1.32598184629421e-06 -0.000192453992399847 2.63869870999113e-05)
(1.36245210844454e-05 -0.000626402267806149 1.76181083659515e-05)
(-3.73403587977819e-07 -0.000150529024357872 6.22127174296656e-05)
(-3.65821988931986e-07 -0.000151742986690375 5.30054818702007e-05)
(-1.33875611457947e-06 -0.000156466685553725 4.04254140524385e-05)
(-1.13292866230266e-06 -0.000205732153376785 2.78638973822989e-05)
(2.04555306393369e-05 -0.000662143138779008 1.79989747801772e-05)
(-7.67131299057452e-08 -0.000171817294275716 7.87367786563942e-05)
(2.26122811734759e-07 -0.000168807427196603 6.92246945982775e-05)
(-2.06501664157376e-07 -0.000163150192387105 5.63866408955602e-05)
(-1.38967760976803e-06 -0.000165357319499521 4.21897705590289e-05)
(-3.63487264489042e-07 -0.000215261168900507 2.83907017847674e-05)
(2.88815266387355e-05 -0.000692826501429564 1.80091586357437e-05)
(2.50452204706676e-07 -0.000195361290005403 9.66533655239072e-05)
(8.91223753615925e-07 -0.000189714290677687 8.6514295755192e-05)
(1.10610279836428e-06 -0.000180327603012933 7.31687655191832e-05)
(2.8790557667896e-07 -0.000171165543749016 5.85051068700078e-05)
(-9.8840255700073e-07 -0.000170597819241181 4.28325259830526e-05)
(1.09948252477303e-06 -0.000221420726278414 2.81809431545182e-05)
(3.88535406985503e-05 -0.000718430315904267 1.78746060318453e-05)
(5.54189625396517e-07 -0.000220718755844424 0.000116022184281904)
(1.61589169257135e-06 -0.000213259559207646 0.000105030644869785)
(2.39889226302328e-06 -0.000201615124275312 9.08662095306703e-05)
(2.32580655830751e-06 -0.000188423173501508 7.55208547054861e-05)
(1.25642179654876e-06 -0.000175475954848458 5.9160021010734e-05)
(-5.06160157421374e-08 -0.00017248185856308 4.24540051335081e-05)
(3.3861141291104e-06 -0.000224406878500999 2.74164391780565e-05)
(5.03761624396796e-05 -0.000740607768204651 1.75837797417492e-05)
(8.10511841518325e-07 -0.000247476399029152 0.000136966895553622)
(2.33876543409089e-06 -0.00023893936094364 0.000124911926587362)
(3.66977981272331e-06 -0.000225641350646262 0.000109650639564504)
(4.36108405004474e-06 -0.000210031471514562 9.33082714149121e-05)
(4.08061716525982e-06 -0.000192694408225757 7.60732089266857e-05)
(2.75764042346175e-06 -0.000176309527897286 5.84535073485517e-05)
(1.54591513638489e-06 -0.000171303801023435 4.11895235738232e-05)
(6.59759767387646e-06 -0.000224601414021162 2.60931958810967e-05)
(6.35323898930561e-05 -0.000761805646916145 1.64802417875969e-05)
(1.01614245314329e-06 -0.000275292504960281 0.00015965231369576)
(3.03163948422107e-06 -0.000266385172200455 0.000146308396584802)
(4.89726384830355e-06 -0.000251985536261248 0.000129688684998849)
(6.33509074342502e-06 -0.000234534224116437 0.000112047577885803)
(6.93835313712874e-06 -0.00021456472856375 9.36085674175353e-05)
(6.40263343805699e-06 -0.000193356008324289 7.4921760086972e-05)
(4.8627349605809e-06 -0.000173958172735631 5.65767837758286e-05)
(3.84843547004145e-06 -0.000167262844801487 3.92594742318513e-05)
(1.07564010945928e-05 -0.000222395022874896 2.46526601149757e-05)
(7.81773630515034e-05 -0.000782874555424917 1.53994359701373e-05)
(1.20636759563865e-06 -0.000303914200893924 0.000184276528871027)
(3.674342065175e-06 -0.000295302388518544 0.000169419674958117)
(6.10073153623645e-06 -0.000280392713817487 0.000151178564001873)
(8.26587430225681e-06 -0.000261595977257946 0.000131932562228999)
(9.73353400684032e-06 -0.000239575571517079 0.000111958652220265)
(1.01359422502624e-05 -0.000215442404436505 9.18458100560838e-05)
(9.33078577267919e-06 -0.000190711927780966 7.22435470450081e-05)
(7.63705130535308e-06 -0.00016854761903703 5.3726397066189e-05)
(6.94302353383648e-06 -0.000160337112759718 3.69878969739702e-05)
(1.59852060718797e-05 -0.000217828942997307 2.37508989915306e-05)
(9.41769332915984e-05 -0.000805299953056806 1.5206972101398e-05)
(6.00634389070737e-07 -0.000406096913267904 1.12836990307009e-05)
(-6.44223979311813e-07 -0.000122143502556691 1.9625749603797e-05)
(3.99970991392516e-06 -0.000524268535738776 1.45136033417423e-05)
(-6.52398289259332e-07 -0.000109135224820558 3.12592096837106e-05)
(-9.86058952478444e-07 -0.00016264483073308 2.326909352e-05)
(7.78807519382288e-06 -0.000563765050185625 1.59390086705913e-05)
(-5.84339206840794e-07 -0.000121292650682592 4.46017209541913e-05)
(-9.28349248706878e-07 -0.000132672776554841 3.59302957680008e-05)
(-1.44045674100148e-06 -0.000179701294988238 2.51525760249167e-05)
(1.30245936617599e-05 -0.000601443924393613 1.68545703570132e-05)
(-4.0079527567783e-07 -0.000138692818460784 5.90645417674249e-05)
(-4.64522255770306e-07 -0.00013992289095288 5.04085779931117e-05)
(-1.47958258937087e-06 -0.000144497525079018 3.84831379597434e-05)
(-1.34307703999337e-06 -0.000192281022768109 2.65732068825103e-05)
(1.95852966077604e-05 -0.000636063726387982 1.72210166354446e-05)
(-1.15982486686683e-07 -0.000158790443242065 7.48098486967113e-05)
(9.41014990346471e-08 -0.000156006900116015 6.58612765778647e-05)
(-4.12321922726263e-07 -0.000150612810714665 5.36773898807575e-05)
(-1.64735633431561e-06 -0.000152820101947782 4.01976723479288e-05)
(-7.19507360537424e-07 -0.000201321928634929 2.70991163796859e-05)
(2.76770493482158e-05 -0.000665904684288714 1.72233741295812e-05)
(1.96782244166796e-07 -0.000181009902975165 9.19490687849782e-05)
(7.23245559365286e-07 -0.000175743574488836 8.23975386083541e-05)
(8.27658715899893e-07 -0.000166824480042444 6.97107293056848e-05)
(-7.55966807552696e-08 -0.000158104516327947 5.57605951878599e-05)
(-1.40869030530768e-06 -0.000157716207465483 4.08450662161417e-05)
(5.50549125089196e-07 -0.000207224228710459 2.6911560828335e-05)
(3.72626026793609e-05 -0.000690963624880585 1.70642642405444e-05)
(4.85325286028815e-07 -0.000204919843482703 0.000110553247184744)
(1.40407413708165e-06 -0.000197969501584764 0.000100186001024786)
(2.04223385744078e-06 -0.000186956943525561 8.67007534757798e-05)
(1.83980057553919e-06 -0.000174436242934774 7.20643225200299e-05)
(6.73269849183451e-07 -0.000162152804649783 5.64523807926111e-05)
(-6.95406656012225e-07 -0.00015953752266801 4.05179697416666e-05)
(2.58218416016774e-06 -0.000210269947466345 2.62282858225762e-05)
(4.83475058602034e-05 -0.000712788780579067 1.67903266400562e-05)
(7.25461571541399e-07 -0.00023010498154056 0.00013074492423225)
(2.07577141586055e-06 -0.000222183724438332 0.000119374959009648)
(3.22495351630393e-06 -0.000209669163247985 0.000104837935842491)
(3.74106554871267e-06 -0.000194924658950574 8.922337012643e-05)
(3.30853985137215e-06 -0.000178510033590673 7.27295385477201e-05)
(1.88350243914657e-06 -0.000163021795204064 5.58723297220837e-05)
(6.14418079782517e-07 -0.000158580567820473 3.93843090690286e-05)
(5.50092659966725e-06 -0.000210739570710719 2.50657369409732e-05)
(6.09953092008531e-05 -0.000733431743645693 1.61627111914148e-05)
(9.13453829826745e-07 -0.000256204193770701 0.000152685702102185)
(2.71303911203199e-06 -0.000247989523650869 0.000140121357402084)
(4.35799403406598e-06 -0.000234505876479712 0.000124304778993839)
(5.57356046149906e-06 -0.000218097733454579 0.000107448366911128)
(5.97376793956219e-06 -0.000199269051926398 8.97727236554636e-05)
(5.27821057357754e-06 -0.000179244617643863 7.18250171227504e-05)
(3.6441655284801e-06 -0.000160974011668258 5.41929930559475e-05)
(2.60397888194819e-06 -0.000155014018246718 3.75433426229947e-05)
(9.38331618505607e-06 -0.000209044396818742 2.33989471832165e-05)
(7.53601850741773e-05 -0.000754838578284589 1.5074887239354e-05)
(1.0841249170898e-06 -0.000282920289222032 0.00017657490238161)
(3.30128679601206e-06 -0.000275049182062126 0.00016261717822392)
(5.46114874152328e-06 -0.000261160229900244 0.000145284607551209)
(7.35343050415088e-06 -0.000243562812142345 0.000126910955638283)
(8.5668563903474e-06 -0.000222879300851942 0.000107764122271201)
(8.75293396319855e-06 -0.000200171085595711 8.84191249045166e-05)
(7.78559829733812e-06 -0.000176900072767559 6.95007445529267e-05)
(6.00109002483763e-06 -0.000156140022958627 5.15401103170888e-05)
(5.27995561049334e-06 -0.000148933954589046 3.51587440014681e-05)
(1.41806843696621e-05 -0.000205514446087038 2.19147809583377e-05)
(9.0683080094374e-05 -0.00077762975526171 1.41684908161014e-05)
(1.25131908173864e-06 -0.000310049599787599 0.000202644300593728)
(3.87360036381945e-06 -0.000303108227338155 0.000187069929353537)
(6.55292842356265e-06 -0.000289390637459764 0.000167968987440099)
(9.10057982624324e-06 -0.000271124313518661 0.000147802988453934)
(1.10995371712297e-05 -0.000249023762680626 0.000126888659943547)
(1.21658729232583e-05 -0.000224216006268495 0.000105833691028892)
(1.2081125974105e-05 -0.000197925205439714 8.52968230860619e-05)
(1.08612883804788e-05 -0.000171638066905929 6.58581428090528e-05)
(8.98893089279191e-06 -0.000148542467005849 4.80437384369909e-05)
(8.73418794539258e-06 -0.000140312553971145 3.25449719166794e-05)
(2.00146123280889e-05 -0.000200204661889881 2.10087021788267e-05)
(0.000107249802010848 -0.000802854122363564 1.412361710452e-05)
(5.66568618323361e-07 -0.000388511904858946 1.08021717831477e-05)
(-6.46996183948705e-07 -0.000112642457630134 1.86925643512077e-05)
(3.81027241191075e-06 -0.000503037438169176 1.38997157078434e-05)
(-6.59590583298561e-07 -9.97456480973315e-05 2.97081870725605e-05)
(-1.02988288774626e-06 -0.000151512003739322 2.21963752611464e-05)
(7.42595684858855e-06 -0.00054112148926815 1.52743917382041e-05)
(-5.9816436092073e-07 -0.000111159128178514 4.2339548790219e-05)
(-9.8605571869929e-07 -0.000122157352316264 3.41924188227393e-05)
(-1.54413198147947e-06 -0.000167683961933542 2.40004617038186e-05)
(1.24493738919822e-05 -0.000577523806665496 1.61329264186597e-05)
(-4.23537824009812e-07 -0.000127574195074073 5.60465622707575e-05)
(-5.48759754973445e-07 -0.000128821371949575 4.79197735931426e-05)
(-1.59467348348888e-06 -0.000133252696237629 3.66226471987779e-05)
(-1.51846805382384e-06 -0.000179593267210695 2.53278815620247e-05)
(1.87736036314103e-05 -0.00061103870085857 1.64765328556257e-05)
(-1.49785581176103e-07 -0.000146534838517869 7.10056863905676e-05)
(-1.99511164274301e-08 -0.000143967029808286 6.26037789113862e-05)
(-5.86832819769282e-07 -0.000138827120992556 5.10547732437284e-05)
(-1.85831622409479e-06 -0.000141032199918455 3.82665656941324e-05)
(-1.01423952931663e-06 -0.000188158861474288 2.58397615280745e-05)
(2.65628421982415e-05 -0.000640031012926171 1.64743487146975e-05)
(1.49835153588455e-07 -0.000167493251624055 8.73438156125682e-05)
(5.78229047934017e-07 -0.000162581930141577 7.83678369025782e-05)
(5.8737692421185e-07 -0.000154107362505697 6.63289225101011e-05)
(-3.82839816097692e-07 -0.000145809611260592 5.30787536316484e-05)
(-1.756213962267e-06 -0.000145581515754958 3.89106719867925e-05)
(9.55804630016809e-08 -0.000193782186074978 2.56766424220711e-05)
(3.57972130157704e-05 -0.000664502088756924 1.6317494472404e-05)
(4.25088523479264e-07 -0.00019003092818992 0.000105143653782632)
(1.22105165248765e-06 -0.000183544757052682 9.53901183863727e-05)
(1.7347810380136e-06 -0.000173118826985541 8.25795651320276e-05)
(1.42462505573987e-06 -0.000161225837133851 6.86508795255236e-05)
(1.84574297796868e-07 -0.000149560640237581 5.37871870809648e-05)
(-1.22294527819257e-06 -0.000147266979227751 3.862202395851e-05)
(1.92130495584167e-06 -0.000196762862718812 2.50491498081605e-05)
(4.64722280876646e-05 -0.000685991293273931 1.60308855987098e-05)
(6.5188251869555e-07 -0.000213735304405929 0.000124528484300892)
(1.85098264718756e-06 -0.000206365403336423 0.00011382655920023)
(2.84335304389498e-06 -0.000194564588495191 0.000100006392661885)
(3.21036974253467e-06 -0.000180613571680592 8.51215628787989e-05)
(2.65438538284912e-06 -0.000165049130540225 6.93774337091881e-05)
(1.15601976106771e-06 -0.000150382813020445 5.32879896732002e-05)
(-1.50238294539867e-07 -0.000146434122836998 3.75714352649158e-05)
(4.57640207414049e-06 -0.000197461659500063 2.39824704764201e-05)
(5.86653387867318e-05 -0.000706406599320722 1.5598439790767e-05)
(8.25381852733807e-07 -0.000238237159421372 0.000145654370056838)
(2.43943895664982e-06 -0.000230642296128972 0.000133835499865499)
(3.89317040502812e-06 -0.000217987711750847 0.000118800816768199)
(4.91714654041058e-06 -0.000202530780356633 0.000102721462583053)
(5.14438973678772e-06 -0.000184746787622453 8.58183459942925e-05)
(4.31958090505247e-06 -0.000165807297350448 6.86369955777252e-05)
(2.61682617240129e-06 -0.000148563090792103 5.17674676822683e-05)
(1.55421950960476e-06 -0.000143257858067071 3.58751895055926e-05)
(8.16399685403858e-06 -0.000196182037623425 2.2512215151662e-05)
(7.25629879280312e-05 -0.000727390737219072 1.47637752542034e-05)
(9.78226566358247e-07 -0.000263215879290468 0.000168710919600439)
(2.97290299489302e-06 -0.000256008661931924 0.000155609032178825)
(4.9030932502225e-06 -0.000243045876091649 0.000139156436807345)
(6.56097261087254e-06 -0.000226542448822517 0.000121641484589715)
(7.55692775714946e-06 -0.000207084920743697 0.000103324524774587)
(7.56239634534524e-06 -0.000185682226056441 8.47717188098281e-05)
(6.46974469741277e-06 -0.000163733788738931 6.6599875482387e-05)
(4.63278204964496e-06 -0.000144210072883098 4.93351142503996e-05)
(3.93202694937568e-06 -0.000137821794274818 3.35786795677562e-05)
(1.27469858908583e-05 -0.000193342303925145 2.06913927515201e-05)
(8.78658918706106e-05 -0.000750574350974737 1.37492371104909e-05)
(1.12475492972905e-06 -0.000288416308309456 0.000193927934503436)
(3.48783390584968e-06 -0.000282158670190441 0.000179347275735489)
(5.89240144411089e-06 -0.000269441992020054 0.000161251287071038)
(8.15883408011646e-06 -0.000252393580749138 0.000142051728378942)
(9.89414535226015e-06 -0.000231683818430161 0.000122055031180639)
(1.07326194540284e-05 -0.000208382755432371 0.000101858678207219)
(1.04690414406516e-05 -0.000183660460897484 8.21046408638554e-05)
(9.13004859027214e-06 -0.000158954664950524 6.33464110955564e-05)
(7.21181742296347e-06 -0.000137368027747758 4.60594456563341e-05)
(6.9735179874595e-06 -0.000130234607722915 3.08795182298424e-05)
(1.81496074601381e-05 -0.000189238725679234 1.93137720389488e-05)