/*--------------------------------*- C++ -*----------------------------------*\
  =========                 |
  \\      /  F ield         | OpenFOAM: The Open Source CFD Toolbox
   \\    /   O peration     | Website:  https://openfoam.org
    \\  /    A nd           | Version:  12
     \\/     M anipulation  |
\*---------------------------------------------------------------------------*/
/*   Windows 32 and 64 bit porting by blueCAPE: http://www.bluecape.com.pt   *\
|  Based on Windows porting (2.0.x v4) by Symscape: http://www.symscape.com   |
\*---------------------------------------------------------------------------*/
FoamFile
{
    format      ascii;
    class       volScalarField;
    location    "400";
    object      k;
}
// * * * * * * * * * * * * * * * * * * * * * * * * * * * * * * * * * * * * * //

dimensions      [0 2 -2 0 0 0 0];

internalField   nonuniform List<scalar> 
10176
(
2.17079455619998e-08
2.19355293674115e-08
4.69567418051519e-07
1.12546755042977e-07
1.27296642747178e-07
2.54635276266734e-08
5.0362898756992e-07
3.26398390155529e-06
1.96878973724081e-06
3.69455179252041e-07
2.07353338408669e-06
1.42220683574806e-07
4.02730281284256e-07
2.42550259288004e-08
5.3842661979472e-07
3.29613446534428e-06
8.2517532332541e-06
9.38316011122276e-06
5.31538947566875e-06
8.65832246268041e-07
5.46973476740926e-06
2.15442579157941e-06
9.45369868196746e-06
1.42625388882662e-07
4.33682425547704e-07
9.23089458836053e-07
2.1738721298474e-08
5.20130649630154e-07
3.29777717003604e-06
8.38776834772067e-06
1.42809625085971e-05
1.87922621199006e-05
1.89162047572649e-05
1.10733255776403e-05
1.67697390907746e-06
1.89412058097715e-05
5.56316110727237e-06
1.12036190391923e-05
9.38398034144843e-06
2.08909031777665e-06
1.87837686318513e-05
1.21283844378001e-07
4.32613500182193e-07
9.54721062519556e-07
1.71446181052257e-06
1.15920816577347e-08
4.35845132801939e-07
3.07281732877927e-06
8.31094252159905e-06
1.42213945143717e-05
2.01238068187717e-05
2.81746330316543e-05
3.24028576705444e-05
3.09013934965156e-05
1.90340954721798e-05
2.6725096791433e-06
3.22324814009383e-05
3.08174900606954e-05
1.86531992917579e-05
1.12149824772458e-05
5.34144601340003e-06
1.90134641854666e-05
1.8441163828921e-05
8.837265377295e-06
1.77626868059035e-06
2.79965167315044e-05
7.20729318074003e-08
3.6667941923827e-07
9.35151857771318e-07
1.72316405318061e-06
2.73060649166777e-06
3.86553518262301e-09
2.67709942726704e-07
2.51622912458365e-06
7.71536359692642e-06
1.39235309455129e-05
2.01470188378647e-05
2.74059836758453e-05
3.77126664338835e-05
4.52578636761387e-05
4.82216035422907e-05
4.44163850512608e-05
2.81889522049633e-05
3.90461624599863e-06
3.15227698897304e-05
4.79453347283339e-05
4.49152248721044e-05
4.42259087987283e-05
3.02539700650805e-05
1.76467621937219e-05
1.88348876646127e-05
1.07030777085418e-05
4.58760997425023e-06
2.80735007008537e-05
2.73332028879091e-05
1.73409165507975e-05
7.54733966303689e-06
1.14941544443791e-06
3.73910111404669e-05
2.72913313807794e-08
2.38156576079524e-07
8.08335110493141e-07
1.65033645348233e-06
2.73421624427062e-06
3.96185184510912e-06
8.49716242840472e-10
8.04664805895765e-08
1.62271597253326e-06
6.4667888707587e-06
1.29196463664393e-05
1.97250272707686e-05
2.71228026023831e-05
3.45507496086473e-05
4.75206505315175e-05
5.80817370298965e-05
6.44455844509388e-05
6.56058400663853e-05
5.88140783584861e-05
3.78170751604e-05
5.25637715829945e-06
4.69203911998472e-05
4.38170638092321e-05
2.98244187782812e-05
6.4019578626741e-05
6.52669745859021e-05
5.75597877939409e-05
5.85459320573533e-05
4.34299712661071e-05
2.87601338420734e-05
1.5513862316257e-05
2.77346765531948e-05
1.79721998242614e-05
9.34967334646398e-06
3.1287688165818e-06
3.76629058294001e-05
3.63680700481206e-05
2.57101501832694e-05
1.51284376771785e-05
5.31971265314964e-06
3.60628332596458e-07
4.70381226007892e-05
4.37667451850341e-09
1.19027355414595e-07
5.84230305345565e-07
1.45425934530686e-06
2.60695296957128e-06
3.98000326222323e-06
5.34983045042938e-06
4.96404511124767e-10
9.03841919656561e-09
5.8144877838089e-07
4.40870732886112e-06
1.09967428169635e-05
1.84061342072528e-05
2.62061176386465e-05
3.42674961880522e-05
4.20488000401174e-05
5.73610332503772e-05
7.08264785006648e-05
8.03463519609025e-05
8.5151078362526e-05
8.39264310294409e-05
7.36159774652497e-05
4.74678903897459e-05
6.74765058594902e-06
6.2615051455372e-05
4.4687078499889e-05
6.40338776844221e-05
5.60779062363337e-05
4.14975875197463e-05
2.66811992792245e-05
7.97631885495547e-05
8.46972701494638e-05
8.3548165325286e-05
7.01619001736744e-05
7.33171981679082e-05
5.7601420327751e-05
4.15558237491156e-05
2.58520714466479e-05
1.17747174408831e-05
3.72666758301921e-05
2.66078929549245e-05
1.60373863250545e-05
6.87842595051485e-06
1.17972677852725e-06
4.73562278336121e-05
4.56671717885731e-05
3.4158066774496e-05
2.26595761221135e-05
1.14082940758398e-05
2.23527647323294e-06
3.48436636204432e-08
5.67778162663862e-05
5.7525813163544e-10
1.47091062677515e-08
3.57616533967115e-07
1.11814515093356e-06
2.34355251865864e-06
3.8296646291783e-06
5.41449646942348e-06
6.87239769695152e-06
9.98099495819662e-10
8.60096893587523e-08
1.81170001898971e-06
7.86277096032808e-06
1.56768670133583e-05
2.42504900193442e-05
3.30613212797181e-05
4.16794437944126e-05
4.95792000918277e-05
6.72187716673343e-05
8.33861583755842e-05
9.59518723196657e-05
0.000104026896257177
0.000106765584513522
0.000102670011830289
8.8486104582943e-05
5.70099276189066e-05
8.33622730955471e-06
7.80020918454859e-05
8.31282408507725e-05
5.97626037818884e-05
4.07643188098743e-05
6.14441650377492e-05
8.2199204079143e-05
6.83424727257706e-05
5.31442320042429e-05
3.74693877736412e-05
2.15518035353944e-05
0.000103436857363624
9.52305195600306e-05
0.000106292003421959
0.000102274194449496
8.2609290951758e-05
8.8197002792067e-05
7.2314013845311e-05
5.55173130343098e-05
3.81050418438986e-05
2.0890103359658e-05
5.70775338403793e-06
4.70030475913403e-05
3.60364999151325e-05
2.42986695397407e-05
1.27407008648374e-05
3.54255347278153e-06
5.69581109631551e-05
5.51554135690003e-05
4.29068985411527e-05
3.03494446179172e-05
1.78131382219336e-05
5.87227053405058e-06
3.60202081084691e-07
4.09281775428365e-09
6.64812886424859e-05
6.93775743396782e-10
8.63001855667675e-08
7.0615410224875e-07
1.92663286654353e-06
3.50344434694355e-06
5.26698553171458e-06
6.98940075016352e-06
8.49511991794146e-06
4.70983076334623e-09
3.28671780285677e-07
3.59352743158994e-06
1.16409637098967e-05
2.09843105530252e-05
3.05417873769185e-05
4.02866881326412e-05
4.90524852401617e-05
5.68842176779571e-05
7.67470952231077e-05
9.56887620640254e-05
0.00011116524980907
0.000122372720332222
0.000128532663929069
0.000128764987200598
0.000121457993153939
0.000103199748174943
6.63416705127297e-05
1.0019039517627e-05
0.00010154681990244
9.3147509383399e-05
7.45771998026797e-05
0.000104638024052374
7.99785896083321e-05
5.50075489746159e-05
5.70480755745238e-05
3.46012160334459e-05
7.94468268671995e-05
0.000100874052069785
8.05170649128952e-05
6.48510598336673e-05
4.8289263730415e-05
3.12267005524758e-05
1.33130033191183e-05
0.000121650865692488
0.000127929196972268
0.000110335593901278
0.000128273084073348
0.000121067798544256
9.4802527997624e-05
8.72002823825498e-05
0.000102943299111614
7.0173685880718e-05
5.18594723092052e-05
3.24917123124734e-05
1.22231852678026e-05
1.24374148832359e-06
5.66962273937158e-05
4.57993629208716e-05
3.35966382296632e-05
2.06314146699833e-05
8.32104212062574e-06
6.63569751479839e-05
6.45409384945529e-05
5.18624556614682e-05
3.83122463018857e-05
2.43910892454855e-05
1.02852101152629e-05
1.37154720276073e-06
2.89931688950136e-08
4.69419594216834e-09
7.59665973116723e-05
1.03563775860933e-09
3.20261534443315e-08
3.10938033832336e-07
1.42341661878555e-06
3.0341342576395e-06
4.87216972953943e-06
6.84531949687895e-06
8.67578038246736e-06
1.02155458210199e-05
1.50883424727224e-08
7.04487046360466e-07
5.92203170211711e-06
1.58982932418274e-05
2.65304292929508e-05
3.71932281292831e-05
4.733410888466e-05
5.6313645580931e-05
6.42825318235325e-05
8.61608753156217e-05
0.000107598836706095
0.000125920310824346
0.000140140426420371
0.000149503903958885
0.000153343397836363
0.000150751842051317
0.000140029818080191
0.000117609857464465
7.54267702706076e-05
1.17974445000268e-05
0.000125973603036524
0.000119460994666413
9.78908385504807e-05
0.000107982136146931
8.92012857303376e-05
6.90513383513652e-05
0.000101377747721134
0.000126568564795955
7.4866960873361e-05
4.78810156946411e-05
7.49380741433536e-05
5.04222768928345e-05
2.49540583901211e-05
9.80881812124329e-05
0.000119655016044828
9.24454190904715e-05
7.65244325457841e-05
5.9195386791243e-05
4.0929911590246e-05
2.12784279756869e-05
3.62501261288689e-06
0.000139315000451027
0.000148768944913492
0.000152714298801376
0.000125003244656506
0.000150253124357545
0.000139660313258815
0.00010664353642623
8.50868571026229e-05
0.000101983131953957
0.000117390780684079
6.65485844969142e-05
4.63239734809341e-05
2.33672180432173e-05
4.44961113290549e-06
6.58101619204706e-08
6.6196768738452e-05
5.55751667069601e-05
4.33819845920582e-05
2.98945501177441e-05
1.58632916961317e-05
6.32610575728108e-06
7.54991573259429e-05
7.38320188406493e-05
6.07859571206564e-05
4.64462413304499e-05
3.12996440067515e-05
1.52261684786298e-05
2.71767773860471e-06
9.16178684593294e-08
5.00234834915465e-09
8.52591587926087e-05
9.5608182819966e-10
1.77006499446673e-08
1.87004857558191e-07
9.52954706047346e-07
2.48231098867898e-06
4.33138874268009e-06
6.37198329403235e-06
8.5530589397184e-06
1.04793964333774e-05
1.20461146665103e-05
3.63804930185606e-08
1.23919584749222e-06
8.68615480311542e-06
2.04883850735234e-05
3.22719988109371e-05
4.37545296282674e-05
5.43867330731831e-05
6.35414048759405e-05
7.13011993607146e-05
9.51502875301894e-05
0.00011913521881264
0.000140157945327496
0.00015728604290457
0.00016970737657072
0.000176833006384679
0.000178062591408625
0.000172453788907248
0.000158214168918091
0.000131618605986317
8.42601143001258e-05
1.3702780402807e-05
0.000122254378818012
0.000146525468064643
0.000150703043792859
0.000136869054978974
0.000115339356609502
9.21287642702722e-05
0.000122414573794769
0.000103573381524847
8.29483991050609e-05
6.0932915519891e-05
0.000123285774670984
9.62466674880873e-05
0.000148512877958299
6.7504000250278e-05
3.69438982681609e-05
6.85009125666208e-05
9.36711676337059e-05
4.09489211444865e-05
9.96018043076729e-06
0.000116880886867257
0.000138248728803501
0.000104071259590306
8.80066407731591e-05
7.01034561044038e-05
5.07716662849756e-05
2.94440643122625e-05
6.8281893327931e-06
1.66051918537872e-07
0.000168869510060487
0.000156383007837547
0.000176065934919134
0.000177411593881015
0.000139172002643003
0.000171958456683546
0.000157867794200743
0.000118092616650864
8.15646565869402e-05
9.99161061622587e-05
0.000116469318120146
0.000131431694968823
6.13619571695009e-05
3.87203672813918e-05
1.33981843973007e-05
1.79135059078341e-06
6.26485478288987e-08
7.54337058587168e-05
6.51630973238247e-05
5.322742479819e-05
3.97961850015767e-05
2.52108681824694e-05
1.18828464446931e-05
4.20813615303172e-06
8.43811644835412e-05
8.28628865090994e-05
6.96467816969285e-05
5.46615452002406e-05
3.83868521789995e-05
2.05555282089166e-05
4.45491046682506e-06
2.0363363301395e-07
9.63444350943053e-09
9.41683995436974e-05
7.97755907094417e-10
1.4037430077093e-08
1.50518294662221e-07
2.70347564996911e-07
6.94954999827264e-07
1.94654942467629e-06
3.69911288722447e-06
5.72294906995414e-06
8.03879716735264e-06
1.04122366036341e-05
1.2402599262905e-05
1.40160393302432e-05
6.64825355566574e-08
1.98196526778921e-06
1.18615954126696e-05
2.51721809509272e-05
3.80655939505748e-05
5.04012240141681e-05
6.12799201921613e-05
7.04400982643269e-05
7.80348801022716e-05
0.000103773058834414
0.000130169019128532
0.000153847705656525
0.000173778385381483
0.000189137557248232
0.000199352377543781
0.000203972698035756
0.000202420711728544
0.000193692537283394
0.000175896044227038
0.000145162015720186
9.28122982582976e-05
1.57083708969871e-05
0.000142380621898226
0.000146968379140129
0.000116566475235827
0.000166379433237654
0.000173762471691442
0.000175340748697683
0.000132331559851715
0.000153720786738311
0.000108960580777749
8.39948248403056e-05
0.000136377141101375
0.000117592374768421
9.66439708913386e-05
7.38757566229583e-05
4.86903810528219e-05
0.000145214629044178
0.000118269496525418
8.91969649002123e-05
0.000170183502443251
5.72107296307814e-05
1.74833935860501e-05
8.76451055724934e-05
6.0100089246891e-05
0.000112566335346216
2.72623522280062e-05
4.00325879930186e-06
0.000135477649235754
0.000156452373956813
0.000115299635971504
9.92218680824811e-05
8.08997523892666e-05
6.06574738706342e-05
3.78185605100873e-05
1.09309891440599e-05
3.95625872449319e-07
1.39142923356685e-07
0.000198479312974134
0.000188225099361342
0.000172813587697195
0.000203172963294125
0.000201754774223922
0.000152795203319212
0.000193201944210284
0.000175567391904612
0.000129057006047028
7.66591018234688e-05
9.64707581594339e-05
0.000114432596687247
0.000130536513658692
0.000144999054091129
5.47445899912167e-05
2.96933429212019e-05
7.15708927842566e-06
9.75150274319029e-07
4.62700953789721e-08
8.4391484253379e-05
7.4476124100373e-05
6.28707646029188e-05
4.97650514845518e-05
3.5353247846663e-05
2.03459573975728e-05
8.31362134313939e-06
2.3268637380975e-06
9.29656631078742e-05
9.15396191989807e-05
7.81962781808847e-05
6.27652408313831e-05
4.55602821055588e-05
2.6171851263036e-05
6.62161919980566e-06
3.67728528268369e-07
8.13385393445535e-09
0.000102708249344349
6.57503676323033e-10
1.03834252884325e-08
1.17264353120833e-07
1.99279914881833e-07
5.39116118534708e-07
1.49999719709182e-06
3.0720246762025e-06
5.01331585139551e-06
7.29373860803476e-06
9.88947926465189e-06
1.24019439940893e-05
1.4470667575352e-05
1.60833631359318e-05
1.16577916709138e-07
2.95281293129699e-06
1.5229880142651e-05
3.00043371265058e-05
4.38020348654106e-05
5.66522153022648e-05
6.78323741065552e-05
7.70467588585937e-05
8.43913714827871e-05
0.000111934817850196
0.000140688610112302
0.000166932199772003
0.000189588266939554
0.000207785791489956
0.000220947026632964
0.000228697625147461
0.0002306652544663
0.000226242916501221
0.000214347908997323
0.000192996877910601
0.000158201472206119
0.00010105836093593
1.77617903289636e-05
0.00016185264509498
0.00016961051181335
0.000136161362572906
0.000171563208342231
0.000141418307710905
0.000108913383936239
0.00018552898901847
0.000195927986302121
0.000200792103333175
0.000199615088963009
0.000125376170584984
0.000148810623005376
0.000169961663493786
0.000100064988934226
7.27911788921935e-05
0.000149807007755378
0.000131176115683455
0.000110041104082258
8.66686482337361e-05
6.03861249390393e-05
2.62709701525393e-05
0.000140267410505794
0.00016683767946124
0.00011162928575243
8.02144195646591e-05
0.000191382235876577
4.20554000144657e-05
6.9827841235132e-06
0.000106809803278644
8.02086163244091e-05
4.95849849375278e-05
0.00013119540999253
1.54330138686555e-05
2.26772549635314e-06
0.000153653817524821
0.000174133607050578
0.000126060724701157
0.000110042282587593
9.14527839989594e-05
7.04773745547738e-05
4.63179221360381e-05
1.58800300872586e-05
7.44562274536784e-07
2.90019783489248e-07
1.01181215665564e-07
0.000227786335332774
0.000219998744063857
0.00020681516908634
0.000188568017282626
0.000229837353497962
0.000225562456067174
0.000165819401483331
0.000213856876060874
0.000192677611623863
0.000139507305408714
7.06065833120934e-05
9.17148010084701e-05
0.000111007590193508
0.000128500622966852
0.000144114742477792
0.000158054507382429
4.7102042013084e-05
2.10937147021063e-05
4.85328361282831e-06
6.95890170857802e-07
3.13189943202472e-08
9.30305790286657e-05
8.34737009061647e-05
7.22052655153454e-05
5.94652257381417e-05
4.55243372401097e-05
3.04920946842408e-05
1.58018606798694e-05
5.8864341845989e-06
1.50159992707047e-06
0.000101253514444359
9.98635977798802e-05
8.64790426022428e-05
7.06922356815369e-05
5.26646543657035e-05
3.19009735071711e-05
9.21371880781061e-06
5.93512800777217e-07
7.0974946139371e-09
0.000110791791995179
5.85586753281761e-10
7.85959882818557e-09
8.00173685187181e-08
1.63847808427069e-07
3.86672657348596e-07
1.13349061879968e-06
2.47097911121543e-06
4.29416336925257e-06
6.48703882814105e-06
9.08395542163335e-06
1.18989120459154e-05
1.45346636543267e-05
1.6627913886984e-05
1.8197815870459e-05
1.81885090675952e-07
4.15999202453434e-06
1.87545588694334e-05
3.47479681455209e-05
4.93272723372444e-05
6.2625745157087e-05
7.41066758434315e-05
8.32955717429435e-05
9.03569918522364e-05
0.000119641410916523
0.00015063365463677
0.000179372878955111
0.000204676377261466
0.000225633044134018
0.000241636331600235
0.00025234172490715
0.000257500717530533
0.000256746518261042
0.000249410235123965
0.000234334905978422
0.000209459285162778
0.000170714664366558
0.000109020488334083
1.98398924729347e-05
0.000180658957101835
0.00015513052492007
0.000191403757668227
0.000196577513125422
0.000163556231707729
0.000127897108802841
0.000166049023755716
0.000195742367242297
0.000134210757336733
9.92974196516633e-05
0.000203939339263541
0.000217242352159122
0.000225146795727908
0.000227361514504943
0.000223339688289703
0.000115749056901957
0.0001413164849731
0.000164709114995666
0.000185541272752117
8.79707823857799e-05
5.6667978465015e-05
0.00016264886729275
0.000144246857454399
0.000123040744776146
9.92127412179042e-05
7.2005288972518e-05
3.57985254276671e-05
1.05988833583344e-05
0.000133837011075851
0.000161856563980927
0.000187947877283453
0.000103582607412529
6.901356971187e-05
0.000211977121981285
2.64546837160388e-05
4.12592777315968e-06
9.98688364583091e-05
0.000125522361211961
7.15973392437094e-05
3.8518813579113e-05
0.000149326038225151
1.09740293132711e-05
1.70316006610436e-06
0.000171273093537856
0.000191208878749131
0.000120436900161014
0.000136321935437959
0.000101675422181584
8.00997382544242e-05
5.48033518351079e-05
2.14422449584986e-05
1.23189953552279e-06
5.03600423238474e-07
1.99788299828861e-07
7.39425810989039e-08
0.000251352826957511
0.000256553945502289
0.000240630096558228
0.000224611129668614
0.000203603974131523
0.000255889667570015
0.000248710249784393
0.000178201409454305
0.00023383554659798
0.000209142389836871
0.000149387517950212
6.37790152042094e-05
8.59221370873886e-05
0.000106277959940584
0.000125038379286139
0.000142051601319833
0.000157165355551868
0.000170579166989536
3.93319831580917e-05
1.63256175338941e-05
4.08580936379815e-06
6.07718770552127e-07
2.57366040173228e-08
0.000101372367959403
9.21412914446682e-05
8.11643574299057e-05
6.87565100022401e-05
5.52960597431348e-05
4.0826579139389e-05
2.56872178401395e-05
1.24589187327661e-05
4.44166677255181e-06
1.11864154875648e-06
0.000109248782406725
0.000107726419106757
9.43738491911253e-05
7.82971046806211e-05
5.96085324163563e-05
3.76462670016498e-05
1.21801670650175e-05
8.70958555159723e-07
7.07068201737219e-09
0.00011840642372969
5.26609440289597e-10
5.07575875445931e-08
6.39503195444979e-09
1.46956676315119e-07
2.64728920703828e-07
8.23815921817331e-07
1.90279937219909e-06
3.54921165568648e-06
5.65447252914106e-06
8.18603106116657e-06
1.10427888981161e-05
1.4016227272891e-05
1.6739869521263e-05
1.88273827718585e-05
2.03342346150117e-05
2.68165900435248e-07
5.56898840374412e-06
2.22706304908391e-05
3.93915938686168e-05
5.45756631999867e-05
6.82358332823355e-05
8.00210654833887e-05
8.91266541125969e-05
9.58309457157538e-05
0.000126803070661571
0.000159979212444169
0.000191123210380068
0.000219001076961979
0.000242646617308933
0.000261415259645654
0.000274958460848508
0.000283094239049127
0.000285612393314725
0.000282104802225471
0.000271832318494602
0.00025357843712128
0.000225244149164853
0.000182701472270587
0.00011669653413677
2.19316162716437e-05
0.000198752380617549
0.000212384560323135
0.000173460090373567
0.000184872961278356
0.000146261404588858
0.000220547735111129
0.000223014721455634
0.000190537189710949
0.00015578195913371
0.000117621909204114
0.000159001736825381
0.000190131584870719
0.000219322295719171
0.000125565063897494
8.74789201544176e-05
0.000221569767851147
0.000237695553992594
0.000248501897651323
0.000253802117896312
0.000253300723973817
0.000246388423672893
0.000102800050074392
0.000130988884551883
0.000156705524615619
0.000179965968177308
0.000200411481348751
7.1029508560502e-05
3.84771133237504e-05
0.000174858605514459
0.000156751743911424
0.000135564080672923
0.000111403102207798
8.34344438648975e-05
4.5659491303301e-05
1.50698028503818e-05
6.6017207768239e-06
0.000126183046743916
0.000155415668467407
0.00018284169366542
0.000208417296634347
9.43064275052027e-05
5.67101814430074e-05
0.000231880185866504
1.97214337374052e-05
3.30796077704101e-06
9.20377655707522e-05
0.000118717694020325
0.000143592045369033
6.25465723280159e-05
3.1445097807011e-05
0.000166834003079154
9.6585175266067e-06
1.58883929119031e-06
0.000188256126843401
0.000207624389638036
0.000130344330633936
0.00011148403887542
0.000146021568921806
8.9433310096657e-05
6.31598492945891e-05
2.74098665026508e-05
1.78609781614614e-06
8.09948610110754e-07
3.44287312779058e-07
1.4806956286859e-07
6.34548779538153e-08
0.000273910390257381
0.000282066259685289
0.000284628194669036
0.000260357916394452
0.000241575874470602
0.000217878026960053
0.00028121350855238
0.000271106286529825
0.000189896096074404
0.000253065304508625
0.00022492380583886
0.000158666166762406
5.67271245506505e-05
7.94127036720787e-05
0.000100524127506567
0.000120233811445627
0.000138500482225112
0.000155049760352892
0.000169673987401334
0.000182572048431737
3.33252244261764e-05
1.39857364946859e-05
3.77856672460165e-06
5.93508161412702e-07
2.6265047167555e-08
0.000100496282727915
0.000109406282095658
8.97951816235823e-05
7.76414442029239e-05
6.45129726954814e-05
5.0646485810878e-05
3.59826993059722e-05
2.15624509242231e-05
1.00790523244972e-05
3.55940372042075e-06
8.90341543541614e-07
0.000116946261060816
0.000115133678017242
0.00010190843373899
8.56150465087325e-05
6.63230468498583e-05
4.32866994774047e-05
1.54051171197857e-05
1.2037315865011e-06
6.94160300617898e-09
0.000125505537018206
4.6717673751574e-10
1.71007655029033e-07
3.32236876078081e-08
5.56145501529763e-09
1.33977231929022e-07
5.97699777788733e-07
1.45002303630212e-06
2.84561702903895e-06
4.80133060608388e-06
7.25228149347039e-06
1.00421099578438e-05
1.3082303482958e-05
1.61910489779648e-05
1.89791841047616e-05
2.10434791428065e-05
2.24804067409825e-05
3.709350719517e-07
7.11195648813002e-06
2.57433182263905e-05
4.38088631106837e-05
5.96483535660015e-05
7.359903492133e-05
8.55194555737306e-05
9.45436910748005e-05
0.000100885671572761
0.000133448444449289
0.000168677212225222
0.000202147007530353
0.000232519195568029
0.000258785671091065
0.000280257147010579
0.00029656087179949
0.000307537344229052
0.000313072112768903
0.000312929935299859
0.000306646348414479
0.000293432717760511
0.000272037055214899
0.000240335448553064
0.000194158867375334
0.000124089197800923
2.40300489527555e-05
0.000191096864964345
0.000216082556184277
0.000232529431810175
0.000243561720715845
0.000205400439666913
0.000163997357058557
0.000214017680722762
0.000176533725379675
0.000135318410194211
0.000249044573190466
0.00024876457930968
0.000216828818229678
0.000182892190731228
0.000146511640742122
0.000105177243098306
0.000150669405146369
0.000182989793649665
0.000213513002050767
0.000242187805932331
0.000115628834319065
7.42734523716101e-05
0.000238376813282423
0.000257258943783605
0.00027087694207416
0.000279091820179083
0.000281742449151168
0.000278494611949078
0.000268671451513137
8.50933337577965e-05
0.000117215895078517
0.000145705306669836
0.000171477045842137
0.000194529101076491
0.000214527272041514
5.11077191632285e-05
2.98050273519591e-05
0.000186389702729448
0.000168641895445894
0.000147546821299849
0.000123156589113089
9.45656386231889e-05
5.55823667920471e-05
2.02284998104856e-05
9.89706465625463e-06
5.57240514643301e-06
0.000147764560031128
0.000117539636106592
0.000176236690100672
0.000203118803002054
0.000228165401957468
8.43384185144792e-05
4.77802392759531e-05
0.000251022053932938
1.76073520385199e-05
3.22713725977452e-06
8.37530159952236e-05
0.000111048851502273
0.000136699812997267
0.00016093634557341
5.47658551705899e-05
2.7707697127171e-05
0.000183655751509361
9.30555699651189e-06
1.57455823261027e-06
0.000204552615058671
0.000223346243526086
0.000139732107089299
0.000120850282134405
9.8406490404154e-05
0.00015512963009184
7.12872195865006e-05
3.35523776863564e-05
2.42426202375995e-06
1.1771415645962e-06
5.584745218556e-07
2.62409441781185e-07
1.31145530686389e-07
6.31132619609581e-08
0.000295460544157554
0.000306448259327985
0.000312001973351845
0.000311902214150657
0.000279150720767262
0.00025766719124509
0.000231347381328
0.000305714822834679
0.000292675198390421
0.000200865885581893
0.000271504985400604
0.000240007301393546
0.000167308503688978
5.02673619362507e-05
7.25391649102685e-05
9.40202279337002e-05
0.00011436491226679
0.000133546043441619
0.000151375620444913
0.000167488423313938
0.000181640949522239
0.00019403049698642
2.90313258727879e-05
1.25236526398946e-05
3.56331527306252e-06
5.79607507550313e-07
2.68801908136329e-08
9.80853275093093e-05
0.000108524079335789
0.000117125671756425
8.61587744569987e-05
7.32940886634774e-05
5.97970310650358e-05
4.57290054158366e-05
3.13564400421224e-05
1.81044104213621e-05
8.32609540470752e-06
2.90223374428118e-06
7.25898791468567e-07
0.000124350218446281
0.000122037005389823
0.000108952876780375
9.25050674568722e-05
7.27280620466119e-05
4.87623473897364e-05
1.874710628606e-05
1.57509277709034e-06
6.52017072761234e-09
0.000132071689848661
3.95586917622962e-10
4.03769511661173e-07
1.10131441558327e-07
2.53468120244065e-08
4.55160123025618e-09
1.2088348237596e-07
1.09429114356151e-06
2.27686792997813e-06
4.00572507154911e-06
6.30389928426434e-06
8.99235589495915e-06
1.19694498124161e-05
1.51653871297175e-05
1.8391730777659e-05
2.12290765411646e-05
2.32630626037617e-05
2.46311262999143e-05
4.87350107893099e-07
8.73837098594376e-06
2.91414238413564e-05
4.80262240310873e-05
6.43815917798807e-05
7.85536243670408e-05
9.06935275641679e-05
9.94785426597732e-05
0.000105535913988879
0.000139553171099622
0.000176718152868119
0.000212408169743475
0.000245192148337613
0.000274007343311943
0.000298122772038263
0.000317129925356533
0.000330865487078442
0.000339254720933431
0.000342179928253754
0.000339366146371893
0.000330301666942325
0.000314163479227008
0.000289681496372181
0.000254721502815338
0.000205084543436594
0.000131206640247913
2.6119077480775e-05
0.000207986698659513
0.000225108936988402
0.000181053284329534
0.000232601601201444
0.000251799727828726
0.000265623145490367
0.000236570185607583
0.000273974627708487
0.000196501876212264
0.000152385570848751
0.000205787780599405
0.00024233334404478
0.000166621046727081
0.00012222475445017
0.000276762410532106
0.000273728834842792
0.000242320466753582
0.000209025420210125
0.00017387964314292
0.000135883575750727
9.12057370834868e-05
0.000141236274354504
0.00017455105197175
0.000206114188527632
0.000236112871009176
0.000264260186792148
0.000104798649729693
6.38529475013835e-05
0.000275894409979614
0.000254316445760463
0.00029225872575272
0.000303283356337984
0.000308879561476085
0.000308864175419806
0.000302852578087668
0.000290117669814531
6.38900079101298e-05
9.87666241671385e-05
0.000131135880253953
0.000159830167983265
0.000185575607893365
0.000208351969072103
0.000227845666087205
4.07619705011756e-05
2.67198974831343e-05
0.00017987491672694
0.00019720519452107
0.000158943643043721
0.000134408448192979
0.000105311316862932
6.53441657616036e-05
2.59530839021734e-05
1.39779659324341e-05
8.63635404964924e-06
5.52193291522332e-06
0.000168366185546485
0.000139115469418195
0.00010821123104415
0.000196252697199023
0.000222627202127989
0.000247131455596588
7.50884785065389e-05
4.23538081960276e-05
0.000269366260674282
1.68370596929178e-05
3.27274168071802e-06
0.000102796664324457
7.56609453926563e-05
0.000128879098064271
0.000153819683221343
0.000177522216663972
4.86753386213204e-05
2.52367771986571e-05
0.000199753439113254
8.96472120223052e-06
1.54413731259003e-06
0.000220141091626411
0.000238363395551047
0.000148535944989759
0.000129701069359237
0.000106963664871285
7.91154876493336e-05
0.000163614448048049
3.96707759927373e-05
3.10969094363339e-06
1.62571108738776e-06
8.40577520605956e-07
4.36408483758564e-07
2.37335225218158e-07
1.27709951289421e-07
6.39779325693825e-08
0.000315979156225129
0.000329722528853976
0.000338120787107959
0.00034106111129993
0.000338288787763305
0.000296967985386874
0.000272842453025645
0.000243973569220601
0.000329325013271198
0.000313370876895609
0.000211077824642812
0.000289127374065866
0.000254382524678019
0.00017529097370805
4.45828752840054e-05
6.5683663156365e-05
8.70120615224597e-05
0.000107680012236542
0.000127466195030696
0.000146223583200081
0.00016366736173194
0.000179371658365016
0.000193065514833026
0.000204953192841621
2.55693098276901e-05
1.11970280009454e-05
3.26566468940275e-06
5.34125895522713e-07
2.56429679410179e-08
0.000106025479510437
9.43029260732519e-05
0.000116218968599303
0.000124537096940817
8.16440086980688e-05
6.84129470590692e-05
5.47476738535601e-05
4.07998814081086e-05
2.70876749011308e-05
1.52276699588357e-05
6.85455295133675e-06
2.35052026132502e-06
5.94817463711911e-07
0.000131474292537516
0.000128423785889222
0.000115578453237304
9.90437881289639e-05
7.88558883573257e-05
5.40169170884676e-05
2.21056713105318e-05
1.97215044757635e-06
5.58557365666588e-09
0.000138086515462227
2.77921083376095e-10
7.73546125203294e-07
2.73872106749402e-07
7.91080980672844e-08
1.90710166256395e-08
3.17362097239363e-09
1.00013152796503e-07
1.76262749885398e-06
3.28834489221152e-06
5.37698795752402e-06
7.91940570366873e-06
1.07934499800629e-05
1.39313740292667e-05
1.72660591332529e-05
2.05965785037638e-05
2.34758445285462e-05
2.54822915063615e-05
2.67735534161281e-05
6.13043589983036e-07
1.04188466200226e-05
3.23251186108184e-05
5.1990053390058e-05
6.8878374051616e-05