/*--------------------------------*- C++ -*----------------------------------*\
  =========                 |
  \\      /  F ield         | OpenFOAM: The Open Source CFD Toolbox
   \\    /   O peration     | Website:  https://openfoam.org
    \\  /    A nd           | Version:  12
     \\/     M anipulation  |
\*---------------------------------------------------------------------------*/
/*   Windows 32 and 64 bit porting by blueCAPE: http://www.bluecape.com.pt   *\
|  Based on Windows porting (2.0.x v4) by Symscape: http://www.symscape.com   |
\*---------------------------------------------------------------------------*/
FoamFile
{
    format      ascii;
    class       volScalarField;
    location    "400";
    object      nut;
}
// * * * * * * * * * * * * * * * * * * * * * * * * * * * * * * * * * * * * * //

dimensions      [0 2 -1 0 0 0 0];

internalField   nonuniform List<scalar> 
10176
(
8.84140979500253e-09
8.89004279848055e-09
2.71013631655406e-06
4.54791311924385e-08
5.21177611103967e-08
1.0475537591667e-08
2.9989782806158e-06
3.36030790913452e-05
6.15453562935707e-06
1.50665755459916e-07
6.73549012030414e-06
5.91482678176966e-08
1.66047447149781e-07
9.76881441981838e-09
3.33496232001285e-06
3.40401206293556e-05
8.38876884873273e-05
6.82038939937883e-05
1.35916428338842e-05
3.45470329808641e-07
1.44632425305609e-05
7.32157974332331e-06
6.95274737328133e-05
5.99607284119771e-08
1.83360324952303e-07
3.81634950067473e-07
8.97723218969965e-09
3.37247390324021e-06
3.47039751189815e-05
8.35741049301656e-05
9.15521133194226e-05
0.000159047460811089
0.000113047275789412
2.58686795697098e-05
6.77970540416363e-07
0.000114954474883484
1.5381884601989e-05
2.70559930328572e-05
7.08631280153573e-05
7.48974803901296e-06
0.000158921592346452
5.14412548999e-08
1.87224567992523e-07
4.09507297858323e-07
7.12878887040116e-07
4.69105279972851e-09
3.06051323429109e-06
3.42289480779531e-05
8.48268696873594e-05
9.2975769192632e-05
0.000137294477312375
0.000207971337213937
0.000248864539375468
0.000163396371677115
4.22960208982149e-05
1.07113673654431e-06
0.000249016448404948
0.000165601818999542
0.000116384802429841
2.82590380765614e-05
1.55561740939557e-05
4.34491920864183e-05
0.000158932654697685
6.99348172339202e-05
6.81606555833828e-06
0.000208950591836249
3.03251169709986e-08
1.5987492631823e-07
4.12805791005853e-07
7.4411949174493e-07
1.13486848488206e-06
1.6003117815888e-09
2.04689058941651e-06
3.14186964461709e-05
8.3016565452352e-05
0.000102207270362792
0.00013350283828512
0.000152769182832949
0.000262211734896019
0.000347626368720675
0.00034134312279267
0.000213945441612793
5.96874775372127e-05
1.57626210303076e-06
0.00024714937284446
0.000341560582400355
0.000347044799973681
0.000216241767195167
0.000166773039686588
0.000114432168281993
4.46908034665908e-05
2.82198534767919e-05
1.4121571397141e-05
6.11100783534939e-05
0.000212681087621996
0.000154970756428988
6.44352118351576e-05
4.6650857880197e-06
0.000260491467530278
1.1900138086844e-08
1.02694071538947e-07
3.6021429316848e-07
7.34706049906125e-07
1.1827892538953e-06
1.65082525835812e-06
3.45238803860981e-10
6.34987504378696e-07
2.46891748933867e-05
7.29988188762915e-05
0.000111138751980038
0.000129772375438016
0.000154685128676577
0.000176599946148648
0.000300726053075543
0.000426382166274084
0.000487379192626063
0.000429714497574653
0.000261335841461227
7.66435745195556e-05
2.12169001223882e-06
0.000338167060710738
0.000343733958039526
0.000239021817571839
0.000485495796359116
0.000429907291831873
0.000424196212057118
0.000263821593218986
0.000217168085903745
0.000163415202251585
0.000105412078423933
6.24977892570333e-05
4.42723379939469e-05
2.57084209127288e-05
9.99312695891829e-06
7.83363126282895e-05
0.000257193214260154
0.000210510456000285
0.000139548801911622
4.98510949173851e-05
1.38470160340509e-06
0.000299718003853214
1.86336054837283e-09
5.41715186370151e-08
2.5776407373464e-07
6.54839014427586e-07
1.16261736490546e-06
1.72400020504911e-06
2.23342953928861e-06
2.04540505369621e-10
4.52292402038013e-08
1.19642611375761e-05
5.69089596756803e-05
8.89500596242879e-05
0.000122754390431813
0.000148255253804312
0.000183706965914316
0.00021591242054379
0.000337973368228392
0.000490049127543258
0.000601512251013337
0.000618588216625452
0.000511058305798399
0.000304735074525455
9.22149704347376e-05
2.73092146903714e-06
0.00047757162369037
0.000326202468066949
0.000425689157667449
0.000416897102000806
0.000330892166472735
0.000216332870191245
0.000597787618272146
0.000615950398664961
0.000511363591269099
0.000486871602551209
0.000307557856975078
0.000264858890713878
0.000212806678728934
0.000150996107531572
8.1697888163293e-05
8.00739786916987e-05
6.18864213068007e-05
4.07387800911039e-05
1.93817387472935e-05
3.47491375935613e-06
9.43951963439388e-05
0.000293653022809491
0.000247683991510059
0.000186777667202976
0.000107753324051261
2.02145639393332e-05
7.91130797537652e-08
0.000338908089496159
2.32510692549757e-10
6.07481022972409e-09
1.66484623721305e-07
5.01956633474046e-07
1.05802391289636e-06
1.70983007082004e-06
2.35101896465427e-06
2.87599437729102e-06
4.16005450529009e-10
7.11311141420472e-07
2.50178434090044e-05
7.62669180976356e-05
0.00012102925379937
0.000143793117960403
0.000188112751330093
0.000208880723129731
0.000213569095470767
0.000378029060734504
0.000545773625792884
0.000693916611233459
0.000771133433811522
0.000738653105420858
0.000584991797449334
0.000344102537690899
0.000106662059109384
3.37681046154882e-06
0.000585590367146217
0.000605621831506923
0.000456971455063648
0.000297034311163525
0.000411606830514801
0.000507114858054021
0.000476799159159453
0.000398618632102453
0.000297296537422311
0.000166883551041117
0.000766059219969572
0.00068873395704589
0.000735732596226549
0.000585647310738959
0.00054246815088028
0.00034745779393374
0.000309131961350252
0.000260347719583673
0.000198494730702441
0.000121214824894524
3.26825518405176e-05
9.67058160710952e-05
7.96498099424086e-05
5.78290685362845e-05
3.29727146189251e-05
9.32364755842483e-06
0.000109273410067557
0.000335080997486968
0.000282629219989476
0.000228464966801948
0.0001487837599257
4.92259603392622e-05
1.2734600516529e-06
1.68911928037881e-09
0.000373562390473025
2.07542431844638e-10
3.59474233593587e-08
3.26598222788339e-07
8.69518058389807e-07
1.58327332149406e-06
2.35732008827769e-06
3.04266588407996e-06
3.56079614688236e-06
2.00436698640967e-09
2.83664560845227e-06
3.63407407420753e-05
9.31908180956622e-05
0.000137447598799779
0.000174698565474148
0.000196195226290497
0.000219219291382261
0.000255946809878103
0.000399872943459927
0.000596692857052765
0.00077218059456058
0.00089544585560843
0.000928791212131199
0.000847647251218454
0.000652057189977222
0.000380005261587597
0.000120002794116969
4.06087358187457e-06
0.000750342587147712
0.000673166963475022
0.000557781512299858
0.000724630829524487
0.000580758091482802
0.000412754526986467
0.000379582992157788
0.000236628450694353
0.000492895200682027
0.000582068490710697
0.00053111108983293
0.000454778515391454
0.000359697565793902
0.000231266158369461
7.80027034607144e-05
0.000888532229468205
0.000922936555547109
0.000766062047846792
0.000844888449295316
0.000653284492430878
0.000591583287941923
0.000349898852160744
0.000383930546512645
0.000305310888395722
0.000246164997214942
0.000167373272853382
5.96774942466947e-05
2.70177829960839e-06
0.000112215934599152
9.67690721985994e-05
7.56408964155625e-05
4.97748037740815e-05
2.09737228159099e-05
0.00012303546431957
0.000362955201730535
0.000318552568619856
0.000260035876783455
0.000180645569012939
7.40032711541456e-05
5.38489015860169e-06
1.23797915058573e-08
1.41017201699611e-09
0.000399351063348193
2.27573940067309e-10
1.36512664774985e-08
1.44772675082419e-07
6.37010021082464e-07
1.37035719504392e-06
2.20711625046171e-06
3.07256752104588e-06
3.78439017300778e-06
4.2860496653971e-06
6.29282902603578e-09
5.73016065432691e-06
4.70637975515968e-05
0.000112657044717498
0.000150770949795226
0.000182148357533188
0.000221955321142624
0.000250960479834674
0.000271279969124219
0.00043585497439143
0.000638474442176732
0.000840506669245059
0.000999679795345671
0.00108611416324182
0.00107323681393277
0.00094653317592754
0.000713106284026719
0.000412872823314258
0.000132429517804448
4.78230470665644e-06
0.000905572008216429
0.000868584364090803
0.000716259271107079
0.000747990671165848
0.000639764736446621
0.000502773896646691
0.000698859579195616
0.000834232519937898
0.000531258631878046
0.000328930148310831
0.000462003809882132
0.00031793792223854
0.000131927886126847
0.000569211040007445
0.000650830244390915
0.000577158065886487
0.00050468892157679
0.000410474200286015
0.000281903544003026
0.000118032815489712
8.41806817694554e-06
0.000991474977553379
0.00107805906472587
0.00106723823889263
0.000833355575582438
0.000944291736902931
0.000714993717714598
0.000633705245663989
0.000347244981424648
0.000387329905322092
0.000417342561968011
0.000292620505882268
0.000218246936181343
0.000107127161037647
1.04818842028566e-05
2.18010534681076e-08
0.00012659699939872
0.000112873656480432
9.31501462087046e-05
6.79948160615235e-05
3.7999732624037e-05
1.33273499793873e-05
0.000135824480039418
0.000393763980964872
0.000344060568393876
0.000286923073619612
0.00020895947294288
9.58736530916584e-05
1.04876241459372e-05
3.77268503600381e-08
9.97458945299078e-10
0.000431595583772696
3.08206943960797e-10
7.78354536336176e-09
8.67929660101243e-08
4.21375465410071e-07
1.1159361159745e-06
1.96140900704928e-06
2.89559272990781e-06
3.84804449024784e-06
4.57684276164299e-06
5.0563710673992e-06
1.53672371906544e-08
9.1855344528488e-06
5.65826420860996e-05
0.000122364311723289
0.000170902778814867
0.000216035929289475
0.000243974718580868
0.000266388295800182
0.00029330526210051
0.000461946463795589
0.000679827392792079
0.000900055533935143
0.00108934762664222
0.00121828048945336
0.00126309742845804
0.00120503785746186
0.00103646530143382
0.000768882251711467
0.000443078570179657
0.000144083458935831
5.55490238941602e-06
0.000869429009886478
0.00105575297648796
0.00104988373300776
0.000968332634345302
0.000827275686103964
0.000652820106665913
0.000812879948346187
0.00070980412410544
0.000576482703877223
0.00040274349986801
0.000809998270546869
0.000650213680241372
0.000934847921891723
0.000443747201362746
0.000193383103071052
0.000406935340910668
0.000541916857255064
0.000215978960476452
2.49650086258456e-05
0.000640052417553419
0.000713802522290798
0.000619351341389608
0.000547544259930187
0.000454150511082855
0.000324860863487494
0.000153109809296293
1.62454266318168e-05
5.02638476928159e-08
0.00120869776003859
0.00108014310207948
0.00125465592540401
0.00119941949305051
0.000892366044624858
0.00103491323977293
0.000771407157194773
0.000673892694765963
0.000336455973053879
0.00038593499922979
0.000421649937626952
0.000448019281165551
0.000269248042243029
0.000171662502663683
3.97360458546921e-05
1.15860966722604e-06
1.34477783833135e-08
0.000139954589980664
0.000127837492670479
0.000109743255118271
8.61681383218786e-05
5.7417001190024e-05
2.66430541011146e-05
7.24541620861387e-06
0.000147800721656866
0.000421282881358618
0.000375700360954098
0.000313645792464701
0.000231387894558503
0.000115190658873179
1.62733784784189e-05
8.44558959345941e-08
3.02670209063045e-09
0.000456321394575426
2.70439918263264e-10
5.94136256729597e-09
6.85330936663868e-08
1.85760044388684e-07
3.06788299987628e-07
8.72146620190734e-07
1.66981322569723e-06
2.60020570971126e-06
3.66264328208609e-06
4.69149121195736e-06
5.42039481712657e-06
5.88438394368409e-06
2.77546163186488e-08
1.32357249034893e-05
6.56924766535562e-05
0.000141390793380981
0.000183594310437277
0.000219939837757733
0.000253809520234011
0.000286604568337489
0.000306567136494503
0.000486987924142928
0.000716120555796465
0.000953835241751485
0.00116771972805674
0.00133153238014259
0.00142376281848128
0.00142606210854792
0.00132526447661723
0.001118470903004
0.000819964412469745
0.000470850122615874
0.000154734844522527
6.36790530817984e-06
0.00101134770760578
0.00101500297986054
0.000805653234341372
0.00118271669050828
0.00123196595603512
0.00118319630301033
0.000921376278587371
0.00105446488572416
0.000753197880564509
0.000546093761570948
0.000870424277209962
0.000770852804838516
0.000639631701476642
0.00046502781449005
0.000246770573404052
0.000913368423805421
0.000766154089935257
0.000569992234709583
0.00102697103945389
0.000309158612302553
4.52999039479136e-05
0.000496264039009624
0.000321876884252412
0.000616956122601881
8.98991180565887e-05
2.61865350371848e-06
0.000705173499974824
0.000771396038947448
0.000657260366472939
0.00058763858732502
0.000493448905953133
0.000362057866023525
0.000184531774783004
2.57605070720676e-05
1.22057133593237e-07
2.75470300891492e-08
0.00141365289544186
0.0013208556122913
0.00115777069060362
0.0014178938978888
0.00132030469081934
0.000945469344181347
0.00111761309551919
0.000823042223174337
0.000709158407072649
0.000316970670636604
0.000376894148513727
0.000421389702700171
0.000453113506878262
0.00047618679094378
0.000233909408908156
0.000108168670552943
9.81869072752062e-06
7.1527108350023e-07
1.47116107519283e-08
0.000152419081870914
0.000141727508515941
0.000125163940425106
0.000103372550123627
7.68696301180009e-05
4.54721708114612e-05
1.69693999420191e-05
3.33173902818844e-06
0.000158676011893723
0.00044297282563954
0.000396356124621303
0.00033652348047424
0.000255291285029857
0.000132882584867602
2.26001934828906e-05
1.51981874596868e-07
2.73555681391244e-09
0.000480378191923397
2.26028853937104e-10
4.41002310654327e-09
5.13282797185015e-08
1.67350828316247e-07
2.40106612330646e-07
6.72495124061383e-07
1.38497126115157e-06
2.27101520429665e-06
3.32334508643004e-06
4.51360236696261e-06
5.59258815957442e-06
6.3261670309093e-06
6.75278049666471e-06
4.90047657728981e-08
1.76913908211768e-05
7.42728063953893e-05
0.00015197035823244
0.000199555656646529
0.000234700752098993
0.000271345264293177
0.000299454921596151
0.000326373073871883
0.000507723153558168
0.000748798475890834
0.0010019996274199
0.00123729235830558
0.00143021455114798
0.00156161374082452
0.00161478868583317
0.00157560460927174
0.00143499484869641
0.00119337664798092
0.000866782886937718
0.000496207828104946
0.000164566985599914
7.20026403723633e-06
0.00113198663362495
0.00118843922361422
0.000935730817637927
0.00115137034907335
0.000956280752940972
0.000705534154783631
0.00129210811379971
0.00138702801182953
0.00139623023059212
0.0013057026238348
0.000839074224703335
0.00100306932303813
0.0011301474219634
0.00063249104831215
0.000388877676925676
0.000921821707526747
0.000825306413743831
0.000695299711685996
0.00051946765725563
0.00029439829147964
6.83512505553672e-05
0.000875569110818346
0.00100846094300724
0.000698043659722195
0.00045407836800974
0.00111111069770267
0.00014589576291728
4.67383107792818e-06
0.000579791141147729
0.000430457907720045
0.000210091849354857
0.000685800946475249
2.23702048321011e-05
1.71225871045289e-06
0.000764632341781585
0.000824023172358949
0.000690645073136092
0.000622138321061336
0.000528547586045262
0.000396297617920719
0.000213065012573995
3.65915502170773e-05
2.28670720254925e-07
5.83377220712145e-08
3.10198884642805e-08
0.00160490973525271
0.00155034354117252
0.00141870894451119
0.001226700449883
0.00156807855852823
0.00143074037089538
0.000992950313639144
0.0011931224658248
0.00087031452852701
0.000741129391836762
0.000289400081669168
0.00036026571196927
0.0004137378904373
0.000453775140654782
0.000481947754157213
0.000501893641416823
0.000186908383596813
5.26778429021569e-05
6.97757563146594e-06
6.21085385684339e-07
1.04611413478705e-08
0.000163662124100637
0.00015454730533529
0.000139404023095262
0.000119227564412081
9.50357692451123e-05
6.62021102604612e-05
3.4147214371365e-05
1.12269983444013e-05
2.21790314923913e-06
0.000168806944203777
0.000463452264395856
0.000416031125604473
0.000357396632592385
0.000274687715109023
0.000149499375072306
2.93413421004733e-05
2.46321566655637e-07
2.43735667567481e-09
0.000499546861258038
2.02152409764521e-10
3.3452305094034e-09
3.51404302237755e-08
1.65752461063397e-07
1.73245799190015e-07
5.10169041121152e-07
1.11492777711882e-06
1.94273720882516e-06
2.94721233839141e-06
4.14694854506664e-06
5.43591790762862e-06
6.55691819337698e-06
7.27017954994215e-06
7.64072120686318e-06
7.63453145860844e-08
2.25745942329227e-05
8.20440445751642e-05
0.000162895268565639
0.00020285740151477
0.000236032279119896
0.000270660469200872
0.000313534371329891
0.000334575178719834
0.000528382513580044
0.000777846446152595
0.00104520481940982
0.00129943567416329
0.00151731921383508
0.00168156866755876
0.00177734353006624
0.00179130226885945
0.00171257162202501
0.00153516662499775
0.00126185519746436
0.000909644346371131
0.000519593620241561
0.000173969482649478
8.04264214285652e-06
0.00123651502563658
0.00104729910021931
0.00133687930420871
0.00135584837775877
0.00111771134950042
0.000820640026830521
0.0010997171034739
0.00127739793998456
0.000869319400265498
0.000567052038157542
0.00138781544895844
0.00152081265380193
0.0015792531682417
0.00154810775111157
0.00141775768258772
0.000707880735242318
0.000914322297941647
0.00107517976677759
0.0011973841695354
0.000459040814997788
0.000199646856221178
0.000967778236854149
0.00087378001188004
0.00074494497192593
0.000568262710347647
0.000337584511054346
9.25362449557717e-05
7.07685179444854e-06
0.000819393759272389
0.000976228408055234
0.00109520928144833
0.000605068497081782
0.000310220987982263
0.00118782070566698
4.21611821744828e-05
3.19888941798412e-06
0.000529031748888603
0.000655069287596969
0.000346953586048571
0.00011084626916396
0.000748144318103569
1.68172239099741e-05
1.5680595041986e-06
0.000818725236440646
0.000872090024346818
0.000652601480438286
0.00072029780305952
0.000559814253147815
0.000426771069955201
0.000239396631507666
4.78940725407372e-05
3.81850360962329e-07
1.00675566490383e-07
6.11610230400931e-08
2.45531037235583e-08
0.00176630020664774
0.00178209017462459
0.00166942952234351
0.00150513882700938
0.00128826496293281
0.00170577085004227
0.00153152792719534
0.0010356031841353
0.0012620802539142
0.000913568346969108
0.000769157686962298
0.000255242853702901
0.00033758312573054
0.000399038702698334
0.000447114434783742
0.00048332196868862
0.000508195525321819
0.000525621920065514
0.000137115412596086
4.02885530007052e-05
6.88609703789037e-06
6.6339452232295e-07
8.7291364820843e-09
0.000174208141289597
0.000166131532510128
0.000152198193898192
0.000133512987040769
0.000111437301804808
8.55699837212237e-05
5.53758112025497e-05
2.62800705864128e-05
8.47846853425158e-06
1.79818329025507e-06
0.000178474547066888
0.000477258026406626
0.000430226341884452
0.00037248425401891
0.000292377810478536
0.00016463933873047
3.64355561791101e-05
3.62092310779025e-07
2.42900777924968e-09
0.000518006928733819
1.80482866542501e-10
2.23406210742729e-08
2.72277938862183e-09
1.72784236159655e-07
1.18858112456828e-07
3.72202675044874e-07
8.6010348979251e-07
1.60619094858193e-06
2.56530126408891e-06
3.72660776453483e-06
5.04661241921774e-06
6.40619223858304e-06
7.55302062238725e-06
8.23223509860724e-06
8.53778701690881e-06
1.12851737185981e-07
2.76517036289834e-05
8.88441493498148e-05
0.000172816085139089
0.00022061769007556
0.000249984590416935
0.000277842330397793
0.000323150895748161
0.000345425449041504
0.000543888052029421
0.000804240850422839
0.00108396973531076
0.00135511702883037
0.00159482457498917
0.00178714211819231
0.00191888815817812
0.00197801229741884
0.00195374332766379
0.00183781733578543
0.00162656561371502
0.00132437359679399
0.000949083338999456
0.000541551928699323
0.000182981114427363
8.89055785416616e-06
0.00132838010868328
0.0014656074546594
0.00114481053560198
0.00125684603874886
0.000920930352850016
0.0015322680576658
0.00151157931486445
0.00129264857986346
0.00101599591780341
0.000665696963144613
0.00102655717189474
0.00123255971632223
0.00139263082278812
0.000755192570924093
0.000400950544676833
0.00147248457839454
0.00163766309790211
0.00173771818514316
0.001758197692915
0.00168755460294538
0.00151989745368438
0.000522179984307088
0.000774984302912993
0.000981164891741052
0.0011393904810028
0.00125747889160078
0.00025086489203996
6.50604623814362e-05
0.0010088826966971
0.000917041634269182
0.000789385809546964
0.000612163155425946
0.000377116273354007
0.000116538564752186
1.03480896891334e-05
5.17958376956364e-06
0.000746092503366059
0.000929604794761407
0.00106737789386343
0.00117395113817798
0.000493810662383394
0.00018061806280699
0.00125769862309289
3.27664204894842e-05
3.10590342488052e-06
0.000467955813372998
0.000614432076348593
0.000721824061436938
0.000263345320057574
8.9200992404955e-05
0.000804273932173244
1.76847716146326e-05
1.76935579745275e-06
0.000867885001611309
0.000915969581637994
0.000679124049887586
0.000586978201014688
0.000746053634513877
0.00045424873542171
0.000263499956051609
5.93936164014266e-05
5.54929558959801e-07
1.63389852261892e-07
1.05194491341216e-07
4.88442014702123e-08
2.13012020432899e-08
0.00190697980886593
0.00196767832347564
0.00194530758447334
0.00177430358384552
0.00158206978799594
0.00134345175395438
0.00183165031609865
0.00162340746430379
0.00107377522306752
0.00132498699119058
0.000953337999573952
0.000794642289933369
0.000219050531844549
0.00031064988938289
0.000379210775898825
0.000433557251994592
0.000477214020953874
0.000510120667953956
0.000532422492415916
0.000547872692178829
0.000113901423848549
3.79114882020368e-05
7.60767532269595e-06
7.67141985102815e-07
8.89694179700047e-09
0.00017705311309453
0.000184236858802152
0.000164051009731081
0.000146352715148233
0.000125668702788465
0.000102651577820857
7.56218194462515e-05
4.62410685853632e-05
2.11555526943116e-05
6.96443597320911e-06
1.55031659169465e-06
0.000187696344508715
0.000490677260666287
0.000445192414910006
0.000389678413503605
0.00030780590046987
0.000178290875341193
4.35978740312835e-05
5.02056510843379e-07
2.37419193588713e-09
0.000532507093496536
1.59278026264387e-10
7.69004389987239e-08
1.46434157832605e-08
2.37026898819825e-09
1.72590089103825e-07
2.70566325051977e-07
6.56475980781244e-07
1.28877132628985e-06
2.17814380093907e-06
3.29681005645222e-06
4.57688428874261e-06
5.98185669461662e-06
7.40171501627596e-06
8.5639627987745e-06
9.20135379192212e-06
9.43894114086437e-06
1.5618474438923e-07
3.26660983213444e-05
9.48488389217554e-05
0.000176337728433572
0.000220601048400026
0.000247434698490135
0.000273940975142498
0.000332788313152121
0.000363849268228099
0.000558558272530695
0.000827150439864009
0.00111877677619447
0.00140507158988263
0.00166409323362275
0.00188078424100114
0.00204330862112416
0.00214091253047744
0.0021636054219312
0.00210271109611047
0.00195208481955741
0.00170989217742603
0.00138168984044503
0.00098570063402089
0.000562299693740936
0.000191647291467582
9.7412230456547e-06
0.00123109651914842
0.00140990106620763
0.00157849541625858
0.00168567254034548
0.00137836495361162
0.00100976080580675
0.00145993066936895
0.00114378656210491
0.000753665825684629
0.00171526286173102
0.00165459343320276
0.00145590707829653
0.00120557078772558
0.000885873065433326
0.000483744383797506
0.000934329027533891
0.00117092527619472
0.00135333337483186
0.00149726076680689
0.000623614091008753
0.000249725979559478
0.00154792594744077
0.0017407300084881
0.00187615229879492
0.0019409250001525
0.00192328991279683
0.00181491013361116
0.00161278628818529
0.000299277203463322
0.000579626691010701
0.000835256402705761
0.00104098167623798
0.00119685000196397
0.00131134087509297
9.1702627991808e-05
5.22654359618427e-05
0.00104567288580558
0.000955722900381321
0.000829157335455133
0.000651817109199318
0.000413302175372182
0.000139994747672096
1.42670115249829e-05
7.99480716643392e-06
5.29245397022285e-06
0.000870479466367373
0.000661621135340104
0.00102755852376822
0.00114926816574947
0.0012452855392514
0.000387252426330994
0.00014843904299079
0.00132127941470977
3.46250614700967e-05
3.62205773116106e-06
0.000406476523922851
0.000566957784751927
0.000687445752254984
0.000780757101073042
0.000225437876678939
8.74784272356286e-05
0.000854771288689546
2.06095766982812e-05
2.03458343058384e-06
0.000912527537960954
0.000956245573893443
0.000702836582862996
0.000611753637630837
0.00047877402143886
0.000769026965191493
0.000285461979420347
7.06562233790084e-05
7.57391545006308e-07
2.38200617865061e-07
1.71291499070725e-07
8.64233592395053e-08
4.37260884865539e-08
2.11339616025755e-08
0.00203070145992684
0.00212975001883772
0.0021541070198668
0.00209495769419478
0.00186735737353269
0.00165084633457177
0.00139295562380309
0.00194640212063641
0.00170708206935275
0.00110808319162389
0.00138259726532943
0.000990225310762328
0.000816743447083879
0.000192807893881604
0.000282089048590384
0.000355968876855161
0.000415154047862649
0.000464234437963988
0.000504499528067789
0.00053485791609073
0.000555090672138388
0.000568855081351825
0.000102945043763185
3.78965763141899e-05
8.41110423917344e-06
8.3102160776193e-07
9.07509961525615e-09
0.000175209644827396
0.000187396017911159
0.000193750715265537
0.00015832690188682
0.000138661505984378
0.000117102258607392
9.32844083663667e-05
6.61186812566848e-05
3.87809834772255e-05
1.75577814201641e-05
5.82860777734201e-06
1.32491223639736e-06
0.000196527317379319
0.000499807522109249
0.000454800535249434
0.00040072496392655
0.000319930509117426
0.00019049194600932
5.05483143179559e-05
6.58188137414031e-07
2.22378920757584e-09
0.000546238750496744
1.35298849482941e-10
1.82943873171971e-07
4.96027477521605e-08
1.11904414265335e-08
1.94029043646401e-09
1.62212558209526e-07
4.95813394459623e-07
1.03174189742787e-06
1.81775942759118e-06
2.86524982559295e-06
4.09274095303521e-06
5.45847445927374e-06
6.93595600638304e-06
8.408426150487e-06
9.57939240919076e-06
1.01719487334937e-05
1.03419138819001e-05
2.05307703518368e-07
3.74881081047775e-05
0.000100068520537791
0.000186920701874882
0.000234764045998008
0.000261327132110559
0.000280503535578115
0.000338982796179507
0.000369918990918784
0.000574100186575693
0.000847622202406515
0.0011497581015979
0.00144984937055198
0.00172611237320228
0.00196423042512686
0.00215342524857394
0.00228411029881935
0.00234719081395972
0.00233437602333823
0.00223885550107222
0.00205623461658447
0.00178601166973637
0.00143447233206087
0.0010198783581639
0.000581969708676073
0.000200043816413829
1.05880669413981e-05
0.00130805554912265
0.00148555286737249
0.00108916435332332
0.00148268549331843
0.00167835001354142
0.00182012862365242
0.00160615989444575
0.00189303752341134
0.0012565080040718
0.000832981150916982
0.00136180249643326
0.00165081180075369
0.00100148666095811
0.00055978710006686
0.0018841726190914
0.00178477104787463
0.00160517504476469
0.00138138876722341
0.00109824159458101
0.00073927982073147
0.000317565743569189
0.00083119039354339
0.00109516061242195
0.00130017419882199
0.00146200021046254
0.00159190857533636
0.000500459915287875
0.00020832036008474
0.00183226975114822
0.00161541295889443
0.00199805653669277
0.00210079367177834
0.00212932591267009
0.00207452533800979
0.00193074216093517
0.00169715590797964
0.000120177510674425
0.000344944208193142
0.000632039995179962
0.000889644731612587
0.00109471317224406
0.00124841750913296
0.00135968421929256
7.52154234301547e-05
5.47947179777271e-05
0.000990372352552148
0.00107861444332277
0.000864937680889383
0.000687596487727416
0.000446375652214396
0.000162402382881538
1.88072642792332e-05
1.16543410096979e-05
8.3814707336347e-06
6.21097514901268e-06
0.000977650241384811
0.000803446862458592
0.00057983526753495
0.0011139251931285
0.00122267721540682
0.00130985884248536
0.000335662142188351
0.000144375576619127
0.00137937613961602
3.95828091632889e-05
4.20292530971739e-06
0.000518207178868012
0.000363702537355914
0.000647459973500277
0.000749989536340243
0.000832881421890895
0.000209717414644796
9.06048138043919e-05
0.000900287441619446
2.33839687576148e-05
2.20258648538688e-06
0.000953397951923825
0.00099352901912573
0.000723546555780596
0.000633208509080575
0.000500426799240535
0.000305326538301666
0.000789085584321742
8.13945987586918e-05
9.74060039414453e-07
3.31039344336729e-07
2.58948593110706e-07
1.44123215752729e-07
7.90036541310476e-08
4.24622828670924e-08
2.13630606882191e-08
0.00214022632778269
0.00227227003107388
0.00233691207240425
0.00232561680957043
0.0022316134017518
0.00195029929159748
0.00171243725762937
0.00143734839455802
0.00205087914753026
0.00178343995543032
0.00113860192006616
0.00143560181426733
0.00102462052502843
0.000836655170410708
0.000173640509217209
0.000256150782658378
0.000330896094132024
0.000393548097472118
0.000446554014356892
0.000491957294728644
0.000529645955918337
0.000557937685368865
0.0005764040048924
0.000588712549067728
9.52705999814042e-05
3.72763879755228e-05
8.6830832529087e-06
8.16873890272292e-07
8.64769338551206e-09
0.000185706254364303
0.000169552352487638
0.000197146042110221
0.000202817355448185
0.000150712967566325
0.0001301934417384
0.000108039889124894
8.39115857790633e-05
5.74027141550937e-05
3.27112031026916e-05
1.45393470405327e-05
4.7299396182916e-06
1.10921108053554e-06
0.000205072476407448
0.000510948699164581
0.000467297676054436
0.000413823997793021
0.000332526282733796
0.000201276374660796
5.71155720858212e-05
8.25068784004752e-07
1.90254774916885e-09
0.000557692212648358
9.39831366449681e-11
3.50638011316871e-07
1.24272642450419e-07
3.57074613528603e-08
8.40857811243006e-09
1.34157426973321e-09
1.35622467626868e-07
7.98813116799706e-07
1.49239281084584e-06
2.44432460285068e-06
3.60384006419102e-06
4.91548809729031e-06
6.35480530521724e-06
7.89742922080207e-06
9.41671144633553e-06
1.05932714059512e-05
1.11422542315677e-05
1.12414570232017e-05
2.58260376479599e-07
4.20684199103858e-05
0.000104362931232635
0.000184803945976058
0.000232729675179579
0.000262214361907944
0.000281123632626226
0.000345030130381783
0.000372579940118007
0.000585083488781805
0.000866211583282808
0.00117730591041058
0.00148984233382295
0.00178161554750541
0.00203874653874182
0.00225130611276963