/*--------------------------------*- C++ -*----------------------------------*\
  =========                 |
  \\      /  F ield         | OpenFOAM: The Open Source CFD Toolbox
   \\    /   O peration     | Website:  https://openfoam.org
    \\  /    A nd           | Version:  12
     \\/     M anipulation  |
\*---------------------------------------------------------------------------*/
/*   Windows 32 and 64 bit porting by blueCAPE: http://www.bluecape.com.pt   *\
|  Based on Windows porting (2.0.x v4) by Symscape: http://www.symscape.com   |
\*---------------------------------------------------------------------------*/
FoamFile
{
    format      ascii;
    class       volScalarField;
    location    "400";
    object      omega;
}
// * * * * * * * * * * * * * * * * * * * * * * * * * * * * * * * * * * * * * //

dimensions      [0 0 -1 0 0 0 0];

internalField   nonuniform List<scalar> 
10176
(
2.45525838812153
2.46742674525263
0.173263394606133
2.4746900851459
2.44248102825323
2.43076094222877
0.167933522835153
0.0971334767472534
0.319892491620279
2.4521509756763
0.307851893039828
2.40447757511937
2.42539279101941
2.48290374721351
0.161449086415059
0.096830869115715
0.0983666779005441
0.137575137749134
0.391077777766304
2.5062419882704
0.378181777416212
0.294256959168419
0.135970691503865
2.37864670193321
2.36519228279355
2.41877600223159
2.421539383087
0.154228220752256
0.0950259201929955
0.100363244748232
0.155987251313044
0.118155059024937
0.167330036262904
0.428059172784617
2.47352032146939
0.164771365612083
0.3616696686538
0.41409010660176
0.132424020845012
0.278926648385886
0.118195195218673
2.35771550701879
2.31066630208205
2.33138961750533
2.40498328915455
2.47110449458288
0.142409164554028
0.0897724733398534
0.0979753532368944
0.152958073247096
0.146574044438697
0.135473635016692
0.130202791252865
0.189119214700675
0.450020949204306
2.49502195934884
0.129439165996465
0.186093910362064
0.160271778637098
0.396863560849503
0.343365019003961
0.437602249258162
0.116031308128584
0.126364316471091
0.260600292850381
0.133986300232377
2.37667448657584
2.29353925398156
2.26535547258846
2.31570879717163
2.40609949790926
2.4154887985548
0.130788594227217
0.0800869994366145
0.0929376390710202
0.13622838078045
0.150910790337184
0.1793947127793
0.143825242790291
0.130191112494416
0.141270177491112
0.207606129471304
0.472275816772264
2.47713640928817
0.127545417279164
0.14037139294995
0.129421979166698
0.20452065931746
0.181408038864891
0.154211551337866
0.42144884861363
0.379274744191851
0.324865402385674
0.459392320501724
0.128517317611659
0.111897992565736
0.117130672005006
0.24638677543502
0.14354025294944
2.29336257962845
2.31908787440765
2.244039522649
2.24625406813133
2.31166814820644
2.39992199359096
2.46124199637371
0.126721360711356
0.0657258081544038
0.0885875822418132
0.116247898561609
0.151997119604164
0.175342017907182
0.195644168427804
0.158019732728578
0.13621990229432
0.132228838296722
0.152673089776283
0.225051711352084
0.493414815233481
2.47744822663933
0.138749146948946
0.127473770875421
0.124776972584594
0.131864331487201
0.151816393501477
0.135691423350547
0.22191486050483
0.19998321155419
0.175994237046538
0.147173479056785
0.443770521852077
0.405946481225334
0.363681354767097
0.3130920711249
0.480784767188531
0.141403691978179
0.122132414093648
0.108409656478165
0.106712052402573
0.260437578543742
0.156941264775759
2.34880711750891
2.19723128332725
2.26653116115402
2.22078909971189
2.24231380698779
2.30858630443716
2.395343285436
2.42692522064383
0.199835751293606
0.0485988036950094
0.0774694767570168
0.123628279322263
0.1499427771382
0.17676350055855
0.186533461142868
0.194749333707689
0.169720571626858
0.14452934312063
0.133573924430545
0.137653896524324
0.164220853231858
0.241573693411851
0.514752541436208
2.47083289008969
0.131111331472173
0.136991846703985
0.150424027793646
0.134512583482111
0.125411211640653
0.12333400493248
0.133430646790751
0.137506640685744
0.163383093266254
0.14410760415277
0.238385059933128
0.217479655572434
0.195274997933913
0.171210184615139
0.14412511394846
0.465403073995817
0.429947190240916
0.393663882158234
0.354892099217639
0.339498145918257
0.501680484471527
0.155514053121802
0.137909868805989
0.121318444873223
0.105874173036301
0.110577526180694
0.440428608377932
0.167531605252608
2.47411473995905
2.42132769774104
2.14804542289601
2.22757321323731
2.21502793093128
2.23979253525561
2.3030424470522
2.38957271655893
2.3992461986987
0.120917112569041
0.0724163146027866
0.103095433202929
0.129529568440915
0.16864847472062
0.175752685801205
0.199537052390069
0.232145947813943
0.177813767906439
0.152785247279846
0.138275796783576
0.13490129165195
0.144540899821562
0.175506754586899
0.257150398182848
0.534491159226936
2.46866900125961
0.133202484572307
0.137260971329139
0.130779730592942
0.137237744185831
0.149278778879593
0.162091886628151
0.1433359757728
0.133320993361353
0.126033717373626
0.129142766923053
0.13502462298898
0.138268947807499
0.144470972153624
0.174634447344166
0.15228413099959
0.253835154461627
0.233926034465838
0.213242939569775
0.191970042272916
0.17233950861898
0.174642219245618
0.486041579513533
0.452436734515613
0.420180890938864
0.386401332498257
0.379953601911999
0.521244014696178
0.164603227227606
0.151813384839509
0.132840693445252
0.119725017238637
0.119292147752512
0.282853066821503
2.42304839085477
0.177965690171068
3.3428139837743
2.40073355756387
2.16214924937418
2.21574796285578
2.21278556227899
2.23431071491134
2.29713054815974
2.385736101568
2.34978464287258
0.115866352605466
0.0988842648281342
0.124915350543946
0.152671350654828
0.17482563347916
0.205339797987697
0.223759893259699
0.222250153088638
0.191928702549986
0.160365187772918
0.143962760256012
0.136661216940999
0.13838703709754
0.151908694348391
0.186268927052521
0.271574524373142
0.552834381906683
2.46721285842196
0.135333941644511
0.138372074741388
0.133703247881381
0.144401838548657
0.137714120184067
0.133269401976588
0.150291442854767
0.146225933238009
0.161184013878138
0.173302718974908
0.151601174319714
0.142599216187348
0.134249626137541
0.13502494603032
0.170673614227017
0.136912158791693
0.138611041250211
0.144029578558817
0.151822508853489
0.185321708913924
0.16025220781242
0.249215685744776
0.268130004363234
0.229843377841684
0.210669562675165
0.19412724480172
0.204820685286725
0.460341800992282
0.505242215343492
0.473285130055577
0.444159704891479
0.414495148260662
0.396736535218903
0.539332098390994
0.177820673699751
0.162806584439625
0.147334463135601
0.135021796431323
0.138983182160141
0.254702911733465
2.34197553983812
3.32881087242657
0.190225103383379
4.55077483082212
2.34602067852975
2.1477674129826
2.23452782794022
2.21411925927989
2.20748215166293
2.22788252820848
2.29251741650411
2.38344084145685
2.39770418206125
0.12294368148797
0.125829873707592
0.141121163631573
0.17596512676337
0.204191948985905
0.213259626491424
0.224392484498073
0.236960111839653
0.197682441128326
0.168524892459691
0.149814767011245
0.140185314410513
0.137650266444042
0.142879368137262
0.15926736208014
0.196365985291113
0.284857347888325
0.569561616783856
2.4668951946132
0.139109426852356
0.137535281090928
0.136669558774683
0.144362945033293
0.139428262685716
0.137340738673808
0.145061684405642
0.151718569788405
0.14092375423379
0.145565907961087
0.162202286086065
0.158591578311328
0.189149232377817
0.172323047724355
0.183849808880361
0.160173485487862
0.151626931510009
0.144212198354966
0.145191192026329
0.180275526660986
0.430622862239897
0.140512875871874
0.137997026119641
0.143092978902099
0.149999889985904
0.159117271162769
0.195330825710223
0.168285708783253
0.245034087328017
0.263297851657363
0.281281593064732
0.227422833188899
0.212254862732383
0.218125989869231
0.424504893089055
3.01866889215897
0.522893662984567
0.492366141399831
0.465721057429798
0.439659254180417
0.417457981956885
0.474670941114725
0.555858246643258
0.187503231402051
0.176672256877369
0.161876982372027
0.149788107549962
0.158814940159556
0.259131877800705
2.42845261624
5.01509197218613
0.197544094513977
3.10207750647328
2.27411149011693
2.15460844530162
2.26153344053849
2.22442033477093
2.20830470703108
2.20057994628106
2.22270271598849
2.28965620606452
2.38236365684814
2.36740622710538
0.134907321272732
0.15351271137
0.167437586866465
0.188832499007498
0.202533577503393
0.222919544244319
0.23852926677981
0.243095534154724
0.205976871753462
0.175243333934143
0.15572144167006
0.144385537782264
0.139300742349463
0.139999498376426
0.147765143066686
0.166386456612372
0.205771649125623
0.297054777289159
0.584800746195659
2.46679049282945
0.140614561313033
0.138787643821825
0.143542602913865
0.141345081353695
0.139420701643838
0.141124275017804
0.150593668897631
0.145918258301725
0.143887056016041
0.151294597032256
0.152204985064657
0.14802313518282
0.158863141780082
0.152122650110183
0.191039949620557
0.168333653236715
0.172851547944407
0.189596806347029
0.398965631458095
0.182611429410783
0.193679238285431
0.168032670046062
0.160729729473157
0.154361724568475
0.156287420220226
0.192306844659988
0.420314559139989
3.30360539751528
0.139711940936414
0.144779897715849
0.140330054921184
0.147914549420737
0.155958424775687
0.166157364767385
0.204649117821036
0.175239496685561
0.242422970965889
0.258893612555641
0.276222780384212
0.293361693333588
0.22790121947893
0.225561008843334
0.337179608819045
1.54612087354
4.65865409461501
0.538987009065859
0.509733850082561
0.485017732896901
0.461843388711953
0.439083680093863
0.446001663307661
0.580799781802567
0.570911721794163
0.196691795882782
0.185378532828819
0.174277948289048
0.165898273339852
0.178447874246014
0.273754492512602
2.41112394535074
3.18314892610515
0.206364200020282
2.94984524554481
2.36266174940435
2.19628629921379
1.45535906758957
2.26525913750716
2.23190617221058
2.21528541653508
2.20096011964747
2.19480756061346
2.21938742570722
2.2881357689512
2.38190428503346
2.39536856836269
0.149743613005035
0.180562463419127
0.17803267347896
0.207335368181681
0.229159139735685
0.241440589524228
0.245774513200993
0.254544179113833
0.213091647019891
0.181769700750677
0.161293794695634
0.148818574531301
0.14204503027405
0.140017968552113
0.143032127992974
0.152739860835347
0.173176196862317
0.214516680909647
0.308297712473171
0.599815113038649
2.4668034678231
0.14078305693231
0.144796007554897
0.144685666571079
0.140675644956148
0.141044864787228
0.148192441314747
0.143623797277049
0.145780849433163
0.144663950323499
0.15381026254297
0.156678926211153
0.152548416546341
0.151093153557318
0.158863092316253
0.197310321004516
0.158988011036293
0.154367767631982
0.156488035219741
0.165714022991096
0.185053003067542
0.385947696625422
0.176609825985787
0.186717630831052
0.182454361375799
0.303254946403872
1.52874704256109
0.19211959785867
0.202817186059561
0.175424598611107
0.168848455875145
0.163947576766844
0.167535301847835
0.204943352192647
0.424331287947066
3.24131708489703
5.05110434432978
0.140401730590376
0.142502403449553
0.14926408925337
0.143292078198971
0.152809253520655
0.161607781637292
0.17287015066742
0.213315170183466
0.181986146903011
0.241849195919315
0.255962472593072
0.271560021410082
0.288087888966335
0.304500370125235
0.234041846571088
0.274509641002463
0.728925014245045
1.36332964775685
3.14514135530042
0.553680570814954
0.525488134803387
0.502307329006941
0.481414567262157
0.459911772599829
0.447437565317304
0.489918404395282
0.698393156970243
0.58588353714196
0.206648385410145
0.197287927001499
0.186510732454485
0.178463914662149
0.196954712230443
0.292989491652738
2.41955515579585
2.97338146774666
0.213807060918218
2.90893691168294
2.35450586937432
2.28459542700326
1.19079132674055
2.24531974901342
2.23049527561319
2.21811438430007
2.20752192319565
2.19469793787492
2.19103909928755
2.21756790241337
2.28743052541122
2.38173936556587
2.37890978296669
0.166906771838563
0.205053247369907
0.197435456989671
0.219497836350471
0.241380629570244
0.249985472505852
0.257290006949694
0.258573326780979
0.220464276773172
0.187885812594539
0.166599063716067
0.153228350330384
0.145282951654473
0.141486348933063
0.141626967759847
0.146397930742863
0.157661134955813
0.179614633284453
0.222658846660488
0.318820992426303
0.614086480149897
2.46682486046457
0.142981056743295
0.142717026199741
0.145513389113996
0.149007839641093
0.147883670434632
0.154370108375036
0.143586273499115
0.14125741126431
0.143810167502262
0.152879442316465
0.149422025958802
0.148355272748899
0.150388931736456
0.158207755194729
0.187182713771728
0.162511911503267
0.158942319481563
0.158264273999805
0.166841278803786
0.205117103891941
0.384352443284981
0.160201415025586
0.16543791866022
0.159917340695933
0.176653250222522
0.172244076375358
0.288256486504754
1.49401722207909
0.184221171553618
0.186333239292177
0.236015747825495
0.191302462714326
0.68989148666664
1.32440587541431
0.200951240391963
0.211321250289699
0.182526060931324
0.176877518812644
0.173026585332144
0.177839510932597
0.217388681400483
0.433980795922862
3.25604552129252
4.97139369163596
3.26181752013953
0.14193093251871
0.141903222235166
0.145777024869323
0.153719693589915
0.146572601384004
0.157654358998771
0.166996675670111
0.179241345449846
0.221388481185033
0.188236098777529
0.24397568551072
0.254575436855044
0.268304143176681
0.283181275160712
0.299025654201474
0.314916337525711
0.252006042247359
0.400428596540779
0.695554425944455
1.12044203083452
2.99384104265282
0.568430719935301
0.540117478755573
0.517956827300484
0.498754009036154
0.479023188865817
0.4605909776029
0.462756947258353
0.524310595229969
0.677035842428739
0.599818419330718
0.215477634811127
0.207866761114551
0.197797710540161
0.191725554034337
0.213385330150992
0.314018315053898
2.40950400257465
2.9119638847983
0.221784582363636
2.8967587077685
2.34949394551208
2.27707424209564
0.988509053656833
2.23193092794415
2.22179420434589
2.21626831972999
2.21036759359203
2.20107616395284
2.1905155858372
2.1889425572849
2.21669132139056
2.28713937156013
2.38168824352773
2.38240017297806
0.184277599039517
0.228591349518995
0.213314778578232
0.24316230006354
0.265327036584159
0.273799406548848
0.265666476659756
0.270064839232737
0.226429542692272
0.193654744303118
0.171615051542142
0.157511742467174
0.148705059605567
0.143696975486011
0.141976900153763
0.143750567398369
0.149918704105032
0.162464602254059
0.185706653544168
0.230265032700286
0.32855419642603
0.6266644394968
2.46683765366292
0.146103325358969
0.148124375250189
0.143172055297481
0.144984879098625
0.14633136881077
0.155850439439087
0.150992490006006
0.15323523008395
0.15438601427248
0.175111652846358
0.146949898429649
0.142846228702813
0.142565359535469
0.146864140652802
0.157530226097635
0.163514913091023
0.154558721023469
0.153192163845599
0.154955508409728
0.191640436997315
0.283841075875674
0.1680641918767
0.16508372301174
0.16516756191809
0.1745895681897
0.213295594479826
0.386859499699574
1.49768338608542
0.163336624866043
0.165797842641524
0.171609098340462
0.171191539325057
0.222465830441543
0.178458854076177
0.627465416091912
1.28980006309807
0.188776640850223
0.191616922955467
0.206359992006787
0.347497609704276
0.19959523131001
0.652547017986869
1.08615780303236
0.209194838408127
0.219253601590436
0.184548922690351
0.189257741532628
0.181623496739975
0.187687835220022
0.228922819381244
0.44770143403989
3.2261316512002
5.0022109712845
3.26659512706145
3.01153703138383
0.142304703363282
0.14396238145263
0.144139116589022
0.149229510021281
0.158045107171126
0.150014093372315
0.162393545274654
0.172074991834926
0.185277874265733
0.228929111358477
0.194222225796378
0.249875811522023
0.25452142165415
0.266334967565609
0.279656324105521
0.293906775446721
0.309261588740558
0.324528259719981
0.286853114565287
0.405217271854077
0.593341822125975
0.916074447561207
2.94835624006391
0.581903734285788
0.554628552764666
0.533280687182122
0.514979939601267
0.496207812353448
0.477113321330023
0.463870727711467
0.474082392275138
0.523876069670864
0.622095397515234
0.612125281739932
0.225719449744725
0.219358602678196
0.21020245509934
0.203875021564717
0.228659002714292
0.334293430437623
2.40534949026091
2.91093428262149
0.228580772112672
2.91778078649691
2.27198641326246
2.3487146924844
0.850521318271934
2.2272684230955
2.2133530386852
2.21229118911971
2.2097071701344
2.20421383183987
2.1966441274209
2.18815870544459
2.18791861856322
2.21631455257064
2.28703171694451
2.38167508450848
2.37626736745139
0.201397659922369
0.250670760582678
0.227939394859645
0.247376641380367
0.27296015793825
0.28800890551422
0.275805065946825
0.277428736017187
0.233141857388534
0.198919530585966
0.176317847403069
0.161610453047737
0.152146274339032
0.146275585463833
0.14329050897347
0.143120565740943
0.146187264862601
0.153499913583581
0.167120413835471
0.191470471576249
0.237328103770435
0.337366488028934
0.637751794779315
2.46684365946355
0.149620111983276
0.144912308986919
0.151518600658541
0.147092766797745
0.158819181207592
0.143935477873959
0.147537558408328
0.147400610404937
0.15332931599815
0.176689868988575
0.154888340541139
0.154257503594262
0.157487750615828
0.166268934218786
0.218178828575793
0.150473404680901
0.145143133711133
0.143004717206691
0.144353572365074
0.150099275917779
0.162108583757162
0.196867082545884
0.169021338960705
0.159713750394746
0.157949334471284
0.159375622674371
0.283138497311882
0.591405469856131
0.173319064829752
0.17093198177021
0.171733617495258
0.181982697292984
0.22124328691214
0.39179726814376
1.45628838781778
1.27456588608858
0.16912520387838
0.167184667444939
0.171299869255879
0.17753489890373
0.190976895982824
0.313978461299346
0.184368640951734
0.601879407112365
1.06505590307215
0.196680462002063
0.193215326136345
0.198929424828515
0.237507817926446
0.35251959601813
0.207434303668588
0.546148841335057
0.897976141077829
0.216913676920198
0.226671708100557
0.19193007618492
0.189928754905551
0.195725296636284
0.196881803124074
0.239695862728033
0.461495159974674
3.21860277094289
4.95715369650079
3.27286446647006
3.03146654898004
2.97893413831095
0.143635705519228
0.143349782492423
0.146315264969316
0.146738088546363
0.152696092361775
0.162177782952562
0.153530128584453
0.166998299866812
0.176849020162633
0.190994557826738
0.235932907257844
0.199669925414755
0.25896821191426
0.255634096087506
0.265087739841516
0.277319341084685
0.290227185589125
0.303947222869407
0.318682981688889
0.333238088041344
0.292579524470983
0.368904972027304
0.496678231434123
0.773661425053093
2.95214330573793
0.567605285055108
0.59383492970398
0.547361346759023
0.530509079549942
0.513357512761745
0.493382438789827
0.475824300042754
0.466305204094015
0.476425857085137
0.511082840608071
0.574296597424904
0.623060941154273
0.234642375440229
0.228908737718701
0.219706926383133
0.215470355664447
0.242786959201179
0.353345603703792
2.39760178486484
2.92377499108353
0.235688009701644
2.93308969524941
2.22375395063571
2.26884820451437
2.34633918892266
0.776274191784128
2.20906935729682
2.20879830908133
2.20800771323101
2.20432214072086
2.19978748222903
2.19409303891374
2.18699713999023
2.1874726252445
2.216168443361
2.28699815469335
2.38166616419052
2.37497633589161
0.217716741625154
0.271414162988618
0.248437265807169
0.270390163594501
0.297448318164093
0.312182051367983
0.28409558670885
0.277273256763883
0.238915885794093
0.203925675543319
0.180685738059346
0.165485657273486
0.155511521747905
0.149010790765345
0.145137581632838
0.143647785629275
0.144699264290741
0.148822125815909
0.157086590368549
0.17160890121284
0.196887208150332
0.243821947818663
0.345294279076715
0.647487354768657
2.46684105682958
0.155224925090789
0.153260793514752
0.14731080585671
0.144489344689643
0.149017456609528
0.162412084243586
0.146594413839714
0.154341492747388
0.179546963100375
0.145193240492092
0.150347858463424
0.14893039635701
0.151705891178959
0.165386720128414
0.217423181790019
0.161259471456273
0.156277943067679
0.157768223278536
0.161753925102058
0.185417289291883
0.297419805911384
0.153997556327897
0.147787963974405
0.144378972990704
0.143793201776037
0.146489849126002
0.153448155251055
0.166588377816286
0.284329487087797
0.202226531138735
0.17444380695297
0.164726286500874
0.162534236334778
0.163593826834921
0.557320114836775
0.570262675580067
0.178248575878348
0.176454802305781
0.177947917711973
0.188943474135517
0.228805083201006
0.397031800951815
1.41785122799288
1.23793663189368
1.05289628928003
0.169750770397571
0.177653992335313
0.171510124264634
0.176737517887824
0.183223361041058
0.217786675511732
0.321884581800474
0.189984079929132
0.508514679568908
0.89096792467194
0.206046379227352
0.195867936712187
0.198851782193518
0.20612857103986
0.242931028172278
0.316737486060862
0.214859523172479
0.451516163225611
0.773897107850933
0.224160484532604
0.233565780196724
0.198811659063195
0.197547304503863
0.205538492060227
0.201721964395893
0.249725794416667
0.474867974564356
3.20080418080156
4.94180735191476
3.2603750033445
3.03632541121167
2.99925136744661
2.98634317350453
0.145496790142751
0.143889309363746
0.1448405164991
0.148882344982408
0.149489714568755
0.156081875004997
0.16608381299066
0.157066630576173
0.171447643698461
0.18127328985789
0.196373153780189
0.242376455928778
0.204848296348554
0.260712157185422
0.257149879701998
0.264124854859027
0.275475845305082
0.287669402613294
0.300051064516701
0.313145637888487
0.327227529914167
0.341089503016
0.282007999720432
0.330469236483647
0.423644169866178
0.697463823006102
2.96197198413609
0.559816941618344
0.579116250950639
0.604517364469615
0.544182785301954
0.528582811380508
0.510639434082285
0.490210595925524
0.474244789008887
0.466837320719163
0.474211132116354
0.497929154808332
0.547884434551224
0.632737576152181
0.244168004664699
0.239561892161406
0.230844284195451
0.227324559471501
0.255981149918803
0.370875004221469
2.3930737847673
2.93200934036369
0.241783816561085
2.92380104586802
2.20706769054583
2.22026896793293
2.26504130250902
2.34583500733583
0.745216546180219
2.20706248719674
2.20681929817365
2.20366073240909
2.20012203751195
2.19714758352598
2.19281960586634
2.18648836811552
2.1872976522002
2.21611931470692
2.2869818963167
2.38167969499557
2.37375461096372
0.233097145407296
0.29121469653737
0.25693368123149
0.274239573211424
0.300594981212311
0.323324008651974
0.293461921315602
0.285294663371443
0.243081563745882
0.208486932464006
0.1847416160393
0.169115601467112
0.158742470980382
0.151775865104528
0.147267673009103
0.144855301974456
0.144536489711762
0.146583037536697
0.151580191847739
0.160634231268306
0.175902254475964
0.201942895584471
0.249756748710617
0.352397281815822
0.655889507609109
2.46684098479322
0.159004484785845
0.151532094166769
0.16623137158051
0.156878584332038
0.150028138229292
0.145936469565182
0.14728931187092
0.144727520886524
0.156387285696141
0.182939998919541
0.15111426299951
0.146796469430459
0.166373705434755
0.218341498822626
0.146888033361598
0.153369159124784
0.150962019714869
0.151315419069366
0.158325494136158
0.183805335869007
0.287202694026144
0.169920484466151
0.159383975274394
0.158528133164293
0.161499888522229
0.16600211273836
0.209404682629598
0.306513235074141
0.150575214051709
0.157431227947134
0.146271499522468
0.144366084310056
0.145059786122061
0.148884262708556
0.156858116125137
0.170943440405483
0.531630315452411
0.286326373428589
0.207480351329056
0.179656173193488
0.169519845561876
0.166892860399568
0.167572486945353
0.541936329575108
0.487636372067749
0.181623523984096
0.182831961635485
0.183763115604219
0.19547576317211
0.235925316133396
0.402359648929953
1.37994997660721
1.19937849088186
1.03041033299701
0.889060539245775
0.172215152637819
0.173148313744725
0.186624093260467
0.176181217921681
0.182081745960985
0.188670296050888
0.223702554053309
0.293358538804386
0.195281223835918
0.425362930242286
0.778681855980468
0.19836981909245
0.208029743049649
0.199053382972123
0.205095772364964
0.213142245700405
0.232099650397479
0.278536825351698
0.221877402570379
0.383370389139408
0.701056382046586
0.23090157806842
0.23991588666509
0.20528871819383
0.204831532582473
0.21374487743985
0.259117625639101
0.207346897850989
0.487388310744649
3.19250438145758
4.91093012114628
3.2461173490392
3.02802349697294
3.00410440287329
3.00760916903961
2.99479243649127
0.147638197009046
0.145107106261551
0.144686995758507
0.146654044594272
0.151589333303767
0.152267904042374
0.159329897670737
0.169738645233345
0.160577483889181
0.17571148159008
0.185383338041927
0.201398027776541
0.248269987243288
0.209514002790422
0.256753884706916
0.256425775766478
0.26295886553361
0.273613347207633
0.285444069323321
0.297228204087787
0.309012765797791
0.321490487322843
0.334948253645576
0.348137971861107
0.268386153049114
0.30037856694425
0.376095056823139
0.653865794810347
2.96529569191004
0.570931118466508
0.556187659384598
0.589506983530143
0.614035700572149
0.541718539661423
0.525471530252135
0.506735746371157
0.486224649782373
0.471888399352405
0.465518492579772
0.471448472357641
0.496945088312567
0.536252724255806
0.641111351658405
0.251343796547872
0.247333678637513
0.239337952021095
0.237141821419433
0.26837187016857
0.387034052242636
2.39028610197061
2.93583888189193
0.247603449233196
2.95713777276846
2.20611029106095
2.20380046122113
2.21545007878158
2.26804298784447
2.36559469273718
0.737437937434261
2.20655803189063
2.20340440419824
2.19978473859533
2.19749088822188
2.19580431615995
2.19225819834781
2.1862885567589
2.18723687363053
2.2161090402496
2.28699605813752
2.3816800047244
2.37374233840886
0.247664320224455
0.309737549808394
0.281325450684877
0.295958708310266
0.317620719281431
0.339113960143272
0.301415768233041
0.294028291906699
0.247861699893886
0.212508854683678
0.188466026528569
0.172491855694306
0.161803700088262
0.1544912252065
0.149526519444227
0.146459184758617
0.145182168893052
0.145814264897517
0.148682761016314
0.154402391557236
0.164104413238112
0.179978895257711
0.206635193630689
0.255159987659967
0.358731769701117
0.663049484342572
0.162728612510111
0.154326538204308
0.170077229691408
0.148821651443549
0.158955805795604
0.186535502794661
0.16038862601724
0.152869841344133
0.147878839374611
0.145360121217468
0.151918408723834
0.146455061380455
0.145543156548897
0.168308962112744
0.220107300274657
0.149390589822205
0.157815234717546
0.147696338573481
0.184097242779871
0.281101834003595
0.148946218797974
0.156540240152082
0.153427541932342
0.152060156068792
0.154716724517518
0.166915371913704
0.205680389181257
0.297036836719013
0.178523885212642
0.163154744620251
0.15973035389116
0.16144026534443
0.165377478629329
0.170188293735063
0.21564107471713
0.283437159009023
0.148436826896165
0.153381728058712
0.16071890010271
0.145608196674106
0.144934757410209
0.146696809468056
0.15146241942557
0.160276707992018
0.175136991955091
0.519498962188423
0.512041166324467
0.288809977523258
0.212531416053922
0.184606627702943
0.174051806470401
0.170994127751795
0.171292261412542
0.470899709425127
0.414266276450236
0.189185780923437
0.186412225696364
0.187065507787063
0.201588561542863
0.242623039669362
0.407537734004826
1.34637708988171
1.16246770824739
1.00433965053784
0.880366153264303
0.780967125377242
0.173111888545267
0.175810295130738
0.176087990212023
0.189008677700042
0.181033917088611
0.187280543274776
0.193836403373874
0.214917584355346
0.260558204174727
0.200241036791147
0.365829527651029
0.711206462781178
0.198918527121752
0.198240636211102
0.203710648753219
0.204086450065196
0.211552462212465
0.219858483131326
0.217200118408487
0.248659196151729
0.228427078539
0.338528365726716
0.660758336858954
0.237121815758353
0.245732453469637
0.211090873060054
0.211434490251197
0.221267914234732
0.267902716662352
0.499181327500951
0.212317817259761
3.18687347633969
4.89532849536336
3.23124746460883
3.01425696775527
2.99546181768828
3.01213348129328
3.01563612005647
2.99476254857659
0.146719601884333
0.149906046027915
0.145341017024157
0.145892878812523
0.148701433485558
0.154374829783475
0.154993862908661
0.162405009931369
0.173136604885013
0.164021369276611
0.17976598075164
0.189144513874013
0.206065521853254
0.253639806781022
0.213789865525654
0.253674960223838
0.25095479362501
0.261021461422467
0.271404691811986
0.283007564947806
0.294657281211665
0.305938633497585
0.317149105619829
0.32904797279537
0.34189710338569
0.354429377177774
0.256847383756758
0.28116351670753
0.347485764861802
0.637757960387459
2.9678058328767
0.581052107661175
0.566964695910783
0.553268186297048
0.598835076771318
0.622331688131569
0.538181855541667
0.521151972817618
0.501932005043368
0.481902414183732
0.46892028214014
0.464024729904087
0.479268225606626
0.501387698996591
0.529569260644254
0.648217025101412
0.258942241984555
0.255667106878873
0.249112002687572
0.248529640527273
0.28000201572906
0.401952085414417
2.38919054722817
2.95106597010917
0.252892322603535
2.91143613403353
2.20623418261256
2.20312079506815
2.19825996487358
2.21803830807898
2.29446167325043
2.39560717890876
0.745714417169854
2.2037030988029
2.19980732289069
2.19720864573825
2.19611706650936
2.19520612320231
2.19203738408044
2.18621825415901
2.18721940839072
2.21610965327266
2.28699578477596
2.37381029465978
0.261095662203387
0.327453908162867
0.280408575108832
0.302017582169852
0.330253234019673
0.356015127796717
0.308598425932389
0.296434662886328
0.252746540813651
0.216225033511909
0.191847411072998
0.175606616349822
0.164673895197184
0.15710593700878
0.151813621008194
0.148280863264969
0.146324796161498
0.145965980485592
0.147382280463655
0.15092924304242
0.157239921063764
0.167465515163259
0.18382475053148
0.210971985666325
0.260067154487431
0.364376805268251
0.166323703185277
0.157222612020327
0.173843654372793
0.150818317126065
0.161770584294799
0.190166455151072
0.15350450578652
0.147165361674287
0.170739299164359
0.2223536575189
0.163740216576614
0.155718845228696
0.150080375774905
0.146643291313022
0.14547326549616
0.149170973454996
0.158620994565117
0.146471608027257
0.146840124679038
0.185412639936545
0.277545517296613
0.149006230481126
0.152951852343685