/*--------------------------------*- C++ -*----------------------------------*\
  =========                 |
  \\      /  F ield         | OpenFOAM: The Open Source CFD Toolbox
   \\    /   O peration     | Website:  https://openfoam.org
    \\  /    A nd           | Version:  12
     \\/     M anipulation  |
\*---------------------------------------------------------------------------*/
/*   Windows 32 and 64 bit porting by blueCAPE: http://www.bluecape.com.pt   *\
|  Based on Windows porting (2.0.x v4) by Symscape: http://www.symscape.com   |
\*---------------------------------------------------------------------------*/
FoamFile
{
    format      ascii;
    class       surfaceScalarField;
    location    "400";
    object      phi;
}
// * * * * * * * * * * * * * * * * * * * * * * * * * * * * * * * * * * * * * //

dimensions      [0 3 -1 0 0 0 0];

internalField   nonuniform List<scalar> 
28876
(
2.44471158042873e-07
-5.44435599365295e-07
1.37421930428658e-05
1.64008309931474e-05
6.02930639074403e-07
-6.24742053499395e-07
3.04642744112949e-07
-2.29577326880191e-07
1.15524984264303e-05
9.03902034188272e-07
-9.71126638373365e-07
1.38094169952974e-05
-1.3623793212684e-06
1.62665064220559e-06
1.70403145572836e-05
1.84350584917939e-05
1.91450439486501e-07
-8.22483234701484e-07
1.34183729353681e-05
4.82002569517498e-07
-4.80804300394886e-07
1.73860317810662e-07
-3.33365689542568e-07
7.12834093873205e-06
5.65668040997153e-07
-7.28916597937316e-07
1.07445761344752e-05
9.28731638615871e-07
-1.21439666344993e-06
1.4095037543454e-05
1.25985611462927e-05
1.08044668966769e-06
-1.05744272763418e-06
-1.76384902537133e-06
1.95527382451787e-06
1.98701099881659e-05
-1.63443585514199e-06
2.05283375613105e-06
1.75504878739715e-05
2.13018565160938e-05
8.73646914665066e-07
-1.03178620055133e-06
1.51202910408331e-05
5.72143439189014e-07
-7.53511032610758e-07
8.15459519038983e-06
3.46967077074971e-07
-3.60943561756245e-07
2.5200062549116e-07
-1.73684084061618e-07
6.27542145446612e-06
2.91110926632705e-07
-4.52011168859296e-07
6.56031444327839e-06
6.5150407478938e-07
-7.15964243140323e-07
9.59459034826167e-06
8.98348689334976e-07
-1.30878894764145e-06
1.45054398310094e-05
-9.81185756018006e-07
1.24968756257156e-06
1.13470041858096e-05
1.4264901373252e-05
-1.36216482695478e-06
1.53393172283306e-06
7.45182309525768e-06
5.67578202705832e-07
-6.311833656033e-07
-2.14254081847931e-06
2.36675956287482e-06
2.30326767258072e-05
-2.07592052228236e-06
3.08104995433195e-06
2.09175915805479e-05
-1.62121266867357e-06
2.13598472009032e-06
1.79340179383675e-05
2.29274007580291e-05
5.48023562851314e-07
-1.14379825160336e-06
1.74305627726982e-05
7.92520783569595e-07
-1.03572358107867e-06
9.21492420615862e-06
4.14097695406437e-07
-4.53638311762643e-07
6.96415908015228e-06
4.1485394481929e-07
-3.36016771074207e-07
2.72258067965479e-07
-3.21382004385721e-07
5.87637602476463e-06
3.29158377042608e-07
-3.72275209888866e-07
5.86652193049538e-06
3.2016817743679e-07
-5.35938299202068e-07
6.06010112746758e-06
5.18496131190672e-07
-6.62941865004003e-07
8.4302416142137e-06
8.64833305179241e-07
-1.17807224176014e-06
1.48186723005619e-05
-7.52243336973242e-07
6.9105512757148e-06
6.3246640839244e-07
-1.24905746966881e-06
1.28849850565239e-05
1.8025185576795e-06
-8.6170189576597e-07
1.05274944763209e-06
1.00531909103767e-05
8.46467503831735e-06
-8.15400422334196e-07
7.70980556439319e-07
1.65401148595435e-05
-1.75326424303874e-06
2.03482978533621e-06
6.61167020534109e-06
6.0347453467338e-07
-5.53026275701707e-07
-2.248382767554e-06
2.49292711989535e-06
2.50493717390776e-05
-2.53538915456125e-06
3.75069959883197e-06
2.4898071142246e-05
-1.91478565508839e-06
3.67606841516586e-06
2.12921376555801e-05
-1.40035104608471e-06
2.12117144326201e-06
1.80780213761857e-05
2.50956139898104e-05
1.07727615608878e-06
-9.06627558649022e-07
1.97582003857522e-05
9.76856924716654e-07
-1.29450707477306e-06
1.06400660821149e-05
5.10898580028174e-07
-5.83245127598781e-07
7.79210388866117e-06
4.81923031855095e-07
-4.56442196371703e-07
6.51896311855172e-06
4.47908364270117e-07
-3.91435677680774e-07
2.91763895814865e-07
-2.53113025172452e-07
5.71958362107623e-06
3.35751561351742e-07
-4.22313686193025e-07
5.59065899491433e-06
2.97097898896472e-07
-5.04281657570272e-07
5.53776302103653e-06
2.68980634832727e-07
-5.81215050681086e-07
5.70939034939507e-06
3.99941015252228e-07
-6.28455831498328e-07
7.48067746966897e-06
8.98150722036649e-07
-9.4500689964452e-07
1.48655346689626e-05
5.78399384814191e-07
6.26949041943393e-06
-6.91377966117641e-07
-7.60975490650725e-07
6.5400149900063e-06
5.38777281550767e-07
-9.59832601672455e-07
7.89688227212384e-06
9.10980658908107e-07
-1.06496251458553e-06
1.14305460262417e-05
1.6572459805394e-06
-1.55960835493227e-06
1.493020824388e-05
2.43636803063859e-06
-7.63222121374475e-07
8.81372166527328e-07
8.93460915691073e-06
7.51124905676778e-06
-7.17020409100452e-07
7.85912578984778e-07
9.67957524450149e-06
-1.02000781241818e-06
9.98115770003763e-07
1.90493588509817e-05
-2.03743743433686e-06
2.5324211786897e-06
6.24569767199645e-06
6.18140748141356e-07
-5.62158604809142e-07
-2.0217270267179e-06
2.5170748842571e-06
2.70930310228726e-05
-2.66334895210153e-06
4.40751158623508e-06
2.70555578585137e-05
-2.33151387360266e-06
5.07327291862151e-06
2.58320859399857e-05
-1.57848701674828e-06
3.78443990782149e-06
2.12072952662429e-05
-1.11095259693468e-06
2.10987193801675e-06
1.7977248589115e-05
2.51322863499396e-05
1.21138021426283e-07
-6.55597046217504e-07
2.22657594244134e-05
1.00797547616892e-06
-1.31110503734118e-06
1.22794880642969e-05
7.83571249115583e-07
-6.69917331569703e-07
8.77865413666043e-06
5.4029729703591e-07
-5.54386513478876e-07
7.28074710643683e-06
5.28355514745788e-07
-4.79737718399041e-07
6.25758360607914e-06
4.7052906550849e-07
-3.59748467561115e-07
2.79177616697898e-07
-2.91091922428061e-07
5.38259789581012e-06
3.45611508128038e-07
-4.01142463917344e-07
5.35280109845128e-06
2.89639408645632e-07
-4.99373288288718e-07
5.29610843644057e-06
2.38119798048455e-07
-5.60560239232182e-07
5.27898540028023e-06
2.35651953462722e-07
-5.8027120639122e-07
5.42555338675891e-06
3.36132576151489e-07
-5.69742879308523e-07
6.76929489717112e-06
8.89643004809832e-07
-7.16002840117642e-07
1.46918998637829e-05
7.18070004969213e-06
-8.78100578827304e-07
8.27191625697207e-07
4.76153568737693e-07
-7.21511037279533e-07
5.99198226512499e-06
5.58893024025449e-07
5.93840099783119e-06
-6.53345246055388e-07
-7.12053806486762e-07
6.22912536137278e-06
4.95367637226147e-07
-9.45349666405231e-07
7.47836554746863e-06
8.37661878843154e-07
-1.1675796525385e-06
8.97677249979968e-06
1.22168410878762e-06
-9.03783367054066e-07
1.01650346087149e-05
1.4721445434748e-06
-1.29489347953548e-06
1.31442926337759e-05
2.40640473156302e-06
-1.76026666574356e-06
1.72810900528642e-05
3.30123836797292e-06
-6.67420317681503e-07
7.73515068616282e-07
8.05369910271127e-06
7.07886058846712e-06
-7.04012255744817e-07
8.06997018165173e-07
8.46015193850316e-06
-8.69604205545288e-07
9.53975077331977e-07
1.09439932415754e-05
-1.14875700236722e-06
1.444828691452e-06
2.24047580151576e-05
-1.93439973993184e-06
2.30581317124333e-06
5.94108242254542e-06
6.22258868310301e-07
-5.22311140717956e-07
-2.33193076165379e-06
9.85764697417539e-07
2.89954285641225e-05
-2.59656184505356e-06
4.91962911006218e-06
2.91771266884409e-05
-2.53110751103723e-06
6.52947469195576e-06
2.8130173913683e-05
-1.83046726136017e-06
5.86489305710423e-06
2.55820038766319e-05
-1.23623432662801e-06
3.73849434846032e-06
2.0814882979819e-05
-8.46730689019108e-07
2.05073154548732e-06
1.76629243365435e-05
2.474932800197e-05
6.52716336617209e-07
-9.17864580798649e-07
2.46545852455883e-05
-2.0290221294919e-07
-7.43628543652281e-07
1.46944559088097e-05
1.34435908417846e-06
-7.28521055233009e-07
9.80160093074528e-06
6.76181342498822e-07
-5.82824362029029e-07
8.13538574537417e-06
5.89131941691083e-07
-5.56075556307822e-07
6.94912487678956e-06
5.51608767581402e-07
-4.49765109839844e-07
5.9118897513725e-06
4.55155208691902e-07
-3.51416136465508e-07
2.72105035551736e-07
-2.79148854597281e-07
5.12675883293887e-06
3.22075732537238e-07
-3.99107252008942e-07
5.0584855720949e-06
2.82996480405352e-07
-4.76182474010761e-07
5.04661344598944e-06
2.24231609121967e-07
-5.34770697452787e-07
5.04608578452545e-06
2.08700590885403e-07
-5.56746697511173e-07
5.04676018913955e-06
2.27149765385283e-07
-5.31438431427333e-07
5.16010058640985e-06
3.04193904599926e-07
-4.81769759015861e-07
6.23087219609211e-06
8.33643983212209e-07
-5.09935298033996e-07
1.43681914617975e-05
-8.9022003631752e-07
7.32183040769113e-07
6.86952950748487e-06
6.7755077448631e-06
-8.10523210226159e-07
7.94653596051409e-07
8.07236436672416e-06
-1.04214064039717e-06
1.0894986417181e-06
4.44662664173882e-07
-6.66144206798931e-07
5.66260191155851e-06
4.29315247603163e-07
-6.76551604115372e-07
5.73586413239636e-06
5.3785579004279e-07
5.62661488634156e-06
-5.93744646233576e-07
-6.29958559613508e-07
5.93027863525787e-06
4.88536181742467e-07
-8.51973855910796e-07
7.11626013671671e-06
8.05651132228638e-07
-1.12015975990444e-06
8.428918562175e-06
1.21072957980868e-06
-1.28621792935364e-06
9.99654810114581e-06
1.69497316585913e-06
-7.67099344095925e-07
9.1436990223701e-06
1.32571372935777e-06
-1.06336977575988e-06
1.15979837922172e-05
2.25128314790531e-06
-1.46533968651026e-06
1.50673487079791e-05
3.55414825984551e-06
-1.64092495098364e-06
2.10347864826362e-05
3.7152412082883e-06
-5.58752147895038e-07
7.07470842449527e-07
7.36245354265928e-06
6.70770511570912e-06
-6.42917038507287e-07
8.02571386602756e-07
7.92444726486435e-06
-8.20188324430269e-07
9.684987863419e-07
9.32717655388508e-06
-9.44421667401338e-07
1.22401990683369e-06
1.30529014039327e-05
-1.16758692084891e-06
2.31946609010109e-06
2.60638537251656e-05
-6.97097101007492e-07
-7.38435215933401e-07
5.61079422669759e-06
5.8503755884174e-07
-4.84183883608325e-07
-4.35937574969486e-06
1.28360535727501e-06
2.88108136637466e-05
-4.24149476089648e-06
4.3494984640824e-06
3.38068370700686e-05
-2.78203270689781e-06
8.87029400066527e-06
2.96180366320638e-05
-2.0473563023075e-06
7.96863450904712e-06
2.80735851130498e-05
-1.39333397681377e-06
6.03376094864538e-06
2.46799923438506e-05
-9.47313169524692e-07
3.58412132569737e-06
2.02288623258028e-05
-6.06383057450781e-07
1.87299006789113e-06
1.72300214046686e-05
2.52057030563108e-05
-5.68186117668011e-07
1.89256322592743e-05
1.1625311146516e-06
7.02658301419072e-07
2.05892694898415e-05
1.25923021556251e-06
-8.34690666710834e-07
1.13963835248385e-05
1.10079296796147e-06
-5.46435746027936e-07
8.91970344102675e-06
6.88475467646963e-07
-5.75612489947222e-07
7.69895448890507e-06
6.14561491634254e-07
-5.10167539682984e-07
6.59403879340694e-06
5.42121500393835e-07
-4.11433554906175e-07
5.61648835353219e-06
4.41390803418437e-07
-3.29770382071305e-07
2.62363794780932e-07
-2.82814050756639e-07
4.88592415592624e-06
3.09838136366355e-07
-3.76978813823901e-07
4.79479292683235e-06
2.62665632737097e-07
-4.49862888785346e-07
4.76949969378672e-06
2.09373395490881e-07
-4.97070162438175e-07
4.79953977253921e-06
1.92452811477878e-07
-5.20520964725503e-07
4.81740809258392e-06
2.02586231048142e-07
-5.04860183569529e-07
4.81759558078379e-06
2.25345847506975e-07
-4.49905320078918e-07
4.90289246340041e-06
2.87923469100475e-07
-3.76706207288348e-07
5.80973493583836e-06
7.23806986982165e-07
-3.40802289347012e-07
1.39852163007576e-05
-8.07020881953382e-07
6.45772870827242e-06
6.79233166764332e-07
-1.03578264812645e-06
1.04363449071028e-06
7.67650733101668e-06
-8.05460825805421e-07
6.85101831267978e-07
6.56722355777844e-06
6.39880760558152e-06
-7.21010044722159e-07
7.57230042930776e-07
7.56948180911616e-06
-9.3901162657823e-07
1.04646878839529e-06
8.7946891675745e-06
-1.12909089186926e-06
1.46481384410311e-06
4.13154176940225e-07
5.35479970133354e-06
-5.98109354052069e-07
3.89612396205779e-07
-6.20124604637646e-07
5.40901549695987e-06
4.23391827866629e-07
-5.94826001330944e-07
5.47992790181605e-06
4.99724928401486e-07
5.31837734282195e-06
-5.3838861918038e-07
-5.27974520442013e-07
5.63450647434973e-06
4.90341560953711e-07
-7.35375678037467e-07
6.76788283307238e-06
8.05188942478193e-07
-9.83663097680655e-07
7.9579253788985e-06
1.19690643843492e-06
-1.23370055707262e-06
9.23529301955269e-06
1.74029000377946e-06
-1.26199988075725e-06
1.17045569769069e-05
2.66429132990268e-06
-6.35359513677547e-07
8.32397759018646e-06
1.21522234237421e-06
-8.77422888634229e-07
1.03450128413082e-05
2.0627630010082e-06
-1.21148213048179e-06
1.30103373268248e-05
3.47231250298055e-06
-1.54779495632598e-06
1.8099168120545e-05
5.25531451091028e-06
-6.02201220777846e-07
2.60934399504688e-05
-4.37304556675222e-07
6.56334617396664e-07
6.82498197102992e-06
6.34830693307153e-06
-5.75844999807454e-07
7.6368784637252e-07
7.4718209579587e-06
-7.37728605512984e-07
9.47229073578639e-07
8.63298583845776e-06
-8.79810609772591e-07
1.19058421923873e-06
1.05356300022424e-05
-9.46596906540974e-07
1.86373408592501e-06
2.1570964858891e-05
-1.22203787022433e-06
1.86257942282585e-06
3.23895231050227e-06
4.23485201362185e-06
5.32286193000873e-06
5.5955149612479e-07
-4.40275431314337e-07
-1.40836894532464e-06
2.7897731062384e-05
-1.10140242316518e-06
3.56098156338597e-05
-4.41093120269064e-06
1.50695684716596e-05
3.20183013821292e-05
-2.19099909645334e-06
1.14276699325961e-05
2.83497874647751e-05
-1.60170463784489e-06
8.31159791631176e-06
2.73973642638231e-05
-1.07250698494423e-06
5.75100874867516e-06
2.35856021305291e-05
-6.80177155721149e-07
3.21220304867483e-06
1.95698187219502e-05
-4.00087703115057e-07
1.60627743289756e-06
1.67476668051702e-05
2.45262632523436e-05
3.64851351042239e-07
2.53947979959179e-05
9.53688238133188e-07
-4.0674133292492e-07
1.60371789765845e-05
1.83182437853488e-06
-5.80920406640875e-07
1.00537338169839e-05
9.52741624218211e-07
-5.16496506343421e-07
8.45163434781211e-06
7.13160469834011e-07
-5.15523692443155e-07
7.32601427053922e-06
6.17034933255844e-07
-4.52540895361022e-07
6.27484395005807e-06
5.28232290374292e-07
-3.75249753885174e-07
5.35091547081019e-06
4.26617734609802e-07
-3.15453877595468e-07
2.5143233858166e-07
-2.79237490571325e-07
4.67260877861297e-06
2.9750570538226e-07
-3.53012296193879e-07
4.56445135962016e-06
2.46694844633385e-07
-4.16120256331144e-07
4.51435490352687e-06
1.9169824972208e-07
-4.56099351863078e-07
4.53683008497305e-06
1.76035416558254e-07
-4.74403700761025e-07
4.57738835713494e-06
1.83626886156248e-07
-4.65002494032384e-07
4.59392504248285e-06
2.01013070709188e-07
-4.22464189473253e-07
4.58914329223647e-06
2.23905907934099e-07
-3.52967176230951e-07
4.65524900386895e-06
2.74261970493994e-07
-2.70721359466284e-07
5.46540529773495e-06
6.10525010453473e-07
-2.02990962858643e-07
1.35777032365392e-05
6.08468338339147e-06
-7.11595250722262e-07
6.31845863646565e-07
-7.29170264453162e-07
6.15647606977609e-06
6.14570310969642e-07
-9.23239270811084e-07
7.16953627969818e-06
9.66616106202271e-07
-1.1214309785871e-06
8.26013411103651e-06
1.46588438748377e-06
-9.15922989138279e-07
1.00106108032525e-06
7.29279607757954e-06
-6.91811529148352e-07
6.8126685741206e-07
6.26578224805431e-06
6.05529990287485e-06
-6.38387928247914e-07
7.10104261820389e-07
7.12181469662416e-06
-8.24299976595169e-07
9.92505241955303e-07
8.16738167056398e-06
-1.01277737879952e-06
1.39572915565897e-06
9.71116886683219e-06
-1.14923314773916e-06
2.17645628817971e-06
3.54682158711728e-07
-5.53404022450522e-07
5.10943285329242e-06
3.80726932666452e-07
5.06517326287685e-06
-5.33933278936501e-07
3.77192849566834e-07
-5.40957510315786e-07
5.16158435833053e-06
4.25794310835578e-07
-4.9376869097636e-07
5.22094298744422e-06
4.70223944173723e-07
5.04490288401174e-06
-4.83960784001235e-07
-4.15000890104242e-07
4.87850140755923e-07
5.34826186273703e-06
-6.10046393803048e-07
6.42261948731197e-06
8.10296648374732e-07
-8.30422307740883e-07
7.51893189144376e-06
1.19717625292357e-06
-1.08605009452225e-06
8.56280353371088e-06
1.74393020902761e-06
-1.3015260124428e-06
1.037536968161e-05
2.82311922022975e-06
-1.26189807728399e-06
2.12034843060727e-05
3.69136245134561e-06
-4.94877300398557e-07
7.68416564017987e-06
1.11085270034488e-06
-7.12721693328154e-07
9.32617252241493e-06
1.87429105548576e-06
-9.88735914556234e-07
1.13700894546609e-05
3.08998221722565e-06
-1.44970622698394e-06
1.45973407362299e-05
6.23271613907804e-06
-1.6023385426057e-06
2.4133118788257e-05
-3.14185850436704e-07
6.11344759922232e-07
6.40201458711692e-06
6.03549398009063e-06
-5.08312313289978e-07
7.3136243748675e-07
7.08064039082475e-06
-6.45425552881086e-07
9.16750120155772e-07
8.13254684215829e-06
-7.73729957270798e-07
1.16021909008738e-06
9.47594180869357e-06
-8.62782200945727e-07
1.6845375038578e-06
1.45371996655316e-05
-1.07012888709722e-06
3.21176899414206e-06
2.82557752667518e-05
-6.24090306815288e-07
2.86462210296393e-06
1.07019231591555e-06
2.62825879638533e-05
5.07244837607698e-06
5.37064915443684e-07
-4.01369619596926e-07
-8.44108570848494e-07
2.76404481930391e-05
2.16592526655421e-05
2.93042448350353e-05
-2.1089366211337e-06
1.88514655555341e-05
2.67032166123848e-05
-1.77377324343123e-06
1.10554053661494e-05
2.73796435546803e-05
-1.24785881177901e-06
8.07086746057132e-06
2.63253387366162e-05
-7.59996778115744e-07
5.02625544816851e-06
2.25315312899908e-05
-4.33692522705577e-07
2.70565721704064e-06
1.89041959981229e-05
-2.26986593244962e-07
1.36326955206509e-06
1.62219502848437e-05
2.70634279430368e-05
-4.2207421485366e-07
2.52661396885342e-05
9.70327361367615e-07
-6.40938049981565e-07
1.35374065438637e-05
1.77017802999208e-06
-4.53140245101139e-07
9.30344698339847e-06
8.79027385364538e-07
-4.5397903761023e-07
7.97480371677533e-06
7.11391088512746e-07
-4.5015786994623e-07
6.97388617457413e-06
6.09410883344888e-07
-4.03748420186636e-07
5.96812274961478e-06
5.11101920229728e-07
-3.5220429069971e-07
5.12632963646156e-06
4.131552188644e-07
-3.01949908260041e-07
2.45652195276414e-07
-2.67587692299856e-07
4.516393602051e-06
2.82200717618509e-07
-3.30705194825102e-07
4.3681005665324e-06
2.32973186915116e-07
-3.79075976413559e-07
4.29443303805468e-06
1.77453222489559e-07
-4.12636159931213e-07
4.29343880288302e-06
1.59461524251639e-07
-4.25020188609777e-07
4.32798649755085e-06
1.65578979474308e-07
-4.15861532639925e-07
4.36266943462912e-06
1.80404873259798e-07
-3.8312821704423e-07
4.3741854141397e-06
1.99175124851692e-07
-3.27201580577291e-07
4.3642038004637e-06
2.20650161653668e-07
-2.54695901275715e-07
4.4185759507442e-06
2.61131171162272e-07
-1.72324612339853e-07
5.17362287489369e-06
5.31625920010401e-07
-9.86847016284984e-08
1.31447794029625e-05
5.79353473062324e-06
-6.43116755822495e-07
5.59776731399734e-07
5.76222729780867e-06
-6.25431370519578e-07
5.87633078431465e-07
6.73249306816019e-06
-8.03492353317667e-07
9.01405285245774e-07
-6.23251223916433e-07
5.99065970135777e-07
5.86604406756851e-06
-8.17732285280282e-07
6.7918231358069e-06
8.94076420907784e-07
-9.90819789057134e-07
7.64697751274654e-06
1.35638052820953e-06
-9.87794616739503e-07
7.74200242679054e-06
1.42091052181598e-06
-1.17608295677929e-06
8.87063632634877e-06
2.18092062659145e-06
-7.71124013914323e-07
9.9432240141382e-07
6.92043829513087e-06
-5.6866319120246e-07
6.87259320655336e-07
5.96293784547496e-06
5.75916009230363e-06
-5.63297879791899e-07
6.71461637373515e-07
6.74205753584067e-06
-7.17151889023746e-07
9.41523300278578e-07
7.65855471432916e-06
-8.75979660785566e-07
1.32967550345465e-06
8.75699111922546e-06
-1.03587630506043e-06
2.00128854483367e-06
1.28021441776097e-05
-1.29509742973895e-06
3.9446587501184e-06
3.2387819668858e-07
-4.87912444638706e-07
4.83526665180149e-06
3.38611132755908e-07
-4.77860121027252e-07
4.87330601549831e-06
3.5472377036171e-07
4.80797262407988e-06
-4.74274520624438e-07
3.75826868216406e-07
-4.43532627428187e-07
4.91592965280916e-06
4.24820436156587e-07
-3.83961785774691e-07
4.96426210287694e-06
4.45597366766772e-07
4.80987213907664e-06
-4.34010208678762e-07
-4.77845534738891e-07
8.02838752489763e-07
6.09060381190229e-06
-3.01078060205948e-07
4.78623499531447e-07
5.07718452785137e-06
-6.78624835021769e-07
7.09970858057083e-06
1.19542892504764e-06
-9.02038270416671e-07
7.97236614015168e-06
1.70090116688535e-06
-1.23616219736814e-06
9.09418116248083e-06
2.8115170791528e-06
-1.38027333151316e-06
1.50551622556502e-05
8.74922979385291e-06
-2.42961525742535e-06
3.40524651032722e-05
1.15678269251924e-06
-3.52827701646444e-07
7.1964023641833e-06
1.01825516638235e-06
-5.42895587674021e-07
8.54467446541125e-06
1.67526640820736e-06
-7.79878008933252e-07
1.00682291481042e-05
2.7081712851102e-06
-1.17086922108332e-06
1.22419412156126e-05
4.8424565831728e-06
-2.78458927333267e-06
1.6278610393364e-05
1.47626301596102e-05
-1.99197218509915e-07
5.73802875814982e-07
6.06156887025302e-06
5.75736295759154e-06
-4.58234921719393e-07
6.97740226529084e-07
6.73711419925689e-06
-5.60374587569882e-07
8.83068305140731e-07
7.68024085366793e-06
-6.71010158344307e-07
1.1085866760217e-06
8.81307042721588e-06
-7.56484581589737e-07
1.54427866925227e-06
1.19952247347985e-05
-8.79995994337287e-07
3.03656896480208e-06
2.7160941714351e-05
-1.65987485512956e-06
2.35270538179374e-06
3.1626688869047e-05
-6.28395610282815e-07
4.18390102800224e-07
2.47343268511102e-05
4.86146749810269e-06
5.13647251501651e-07
-3.67959516579726e-07
1.37812807343161e-05
-2.1972841979683e-06
1.60564952046465e-05
1.76241283819444e-05
1.73171961400284e-05
9.18044005505651e-07
2.3691999606267e-05
2.35454459285909e-05
-2.00589035887199e-06
1.40420772597172e-05
2.57223641887778e-05
-1.46279407675261e-06
1.02176583101976e-05
2.66956526485938e-05
-8.40750829152705e-07
7.20961020296713e-06
2.4982757459694e-05
-4.44334513984581e-07
4.13758735595918e-06
2.15439212017496e-05
-2.28953096703715e-07
2.28080425280258e-06
1.82156611551457e-05
-1.00488871390673e-07
1.21098106320016e-06
1.56431442683621e-05
2.87806505409558e-05
-3.62617492095027e-07
2.33494176287573e-05
1.224943558595e-06
-6.65328198568689e-07
1.1818176526168e-05
1.48596358052479e-06
-3.65384554359326e-07
8.71114678987899e-06
8.26544350935584e-07
-3.91270069802698e-07
7.57199092444787e-06
7.05656744855807e-07
-4.00323377553105e-07
6.63874941241159e-06
5.94844953620929e-07
-3.74516124745906e-07
5.73548279153469e-06
4.99811357859509e-07
-3.30003160320479e-07
4.9495803961357e-06
4.04669778228268e-07
-2.84133424014902e-07
2.38411084182627e-07
-2.51652929392683e-07
4.37004100641463e-06
2.7479772663751e-07
-3.0148540031021e-07
4.21237646493958e-06
2.20590644375073e-07
-3.43121507483795e-07
4.11155448426804e-06
1.65947159614543e-07
-3.6816025341572e-07
4.08401064605564e-06
1.4687343936307e-07
-3.75355653831884e-07
4.0969019209722e-06
1.4976798741089e-07
-3.64011708608835e-07
4.1263702366344e-06
1.6149548641484e-07
-3.35649059076865e-07
4.15369553850122e-06
1.77684176157447e-07
-2.9059279511974e-07
4.15989398125591e-06
1.95757691189465e-07
-2.3180243284571e-07
4.14555356400117e-06
2.14885243847524e-07
-1.62999983809966e-07
4.19436893581751e-06
2.49003548093965e-07
-8.74142540104351e-08
4.91336391742491e-06
4.89135214952766e-07
-2.54846061315024e-08
1.2681139425719e-05
5.37222455603922e-07
-5.4617781234204e-07
5.51784955560831e-06
5.48884993251694e-06
-5.61745535872911e-07
5.15882540938872e-07
6.37082003092127e-06
-7.13623809370758e-07
8.17332610335926e-07
5.48674860179564e-06
-5.4963017047317e-07
5.51330159418411e-07
6.37808018500999e-06
-6.97950361093389e-07
8.46055414285782e-07
7.15307070731331e-06
-8.54513418982739e-07
1.2705584668006e-06
-6.86697870611484e-07
6.43870052218193e-06
8.67757490016265e-07
-5.06576384875526e-07
5.98367687885731e-07
5.58141805751786e-06
-8.68535476669038e-07
7.15674358665445e-06
1.26503331150851e-06
-1.03623035164684e-06
8.02250522025007e-06
1.95097387570461e-06
-8.17802299425665e-07
1.39095758636029e-06
7.26112442936364e-06
-1.05923649047591e-06
8.03930168430687e-06
2.07528574043026e-06
-1.35225162786717e-06
1.00900255954246e-05
4.86495692313811e-06
-6.25178895760225e-07
9.94551754207793e-07
6.55970228240158e-06
-4.40774076036962e-07
6.85505790786745e-07
5.66518231195214e-06
5.50434227942271e-06
-5.01319466170007e-07
6.3663531675592e-07
6.42179401671504e-06
-6.2551639860592e-07
8.95134682234401e-07
7.24467229479198e-06
-7.55995268747724e-07
1.25708599164999e-06
8.14645708129494e-06
-8.9559152373088e-07
1.85598525287578e-06
1.05023549776851e-05
-1.13711186059455e-06
3.33613462119839e-06
3.11892484111857e-05
-3.19686423415563e-06
6.83616719120793e-07
2.99467371221742e-07
4.59319587292556e-06
-4.25726991965294e-07
3.06897345711396e-07
-4.13909356932212e-07
4.61418902409061e-06
3.34621951773396e-07
-3.84759288322614e-07
4.64140839470165e-06
3.33666107506489e-07
4.58658157020806e-06
-4.18702549089545e-07
3.73272996077401e-07
-3.38418543399063e-07
4.67479962860002e-06
4.17895733664303e-07
-2.74661994386565e-07
4.71570985381902e-06
4.24160406330412e-07
4.61227384110174e-06
-3.88387626076707e-07
-5.23594002878063e-07
1.17118968226598e-06
6.71205895959347e-06
-3.45605408709617e-07
7.8216214729348e-07
5.7798512203951e-06
-1.9456760941629e-07
4.6360329316461e-07
4.82384406416222e-06
-7.18639323963202e-07
7.45454611241614e-06
1.65201720258419e-06
-1.00140828166311e-06
8.18634984019647e-06
2.43925745993725e-06
-1.62842554767668e-06
9.87747650660485e-06
6.83295033077382e-06
-3.51097542809863e-06
2.20902545217358e-05
2.2755665667582e-05
-8.15931229600783e-07
3.40178889601832e-05
-2.20711023374333e-07
6.81603386995389e-06
9.45949877821007e-07
-3.74773579250538e-07
7.98381082821091e-06
1.50956907569367e-06
-5.66858169229292e-07
9.1197147206001e-06
2.34989572517493e-06
-8.65195720049898e-07
1.05630656174702e-05
3.78947564722242e-06
-1.6184361839276e-06
1.28386217858727e-05
7.89492970805443e-06
-7.39622285024217e-06
1.50762318625798e-05
1.61158219616139e-05
-1.01242452854129e-07
5.44659825135758e-07
5.76667806840079e-06
5.53098834407167e-06
-4.12847404092207e-07
6.7274866071368e-07
6.43409194775048e-06
-5.00038385136028e-07
8.42054284727451e-07
7.30324556277316e-06
-5.82057564026254e-07
1.06285223050928e-06
8.2931611221884e-06
-6.51542400637395e-07
1.42161859862695e-06
1.0580280161325e-05
-7.41740405183343e-07
2.64391887306453e-06
2.36773197513028e-05
-1.62515432604047e-06
2.67396756411213e-06
3.14905279363708e-05
-9.85428520026173e-07
-4.5590191586165e-08
1.8208490614117e-05
4.68883657231552e-06
4.9950577692243e-07
-3.31924826136662e-07
7.17091312612558e-06
-5.11488415346295e-07
9.39702779545934e-06
1.40454671115654e-05
1.09764610721417e-05
-2.26963164096892e-07
-2.96287381181929e-07
2.14124499773061e-05
1.98928030310445e-05
-2.03547828949392e-06
1.65984943929274e-05
2.30243755747883e-05
-1.73539449899804e-06
1.21670399567132e-05
2.55083586914697e-05
-9.72228764986729e-07
9.07893410567273e-06
2.57986234132095e-05
-4.14164111587965e-07
5.90407459640682e-06
2.36304566712561e-05
-2.03475647497954e-07
3.44721105842271e-06
2.0581020852629e-05
-9.35052779495487e-08
2.02586122657534e-06
1.74942964465683e-05
-2.00458839340804e-08
1.10728689743108e-06
1.50450816757556e-05
2.79092275981801e-05
-5.3403429320772e-07
2.10854473691288e-05
1.31462863753435e-06
-5.10339612240613e-07
1.06107236029857e-05
1.24915789826763e-06
-2.99182055354209e-07
8.20570227727416e-06
7.91000455579913e-07
-3.50094968068413e-07
7.23597900091921e-06
6.98714684103055e-07
-3.67478596099236e-07
6.38400876698976e-06
5.86912677780175e-07
-3.48174973402554e-07
5.53256432790506e-06
4.91226055067809e-07
-3.0840881449352e-07
4.78942922738239e-06
3.94451020825027e-07
-2.65139901567734e-07
2.33162397891928e-07
-2.31443290644784e-07
4.2514470847513e-06
2.64899915527815e-07
-2.73609247443995e-07
4.0772642624e-06
2.12348773962087e-07
-3.05188520151925e-07
3.96209427063799e-06
1.56791556813131e-07
-3.24490453870536e-07
3.91109289508899e-06
1.36478629001687e-07
-3.26627920301997e-07
3.89880581940012e-06
1.36650020685082e-07
-3.1264563694702e-07
3.90888643555093e-06
1.4459379380422e-07
-2.85431466052738e-07
3.93155987951225e-06
1.58408928860481e-07
-2.47005821835417e-07
3.95170052669358e-06
1.73971617779303e-07
-1.98838313657407e-07
3.95295861076991e-06
1.90051159947082e-07
-1.43348476390125e-07
3.93585255163242e-06
2.06479799806992e-07
-8.22295998953905e-08
3.98270561147193e-06
2.36467022615747e-07
-1.83367349564603e-08
4.66975606822753e-06
4.52364086409602e-07
2.7666396696374e-08
1.22011235570338e-05
-5.9658901230163e-07
6.03887613976209e-06
7.79055855973162e-07
4.90199986026858e-07
-4.70490630175791e-07
5.22986056947959e-06
5.31439586309646e-07
-4.36461214883145e-07
5.25091728900186e-06
5.23095503704462e-06
4.80854633292094e-07
-4.87340569339389e-07
6.03897940701111e-06
-6.18301047533258e-07
7.59653889914094e-07
6.69097207342779e-06
-7.50283455389169e-07
1.16116609337121e-06
5.25000673643757e-06
-4.82529484157588e-07
5.20898782708445e-07
6.08431461657023e-06
-6.08333795405933e-07
7.99183450559331e-07
6.7747803278395e-06
-7.36740048865141e-07
1.19815324324375e-06
7.4549760756113e-06
-8.87946851608394e-07
1.81372492671759e-06
-5.50694341848362e-07
6.10501872913741e-06
8.57567184328932e-07
-7.16280257079968e-07
6.71541813697321e-06
1.20755671060402e-06
-3.85192887131352e-07
5.94854553908217e-07
5.30425636150906e-06
-9.08847340558933e-07
7.34212982992867e-06
1.79499038203446e-06
-1.17009772124601e-06
8.62205466732501e-06
3.64906890637702e-06
-8.59456353120643e-07
7.36059394041252e-06
1.92770480735472e-06
-6.47901035488215e-07
1.35473238113818e-06
6.83020839938129e-06
-1.23067676515075e-06
8.31679045475832e-06
3.45071269555091e-06
-3.09049819636175e-06
1.45155307247531e-05
2.11180817839955e-05
-4.77969931361822e-07
9.83003707254164e-07
6.21658493972404e-06
-3.14423942602161e-07
6.7262193933082e-07
5.37927829861912e-06
5.28950432023087e-06
-4.4476409820973e-07
6.09082817136403e-07
6.14719720838574e-06
-5.52776766295491e-07
8.5078296267986e-07
6.90495478505262e-06
-6.57642428221243e-07
1.19505994958951e-06
7.69095426022045e-06
-7.66883435584524e-07
1.7305677903633e-06
9.37262031225349e-06
-9.5352485506237e-07
2.8800404234202e-06
2.51519589176116e-05
-2.62076855289987e-06
1.28538254493067e-06
-1.05556438194961e-06