/*--------------------------------*- C++ -*----------------------------------*\
  =========                 |
  \\      /  F ield         | OpenFOAM: The Open Source CFD Toolbox
   \\    /   O peration     | Website:  https://openfoam.org
    \\  /    A nd           | Version:  12
     \\/     M anipulation  |
\*---------------------------------------------------------------------------*/
/*   Windows 32 and 64 bit porting by blueCAPE: http://www.bluecape.com.pt   *\
|  Based on Windows porting (2.0.x v4) by Symscape: http://www.symscape.com   |
\*---------------------------------------------------------------------------*/
FoamFile
{
    format      ascii;
    class       volScalarField;
    location    "200";
    object      k;
}
// * * * * * * * * * * * * * * * * * * * * * * * * * * * * * * * * * * * * * //

dimensions      [0 2 -2 0 0 0 0];

internalField   nonuniform List<scalar> 
10063
(
0.000325518109560708
0.000329860470181804
0.000321899749239629
0.000333466317625552
0.000586709298747976
0.000327372379975204
0.000420369409447453
0.000581363914450254
0.000325451327081814
0.000772317550937867
0.000578787729506227
0.00030566596344565
0.000401082400806527
0.000580049143741742
0.000328088847490086
0.000763494319513505
0.000572284428130063
0.000303609925304924
0.000953090152299451
0.000764135583848269
0.000554871458221446
0.000265551783847524
0.000293030555983531
0.000559839874731843
0.000313345480996696
0.000750172053388625
0.000561957926547025
0.000296142891640517
0.000942721597790365
0.000755078421753462
0.000548063920092235
0.000261812820296859
0.0011381375509743
0.000946308930226523
0.000742959087371344
0.000510254663168028
0.000214296317444762
0.000258559543476001
0.000521459656339304
0.000284004825698653
0.00072923317355802
0.000542149733727048
0.00028327308479945
0.000927322174196482
0.000740626471126488
0.000535256285646075
0.000253864716214307
0.00112684958383407
0.000935799145329542
0.000733507325285498
0.000502294640275937
0.000209599083757354
0.00132239526378194
0.00113269659721819
0.000927945036363416
0.000703003439605528
0.000436818696408843
0.000135708332686438
0.000223371032927679
0.000481078732108275
0.000254470386378562
0.000699714533756279
0.000511915496202543
0.000263114100967567
0.000906337397936953
0.00071946497778819
0.000516015545093852
0.000242051068192658
0.00111103001159444
0.000920119793297727
0.000718367431633502
0.000489060072968057
0.000202217688805621
0.00131065759090267
0.0011213400074675
0.000917081079565847
0.000692715911584255
0.000427976297990374
0.000131261209540919
0.0015005195664593
0.00131762095884977
0.00111665868374538
0.000893407088966141
0.00063430522555277
0.000302185161208437
3.68393469987056e-05
0.000158968350125123
0.000422777855094662
0.000215836814049949
0.000661315777284699
0.000471841983326087
0.000235259630678879
0.000879290710273376
0.00069039993459331
0.000488083927054107
0.00022604921680121
0.00109056591315765
0.000898830608173661
0.000696981934614801
0.000470309401529177
0.00019210641339763
0.00129495414747482
0.00110541365589201
0.000901016032708128
0.000677130268426951
0.000415023562028557
0.000125451033072031
0.00148868273436455
0.00130589626005957
0.00110511487185448
0.000881969592764492
0.000623230703571163
0.000293811064062072
3.45692938439219e-05
0.00166967588249157
0.00149581685005744
0.00130291392183505
0.00108722483397169
0.000835720363642247
0.000501753496055069
9.45240941537242e-05
8.32510329261348e-05
0.000325538577813128
0.000172447485645675
0.000605141146996441
0.000412429365493365
0.000191016955714338
0.000845473737924077
0.000651149822292928
0.000447508823820127
0.000202538563806278
0.00106541619358028
0.000871280210451605
0.000667737061206388
0.000444494035513352
0.000178691117137209
0.00127533922344628
0.00108475750095715
0.000879266833073204
0.000655632425748921
0.000397479854852199
0.000117698992951844
0.00147328952241291
0.00129019217802505
0.00108899484792359
0.00086550505684831
0.0006075524716915
0.000282443201389274
3.18687433687572e-05
0.00165791717253035
0.00148404471770977
0.00129117219999886
0.00107540822846165
0.000823762743406695
0.000490785742792139
8.95247539045774e-05
0.00182898964574408
0.00166475377738922
0.00148126727716961
0.001276712184125
0.00104294812925431
0.000735198721553912
0.000165397575375305
1.62468577749907e-05
0.000190792899773248
0.000137658252658642
0.000521983941719879
0.000329853161484139
0.000288635813738551
0.000802823496384164
0.000594593566686714
0.000378063527462738
0.000343868237699763
0.000160740327613747
0.000107685155281879
0.00103559466020426
0.00083634869103957
0.000626750292750116
0.000406664861966201
0.000159661934333082
0.00125205102652996
0.0010591818684165
0.000850834342273002
0.000626627198244186
0.000373965961450577
0.000107484766691693
0.00145447770987821
0.0012705359310072
0.00106801140323056
0.000843360612766855
0.000586504257161469
0.000267622283072558
2.87502411338834e-05
0.00164281029904616
0.00146870880771652
0.00127546184471639
0.00105909431968234
0.000807135655080408
0.000475875001047784
8.31708959091434e-05
0.0018173711188396
0.00165308267002628
0.00146958500989421
0.00126495142047668
0.00103095560728456
0.000723272536974082
0.000158603305021474
0.00197853006483828
0.00182376516302018
0.00164955420262332
0.00145582343683204
0.00123959075766228
0.000986735195438395
0.000640325235345567
0.000202938007766887
2.51440717388368e-05
4.35837399620972e-05
0.000304937011607539
0.000274040477876583
0.000256977867283136
0.000742615763500514
0.00051191328237414
0.00035696801307445
0.00100053732634594
0.000792396917386794
0.000562476905703113
0.000342625872550865
0.000254876852588252
0.0002969049157675
9.32806213837497e-05
0.000126335300362717
0.00122566110143155
0.00102852450675927
0.000813835946441662
0.000585955409347634
0.000340934030336636
9.39136007782101e-05
0.00143255983151619
0.00124709091548389
0.00104169729947736
0.000814235180351406
0.00055861763596559
0.000248145485711021
2.52129057405357e-05
0.00162450339760894
0.00144994897186868
0.00125573805114897
0.00103785046039158
0.000785071277173821
0.000456558120511633
7.61795299114035e-05
0.00180243657134929
0.00163805130276203
0.00145435967529596
0.00124928113725025
0.00101468694182642
0.000707002985996236
0.000148707597432643
0.00196706119517981
0.00181223971962393
0.0016380203487916
0.00144427314024733
0.00122792671210796
0.000974970280714737
0.000629205121089625
0.000195617191923517
0.00211861974286918
0.00197299863359417
0.00180758241344187
0.00162318752067311
0.00141996275723536
0.00119378450451232
0.000927469124336148
0.000604720841204136
0.000226905814451233
1.95759392873131e-05
6.79218338324983e-05
8.66182243407247e-05
0.000355678996894452
0.000669614547252163
0.000732676150044151
0.000958136498748569
0.000450973923144604
0.00119723310181819
0.000992244098599254
0.000765189331615035
0.000524082822330822
0.000224311859886253
0.000287280760279059
7.2041388617321e-05
7.17354119999339e-05
0.00140814921087373
0.00122037362812455
0.00100953618082397
0.000775392250436131
0.000520567851541521
0.000222264038352808
2.13167878751975e-05
0.00160323312050625
0.00142806088569219
0.00123203411338367
0.00101090244014706
0.000756230202398094
0.000431539956160594
6.72674944708952e-05
0.00178430543168652
0.00161982388811626
0.0014357108001526
0.001229586987138
0.000993660202496748
0.000685829212477604
0.000139008763981139
0.00195218671983941
0.00179737958225298
0.00162314302067431
0.00142923295939178
0.00121250506747793
0.000959278716986647
0.000613933220365964
0.000184705710321599
0.00210729488352759
0.00196162187419399
0.00179620734009716
0.00161185084829983
0.00140865342140709
0.00118248487447006
0.000916417860796801
0.000594950311345643
0.000219419424818754
0.00224955852623832
0.00211279622874744
0.00195578026135814
0.00177959609384765
0.00158597545242864
0.00137493195941723
0.00114108218449988
0.000872244740062563
0.000569601432955777
0.000224013771215348
1.67222421386042e-05
5.33855889150729e-05
0.000135783394820211
9.4933116865524e-05
0.000453383419346054
0.000560012394882044
0.00062669764247419
0.000662294797068615
0.00092889853531723
0.000673431361277177
0.00069284921477801
0.000949712567623005
0.00116920983296295
0.000408638792281047
0.00138214654112002
0.001191607202793
0.000970943281523032
0.000722980749810213
0.00046454091859753
0.000184093444150468
0.000178196902738699
3.23956792137487e-05
1.66837632775419e-05
0.00157936135867972
0.00140366865087617
0.00120481866335606
0.00097710916705344
0.00071743339920046
0.000399341305531161
5.79372542276653e-05
0.00176309615660373
0.00159864144879072
0.0014139044311902
0.00120578210510218
0.000967049413836433
0.000658961934457312
0.000125205018258327
0.00193399221433769
0.00177932264259392
0.00160508705421357
0.00141080223358555
0.00119320876503995
0.000939322430597399
0.000595080212659517
0.000174836014601091
0.0020924109378286
0.00194681716845912
0.00178150528081731
0.0015972123411044
0.0013939551892242
0.00116768490427209
0.000901879470246808
0.000582290985569564
0.000209506493849151
0.0022383766334202
0.00210156325345286
0.0019445535351913
0.00176843659188867
0.00157493325878538
0.00136404033928671
0.00113044796804943
0.000862272304489035
0.000561197315267306
0.000217433983832142
0.00237156861549067
0.00224346030291245
0.00209459299614565
0.00192603118954864
0.00174012858216412
0.00153887745134612
0.00132138826150975
0.00108217381843533
0.000819026386128842
0.000527684870238629
0.00020550882990361
4.68515161826552e-06
4.98090358532629e-05
0.000106485988432461
0.000156499938458469
0.000135744880370864
0.000565273519171236
0.000638998287495066
0.000222569858128205
0.000591503381508003
0.00089168923810039
0.000616805076406068
0.000729874958265792
0.000634825885382
0.00114242411627403
0.00093235971004213
0.000646788279341899
0.000925191795042015
0.000637790384793222
0.00116435431371841
0.00135510736538546
0.00036354136409762
0.00155321679901853
0.00137779646955121
0.00117571502621684
0.000936731919718486
0.000659834203957426
0.00035586374426739
9.14479215736704e-05
5.05363368652249e-05
7.66969377616743e-06
0.00173893499795456
0.00157487409743558
0.00138959907094151
0.00117828168623188
0.000933261730756807
0.000625161267594321
0.000111846913248123
0.00191249753880044
0.00175819394949225
0.00158409194647248
0.00138923209826237
0.00116998887272991
0.000914754961743673
0.000572363565479012
0.000159925880296479
0.00207401909914571
0.00192868678872027
0.00176361813500646
0.0015794307466456
0.00137597158573507
0.00114934628880236
0.000883791624478735
0.000566763906217392
0.000199587945754961
0.00222345112398803
0.00208674414077835
0.00192989985049602
0.00175397967932533
0.00156065534501915
0.00134991821010591
0.00111663942980219
0.0008494394831417
0.000550739588210036
0.000209373526348674
0.00236053164349091
0.00223237111269636
0.00208350677434224
0.00191501943928027
0.00172927298493983
0.00152825673248208
0.00131109892215255
0.00107241227805516
0.000810224082691232
0.000520548079380759
0.000200181681322246
0.00248480038237031
0.00236521280419621
0.00222434815143558
0.00206314979508615
0.00188414349484043
0.00169018752243239
0.00148255753159523
0.00125962586717931
0.00101919563946162
0.000762143351293681
0.000480533067565389
0.000179700513477822
1.59454767825847e-05
0.000114596226108197
0.000140559474042493
0.000161018942793496
0.000461671320602101
0.000191152846516069
0.00062073284330392
0.00023360630535582
0.000226569909887548
0.000566246509321561
0.000851595028481845
0.000574057099110354
0.00110807121841884
0.000892540264268183
0.000686093023205217
0.000590556422933136
0.00049241276182065
0.000617004221053684
0.00132574134189447
0.00113915091323414
0.000912621716432199
0.000591808585211812
0.000895577239030092
0.000606385160170333
0.00114917313421648
0.000598735758656107
0.000707297189699728
0.00135110731523018
0.00152467906508761
0.000309379016945917
0.0017118425787342
0.00154886609825639
0.00136397454276816
0.0011494227501031
0.000889664383291096
0.000588191493054465
0.000105576722666776
0.000311867926319083
2.52316904458742e-05
0.000211009254771267
0.0018876851292298
0.00173411887688196
0.00156054104500894
0.00136524359904274
0.00114340373768526
0.000885497763769183
0.000544865968084373
0.000146006362148231
0.00205207659637512
0.00190725664699307
0.0017426709274767
0.00155874437107366
0.0013549808212965
0.00112763915558954
0.000862162407075411
0.000549417084010603
0.000186700701089601
0.00220480872353979
0.00206841071671677
0.00191192454927183
0.00173636192182323
0.0015432975311689
0.00133269214944036
0.00109971087349271
0.000833793556455743
0.000538260783795086
0.000200765909718533
0.00234556068628591
0.00221750795792092
0.00206883161582964
0.00190060343384811
0.00171516627820321
0.00151449647912493
0.00129778169560896
0.00105984529743519
0.00079910338441999
0.000511894764198746
0.000193889640519648
0.00247392883050018
0.00235427196917537
0.00221340230733711
0.00205227213642375
0.00187342877016479
0.00167973741319131
0.00147248284053049
0.00125007021873831
0.00101038658501471
0.00075445342085784
0.000474473659275897
0.000175525952422265
0.00258939766910658
0.00247821466219275
0.00234527266694014
0.00219133956503297
0.00201893789269397
0.00183126692855249
0.00163061520619081
0.00141746423020315
0.00119106843883087
0.000951920495739459
0.000700810846989156
0.000430036516131005
0.000151489229165049
3.50860425772086e-05
0.000163032151642838
0.000171682352805667
0.000440661337651014
0.00016393187657775
0.000435569816650081
0.000480495801181842
0.000577441906935353
0.000224202253899165
0.000227951995551202
0.000538861431192723
0.00081937935712793
0.000557670912525651
0.0010681484560433
0.000845806235404756
0.000545445970592527
0.00129101811172445
0.00110450842319465
0.000860766292800969
0.000585614153209008
0.00149282360675382
0.00132205186141175
0.00112499156604834
0.000886783359392351
0.000581644695252802
0.00085552479112303
0.000536511745840888
0.00112401622169854
0.000685996671403909
0.000589867739854009
0.000571725173028111
0.00133774025978426
0.00152047960640564
0.00168156096800553
0.000400926704615597
0.000209132840680565
0.00185944202838275
0.00170711340859883
0.00153479206900021
0.00134013256960322
0.00111650092693687
0.000855079834593614
0.000582187658667511
0.000508249027795646
0.000133698667918411
5.43013883304705e-05
0.000399438187596632
0.000228239805489536
0.00202648634452168
0.00188250905012037
0.00171878787072326
0.00153554432235694
0.00133178102186071
0.00110358662289812
0.00083711946934491
0.000529625772652784
0.000173971485842322
0.00218236696768462
0.00204652503039395
0.00189065593663138
0.00171570440082795
0.0015230962221972
0.00131268250654366
0.00107994011755312
0.000815639336489815
0.000524346488198438
0.000190860684264903
0.002326665262764
0.00219892166617468
0.00205064369225719
0.0018828826654244
0.00169793799604303
0.00149774953078016
0.00128157846965427
0.00104458337371856
0.000785763996464332
0.000501797492234991
0.000187035833165326
0.00245892373402914
0.00233936307676093
0.00219867889636297
0.0020378269185572
0.0018593485868449
0.00166610254511671
0.0014593957216577
0.00123771683782384
0.000999127445140955
0.000744868985666169
0.000467259722312173
0.000170678012721056
0.00257869789166394
0.00246743431014387
0.00233447208533588
0.00218059475423452
0.00200834605106337
0.00182093784841619
0.00162066687490532
0.00140803054624434
0.00118231188872511
0.000944054890619085
0.000694116082195255
0.000424838234403564
0.000148244631782011
0.00268551823412742
0.00258259997104328
0.00245752798329531
0.00231084025407999
0.00214497556509237
0.00196325398885211
0.00176841119712336
0.00156196991836582
0.00134447257465056
0.00111658433597623
0.000879984210687879
0.000635569957114843
0.000377309397936197
0.000123533247500331
8.09347624879296e-05
0.000137048362580761
0.000173430415483693
0.000173063092552003
0.000418845251618315
0.000194285116340136
0.000535627329785991
0.000202924580467509
0.000216070711937559
0.000510687018809316
0.000785449197807002
0.000535093762379867
0.00102785894783632
0.00081368061253386
0.000543835835289747
0.0012513037233521
0.00106369908634056
0.000825752011092091
0.000537828134008574
0.00145644900253578
0.00128731759076527
0.00108970377488986
0.000838549544252213
0.00164751201668075
0.00148872538383842
0.0013090328326306
0.00110033835391086
0.000836796529182476
0.000546615646085503
0.000642923780717229
0.000460136755511673
0.000848012638664865
0.00109343521678475
0.000525538454749745
0.000535124134990078
0.00131445660073354
0.00057076898896513
0.0015066699543516
0.00167690918820003
0.00182750003980994
0.000360981085230898
0.00199707769615303
0.00185432828860884
0.00169197864732285
0.0015101785887547
0.00130763637499318
0.00108082427735559
0.00080978904333899
0.000544993421486125
0.000457476647689914
0.000507747125245016
0.0004816790402674
0.000161027124880919
0.000107125050818828
0.000362972346709142
0.00215598639766315
0.00202099208912741
0.00186607383218366
0.00169212513979486
0.00150043112225544
0.00129070995902905
0.00105826231190448
0.000795506446568973
0.000510338948359398
0.00018036087769094
0.002303735900975
0.00217653616730906
0.00202890987472851
0.00186188359716483
0.00167770010118908
0.00147823798466763
0.00126278983506196
0.00102690904735664
0.000770526168282386
0.000490448789697174
0.000179572366710415
0.0024397993944786
0.00232052299233871
0.00218023443535676
0.00201988473106093
0.00184199498321989
0.00164940368889113
0.00144343877815309
0.00122270721843324
0.000985548245888767
0.000733509438997095
0.000458945907113736
0.000165364167199221
0.00256369452709442
0.00245249306240862
0.00231970048210423
0.0021660956465675
0.00199422540241762
0.00180729934975705
0.00160762458540571
0.00139573828270625
0.00117099826859598
0.000934055736106055
0.000685857528787464
0.000418751245716401
0.000144509763309602
0.0026749916393552
0.00257199402032466
0.00244688427222631
0.00230023283157934
0.00213450478332418
0.00195302919220642
0.00175855025851253
0.00155260140069371
0.00133573876301681
0.00110864110871496
0.000873004317250885
0.000629730394611586
0.000372803898122878
0.000121001455996342
0.00277334137388883
0.00267852851866197
0.00256124344789624
0.00242181021790853
0.0022625139359682
0.00208668099050263
0.00189724443602492
0.00169620372345645
0.00148486121266085
0.00126439978554587
0.00103652625495957
0.00080345914494849
0.000566794742685925
0.00032307220935487
9.70080105243697e-05
0.000143542956897224
0.000377243606104643
0.000155650805296838
0.000370578285774975
0.000179398677147353
0.00018370877111995
0.000544094317404926
0.00019985456850329
0.000186638734341291
0.000201034508291075
0.000480810688074143
0.000749402542458046
0.000508765442651595
0.000987134869667107
0.000781517004819971
0.000527356304435255
0.00120845962671608
0.0010235620339114
0.000800857628989778
0.000531429559741714
0.00141543675638842
0.00124746530959426
0.00104981574267142
0.000809257397542391
0.000527656885275209
0.00160908017961821
0.00145238412672476
0.00127439973975075
0.00106599479416529
0.00080698602536115
0.00179145352360085
0.00164292016076513
0.00147511449382623
0.00128605063377764
0.00106922609288828
0.000828948349428374
0.000533379327307675
0.000445723238394351
0.000795489054578894
0.00106149090323772
0.00128271748223451
0.000522290684810904
0.000620773791246861
0.000508993476823381
0.0014824079669518
0.00166196231658649
0.00182244471161285
0.00196359063312314
0.00212546922569306
0.00199164142221529
0.00183806214422259
0.00166562307261836
0.001475596897638
0.00126784593611413
0.00103720968069338
0.000775208464058295
0.000444397575784063
0.000496066908238427
0.000494386799796746
0.000481061596655038
0.000170243676470712
0.000145059074292608
0.00227660867441246
0.0021502133130414
0.0020035358582168
0.00183758344034326
0.00165455607639615
0.00145629562472177
0.00124207452159307
0.00100752240207738
0.000754297660550054
0.000479476086412176
0.000171321500845763
0.00241642644941316
0.00229765100685799
0.00215799921746834
0.00199841382849311
0.00182138928672705
0.00162973680713963
0.00142479605175865
0.00120527663411057
0.000969891192734322
0.000720616049100074
0.000449695249814119
0.000159684505907661
0.00254437856788209
0.00243342454219859
0.00230100143205874
0.0021478939792189
0.00197664014879931
0.00179043609605103
0.00159159746037995
0.00138071404439903
0.00115725689691017
0.00092204850366007
0.000676140344001915
0.000411763279299364
0.000140396483309089
0.00266001108522338
0.00255705054592028
0.00243207822206637
0.00228568120760882
0.00212032194214225
0.00193933095500935
0.00174545711507135
0.0015402554351791
0.00132432072845836
0.00109837829298335
0.000864166431574223
0.000622590006170416
0.000367643471099279
0.000118113810134451
0.00276299153572977
0.00266809664059718
0.00255077186370953
0.00241135330702775
0.00225216776305525
0.00207656053029826
0.00188746160340948
0.00168688047572894
0.00147612857004763
0.00125639362480691
0.00102937784500697
0.000797288493340861
0.000561689657366019
0.000319111478649078
9.5021752841096e-05
0.00285307632705742
0.00276617857886234
0.00265657559633034
0.00252437289264335
0.00237170422338235
0.00220182414183154
0.00201771215386474
0.00182159071052134
0.00161513720080799
0.00139991884403948
0.00117779392606212
0.000951077706235111
0.000722474182750076
0.00049471655407207
0.000267073107899872
7.24656107931566e-05
0.000156110476437366
0.000150429714949921
0.000511560746522638
0.000168307096155505
0.000182947226206002
0.000190826552509603
0.000194861551376755
0.000167596841668517
0.000185384868465047
0.000450463418267498
0.000711238611093294
0.000480109450698846
0.000944436943879739
0.000746651460746083
0.000503938198073523
0.00116316487921575
0.000983528344958209
0.000771988645614463
0.000516303477409127
0.00137033980939671
0.00120468081590361
0.00101158536910949
0.000784754192603201
0.000517117988762557
0.00156602976316218
0.00141139127889834
0.0012348187529863
0.00102861052422838
0.000787821942029321
0.000507909609949408
0.00175089477796216
0.00160454169048024
0.00143893304267445
0.00125181559049021
0.00103672071521122
0.000789180151282746
0.00192569906416747
0.00178645613999766
0.00162815132800017
0.0014511399473081
0.00125455766222678
0.00103721692167814
0.000778041419321196
0.00075914535653273
0.00101771178655255
0.00124380311910785
0.0014482743847629
0.000485924274798352
0.00163590891966542
0.00180635331467917
0.00195821466052378
0.00209056154309759
0.00224507200409469
0.00211975777300804
0.00197435415280352
0.00180986514635268
0.001628488303402
0.00143212990865532
0.00122013591970591
0.000987637476749998
0.000737709734139804
0.000468428223836323
0.0004846724283225
0.000489181815964447
0.000163230535294985
0.000161336886689098
0.00238862370986063
0.00227058540798118
0.0021318392996437
0.00197332195204926
0.00179750412051275
0.00160718076832005
0.00140371557384874
0.00118585430331212
0.000952669265503387
0.000706841341305746
0.00043993246850151
0.000153450902400139
0.0025206181486946
0.00241011016610444
0.00227828191078305
0.00212592327898556
0.00195555770233232
0.00177036181615857
0.00157265880376229
0.00136309138924267
0.00114125436453463
0.000908213355813952
0.000665123257442721
0.000403973839998878
0.000135982555441049
0.00264055884873456
0.00253779093313591
0.0024131506553155
0.00226722445046937
0.00210247368697285
0.00192221888628467
0.00172920925140387
0.00152502830193757
0.00131032724528245
0.00108590813673936
0.000853577981490726
0.000614219741835442
0.000361751928422998
0.000114927688403845
0.00274806240794846
0.0026531773924478
0.00253596160028681
0.00239676270592829
0.00223792572741153
0.00206278699212737
0.00187428014816966
0.00167442608417857
0.00146455888094364
0.00124589068832687
0.0010201373896937
0.000789500876024621
0.000555513157965012
0.000314718219792281
9.27943083811437e-05
0.00284290978471764
0.0027559240959315
0.00264627572484374
0.00251408104690471
0.00236149993416009
0.00219181095086191
0.00200801190456716
0.00181231430955758
0.00160640594075839
0.00139185751304838
0.00117052011135588
0.000944689698740275
0.000717038072348884
0.000490242834181598
0.000263560094634471
7.09123769256771e-05
0.00292494459258553
0.00284575742614919
0.00274369811176482
0.00261867700458051
0.00247266438733187
0.00230882608098371
0.00213011409498503
0.00193879652752199
0.0017367369729799
0.00152570492617833
0.00130767073900562
0.00108497930028327
0.000860341512257775
0.000637058837930573
0.000419227554215255
0.00020932762934065
5.00546843246279e-05
0.00016077288138241
0.00016104967968849
0.000159783043955978
0.000172628814186345
0.000179287226389839
0.000187927592246768
0.000182984805043068
0.000151568109398524
0.000168422457699499
0.000418768101705553
0.000671003686509963
0.00045005906394932
0.000899149877811402
0.000709204785594327
0.000476935492854599
0.00111507099036661
0.000941457297944878
0.000739056846842855
0.000494776907133575
0.00132152405287023
0.00115965798923215
0.000973080361938269
0.00075744065956438
0.000501438790608658
0.00151843654989844
0.00136638040976559
0.00119264782394455
0.000992731113745868
0.000764589730825483
0.000498451286896771
0.00170556884612657
0.00156156029613065
0.00139816771720856
0.00121309621523082
0.00100206688122813
0.000764054390322966
0.000487337591906318
0.00188307859439164
0.00174596456927741
0.00158997205549037
0.00141531242211712
0.00122097009171538
0.00100474652728463
0.000754032585623345
0.00205097301705081
0.00192038987176971
0.00177055677096882
0.00160241543113062
0.00141740606067639
0.0012160300599691
0.000994060386769625
0.00074258622909406
0.000721959277596343
0.000967701382942768
0.0011965722730101
0.00140537145957153
0.00159920931852934
0.000481067238139033
0.00177847025640121
0.0019411134374205
0.00208491793846543
0.00220887338748097
0.00235616895374677
0.00223911596577531
0.00210156321939633
0.0019444467606461
0.00177022357152764
0.00158169809928736
0.00138031035634792
0.00116481933139327
0.000934386838778726
0.000692482581959301
0.000430474909488027
0.000457801771409466
0.000474837941973437
0.000146797017227398
0.000156144992781494
0.00249222038589225
0.00238237183683991
0.00225138536803024
0.002100054677578
0.00193088790166089
0.00174704251821537
0.00155085603314305
0.00134302581340194
0.00112323978146889
0.000892852196918621
0.000653091819658795
0.000395554659922822
0.00013124233931368
0.00261648013546842
0.00251409150711604
0.00238999114502015
0.00224477393972092
0.00208089510535547
0.00190165855145359
0.00170981104040346
0.00150696870278538
0.00129384611941695
0.00107134149980333
0.000841354039281517
0.000604708680101263
0.000355173825682332
0.00011148396575351
0.00272851855411875
0.00263378105961849
0.00251684220154719
0.00237807711045462
0.00221982102909567
0.00204540426271832
0.00185775632488328
0.00165891118778407
0.00145023613954925
0.00123298338137128
0.00100889898643898
0.000780180636275061
0.000548299173616344
0.00030973393312271
9.03430888197129e-05
0.00282807252797034
0.00274105588301018
0.00263148764640826
0.00249948317000351
0.00234721147433012
0.00217796814751667
0.00199473617549135
0.00179973619937931
0.00159466871044642
0.00138111936996674
0.00116094421611034
0.000936426004192537
0.000710204959669662
0.000484913192077777
0.000259842910491763
6.92207921183119e-05
0.00291499313153119
0.00283568702794578
0.0027335733560029
0.00260855032451824
0.00246261318932475
0.00229894373355486
0.00212050097969175
0.00192957606533395
0.00172801960943162
0.00151760501214467
0.0013002988792379
0.00107842835582616
0.000854674344432616
0.000632292399827865
0.000415309594152454
0.000206211043357835
4.88702810528053e-05
0.00298905450790697
0.00291748343456826
0.00282281317339454
0.00270488797761925
0.00256553152371083
0.00240780191570914
0.00223458856848202
0.00204814500402102
0.00185035765759566
0.0016430917645015
0.00142836351969169
0.00120848343000912
0.000986109871894062
0.000764294930802623
0.000547117120500526
0.000340390805301163
0.000150556348354084
3.02023853397657e-05
0.000151448702179071
0.000157403397804449
0.000159071897517045
0.000162640027732267
0.000168695390730343
0.000169989389442326
0.000178053717629753
0.000168137482022206
0.00013482652315247
0.000152095106874875
0.00038571102835581
0.000628541966746354
0.000418551131019487
0.00085103049220918
0.000669389899357363
0.000447724347709594
0.00106376325095435
0.00089664316324868
0.000702861932942229
0.000469307135149353
0.00126897159478111
0.00111190274437862
0.000932190548700159
0.000726111024165458
0.000480735201015261
0.00146640689390599
0.00131773782698369
0.00114838950209748
0.000955833798295347
0.000737945149503343
0.000482930905116777
0.0016553758502346
0.00151407444608342
0.00135353487571183
0.00117208064097326
0.000967933329383349
0.000740175693045808
0.000477930475149344
0.00183547511746131
0.00170072575165986
0.00154725266931309
0.00137509750638251
0.00118344654646323
0.000970955558961571
0.00073414694303671
0.000470605990856615
0.00200641453605752
0.00187784889898907
0.00173029588660546
0.00156462987000462
0.00138216857706409
0.00118325801585402
0.000964785938011943
0.000722845708060866
0.00216773719397811
0.00204540671283336
0.0019035027982529
0.00174303191334707
0.00156620330803029
0.00137509078424779
0.00116954788353153
0.000945324993411561
0.000705328899235788
0.000677672734116636
0.000915164301749799
0.00114191794237646
0.00135425057978062
0.00155302108096808
0.00173930577927527
0.000462369690707849
0.00191154815260503
0.00206692612923631
0.00220299266155959
0.00231880875143681
0.00245895263309232
0.0023499892731308
0.00222010655572037
0.00207010392454214
0.00190247598882033
0.00172036503042248
0.00152613593913018
0.00132056517622072
0.00110339713584419
0.000876213890873113
0.000640291249430659
0.000386821888790552
0.0004206213627105
0.00044673148633511
0.000126133318664957
0.000140658823549823
0.00258756965784023
0.00248576022141574
0.00236242741997591
0.00221817921269011
0.00205546259136897
0.00187756179733276
0.00168722107264257
0.00148609439687025
0.00127496063975126
0.00105481254382399
0.000827647958569348
0.000594185176762869
0.000347991276339583
0.000107784736011776
0.00270418831251888
0.00260976148964142
0.00249329898083401
0.00235519037574338
0.00219776818622875
0.00202434902799679