/*--------------------------------*- C++ -*----------------------------------*\
  =========                 |
  \\      /  F ield         | OpenFOAM: The Open Source CFD Toolbox
   \\    /   O peration     | Website:  https://openfoam.org
    \\  /    A nd           | Version:  12
     \\/     M anipulation  |
\*---------------------------------------------------------------------------*/
/*   Windows 32 and 64 bit porting by blueCAPE: http://www.bluecape.com.pt   *\
|  Based on Windows porting (2.0.x v4) by Symscape: http://www.symscape.com   |
\*---------------------------------------------------------------------------*/
FoamFile
{
    format      ascii;
    class       volScalarField;
    location    "200";
    object      nut;
}
// * * * * * * * * * * * * * * * * * * * * * * * * * * * * * * * * * * * * * //

dimensions      [0 2 -1 0 0 0 0];

internalField   nonuniform List<scalar> 
10063
(
0.000609434817619372
0.000600175066953642
0.000595122872499488
0.000586706694274979
0.00117238698563887
0.000593090970760583
0.000607732274638467
0.00113620831143816
0.000582466310381992
0.00179050517463423
0.00115245211049876
0.00056418395465612
0.000592137770126632
0.0010710180913353
0.000561452743587249
0.00174175237225693
0.00112001485129886
0.000551245957354403
0.00245204688133598
0.00175916317909256
0.00110448467937202
0.000509268034928252
0.000495404379848709
0.00101944768498519
0.000523709123982333
0.00167443671170424
0.00107132454994327
0.000529708303407978
0.00239729860631294
0.00171244508348252
0.00107224853907822
0.000495126607390596
0.00312260267293785
0.00241074857584046
0.00167474474502042
0.000992964361234477
0.000399450739655201
0.000423654932379398
0.000958676299114421
0.000477581830864136
0.00159675624702224
0.00101130900043923
0.000490685358776423
0.00232512607572621
0.00165121240586175
0.00103036288822047
0.000476985132155179
0.00306800857418561
0.00235780383587424
0.00163108623670965
0.000965935702415791
0.000389100646318911
0.00379047417300594
0.00307836337131626
0.00229867321363639
0.00148771645658806
0.000750644695245715
0.000212298351373745
0.000361296059798763
0.000847739885112851
0.000423136358378769
0.00149439926094032
0.000939163987484529
0.000457185988837504
0.00223018694612564
0.0015729307574913
0.000972293545615738
0.000450655485180484
0.00299271704715581
0.00228832614720344
0.00157580654346567
0.000931943919619613
0.000377522817647033
0.00373869802394663
0.00302546271298512
0.00224977270638987
0.00145260208290333
0.000733900811110384
0.000206143006964868
0.00444740255129594
0.00374914491292447
0.00296144083784874
0.00206836476989708
0.00112410843854047
0.000364665362073228
1.5149813135464e-05
0.000254057801907378
0.000686134656915218
0.000351663917327754
0.00133299155342901
0.00083331713665712
0.000410275118689109
0.00209822681563034
0.00146746055988394
0.00090368313313877
0.000419179171964857
0.00288958898164294
0.00219483207034507
0.00150185092850967
0.000886157896058633
0.000361884008544211
0.00366441490367427
0.00295223045565516
0.0021854870522732
0.00140702161439229
0.000711256556458085
0.000198689276414733
0.00439939951267575
0.00369879040041875
0.00291221985791572
0.00202758996967897
0.0011024414339837
0.000355495831959903
1.42189353704904e-05
0.00508244112669864
0.00441123776255803
0.00364286904062926
0.00273580293069923
0.00165803704757149
0.000557064954824217
3.82984436838775e-05
0.000109226258035513
0.000426394817116236
0.00025323465577939
0.00106544748965542
0.000670096183025708
0.000325528710142095
0.00190314674562356
0.00130683467512566
0.000801108724131671
0.000373818512173359
0.00274616087085439
0.00206318518112357
0.00140025600864675
0.00082552174584722
0.000340733334352474
0.00356215325410765
0.00285110769190802
0.00209726237261073
0.00134535745617817
0.000681055890031621
0.00018732451604374
0.00432944092695569
0.00362633747399271
0.00284365984760878
0.00197283913064056
0.00107090586153276
0.000342929478184268
1.31543439063538e-05
0.00503853449143639
0.00436435687505748
0.00359552445055038
0.00269292791924932
0.00162904275182889
0.000545752789621036
3.62296221992011e-05
0.00568535732341082
0.00505147029563138
0.00431998972577796
0.00344804880727208
0.00237237740838361
0.00103478190390046
4.96950910304103e-05
5.85532648886039e-06
0.000169189422980722
0.000199195413810474
0.000634911584477468
0.000415259307451858
0.000368282354010181
0.00160832053467571
0.00104215409735598
0.000615592021780598
0.000453692154957928
0.000291300544335428
0.000164133776905358
0.00254409873383329
0.00186781146481699
0.0012415455934585
0.000731668270083043
0.00030558129200614
0.0034235616475583
0.00270924375934041
0.00197066256978035
0.00125762910226876
0.000639012209632451
0.000171450791202354
0.00423424135954664
0.00352622816096226
0.00274791501973684
0.00189663417102848
0.0010283533781281
0.000326215246479229
1.18782422171975e-05
0.0049745573752364
0.00429595334373961
0.00352719600591827
0.00263271435534501
0.00158799114787609
0.000528669708781024
3.35733980647915e-05
0.00564553094761669
0.00500842367523303
0.00427549127954345
0.00340555860626658
0.0023378102508724
0.00101735285523521
4.76498326598975e-05
0.00624881728705002
0.00565867742409449
0.00497355337889979
0.0041583952279394
0.00315834148451634
0.00189845801009102
0.00050401876374306
4.11285949056145e-05
1.2260240690965e-05
1.45608170919623e-05
0.000168916379885726
0.000293312747637347
0.000310734862621134
0.00115266253873284
0.00061472871782679
0.000434487239042487
0.00225993016627239
0.00157120103581202
0.000959154286454892
0.000559763420161831
0.000305056669740458
0.000354030479270169
0.000142605328721154
0.000231132456788126
0.00323924057629261
0.00250780964678638
0.00177789519518187
0.00111697662435305
0.000571048394906432
0.000148575207590006
0.00410947789668178
0.00338992796271041
0.00261160947951274
0.00178508309496094
0.000967626113000517
0.00030348490373292
1.04441108398054e-05
0.00488892380483663
0.00420275978941222
0.00343228200203029
0.00254785371169839
0.0015308413661545
0.00050753608939454
3.07206324591219e-05
0.00558780517451868
0.00494568116751236
0.00421056555304853
0.00334425938518432
0.00228920705156344
0.000990694329273209
4.43003871050086e-05
0.00621279946561333
0.00561949509171878
0.00493235093960478
0.00411768064405027
0.00312190820227779
0.00187125873826584
0.000494592594928892
3.95602604131045e-05
0.00676841390244535
0.00622523189270812
0.00559071784557447
0.0048378289434642
0.00392718730390571
0.00280574844859923
0.00145049929013163
0.000520856894485418
7.01193676958517e-05
8.27955539722072e-06
3.24457153516236e-05
1.85227603976996e-05
0.000108628399966124
0.00061660903328784
0.00111998872609697
0.00187185882138465
0.000480751436627228
0.00300416708629377
0.00222247291817725
0.00147222346675416
0.000863662086455708
0.000264818680970456
0.000438392045544901
0.000103608674135609
0.000108976276367071
0.00395214927422333
0.00320785061838807
0.0024143517553362
0.00160933406906671
0.000871025034936309
0.000270216313183143
8.71997457209023e-06
0.00477995015384263
0.00408047212952911
0.00330208425981134
0.00242521617161506
0.00144744397891218
0.000478814286876553
2.70332004152329e-05
0.00551163921300694
0.00486169839316955
0.00412203477779159
0.00325890883991771
0.0022210626964866
0.000955092873956849
4.15154027406244e-05
0.00616078002819367
0.00556270436434139
0.00487237971097866
0.00405852233468499
0.00307010631527498
0.0018344599577774
0.000477752857053463
3.69099242634192e-05
0.00673577506596157
0.00618969337167723
0.00555293575902871
0.00479956718000059
0.00389123132471733
0.00277477138770892
0.00142984465182348
0.00051195880078896
6.75868837207542e-05
0.00724217015113821
0.00674677862877673
0.00616393939535572
0.00547267673347795
0.00464603434578505
0.00365222440631354
0.00247007876812111
0.00133275077190117
0.000522405453560063
7.46587628310403e-05
6.1985179646071e-06
2.16179286752645e-05
4.52634254934033e-05
9.06352547909773e-06
0.000185146792526028
0.00030843444835011
0.00054131183661214
0.000571035063705881
0.00152458989039506
0.000625872103271332
0.000982444348907935
0.00183892668692728
0.00273462573879914
0.000413633088849459
0.00376502214424176
0.00297537355484394
0.00212886269361464
0.00132163554704393
0.000690366296211908
0.000206068517334688
0.000203441658802501
3.66917998072362e-05
6.5578379542754e-06
0.00464755250085006
0.0039261975881524
0.00312681244100889
0.00224272437704095
0.00131470345225286
0.000440515340722714
2.31972561161392e-05
0.00541668187800061
0.00475485775567737
0.00400572873615461
0.00314123838493783
0.00212288980544204
0.000906531953364656
3.71670330139246e-05
0.00609276195956505
0.00548778627563237
0.00479220269041024
0.00397806158560079
0.00299871960045772
0.00178460328577597
0.000457368202946788
3.47525178777118e-05
0.0066885993920197
0.00613837382638063
0.00549825785307297
0.00474415599245515
0.00383975581726263
0.00273285469580096
0.00140150779436098
0.000499041019312669
6.41467313295506e-05
0.00721243756439636
0.00671450796047846
0.00612945965133425
0.0054371553562034
0.0046115618800277
0.00362098203258237
0.00244328258364796
0.00131545369741254
0.000514513888585627
7.22702060766416e-05
0.00767002107092062
0.00722155644251375
0.0066894197741934
0.00605692768693094
0.00530537497517646
0.00441640722267995
0.00337985143476269
0.0022711120621135
0.00127294870361382
0.000500032088446547
6.93240841999148e-05
1.48588714593205e-06
1.97324564733477e-05
3.00839020307718e-05
2.49481000555857e-05
2.53381332568348e-05
0.000328776231399206
0.00049608656193114
6.33328130846519e-05
0.000522960694461864
0.00136964323964643
0.00051508735974963
0.000724350457315522
0.000514300219447766
0.00248843494428654
0.00156288566135516
0.000863915687905596
0.00173867558082925
0.000530180707885887
0.00271489771131187
0.00356189328003136
0.000366300317378018
0.00449543266943313
0.00374324112470148
0.00290262604911198
0.00197646930217777
0.00107352551977807
0.00037249669342326
8.22904860329508e-05
2.0771668512373e-05
2.80450800749708e-06
0.00530377816301769
0.00462514863510039
0.00385903511362265
0.00298168950405952
0.00197480452504016
0.000836808837636139
3.39319309087254e-05
0.00600891711778085
0.00539442639740719
0.00469034598059558
0.00387265207881543
0.00290140087735722
0.00171646504566835
0.000431552196016835
3.09879913399397e-05
0.00662708119865636
0.00607126970112344
0.00542622849547366
0.00467038069271129
0.00377055184697393
0.00267688168487558
0.00136480069980088
0.000481722954822823
6.07756912134689e-05
0.00716918391988819
0.0066678554494279
0.0060797218905124
0.00538597032964974
0.00456222244979063
0.00357774498453055
0.00240947155006411
0.00129360970625708
0.000504470026967975
6.93353667584237e-05
0.00764272718045434
0.00719211775319342
0.0066579612689076
0.00602418050963149
0.00527283906093239
0.0043859673058607
0.00335265877161533
0.00224871018269464
0.00125841892995948
0.000493334874410512
6.74022929497362e-05
0.00805327195223077
0.00764975629946328
0.00716606089221594
0.00658845604224111
0.00590364538583172
0.00510092359573628
0.00417607370981871
0.00315738983648015
0.00213379502232287
0.00120947518415467
0.000465285785667651
6.04947140282936e-05
5.32754469895761e-06
4.24277947592938e-05
2.3276257617578e-05
2.98219609383804e-05
0.000164671565902765
4.99155210749645e-05
0.000450093365695789
6.95274762899456e-05
7.23069899024228e-05
0.000531118478600361
0.00128661496505737
0.000499074422510684
0.00231361676176737
0.00138542544193601
0.000651039879091276
0.000481955184867232
0.000282599324199372
0.000491478785163627
0.00336834539067663
0.0024882327845381
0.00150297574642108
0.000716414570863937
0.00163401172859535
0.000505106668921052
0.00265608019791141
0.000440675539212686
0.000659486243307831
0.00354622377852728
0.00433256436042052
0.0002280032300088
0.00517595300623957
0.00447631635131178
0.0036857471716609
0.00277941917411573
0.00174062564511367
0.000731472003266276
3.75202355766451e-05
0.000247158347283759
9.96740415276445e-06
0.000152088540807574
0.00591018535775853
0.00528346579787072
0.00456693771656869
0.00374034196236345
0.0027712340035561
0.00162191692414524
0.000396939307162609
2.73248636275636e-05
0.00655151536404854
0.0059885618708109
0.0053365905538282
0.00457708743438684
0.00368114730577484
0.00260376190414394
0.00131741884330835
0.000463759079070575
5.6308568370674e-05
0.00711262256209512
0.00660701153895435
0.00601474113117328
0.00531877885565158
0.00449716793921357
0.0035210131716215
0.002366107859137
0.00126573941101625
0.000491471481019097
6.6204597957908e-05
0.00760255905599464
0.007149265412312
0.00661249683906832
0.00597708263063275
0.00522635091828197
0.00434331575440173
0.0033168065809952
0.00222158164275761
0.00124117572678579
0.000485453985784118
6.51207117893733e-05
0.00802804333297835
0.00762271252906546
0.0071372602189576
0.00655833773008475
0.00587323935218746
0.00507171921869839
0.00414942651452458
0.00313416808505871
0.00211517057494565
0.00119726008646246
0.000459548591673573
5.90188317759786e-05
0.00839425361091907
0.00803294475057571
0.00759468879425511
0.00706760947186366
0.00644200645452803
0.00571179707725224
0.0048756679281302
0.00394719077061967
0.00297040629929936
0.00201238674396643
0.00113593335743852
0.000424851792237847
5.07871454947652e-05
5.99485707133433e-06
3.0750726616677e-05
3.38990060030304e-05
0.000162681112180371
3.68790031799766e-05
0.000164854286117879
0.000249154430964056
0.000390278341542027
7.67241660373879e-05
7.37933866266584e-05
0.000512536919763628
0.00126065402919821
0.000516175921844535
0.00219072063069441
0.00127661943945961
0.000449075440279046
0.00320525857770253
0.00230964610352291
0.00125016020883666
0.000438972186685617
0.00417193628260911
0.00335949199646093
0.00244780013015795
0.0014432979528427
0.000645509710505913
0.00147490496336583
0.000358437400276357
0.00256106332781491
0.000656553109798143
0.000429995364254355
0.000419751559125786
0.00350051586864644
0.00431714081813229
0.0050387533702336
0.000315250656193049
7.85750633001998e-05
0.00579867990987838
0.00515784901140367
0.00442562800778468
0.00358533029162162
0.00261000585178547
0.00149878767868079
0.000651961730521131
0.000334326063909978
2.33945565959392e-05
1.54908689832218e-05
0.000327193213118062
0.0001166879167643
0.00646261989011406
0.0058911693455488
0.0052301771004649
0.00446461663967021
0.00357101425887151
0.00251246834884971
0.00125562993516898
0.000441471317069579
5.19189508121047e-05
0.0070429746767568
0.00653226313297359
0.00593470780547412
0.00523544354371138
0.00441578277782286
0.00344988376716823
0.00231208681778556
0.00123299994641649
0.000477548944254956
6.26755831222711e-05
0.00754966700351436
0.00709321304432591
0.00655321729086543
0.0059156865702404
0.00516573696884648
0.00428800013121702
0.0032711879268955
0.00218793119134299
0.00121995820617143
0.000475888707227569
6.26436448356293e-05
0.0079902535934052
0.0075828653012709
0.00709531888304598
0.00651487859412005
0.00582974679769854
0.00503054241813726
0.00411312293615084
0.00310455578121595
0.00209318297104194
0.00118341579079084
0.00045317795643452
5.7295852430494e-05
0.00837071592563768
0.00800791018512327
0.00756816043033249
0.00703986535380189
0.00641373675339378
0.00568409904733412
0.00484977725769822
0.00392407152339526
0.00295067506093338
0.00199674512913528
0.00112549798944513
0.00041972222103994
4.96636446030078e-05
0.00869588768453072
0.00837359055114816
0.00797739353434006
0.00749639434079792
0.00692318633298038
0.00625471811869115
0.00549144387051091
0.00464143380450921
0.00372915274808538
0.00279618456153116
0.00188814336836203
0.00105400296425273
0.000380592583813487
4.12832648860186e-05
1.73430036436294e-05
2.59881947543814e-05
4.51244019673952e-05
4.23270725610403e-05
0.000160018300595527
5.90434872151362e-05
0.00034788283627024
6.79079691128345e-05
7.14450797428726e-05
0.000491936078221654
0.0012258892596063
0.00050843347605701
0.00211141413380407
0.0012493362904319
0.000498795582513872
0.00307412500716035
0.00218207675566104
0.00121724341747812
0.000457293277063482
0.00402440792802821
0.00319760364735428
0.00226061430884412
0.00122591795288174
0.00489921272501275
0.00415985318909321
0.00332456201952721
0.00237521931606726
0.00124687753215983
0.000498280011088318
0.00075693142954817
0.000396260445775579
0.00143730210878916
0.00243974997575418
0.000375697145245391
0.0004124135275316
0.00341997145054485
0.000412073036812571
0.0042745202836804
0.00502291836201502
0.00567768690385908
0.000210835521063999
0.00636169359716621
0.00578113431277093
0.00510973238479026
0.00433628404923769
0.00344407242262737
0.00241329644520271
0.00117449696995421
0.000489117076891687
0.000402673460821059
0.000411811069898799
0.00029886053040959
4.71343118483556e-05
2.01052324950734e-05
0.000240499156580727
0.00696065502049003
0.00644431111709811
0.00584048369179586
0.00513677892306
0.00431876037191859
0.00336580873322772
0.00224892543132831
0.00119542147398184
0.000467240146232082
5.89831982240399e-05
0.00748411901211515
0.00702417662870536
0.00648040080867026
0.00584020336597177
0.00509104468908022
0.00422002418335121
0.00321586288264337
0.00214808588966383
0.0011961249272601
0.000464808945623221
5.99956137452958e-05
0.00794001309378028
0.0075303695263794
0.0070404449932024
0.00645826849919554
0.00577327680008797
0.0049773988143863
0.00406697335817881
0.00306790091803595
0.00206675618448421
0.00116709388540625
0.000445780337446111
5.54119085396803e-05
0.00833478319731736
0.0079703914187501
0.00752903221401567
0.00699947483761701
0.00637306254008151
0.00564479146850707
0.00481386939612823
0.00389333251708024
0.00292607637815407
0.00197867203778904
0.00111412378314244
0.000414293266584167
4.83649448941939e-05
0.0086737184533297
0.00835022903332162
0.00795278560305052
0.0074707179600875
0.00689692560979334
0.00622865230374215
0.00546655809437911
0.0046186698725207
0.00370916575689956
0.00277934197813972
0.00187480100781924
0.00104480784671992
0.000375865490407493
4.04210119399651e-05
0.00896135311576195
0.00867474793371958
0.00831702233167695
0.00787779257421587
0.00735093525791276
0.00673534804286844
0.0060328334466897
0.00524919217374608
0.00439959029464257
0.00351137734042909
0.00261821224222511
0.00175384766455519
0.000963168542742072
0.000333779083878553
3.23882937425845e-05
4.34677933878952e-05
0.000159889659930019
3.83842999675957e-05
0.000139434799896385
5.43072985019135e-05
5.44289787728861e-05
0.000398857280361439
6.47673652507372e-05
6.27995519654017e-05
6.69275238039224e-05
0.000467363189981563
0.00118634571421993
0.000490536794281531
0.00204739004433081
0.00122169058393662
0.000502656325802105
0.00297027769786914
0.00210398725228493
0.00122628308142653
0.000491842492927547
0.00389344865352253
0.00306665483708067
0.00214677475663981
0.00120533343752793
0.000465398929981105
0.00476316331692111
0.00401411249235642
0.00316609688512286
0.00220517621339659
0.0011706140654573
0.0055509841550124
0.00488539174355569
0.00412425016277946
0.00326013387981266
0.00227357595875007
0.00132103069665639
0.000441429298367006
0.000332053139806845
0.00115879894460735
0.00232300222117301
0.00330837260737028
0.000388690712201962
0.000589538205444618
0.000389848922770332
0.00419865121620747
0.00498011539657799
0.00566162370551165
0.0062505268708888
0.00686631105746387
0.00634440917792911
0.00573396017659782
0.00502516526823106
0.00420877195545483
0.00327326116537913
0.00218646407258404
0.00115716992148213
0.000346908490493953
0.000456615554982612
0.000406071304673309
0.000361143871371776
5.542261460129e-05
4.14182092644465e-05
0.00740603194673381
0.00694255226822313
0.00639469485291096
0.0057514159632496
0.00500307870973342
0.0041405135338837
0.0031530907126634
0.00210440845335383
0.00117463141172406
0.000459271261776226
5.71464280898001e-05
0.00787722219100184
0.0074652962834599
0.00697284171449692
0.00638876983430692
0.00570407458123746
0.00491253543171574
0.00401135924308294
0.00302471543455739
0.00203667990467945
0.00114908037400858
0.000437609958239122
5.34265048293538e-05
0.00828641943690692
0.00792047359721767
0.00747745321878942
0.0069466315694083
0.00632017709274689
0.00559404255388056
0.00476807500865757
0.00385497481298195
0.00289630942616019
0.00195752381983529
0.0011011544277206
0.000408054241303896
4.69368024555497e-05
0.00863917748298049
0.00831451672225757
0.00791585241976698
0.00743282091465854
0.00685872352210344
0.0061912927275073
0.00543156349496692
0.00458758717859884
0.00368308392348265
0.00275869815166282
0.00185968600983671
0.00103511464049966
0.000371161352508461
3.94348020626351e-05
0.00894030074807567
0.00865273777649288
0.00829402780423078
0.00785389411496915
0.00732647052574607
0.00671090269784002
0.00600914157031077
0.00522705534667867
0.00437967928980913
0.00349410005293166
0.00260373810958768
0.00174227041003765
0.000954858038529497
0.000329222702486974
3.17186856872714e-05
0.00919389387796388
0.0089396766605402
0.00861689894757343
0.00821529440255345
0.00772946145771649
0.00715944382347649
0.00650794691600318
0.00577992491842171
0.00498576084325012
0.0041444605952109
0.00328196439604506
0.00242566748500141
0.00160462543811528
0.000862273916328293
0.000282349334697512
2.42349555628893e-05
4.68151354608912e-05
3.99010910210101e-05
0.000389328645763595
5.11695113444769e-05
5.96049143009247e-05
6.19649864813993e-05
6.47105284201316e-05
5.56242287842281e-05
6.16237061060374e-05
0.000444377082427438
0.00114277444772062
0.00046846813267174
0.00198454546933206
0.00118584377107312
0.000489173811631278
0.00288024142024062
0.00204376900849227
0.00121183126912503
0.000496016588202213
0.00377664742356352
0.0029639458233782
0.00208291703622265
0.00120998396842082
0.000485720241534519
0.00463289998320903
0.00388432542000081
0.00304026872406123
0.00210828878859889
0.00119018850058733
0.000451785292010384
0.00542154839595038
0.0047508392253323
0.00398297332062794
0.00311315132469862
0.0021438125130978
0.00118191974909536
0.00613098153760984
0.00553628014089869
0.00484734280507671
0.00405998217313869
0.00317054869547173
0.00221289603349481
0.00116634980084842
0.00114668136501661
0.00214261917875498
0.00317624364200375
0.00409015996782919
0.000396145432247093
0.0049046102305451
0.00561803094236866
0.00623428367362009
0.00676073192077486
0.00731555781018686
0.00684896447014354
0.00629725298733827
0.00565095234949986
0.00490371587916419
0.00405164199856448
0.00308691823989373
0.00206233164727059
0.00115491198752708
0.000454896941980876
0.000455315033223888
0.000433193436654596
5.44086862009725e-05
5.25201151815121e-05
0.00780173362524681
0.00738775146274366
0.00689287085312022
0.00630695338849901
0.00562282540844269
0.00483675467199257
0.00394754605889049
0.00297698995440703
0.00200585756380908
0.00113411128262086
0.000430310319715651
5.13016350166342e-05
0.00822541043141189
0.00785806645242401
0.00741348543263651
0.0068815134061433
0.00625532200029573
0.00553213061397797
0.00471275573374709
0.00380949442295369
0.00286197170670376
0.0019339654833547
0.0010870361852752
0.000401195209369043
4.54188509268795e-05
0.00859214629319678
0.00826642663919006
0.00786667474322213
0.00738283472636477
0.00680875846862243
0.00614283811477001
0.00538666835379367
0.00454838421674777
0.00365101383654836
0.00273413079918854
0.00184232440002435
0.0010242403786809
0.000365831342402825
3.83474835378636e-05
0.00890680559429626
0.00861839702324673
0.00825880919581225
0.00781796718971008
0.00729033705577087
0.00667536779351781
0.0059753177008859
0.00519618659124516
0.00435282488797646
0.0034718495995496
0.00258621714317136
0.0017293816326431
0.00094642903505141
0.000325029854602155
3.09665182055182e-05
0.00917375941169432
0.00891877052170748
0.00859521218333502
0.00819290390688315
0.00770658827651877
0.00713649425948514
0.00648551854850549
0.00575864127042137
0.00496622598801338
0.00412711818005578
0.00326703323145716
0.00241316574394312
0.00159444028132562
0.000854538500683652
0.000277840565536284
2.37132688636949e-05
0.00939669656529788
0.00917166981293075
0.00888045785562929
0.00851266006456801
0.00806312605034534
0.00753256210569336
0.00692424609643934
0.00624266125713185
0.00549567408810859
0.00469715593763919
0.00386739013401776
0.00303019729003064
0.00221007533917264
0.00143521891215065
0.000747161964408135
0.000225221714399802
1.67650210855183e-05
5.26048647414642e-05
5.09375720498741e-05
4.9401294722184e-05
5.62502216781778e-05
5.97670448866708e-05
6.26122639912891e-05
6.08784424662596e-05
5.038614666138e-05
5.56246003724892e-05
0.00041963510005054
0.00109714150567556
0.000445316487057148
0.00191825160597629
0.00114440896877916
0.000469534182524593
0.00279279387239501
0.00198361308136268
0.00118180723068256
0.000484835457493174
0.0036668276775098
0.00287576684066609
0.00203094402312729
0.00119856267787329
0.000486162693504128
0.00450696905554397
0.00376866872115888
0.00294304471231271
0.00205543772230949
0.00119340313264567
0.000472627521479741
0.00529041242541733
0.00462175007278319
0.00385683533527344
0.00299721408392503
0.00206917307294547
0.00117401350637875
0.000445443994708122
0.00600432465918193
0.00540799758258155
0.00471651311963135
0.00392755517254213
0.00304351266966374
0.00209695686236992
0.00113808584191632
0.00664459027272673
0.00611573125825933
0.00549601842660498
0.00478004425495936
0.00396794985204419
0.00307056800831035
0.00209208700978888
0.00115064905738669
0.00114458128001894
0.00203072210397928
0.0030203789998838
0.00395564719618188
0.00479582946954904
0.000446207541879169
0.00554124797047913
0.00618965629257838
0.00674416805162742
0.00721280035315698
0.00771331954181204
0.00729786975950352
0.00680109314070352
0.00621380539599517
0.0055308146999579
0.00475144582184517
0.00387725358388223
0.00292736146619523
0.00197599751214808
0.00112107359318217
0.000427079512839969
0.000452299986596441
0.000459207894658492
4.9091616216515e-05
5.20843825654112e-05
0.00815139656027647
0.007783018834833
0.00733721248749612
0.00680442519192602
0.0061789689775131
0.00545963549031296
0.00464864803387112
0.00375796060851451
0.00282456008287652
0.00191009888626355
0.00107359126527986
0.000394276667678375
4.38166361271005e-05
0.00853225006818717
0.00820574603748803
0.0078051570073129
0.00732079931335125
0.00674717358993673
0.00608350265007552
0.00533215288291169
0.0045014289747985
0.00361340334725771
0.00270610990282574
0.00182309251733841
0.00101236998679753
0.000359964815069228
3.71787959823489e-05
0.00886066892613799
0.00857160494075716
0.00821133901689249
0.00777008458826696
0.00724264250911811
0.00662890757757492
0.00593156002387108
0.00515680706589155
0.00431924282580621
0.0034447628835427
0.00256557757607326
0.00171472750850569
0.000937090209447902
0.000320306970108563
3.01390252910731e-05
0.00914105461333693
0.00888545765662561
0.0085613018578611
0.00815853977330867
0.00767212136900242
0.00710255792877127
0.00645291862109939
0.00572833976774734
0.00493914504947538
0.00410390896730616
0.00324795243265257
0.00239815844070974
0.00158331548912925
0.000847080522451583
0.000274089039939068
2.31446009575042e-05
0.00937733095084882
0.00915167267091193
0.00885984286532693
0.00849150079595717
0.008041613126963
0.00751099658015555
0.00690302885049853
0.00622234288665377
0.0054767551215386
0.00468005472210681
0.00385236990267461
0.0030173357311542
0.00219926687764702
0.00142616521026411
0.00073978303581441
0.000220759771085367
1.63676817766745e-05
0.0095727495586683
0.00937393867985674
0.00911110090422695
0.00877360705850805
0.0083562570318781
0.00786001269720186
0.00728844377496199
0.00664578473044682
0.0059382611623484
0.00517650535643888
0.0043765496455194
0.003558847488364
0.00274615651993925
0.00196284040312505
0.00123810329872248
0.000612414242478645
0.000162490724442738
1.00711945843445e-05
5.0592420351961e-05
5.19087779035668e-05
5.16055768667875e-05
5.31367361267455e-05
5.60567405874096e-05
5.6956072078265e-05
5.9598892335746e-05
5.57832933001852e-05
4.46216476777772e-05
5.00883812959514e-05
0.000393826187089551
0.0010481770350832
0.000420701245396772
0.00184718398259844
0.00109946925704537
0.000447225823517198
0.00270142187682393
0.00191897432682473
0.00114345761119824
0.000467003021171268
0.00355642425716706
0.00278995564499361
0.00197540974530203
0.00117196812140935
0.000475033055709299
0.00438103452070342
0.00366004371147021
0.00285927817526599
0.00200945154717004
0.00118012113990446
0.000472112023948668
0.00515633872218008
0.0044968431251227
0.00374441225549275
0.0029077115494153
0.00202302506507439
0.00117097176454264
0.000460554588675473
0.00587063093659704
0.00527784425440989
0.00459043174478814
0.00380841649128457
0.0029413852514221
0.0020281970823207
0.00114849369696151
0.000452969473223079
0.00651807774398808
0.00598997990430401
0.0053706141035577
0.00465599026032223
0.00384907301310745
0.00296407975893337
0.00202472035772555
0.00114010994602306
0.00709765829671056
0.00662880165681195
0.00607354276206707
0.00542509608252407
0.00468292122614072
0.0038539592023495
0.00294705190418338
0.00199892591485516
0.0011365677826
0.00111019943551722
0.00194964526405331
0.00287747807112207
0.00380164579380314
0.00465835595915251
0.00542986983990629
0.000454633048467666
0.00611065336049911
0.00669818284088629
0.00719573752182136
0.00761160710479748
0.00806385877703363
0.00769509500167048
0.00724873407875389
0.00671582583985297
0.00609188393463775
0.00537748645638044
0.00457673418934203
0.00370154893688564
0.00278538400720029
0.00188665190375102
0.00106216936086791
0.000388504402344346
0.00042329314180759
0.000448713496234972
4.21202994566551e-05
4.70859996705922e-05
0.00845895251578672
0.00813210800297768
0.00773113640868513
0.0072467597464402
0.00667419663640452
0.00601364762830746
0.00526847807562858
0.00444730588360588
0.00357101152641974
0.00267559159124824
0.00180301562682528
0.00100021302344728
0.000353828721997776
3.59356463914215e-05
0.00880140784354616
0.00851199090141172
0.00815140500360108
0.00771013318961854
0.00718339690239196
0.00657162566597819
0.00587804509800545
0.00510916063147824
0.00427923732148907
0.00341316757505701
0.00254209869475018
0.00169844823387504
0.000926850712400545
0.000315118294717142
2.92457138697597e-05
0.00909551115787803
0.00883953826443653
0.00851504889588825
0.0081121619791999