/*--------------------------------*- C++ -*----------------------------------*\
  =========                 |
  \\      /  F ield         | OpenFOAM: The Open Source CFD Toolbox
   \\    /   O peration     | Website:  https://openfoam.org
    \\  /    A nd           | Version:  12
     \\/     M anipulation  |
\*---------------------------------------------------------------------------*/
/*   Windows 32 and 64 bit porting by blueCAPE: http://www.bluecape.com.pt   *\
|  Based on Windows porting (2.0.x v4) by Symscape: http://www.symscape.com   |
\*---------------------------------------------------------------------------*/
FoamFile
{
    format      ascii;
    class       volScalarField;
    location    "200";
    object      omega;
}
// * * * * * * * * * * * * * * * * * * * * * * * * * * * * * * * * * * * * * //

dimensions      [0 0 -1 0 0 0 0];

internalField   nonuniform List<scalar> 
10063
(
0.534131132895025
0.549607086905666
0.540896282288169
0.568369716724694
0.500439962175341
0.551976671564195
0.691701637365772
0.511670182833277
0.558747040439777
0.431340585818547
0.502222803215433
0.541784219354411
0.677346423486469
0.541586690677244
0.584357011765322
0.438348373554493
0.510961464007726
0.550770343536014
0.38869165167844
0.434374475847338
0.502380402901498
0.521438153653087
0.591497709554
0.549159984349736
0.598319690544987
0.448014575973493
0.524544991129701
0.559067867607937
0.393243292807932
0.440935846081497
0.511135152082734
0.528779541209991
0.364483627980597
0.392537380177279
0.443625268615061
0.513870067334206
0.536477458095931
0.610306935467123
0.543937152531051
0.594672592935069
0.456696615352502
0.536087124203961
0.577300870573808
0.398826620146544
0.448534948318757
0.519483273092755
0.532227734368283
0.367290232926806
0.396894402787568
0.449704809455805
0.520008359790104
0.538675753279434
0.348873308041364
0.367954156345703
0.403687236123247
0.472538591942311
0.581924709753468
0.639234039305031
0.618249291321067
0.567483895185884
0.601390973239821
0.468224625135321
0.545075730143428
0.575507796370996
0.406395257362382
0.457404100187907
0.530719912130104
0.537108891719621
0.371244589477754
0.402092942224256
0.455872857370928
0.524774144315115
0.535643620340547
0.350565245576886
0.37063421824859
0.40763276972875
0.476879332431988
0.583152779655401
0.636748301451181
0.337392342868099
0.351445726812938
0.377066011069309
0.431938844621974
0.564274053823798
0.82866428412731
2.43167005885168
0.625717253836109
0.616173298978108
0.613758771983385
0.496114004311221
0.566221385076632
0.573419200829358
0.419063708328989
0.470472565646271
0.540105164250263
0.539266337450948
0.377412123345508
0.409521357154376
0.464081968046215
0.530728669936784
0.530850794348269
0.353386333566207
0.374433389430872
0.412272418530666
0.481250793520619
0.583507537835983
0.631393074330652
0.338383165719615
0.353060357221573
0.37947508284811
0.434984195993105
0.565318650369572
0.826482444090124
2.43121534370752
0.328518489613302
0.339092320698223
0.357661477067533
0.397406122265468
0.504042032635107
0.900709139409781
2.46809230510628
0.762188821840509
0.763467483058984
0.680979011798075
0.567969001637193
0.615477861149885
0.586789889072944
0.444250418349668
0.498264879779315
0.558611846731773
0.541809881561859
0.387965688713935
0.422298598508314
0.476867842082469
0.538440129226608
0.524430982007651
0.358024804793461
0.3804687925454
0.419245033218552
0.487329536650737
0.583622960567515
0.628316012434601
0.340295559465891
0.355783814186633
0.382955383654385
0.438710406442156
0.567325750577112
0.823618905218486
2.42267828753998
0.329047498900362
0.340037435112413
0.359105387199137
0.399345344810205
0.50567288211551
0.899282151416826
2.47103746796873
0.321701793168351
0.329558263230596
0.342886759274145
0.370270914214543
0.439621506076012
0.71048664340059
3.32824775940328
2.77471423769451
1.12768810491769
0.691071395798393
0.822136427309752
0.794330567828103
0.783735116808153
0.499168840461294
0.570542847929345
0.614146243106255
0.75793295947921
0.551802359245358
0.656081626294215
0.407057574626397
0.447769331537707
0.504814560216202
0.555804971452493
0.522485958760441
0.36571592844631
0.390951114961458
0.431750394674537
0.498260732924956
0.585225064268609
0.626913214794294
0.343503732161821
0.360310187829844
0.388662457011804
0.444661720035093
0.570333379201882
0.820385576581561
2.42041209534003
0.330242507046788
0.341881927059761
0.361607872819172
0.402282274767916
0.508274656417284
0.900136688642573
2.47728561013206
0.321913232909797
0.33006046956468
0.343723075035985
0.371437278497875
0.440991995351138
0.710935771450571
3.32851756591699
0.316624726560427
0.322295304421249
0.331665124902756
0.350092609536165
0.392481548856997
0.519756133764101
1.27043928005822
4.93423148134787
2.0508628152273
2.99322075724417
1.80525424363128
0.934294469244848
0.82700043733573
0.644261211366248
0.832746653164136
0.82158457371758
0.442729311408886
0.504325607815854
0.586430059945904
0.612090501469012
0.835506572615183
0.838642244530943
0.654117361674103
0.54659264267037
0.37837915170671
0.410128618843645
0.457752486562297
0.524590574746377
0.597031763643253
0.632094696696403
0.348598986910946
0.367881243850026
0.398871771468573
0.456132928853501
0.577307317837227
0.81765347356256
2.41407872122942
0.332282412747323
0.344999249188938
0.365860978324674
0.407343033717485
0.512836466619619
0.899557942877085
2.47975135319141
0.322566108705562
0.331208431615489
0.345407204085203
0.373559880786996
0.443248216072646
0.713643921344443
3.3568013092109
0.316614306653082
0.322491556633718
0.332097283597353
0.350749187490826
0.393325694590266
0.521023769069091
1.27216850300819
4.94479029917401
0.313015689259745
0.316935765221088
0.323318483130521
0.335519825037635
0.361572455641004
0.425478094840725
0.639413704402422
1.16101149395665
3.23599344813625
2.36437083250683
2.09339917756196
4.67631295125333
3.27427263041131
1.08596292156424
0.654181718951261
0.511863655422378
0.938060479462044
0.39852413911345
0.446459477856333
0.519750804748454
0.606814668085698
0.847039412265927
0.655305595068409
0.695321981661774
0.658266316223756
0.356299601348043
0.380433434502564
0.41813964290526
0.481809380252417
0.597649700825862
0.82254115502703
2.44459289404645
0.335407916171971
0.349974424615659
0.37310801798076
0.416829828193771
0.522459047407442
0.901267919501015
2.4883289228674
0.323734076692779
0.333180661801652
0.348301476709468
0.377300209222497
0.447380528279807
0.718075939187239
3.34836602331966
0.316873303527409
0.323112548237279
0.333131471058583
0.352155992139615
0.394939113816757
0.522921589495414
1.28504353517087
5.00422891695439
0.312851136341615
0.316917455583498
0.323469857755267
0.335832542362629
0.362007113907425
0.426155783394616
0.640921277446536
1.1621058382604
3.24647938681889
0.310619397127084
0.313156299472436
0.317293882355777
0.325178368925273
0.341361112379089
0.376464260257503
0.461961860984642
0.654469506566713
1.09034358097544
3.000502053889
2.69778070082018
2.46950527578331
2.99984796422445
10.4741931916514
2.44877814603414
1.81566098688939
1.15773866390295
1.1598145878652
0.609277643233308
1.07598878070657
0.705229986358176
0.516449391035763
0.427557532416261
0.987925780835609
0.367101835837507
0.400489948851313
0.456085441506069
0.547034885242975
0.672890494722151
0.893360356698596
0.875911569870216
0.882913331696521
2.54409508040145
0.339826469607572
0.357513502405442
0.38531849482066
0.435679558779594
0.545699791060162
0.906532119576125
2.49759083305358
0.325493760998666
0.336212255115711
0.352970588953936
0.383855650969973
0.455534437707223
0.726904255290207
3.36871168089794
0.31742454853361
0.324233225061027
0.334937221546479
0.354645649200649
0.397906081268091
0.526348033809077
1.30109659750166
5.03088769614648
0.312832450441732
0.317155198351128
0.324012683366901
0.336669439968779
0.363032248810537
0.427276615206158
0.643506567623496
1.16681988661284
3.26605096638241
0.310349533487787
0.312988422356879
0.317247138541488
0.325250333314647
0.341518405208069
0.376704531260522
0.462675899879584
0.655494226961465
1.09073307391178
3.00862548532872
0.309199752329496
0.310661603322112
0.313120280510161
0.317988143346081
0.327993514182519
0.348445551724351
0.390960456994919
0.476495121701859
0.643408790789196
1.05530201447269
2.96446512457301
3.15310057772031
2.52421871146855
3.5396335330284
6.27302031456419
5.35733548304106
1.71932598888169
1.28807820354497
3.51428978578156
1.13106661317381
0.651037593067359
1.1974766313541
1.00762683435135
1.23434885185087
0.459093422915089
0.596562968805851
0.748670603389455
0.532124454523454
1.20296792264742
0.428875942127404
0.380445807566005
0.992468056538562
0.345509968279515
0.368075799461379
0.405052185959861
0.47394205348211
0.614642308730427
0.955347391132491
1.11128182590941
2.4329454725855
2.7347733562053
0.327867219273959
0.340502375530986
0.360089771154487
0.395172496877245
0.472584359071098
0.747077754771698
3.29621422220221
0.318276571520884
0.325927878140541
0.337734562231874
0.358728868483147
0.403249644632222
0.53292956011667
1.32629047137715
5.16089857332425
0.312961172041504
0.317674371863827
0.325017300041382
0.338180300614574
0.364925783168678
0.429360137691623
0.647560940295296
1.17653497833801
3.28400947434604
0.31014005901284
0.312955815644953
0.317432258457034
0.325657137335064
0.342082255347013
0.377309790368707
0.463437482701332
0.65664278725881
1.09171914835091
3.01972191303418
0.308859859544349
0.31039134637432
0.31293464924047
0.317888787731133
0.327958612989421
0.3484423448483
0.391062440726962
0.476901063688911
0.643842891585649
1.05516172965223
2.96995358112709
0.308545445516964
0.309187993918467
0.310400397776659
0.313146172921016
0.319149164914652
0.33134931169037
0.355012299737302
0.398945310023402
0.477644585726005
0.63014385187767
1.03276971351244
2.97051595935764
2.9930254335932
2.70097059624092
6.0387488552431
5.39934121455664
2.80358857384468
3.8295272171754
1.37912017953063
3.35991348775019
3.13344408601852
1.06613972613751
0.66188801747994
1.15024347716009
0.478934643251974
0.644235508639812
1.05384177719323
1.22533472296978
1.74244139902208
1.25540356914545
0.393588301711588
0.457815249567015
0.607209875878142
0.826070000918796
0.548084951507637
1.20050911516496
0.432657543669098
1.35867708864852
1.07249726112874
0.38099888772143
0.351911463570186
1.35690629002921
0.330729930637042
0.34601354701003
0.370067310437225
0.413547823519201
0.511117589120086
0.804120308676184
2.81386086852006
1.26181425691859
2.53142042393016
1.38741060733985
0.319395249888697
0.328216164015072
0.341704034926369
0.365005021674562
0.41259732531357
0.545957533697878
1.37266820960406
5.34335190609877
0.313221671986896
0.318483249925046
0.326551364564889
0.340553767743892
0.368086552573123
0.433080748971279
0.654433031267656
1.18470367224227
3.31567124670207
0.309985340047389
0.31306297930942
0.317873123310774
0.326458754715515
0.34317098049907
0.378496780466921
0.464776307320923
0.658740297725499
1.09520247783039
3.03250704499674
0.308522521036706
0.310172840149712
0.312866934560401
0.317981789996921
0.32817663892478
0.34869591914658
0.391274457499285
0.477067903801918
0.64382775716166
1.0544660857443
2.97738822552747
0.308160871570977
0.308849633276673
0.310119323022298
0.312925655995034
0.318977085357
0.331196846820395
0.354864180719006
0.398852322151349
0.477685628281149
0.630149981101451
1.03247767020234
2.97406687222342
0.308472651545617
0.308506374578904
0.308804314498599
0.310053855374543
0.313402028846909
0.320611342417201
0.334439348665023
0.359107099852847
0.400978290111966
0.473030593445084
0.616947149584068
1.01220360602893
2.98282621890343
5.85269042442729
5.30173331105683
5.06452468813745
2.70874308482987
4.4451276456072
2.64215039176251
1.92850594437616
1.47956431467302
2.9221856095498
3.0890572444449
1.05136120036238
0.649963699913026
1.08038924119675
0.487578580800018
0.662535920464117
1.21459764144216
0.402781267229252
0.4782154380751
0.688524788036532
1.33405753478503
0.35782512138949
0.393527313892835
0.45959290229131
0.614414617332308
0.901062657596495
0.580054181369536
1.49680737955145
0.438886539622411
1.04484566620181
1.37180023063013
1.36205610342184
0.382155176545886
0.352195971931125
0.333725595290958
1.27177119774204
2.66156757496412
0.320666437410192
0.330973901101897
0.346796447035429
0.373782179213701
0.427777173822461
0.570514320845125
0.892978270675722
1.52021957801202
5.71494772171139
3.50538038823286
1.22080217920811
1.95598491959164
0.313570406271552
0.319547604168388
0.328629000071619
0.343936433133565
0.372941950190244
0.439243990239072
0.666692825567471
1.19968331389763
3.35082822593867
0.309864378028627
0.313294946748776
0.318576077981035
0.327709464633381
0.344921002420354
0.38050050237523
0.46708458750154
0.661508006436118
1.09799528301019
3.04521593189744
0.308181176955347
0.310003612246451
0.312921669042715
0.318286414107278
0.328692305915488
0.349288592571723
0.391777696144333
0.477429718928856
0.644090914335727
1.05444294981985
2.98571121868929
0.307740387120958
0.308506479255123
0.309877389953063
0.312795839418469
0.31894156836776
0.331197395157566
0.354814515469707
0.398677596747535
0.477324466596254
0.629422888778926
1.03107336903243
2.97888949166271
0.308061809117898
0.308124623416451
0.308459645752161
0.30974949727652
0.313131974118
0.320356459880871
0.334173465870577
0.358818777346356
0.400691999054317
0.472796891723442
0.616719077870105
1.01218904577163
2.98497287033649
0.308826232761118
0.308422050883436
0.30806152068548
0.308260231389324
0.309824907481433
0.313883687737304
0.322030278160492
0.336527457711094
0.360530304193314
0.399324261830842
0.466057941061578
0.603005853560812
0.991373489613503
2.99233231289728
4.66670965139648
5.27348528345378
3.84338424272095
4.08870923691752
2.61748343820383
3.29054270849927
1.539677368187
2.98822926261178
3.0242910038758
1.03811662006057
0.640717904698222
1.05243613486982
0.48681067886216
0.651290304112249
1.09029801857682
0.407043864656615
0.487470976252766
0.678378703253025
1.17611205102828
0.361903919429306
0.402588229416865
0.482038785044689
0.684017672048162
0.336280971893595
0.357879308755831
0.3937459505769
0.463257580665323
0.671113647972295
1.09700496492246
0.849381800807247
1.16119779406969
0.590003057449952
0.448175111241365
1.39883536886202
1.29754263443523
0.384347243753782
1.38511607888759
0.352476969194387
0.333851571405455
0.321874043207243
1.7121454838785
0.313922333047072
0.320755095503057
0.331128622774693
0.348265605206418
0.379677374494822
0.447862209180356
0.689477337153592
1.11423920209355
1.13609833326763
1.23296133192775
1.61171848155144
3.4163461513767
5.32821746006063
1.50924581969294
0.309739010382871
0.313608708891365
0.31950672763712
0.329413658858975
0.347421712029113
0.38347691783166
0.470563539885546
0.665461064472275
1.09224122215283
3.05783482621379
0.307816577642039
0.309863530255534
0.313084010484967
0.318804582733058
0.329539456761709
0.350291353897817
0.392675272903419
0.478057722132025
0.644185361179113
1.05516211405866
2.99309158620776
0.30727901398422
0.308155261731813
0.309672817195759
0.312759485195225
0.319055373058126
0.331378647843894
0.354917195425019
0.398548470468859
0.476857528375911
0.628492230290259
1.0295337603786
2.98427127953559
0.307589827641776
0.307700454539687
0.308100751353672
0.309465452311698
0.312914770547993
0.320171145354115
0.333956834537039
0.358494497087798
0.400194019998449
0.472061927528812
0.615602627970987
1.01076044312521
2.98790298687904
0.30840194476549
0.308014787386204
0.307676378360777
0.307899835580514
0.30948641526498
0.313555661315859
0.321692411962241
0.33615769118531
0.360118379862683
0.398886181489981
0.465651721761318
0.602723645872844
0.991854553390107
2.99352861764217
0.309477970353702
0.308773066275537
0.307951974367228
0.30742244037183
0.307785860789994
0.309810417698023
0.31448646026619
0.32313614501295
0.337499883675301
0.360086559478498
0.395890844234487
0.458112275761569
0.588468910199559
0.967922272422623
2.99515656166915
3.30228304014156
2.35939964016282
4.05506432130428
2.65771734208644
3.30339902915687
3.37520150592032
1.36413284699699
3.08572948319856
2.97197557148364
3.00376432392816
1.02877312201911
0.631689846792097
1.03716061380628
0.482143044702433
0.639701259136915
1.0491388994135
0.406850722268502
0.486486803947984
0.653077287878869
1.08048728481864
0.363543193283884
0.406783735329598
0.48901997725864
0.671397119125914
1.13377330991421
0.337817553704691
0.36181948799152
0.402514447911881
0.483405719547176
0.689369835177831
0.32272719099427
0.336292409494551
0.357668530182493
0.394477859250228
0.470283866599338
0.627501201543986
1.20830069340849
1.34232502259617
0.686477199759996
0.456947864088443
0.387718565731355
1.34371794440904
1.05298314089531
1.30561724579457
0.353067661640829
0.333719639855832
0.32189435511913
0.314148018828359
0.309550384173553
0.313920708195146
0.320557186937629
0.331456376797869
0.350600344531742
0.387334182045715
0.474377646401281
0.669917571885545
1.28102248276281
1.08639949477261
1.21748765329401
1.3320497308393
3.07173664929819
3.50230193117322
0.307399251149124
0.309715106198505
0.313312191480842
0.319501050190953
0.330707584747215
0.351718600314731
0.393922863241665
0.478767513251373
0.642156895364252
1.0439932264819
2.99793891888654
0.30676124029781
0.307777604480168
0.309486333668201
0.312801036869706
0.319313722285151
0.331750646848858
0.355190339587641
0.398476041858444
0.476211892946905
0.627124146752413
1.02761658263817
2.98886304499422
0.307054040319232
0.307232201752861
0.307725286234725
0.309199351910044
0.312750753624883
0.320061222060067
0.333802940912219
0.358164219322357
0.399562590397812
0.47102798664164
0.614028629391732
1.00908957099335
2.99118124721103
0.307900965162911
0.30754048988502
0.307241481156614
0.307511943830255
0.309142355032848
0.313235222491274
0.321354452854827
0.335744123264712
0.359568436661119
0.398150951136606
0.464684052578371
0.601469616804843
0.990521961983901
2.99516680587994
0.309049059263972
0.30835288315863
0.307543201435662
0.307026459961031
0.307401463657141
0.309430880433808
0.314098375171393
0.322720989897458
0.337040333862428
0.359575743617519
0.395346152985401
0.457614666901008
0.58824415222082
0.969287586300957
2.99576576967777
0.310322956184618
0.309427139694244
0.308298334759797
0.307277228173191
0.306839517391555
0.307541227519874
0.310038200972897
0.315158196037388
0.323949995113506
0.337780710391394
0.358868587203877
0.39208906913907
0.450244752195043
0.573734801324684
0.945896005690945
2.99012765280751
3.33461550202667
3.77006520625492
1.3139560936219
3.28920663366217
3.0693312514865
3.07958676900357
3.01128048455456
3.01301870303033
3.00833689142374
1.0136963315183
0.62237881894536
1.02484975437009
0.475895845408676
0.629637291993706
1.03018229122489
0.403842841451317
0.4812326348386
0.63704301521437
1.04089961845922
0.362845575905973
0.40644495132187
0.485658022627723
0.64856577697257
1.06464162812907
0.338023650162517
0.363355570475876
0.406154476811119
0.487888817599778
0.661930393076855
1.12422785542504
0.32295105569287
0.337738579307113
0.361271072347427
0.402105602949255
0.483587398094419
0.667710436251515
0.314093110924324
0.322681673349657
0.335885327997636
0.357425201743251
0.395691024717135
0.468714709583565
0.667073821897376
0.662036882863038
0.474984914091882
0.391595626563204
0.35408746752063
1.22663101791177
0.333545142787748
0.321527833009331
0.314104195933499
0.309221186048446
0.306890063935855
0.309500477371233
0.313526256095047
0.320276129476275
0.332092711635563
0.353469015565229
0.395260199618346
0.478893624144833
0.638758400732685
1.0297458184628
1.06447710476578
1.12924567773286
3.00008227899588
3.07190656630341
0.306165760662595
0.307344585078655
0.309281770262483
0.312880376704178
0.319679874429995
0.332284946686772
0.355591943173749
0.398340041946271
0.474943626452861
0.623255717615541
1.02236095288678
2.99115032786741
0.306442841936331
0.306705241129767
0.307315894997694
0.30893252014705
0.312623027597919
0.320014464532964
0.333702591988971
0.357814249846254
0.398765075790722
0.469611977892461
0.611868552723786
1.00692588187732
2.99396732118938
0.307322380069965
0.30699975260224
0.306756124294405
0.307094027497719
0.308789582808954
0.312920322881834
0.321016468405009
0.33529012265987
0.35889407817781
0.39716758871289
0.463315788185536
0.599683194121366
0.988848921601325
2.99700730793372
0.30853512843126
0.307850448904974
0.307061410447975
0.306571087824835
0.306971503552094
0.309014732361334
0.31367037570099
0.322241331171545
0.336461704441432
0.358855028883883
0.394451561187453
0.456522066108674
0.586957011451827
0.968274807178878
2.99660128934379
0.309895829739509
0.309002691483521
0.307877882290622
0.306860799965265
0.306426118721737
0.307127123089711
0.309614703828097
0.314712138584901
0.323466137996067
0.337246827525924
0.358282278883892
0.391473192884236
0.449711463481555
0.573693091404766
0.948601922565736
2.99040918117553
0.311273709038067
0.310276916220542
0.308959082557393
0.307621470224114
0.306663243497969
0.30651271753055
0.307631194113739
0.310572117829882
0.316018916903717
0.324814621109887
0.338127443493038
0.358055663191587
0.38928153127117
0.443875726927225
0.56109327587004
0.92942916227457
2.98566187714882
3.05623599970376
3.16170703092804
3.23438980404345
3.06894460210307
2.99976729198843
3.00145019948349
3.00574058123256
3.00813059623584
3.02784121722513
0.99793392319927
0.611592655130473
1.0106499018788
0.468734067528009
0.619712711925788
1.01576309160328
0.399267200271518
0.474617407391832
0.625361588298971
1.02050479082492
0.360399824888333
0.403251742399098
0.47912712061847
0.631957488371299
1.03142177980467
0.336908581173999
0.362563151835066
0.405242848997473
0.48297795791664
0.640680177477375
1.05463872551514
0.322388636079166
0.337872076927408
0.362516829386348
0.404741263474312
0.484283743264495
0.650805451701909
1.09404907843835
0.313620382187695
0.322848622362726
0.337107523113313
0.360354561537846
0.401171351736241
0.479145062692942
0.662544561975835
0.308668094324672
0.314008217607047
0.322152626417326
0.33523025011078
0.357213703178777
0.396027724081659
0.47515250662062
0.645362914371645
0.630762786531332
0.476530678937565
0.396166266900987
0.355282306502975
0.333458336807733
1.07812439949593
0.320951212773002
0.313606013915178
0.309143829528733
0.306243522533403
0.305467566976131
0.306817748132524
0.309003740416197
0.312923665407885
0.32006560833454
0.332887747980913
0.356002084074634
0.397907584985471
0.47286842874765
0.61769591770839
1.00795026814908
1.01216401719227
1.03403697431328
2.99026653716106
2.99792346746927
0.305741521402282
0.306098685792405
0.306844782247616
0.30863072461578
0.312493541995096
0.319992519888031
0.333614423342692
0.357381556996369
0.397668928438933
0.467437682593061
0.608324453430189
1.00324135904864
2.99526277948359
0.306657694577433
0.306381832392861
0.306206671150996
0.306629623848182
0.308409896028033
0.312592705360287
0.320660543301939
0.334775625967271
0.358068556171256
0.395897261483959
0.461498268069158
0.597319841547418
0.986690395321069
2.99858999754695
0.307935955723379
0.307268134476791
0.306508134223846
0.306055498294778
0.306493248327669
0.308558271296129
0.313198604988719
0.321693475553222
0.335761659632682
0.357929826538088
0.393244389040515
0.454988114674241
0.585108208460935
0.966990924417692
2.99754514113207
0.309381427810763
0.308487867360018
0.307370034382328
0.306364035655102
0.305940347061444
0.306645601395814
0.309121545244515
0.314181119198355
0.322863308218859
0.336537525800265
0.357438798807226
0.390477121234491
0.448555556075714
0.572452298483222
0.948023717218054
2.99079652509059
0.310855311261818
0.309854507467127
0.308535196115132
0.307195440146479
0.306233730775703
0.306077057687497
0.307184139834301
0.310104425372102
0.315518874056607
0.324270783624833
0.337532197605202
0.357410792803504
0.388617840390079
0.443351440125771
0.561393779049352
0.934097015701717
2.98577903209545
0.312246182728172
0.311233466977709
0.309821305138322
0.308298281377467
0.307019220917169
0.30633562673077
0.306593374042138
0.308187082051831
0.311599238734711
0.317413322572479
0.326367489319814
0.339571570279529
0.359087278796431
0.389382106454394
0.441899412645989
0.555817911620552
0.926553493255796
2.99888807497721
2.99350576875891
3.03230790940339
3.08245556343003
3.06078317163339
3.00936852486625
2.98457009480461
2.98753400695268
3.01411896062522
3.0215496327272
3.03653468009294
0.979394060121513
0.599652487803709
0.994889213186764
0.460717773771528
0.608830028732434
1.00111470350365
0.393779016924606
0.467251255378872
0.61468123178234
1.00493383098959
0.356811084117376
0.398537785492701
0.471897311895479
0.619565507713871
1.01200368108583
0.334717037032281
0.360033357758551
0.401636158395343
0.475668995175062
0.625313050118807
1.02291591956846
0.321037065139645
0.336697190441151
0.361481264176054
0.403093849253704
0.478458396830469
0.632103792301866
1.03772818011399
0.3126538079611
0.322238715217643
0.337060380228896
0.361068047449478
0.402343265266275
0.478728407325479
0.639225922596696
1.03893533378319
0.307823044594417
0.313498363765756
0.322178405158404
0.336046637240245
0.359091285708876
0.399199114763301
0.476503302952773
0.634014035736029
0.30541582918732
0.30856357132536
0.313408972789559
0.321290514828285
0.334450064905539
0.356799517599847
0.396853507015379
0.472916472984972
0.620577945313816
0.610406303981699
0.46940041792381
0.396846792278481
0.356227448119474
0.333383943731647
0.320321818120283
1.01701733357542
0.312822220445654
0.30858012961659
0.306152448568187
0.304641151272154
0.304934982256333
0.305387948117684
0.306275072529909
0.308242645641248
0.312296821349972
0.319919918790543
0.333455227241322
0.356760156015066
0.396138246285567
0.464427957871314
0.602814648040186
0.99566925485621
0.993688111539722
0.995582905536622
2.99459691151431
2.98727487010692
0.305897172612226
0.305672307906578
0.305573113070669
0.306092555887442
0.307971536253129
0.31221679642397
0.320248285828022
0.334156101640871
0.357030670530915
0.39423525895142
0.459035377317642
0.594058628345972
0.983502058212702
2.99938214100154
0.30724497268943
0.306598247092651
0.305873524838054
0.305466885956597
0.305951100307004
0.308043873904291
0.312664131627754
0.321056868199037
0.334916683206087
0.356772838940069
0.391696525311329
0.452998340711319
0.582713306152811
0.965278500515511
2.99837810078771
0.308777998740605
0.307885733554314
0.306778073336087
0.305788310537636
0.305381240198238
0.306094001268739
0.308554803702769
0.313560308864723
0.322136066096781
0.335648298331785
0.356341134223273
0.389136308073323
0.446942726227264
0.570640111028739
0.947159428814822
2.99123775034206
0.310352729074104
0.309339565746686
0.308016288667477
0.306676155219371
0.305714113545941
0.305553148755246
0.30664598879442
0.309534851530179
0.314894281444873
0.323564941347417
0.33672180993936
0.35647917005096
0.387554982192976
0.442168707966888
0.560262081073236
0.934176838411082
2.98594198261141
0.311856265509056
0.310820020700369
0.309400035119821
0.307870188488518
0.3065829266463
0.305888828430893
0.306132163438683
0.307705339580626
0.311088202267899
0.316863152868762
0.325770052529491
0.338922761751896
0.358392385481625
0.388684159982664
0.441436681344324
0.55668854151629
0.933974773115213
2.99893109267932
0.312211595690079
0.310792817066341
0.309185598387617
0.307730125341415
0.306733917384316
0.306474511096018
0.307254033248094
0.30944124431899
0.313486609449187
0.319946381679345
0.329574914191022
0.343572923346984
0.364146519568699
0.395938318602154
0.451005253276144
0.57166718265582
0.95252138992759
3.0317822479779
2.98505478416789
2.9905910615474
3.0155450962624
3.03341480276552
3.01594593640237
2.99543519391941
2.98366166585928
2.98972233126433
3.02259178430096
3.0212067382113
3.04553202037889
0.959224737542584
0.586433992680125
0.976958261886378
0.451975339416581
0.596866649838727
0.985109576896969
0.387680802681227
0.459154188555569
0.603548199533629
0.989668900678345
0.352521039337274
0.392966117648229
0.464225770162011
0.608413229045274
0.996232537190532
0.331765956112451
0.356381899024721
0.396674677188338
0.468007567918175
0.613149889612625
1.00434598010828
0.319020410289877
0.334457837729826
0.358770067766085
0.399036161922002
0.470994069632826
0.617868954400833
1.01145948544963
0.311199548148184
0.32084824974829
0.335744140358222
0.359644784158026
0.399941653795237
0.472747093853059
0.621860042130854
1.01344186663646
0.306654978826591
0.312499671927666
0.321452103453661
0.335678649122979
0.359036702298991
0.39899778934948
0.472640951238137
0.620847144404921
1.00302810507961
0.304376805551481
0.307693088686507
0.3128079192087
0.321066185335537
0.334672758359004
0.357405497324169
0.396966362007166
0.469609819582681
0.612328157477761
0.303666096715894
0.30530580108523
0.307933643583673
0.312448189392593
0.320255044125163
0.333532152382856
0.356112189986228
0.395315437613215
0.46511984394664
0.602852363511689
0.596233198087826
0.460606160866741
0.394036652478006
0.355823322746749
0.333100179929544
0.319680640125578
0.311940024491128
0.98781744762747
0.307702499865191
0.305564216462768
0.304548012715962
0.304010711945351
0.30503274566974
0.304856368553832
0.304831864629584
0.305448531754327
0.307428677862209
0.311736652728514
0.319716904998216
0.333363198168652
0.355704788241188
0.392106545995251
0.455809321456147
0.58952103269175
0.978672034933046
0.985988549193418
0.98042649749251
2.99913610234045
2.99267310060235
0.306455944398828
0.305831299523248
0.305143834143911
0.30478644298057
0.305320894576298
0.307442650251804
0.312034446303815
0.320295750712979
0.333886387342828
0.355335097861506
0.389742422847624
0.450459198839391
0.579620100956638
0.962662100439852
2.99884994914434
0.308079611489105
0.307190491382728
0.306095125253045
0.305124443929611
0.304736766863088
0.305457684631071
0.307897706839906
0.312831124978862
0.321263942139861
0.334556874181499
0.354967031955728
0.387435476286695
0.444882859310177
0.568309961990325
0.945903841225236
2.99164505373028
0.309758427817205
0.308733643115918
0.307406320796585
0.306066674183872