/*--------------------------------*- C++ -*----------------------------------*\
  =========                 |
  \\      /  F ield         | OpenFOAM: The Open Source CFD Toolbox
   \\    /   O peration     | Website:  https://openfoam.org
    \\  /    A nd           | Version:  12
     \\/     M anipulation  |
\*---------------------------------------------------------------------------*/
/*   Windows 32 and 64 bit porting by blueCAPE: http://www.bluecape.com.pt   *\
|  Based on Windows porting (2.0.x v4) by Symscape: http://www.symscape.com   |
\*---------------------------------------------------------------------------*/
FoamFile
{
    format      ascii;
    class       volScalarField;
    location    "200";
    object      p;
}
// * * * * * * * * * * * * * * * * * * * * * * * * * * * * * * * * * * * * * //

dimensions      [0 2 -2 0 0 0 0];

internalField   nonuniform List<scalar> 
10063
(
83333.3333073681
83333.3333102452
83333.3333044817
83333.3333123569
83333.3332412904
83333.3333076166
83333.3333142027
83333.3332496588
83333.3333099911
83333.3331207353
83333.3332346243
83333.3333031165
83333.3333157625
83333.3332564697
83333.3333121292
83333.3331404111
83333.3332436534
83333.3333061023
83333.3329558075
83333.3331087078
83333.3332212639
83333.3332962555
83333.33331528
83333.3332616837
83333.3333137554
83333.3331551216
83333.3332511674
83333.3333085999
83333.3329898292
83333.3331292316
83333.3332318471
83333.3332999073
83333.3327619234
83333.3329406777
83333.3330865109
83333.3331991837
83333.3332863667
83333.3333143602
83333.3332614245
83333.3333134124
83333.333164725
83333.3332568175
83333.3333103854
83333.3330145977
83333.3331447122
83333.3332402666
83333.3333028349
83333.3328108188
83333.3329754113
83333.3331086753
83333.3332115864
83333.3332906106
83333.3325552406
83333.3327464728
83333.3329146429
83333.3330489408
83333.3331660529
83333.3332743179
83333.3333103774
83333.3332583881
83333.3333124263
83333.3331659523
83333.3332566955
83333.333310143
83333.3330303461
83333.3331551305
83333.3332466304
83333.3333048939
83333.3328466951
83333.3330009066
83333.333125434
83333.3332213257
83333.3332939687
83333.3326182291
83333.3327958108
83333.3329505619
83333.3330732365
83333.3331802007
83333.3332790648
83333.3323482624
83333.3325417462
83333.3327211359
83333.3328715607
83333.3329913349
83333.3331287137
83333.3332683437
83333.3333112941
83333.3332471062
83333.3333098111
83333.3331586441
83333.3332534449
83333.3333090657
83333.3330348629
83333.3331569932
83333.3332468422
83333.3333049252
83333.3328702275
83333.3330175396
83333.3331372388
83333.3332285654
83333.3332962513
83333.3326652452
83333.332832237
83333.3329772812
83333.3330917773
83333.3331912418
83333.3332828796
83333.3324236196
83333.3326048486
83333.3327710795
83333.3329091136
83333.3330181412
83333.3331445954
83333.3332738751
83333.3321500858
83333.3323374439
83333.3325191726
83333.3326804255
83333.3328029207
83333.3329180147
83333.3330951867
83333.3333104164
83333.3332398573
83333.3333133952
83333.3331387323
83333.3332449729
83333.3333066445
83333.3330253756
83333.3331508827
83333.3332440308
83333.3333038612
83333.3328796909
83333.3330234947
83333.3331406084
83333.3332298011
83333.3332964638
83333.3326973871
83333.3328565392
83333.3329954656
83333.3331052339
83333.3331990492
83333.3332857399
83333.3324808989
83333.3326521331
83333.332808378
83333.3329375344
83333.3330388488
83333.3331570651
83333.3332782856
83333.3322356202
83333.3324126647
83333.3325823859
83333.3327312487
83333.332842876
83333.3329481189
83333.3331134245
83333.3319668148
83333.3321416212
83333.3323179428
83333.332482732
83333.3326176143
83333.3326967345
83333.3328407544
83333.3333083616
83333.333242018
83333.3333130333
83333.3330985449
83333.3332357049
83333.3332654311
83333.3329957237
83333.3331337455
83333.3332397943
83333.3332343062
83333.3333022901
83333.3333085415
83333.3328714085
83333.3330161706
83333.3331363114
83333.3332270946
83333.3332954283
83333.3327137319
83333.3328674725
83333.3330041001
83333.3331104842
83333.3332004881
83333.3332861674
83333.3325214862
83333.3326847163
83333.332833978
83333.3329576277
83333.3330540048
83333.3331660052
83333.3332816539
83333.3323018787
83333.3324699834
83333.3326301199
83333.3327697617
83333.33287367
83333.3329718513
83333.3331277019
83333.3320601979
83333.3322268775
83333.3323929263
83333.3325461907
83333.3326699235
83333.3327410074
83333.3328750357
83333.3318020954
83333.3319601086
83333.3321249856
83333.3322855878
83333.3324266148
83333.3325222677
83333.3324732355
83333.3325013471
83333.33330599
83333.3332362408
83333.333106289
83333.3332366325
83333.3332689188
83333.3329247792
83333.3330970071
83333.3331870275
83333.3328397627
83333.3329923869
83333.3331253899
83333.3332215831
83333.3332352021
83333.3332353984
83333.333300229
83333.3332945923
83333.3327100191
83333.3328608766
83333.3329995812
83333.3331071674
83333.3331972195
83333.3332851146
83333.3325452626
83333.3327019978
83333.3328473063
83333.3329690692
83333.3330602709
83333.3331679919
83333.3332829388
83333.3323504641
83333.332510714
83333.3326635109
83333.3327969553
83333.3328958775
83333.3329892168
83333.3331379898
83333.3321339792
83333.3322930555
83333.3324503592
83333.3325945993
83333.3327101373
83333.3327757988
83333.3329023959
83333.3319010484
83333.3320531488
83333.3322097888
83333.3323603609
83333.332490766
83333.3325775785
83333.3325281321
83333.3325528677
83333.3316576822
83333.3317966749
83333.3319460419
83333.3320965946
83333.3322356776
83333.3323438094
83333.3323680455
83333.3322249532
83333.3322392366
83333.3332995627
83333.3332266663
83333.3331062213
83333.3328432945
83333.3327020019
83333.3329420481
83333.3327712514
83333.3331046071
83333.3326849624
83333.3328338557
83333.332983553
83333.3330972588
83333.3332151672
83333.3331914864
83333.333292379
83333.3332847274
83333.3325498436
83333.3326993479
83333.3328430122
83333.3329664665
83333.3330566754
83333.3331648889
83333.3332829564
83333.3323819124
83333.3325347145
83333.3326823261
83333.332812829
83333.3329088413
83333.332996321
83333.3331412284
83333.3321898846
83333.3323416589
83333.33249146
83333.3326290088
83333.3327389592
83333.332801191
83333.3329225394
83333.331980803
83333.3321268031
83333.3322758755
83333.3324180374
83333.3325402286
83333.332620655
83333.3325720507
83333.3325949648
83333.3317600957
83333.3318952599
83333.3320385041
83333.3321808697
83333.3323105142
83333.3324096595
83333.3324292934
83333.3322899453
83333.3323022179
83333.3315339683
83333.3316532574
83333.3317848845
83333.3319215463
83333.332052804
83333.3321638254
83333.3322244501
83333.3321750994
83333.3320136529
83333.3320248984
83333.3332929699
83333.3332012105
83333.3330980076
83333.3328419316
83333.3327587806
83333.3328070554
83333.3325080253
83333.3327143441
83333.3326313983
83333.3328105225
83333.3329527715
83333.3327718931
83333.3326298213
83333.3330806548
83333.3325347533
83333.3326770293
83333.3328214944
83333.3329546837
83333.3330465547
83333.3331898134
83333.3331604799
83333.333285382
83333.3332806299
83333.3323959233
83333.3325402441
83333.3326809014
83333.3328102103
83333.3329059771
83333.3329917475
83333.3331384978
83333.3322289242
83333.3323732038
83333.332516111
83333.3326492412
83333.3327560781
83333.3328150708
83333.332930134
83333.3320430864
83333.3321826828
83333.3323246125
83333.3324596876
83333.3325757757
83333.3326516679
83333.3326044595
83333.3326268394
83333.3318442611
83333.3319748747
83333.3321119544
83333.3322469052
83333.3323687141
83333.3324609666
83333.3324776228
83333.3323420962
83333.3323528659
83333.3316379795
83333.3317552976
83333.3318828245
83333.3320132625
83333.3321366581
83333.3322393469
83333.3322936126
83333.3322433492
83333.3320860346
83333.3320958147
83333.3314303733
83333.3315303655
83333.3316434834
83333.3317641286
83333.3318838817
83333.3319909754
83333.3320663758
83333.3320737408
83333.331981704
83333.3318299436
83333.3318388401
83333.3332928773
83333.3331736238
83333.3330638531
83333.332866525
83333.3326583191
83333.3327406933
83333.3327595909
83333.3325129545
83333.3323810398
83333.3324911472
83333.3325004749
83333.3327019348
83333.3326446324
83333.3325387208
83333.3326257896
83333.3329313394
83333.3327695046
83333.3328286274
83333.332624553
83333.3324969669
83333.3330350348
83333.3323914805
83333.3325261891
83333.3326618556
83333.3327916908
83333.3328929773
83333.3329782473
83333.3331722782
83333.3331272392
83333.3332864083
83333.3322516301
83333.3323874482
83333.3325226059
83333.3326493604
83333.3327530769
83333.3328099594
83333.3329243952
83333.3320891735
83333.3322217625
83333.3323564615
83333.3324851189
83333.3325969471
83333.3326692272
83333.3326228478
83333.3326438925
83333.3319117943
83333.3320371263
83333.332167857
83333.3322959075
83333.3324111041
83333.3324980868
83333.3325127905
83333.332381587
83333.3323922857
83333.3317250536
83333.3318393184
83333.3319621744
83333.3320864665
83333.3322028152
83333.3322986201
83333.3323480811
83333.3322978308
83333.3321445214
83333.3321530892
83333.3315344116
83333.3316340076
83333.3317448467
83333.3318611787
83333.3319748103
83333.3320747424
83333.3321435128
83333.3321472996
83333.3320561885
83333.3319079501
83333.3319157885
83333.3313456528
83333.3314274708
83333.3315223712
83333.3316262076
83333.3317323702
83333.3318315241
83333.3319101005
83333.331946117
83333.3319122372
83333.3318074451
83333.3316710783
83333.3316779719
83333.3331586133
83333.333006895
83333.3329132404
83333.3327302258
83333.3328340356
83333.3325492575
83333.3327618448
83333.3323836298
83333.3324837263
83333.3322926326
83333.3323763176
83333.3323734366
83333.3324388063
83333.3324885038
83333.3325024409
83333.3324440307
83333.3324800236
83333.3325878372
83333.332437076
83333.3325340072
83333.33262319
83333.3328615769
83333.3327443196
83333.3328246005
83333.3326133501
83333.3327416825
83333.3327041756
83333.3324897195
83333.3323698103
83333.333012336
83333.3322583848
83333.3323836808
83333.3325100589
83333.3326319083
83333.3327330824
83333.33278913
83333.3329060152
83333.3329923599
83333.3331354824
83333.3330714237
83333.3321200655
83333.3322446029
83333.332371201
83333.3324925418
83333.3325970515
83333.3326634938
83333.3326155019
83333.3326370621
83333.3319640537
83333.332083243
83333.3322071183
83333.3323282399
83333.3324372666
83333.3325200177
83333.3325327996
83333.3324054263
83333.3324144057
83333.3317966161
83333.3319068192
83333.3320243952
83333.3321424727
83333.3322522836
83333.332342167
83333.3323878806
83333.3323382823
83333.3321893569
83333.3321972025
83333.3316230238
83333.3317209339
83333.3318285664
83333.3319401499
83333.3320478329
83333.3321413861
83333.3322046985
83333.3322059833
83333.3321163981
83333.331971804
83333.3319787201
83333.3314484579
83333.3315311493
83333.3316253271
83333.3317265928
83333.3318283673
83333.3319217777
83333.3319942969
83333.3320256336
83333.3319901557
83333.3318868608
83333.3317533716
83333.3317595486
83333.3312781642
83333.3313433477
83333.3314210294
83333.3315082391
83333.3315999146
83333.3316887702
83333.3317645975
83333.3318127053
83333.3318140935
83333.3317569434
83333.331654303
83333.3315359769
83333.33154145
83333.3329841608
83333.3328126215
83333.3327851038
83333.3328459929
83333.3325119419
83333.3327302023
83333.3325368124
83333.3326450445
83333.3322929168
83333.3323780253
83333.3322200366
83333.3322872506
83333.3322904645
83333.3323470432
83333.3323731729
83333.3323835719
83333.3323666171
83333.3324350332
83333.3324889253
83333.3325122922
83333.3323322204
83333.3324311526
83333.3325250608
83333.3326083444
83333.3327725549
83333.3326843446
83333.3327169074
83333.3325866158
83333.3326995056
83333.3327532627
83333.3327315325
83333.3324754878
83333.332362657
83333.3322504464
83333.332924197
83333.3329963708
83333.3321367637
83333.3322516638
83333.332368401
83333.3324812431
83333.3325789607
83333.3326336847
83333.3327370508
83333.3325848896
83333.3326161298
83333.3329110275
83333.3329056313
83333.3329567551
83333.3320022474
83333.3321142423
83333.3322303181
83333.332343676
83333.3324451761
83333.3325187732
83333.3325267629
83333.3323995966
83333.3324069284
83333.3318539772
83333.3319591062
83333.3320706429
83333.3321820954
83333.3322852804
83333.3323692787
83333.332411658
83333.3323627107
83333.3322188572
83333.3322259969
83333.3316974041
83333.3317924587
83333.3318960005
83333.3320023664
83333.3321041027
83333.3321916938
83333.3322502123
83333.3322496326
83333.3321622541
83333.3320216909
83333.3320277874
83333.3315374198
83333.3316196119
83333.3317119292
83333.3318098404
83333.3319069252
83333.3319948276
83333.3320619784
83333.3320895334
83333.3320532596
83333.3319519974
83333.331821933
83333.3318274724
83333.3313787752
83333.331445807
83333.3315240288
83333.3316101718
83333.3316990681
83333.3317836595
83333.331854414
83333.3318977984
83333.3318962061
83333.3318386041
83333.3317375014
83333.3316214097
83333.3316264422
83333.3312260801
83333.3312763621
83333.3313382387
83333.3314096616
83333.3314868366
83333.3315641642
83333.33163389
83333.3316853931
83333.3317053402
83333.3316821377
83333.3316157613
83333.3315219748
83333.3314230397
83333.3314279137
83333.3327883428
83333.3326916434
83333.3324751981
83333.332491504
83333.3327617788
83333.3323853893
83333.3325016132
83333.3322203061
83333.3322916524
83333.3321588085
83333.3322156214
83333.3322175747
83333.3322679828
83333.332285067
83333.3322877806
83333.332296497
83333.3323437668
83333.332372921
83333.3323680583
83333.3322846439
83333.3323619556
83333.3324286435
83333.3324728732
83333.3322298633
83333.3323259675
83333.3324189177
83333.33250357
83333.3325798552
83333.3326640048
83333.3326582928
83333.3328631053
83333.3325575979
83333.3325345429
83333.3326409625
83333.3324759589
83333.3324487342
83333.3326443322
83333.3323484985
83333.3322441527
83333.3321406633
83333.3329073327
83333.332027597
83333.3321311464
83333.3322379965
83333.3323419635
83333.3324345376
83333.3324976849
83333.332497582
83333.3326296635
83333.3328446458
83333.3323715488
83333.3325027815
83333.3323765703
83333.3325446158
83333.3328843192
83333.3318983756
83333.3319973936
83333.3321019362
83333.3322059156
83333.3323015902
83333.3323776639
83333.3324118929
83333.332360479
83333.3322208422
83333.3322248413
83333.3317587321
83333.3318498401
83333.3319483817
83333.3320488957
83333.33214433
83333.3322257365
83333.33227925
83333.3322767718
83333.3321921112
83333.3320565273
83333.3320622593
83333.3316134938
83333.3316939454
83333.3317833556
83333.331877182
83333.331969231
83333.3320516542
83333.3321137443
83333.33213797
83333.3321014513
83333.3320029294
83333.3318770925
83333.3318820523
83333.3314671074
83333.3315346193
83333.331612153
83333.3316962361
83333.3317817254
83333.331861878
83333.3319278257
83333.3319670754
83333.3319632227
83333.3319058588
83333.3318069555
83333.331693946
83333.3316985723
83333.3313238041
83333.3313766453
83333.3314400394
83333.3315116274
83333.331587432
83333.331661911
83333.331727716
83333.3317750154
83333.331791535
83333.331766596
83333.3317003579
83333.3316079288
83333.331510567
83333.3315152515
83333.3311875448
83333.3312246946
83333.3312723757
83333.3313292441
83333.3313925177
83333.3314579448
83333.3315196371
83333.3315696719
83333.3315982329
83333.3315958099
83333.3315583118
83333.3314917411
83333.3314106687
83333.3313307505
83333.331335964
83333.3324358706
83333.3326895831
83333.3324029657
83333.3326597277
83333.3323382186
83333.3323689126
83333.3324800189
83333.3322884223
83333.3321590488
83333.3322182084
83333.3321077629
83333.3321556399
83333.3321562509
83333.3322010931
83333.3322130487
83333.3322121019
83333.332231654
83333.3322650349
83333.332280926
83333.3322747513
83333.3322338107
83333.3322925434
83333.3323378396
83333.3323568742
83333.3323391906
83333.3322002176
83333.3322793163
83333.3323517333
83333.3324099096
83333.332441342
83333.3321337101
83333.3322241548
83333.3323132773
83333.3323953223
83333.3324610184
83333.3324704542
83333.3326315429
83333.3328246542
83333.3324376455
83333.3324500206
83333.3324039871
83333.3325138494
83333.3325439093
83333.3323848888
83333.3323236571
83333.3322313349
83333.3321353593
83333.3320415252
83333.3319310642
83333.3320229127
83333.332119322
83333.3322145539
83333.3323010742
83333.3323676355
83333.3323928191
83333.3323379039
83333.3328031534
83333.3322051545
83333.3323216384
83333.3324091595
83333.3322058815
83333.3323208511
83333.3318081733
83333.3318943173
83333.3319869128
83333.3320807421
83333.332169101
83333.3322432733
83333.3322898016
83333.3322826862
83333.3321989649
83333.3320725508
83333.332075896
83333.3316776886
83333.3317552805
83333.3318407919
83333.3319297627
83333.3320162607
83333.3320928779
83333.3321496273
83333.3321703065
83333.3321336002
83333.3320386592
83333.3319184762
83333.3319228696
83333.3315438883
83333.3316106371
83333.3316863592
83333.3317674926
83333.3318489959
83333.3319244656
83333.3319856512
83333.3320210132
83333.3320152974
83333.3319587648
83333.3318629052
83333.3317541385
83333.3317584651
83333.331410737
83333.3314648302
83333.331528507
83333.3315991705
83333.3316727754
83333.3317439414
83333.3318057608
83333.3318491438
83333.3318627655
83333.3318367404
83333.3317713408
83333.3316810617
83333.3315861839
83333.3315906485
83333.3312819179
83333.3313221115
83333.3313720309
83333.331430029
83333.3314931019
83333.3315569477
83333.3316158879
83333.331662514
83333.3316877895
83333.3316830267
83333.3316446138
83333.3315784353
83333.3314984185
83333.3314195008
83333.3314246825
83333.3311607809
83333.3311864991
83333.3312216382
83333.3312653774
83333.3313157266
83333.3313694972
83333.3314222224
83333.3314679207
83333.3314991824
83333.3315083834
83333.3314905951
83333.331447084
83333.3313860429
83333.3313194298
83333.3312581487
83333.331263918
83333.3322595491
83333.3323111499
83333.3325294636
83333.3322879822
83333.3322483365
83333.3322755188
83333.3322126834
83333.3321079363
83333.3321566519
83333.3320654652
83333.3321052228
83333.3321052378
83333.3321445446
83333.3321530699
83333.3321503234
83333.3321742568
83333.3321982403
83333.3322074108
83333.3321992001
83333.3321839229
83333.3322280649
83333.3322583452
83333.3322666546
83333.3322478613
83333.3321658741
83333.332229191
83333.3322835729
83333.3323208085
83333.3323256868
83333.3322861122
83333.3321184939
83333.3321951675
83333.3322682161
83333.332331125
83333.3323731687
83333.3323655845
83333.3320457724
83333.3321288218
83333.3322124405
83333.3322906975
83333.3323553505
83333.3323863961
83333.3323652448
83333.3322967639
83333.3323523336
83333.3323392281
83333.3322849509
83333.3323075581
83333.3322092466
83333.3321242123
83333.3320370904
83333.3319533995
83333.3318469108
83333.3319271459
83333.3320128295
83333.3320989726
83333.3321791371
83333.3322447824
83333.3322827958
83333.3322703277
83333.3321878849
83333.3320698962
83333.3321772588
83333.3322625068
83333.3320711509
83333.3321755907
83333.3317310407
83333.3318047809
83333.3318854609
83333.3319687563
83333.332048999
83333.3321191085
83333.3321695467
83333.3321854896
83333.3321476476
83333.3320573045
83333.3319451803
83333.3319491115
83333.3316099465
83333.3316748234
83333.3317477079
83333.331825041
83333.331901935
83333.3319723144
83333.3320284628
83333.3320597297
83333.3320520959
83333.3319968065
83333.3319050747
83333.3318020867
83333.3318061261
83333.3314874008
83333.3315415474
83333.3316043729
83333.3316731409
83333.3317438183
83333.3318112341
83333.3318689155
83333.3319084623
83333.3319194477
83333.3318927813
83333.3318289004
83333.3317417698
83333.3316505831
83333.3316549907
83333.3313668749
83333.3314089019
83333.3314598732
83333.3315178928
83333.3315798351
83333.3316414495
83333.3316973286
83333.3317405798
83333.3317628895
83333.3317563047
83333.3317176192
83333.3316525704
83333.3315744344
83333.3314973286
83333.3315023528
83333.3312515263
83333.3312805865
83333.3313184643
83333.3313640556
83333.3314151344
83333.331468397
83333.3315194545
83333.3315626387
83333.3315910869
83333.3315978493
83333.3315785539
83333.331534638
83333.33147403
83333.3314081597
83333.3313473899
83333.3313532703
83333.3311441428
83333.3311600062
83333.3311842011
83333.3312162905
83333.3312548917
83333.3312976474
83333.3313411802
83333.3313809431
83333.3314112786
83333.3314261211
83333.3314207307
83333.3313941461
83333.3313506645
83333.3312985349
83333.3312471201
83333.3312038803
83333.3312104376
83333.332141726
83333.3322026106
83333.3322239728
83333.3322085292
83333.3321771065
83333.3321997644
83333.3321507006
83333.3320656055
83333.332105465
83333.3320306482
83333.3320634272
83333.3320631601
83333.3320968708
83333.3321027831
83333.3320996519
83333.3321243708
83333.3321417906
83333.3321470292
83333.3321386272
83333.3321377955
83333.3321708937
83333.3321914458
83333.3321940113
83333.3321766291
83333.3321301261
83333.3321798695
83333.3322198758
83333.3322428022
83333.3322395171
83333.3322079296
83333.3320980336
83333.3321614271
83333.3322194944
83333.3322654899
83333.3322891246
83333.3322739802
83333.3322234165
83333.332042365
83333.3321140899
83333.3321847072
83333.3322481743
83333.3322962658
83333.3323130613
83333.3322856065
83333.331966908
83333.3320416565
83333.3321185392
83333.3321921378
83333.3322553507
83333.3322968115
83333.3322998775
83333.3322455756
83333.3321654511
83333.3322424842
83333.3322599305
83333.3322316484
83333.3321758551
83333.3322036283
83333.3321050177
83333.3320275591
83333.3319496817
83333.3318761834
83333.3317746123
83333.3318436286
83333.3319186116
83333.3319953906
83333.3320685401
83333.3321312551
83333.3321743802
83333.3321841754
83333.3321445946
83333.3320584317
83333.331959096
83333.3320586325
83333.3321435889
83333.3319615455
83333.3320585395
83333.331666167
83333.331728213
83333.3317973451
83333.3318700668
83333.3319416754
83333.3320063944
83333.332056933
83333.3320834515
83333.3320733378
83333.3320194241
83333.3319331695
83333.3318379978
83333.331841771
83333.3315544512
83333.331607583
83333.331668534
83333.3317345162
83333.3318015705
83333.3318647553
83333.3319180002
83333.331953537
83333.3319618376
83333.3319347358
83333.3318730606
83333.3317902532
83333.3317041104
83333.3317084868
83333.331442763
83333.3314854972
83333.3315364202
83333.3315934704
83333.3316534723
83333.3317122861
83333.3317647995
83333.331804617
83333.3318241063
83333.3318160275
83333.3317775995
83333.3317144454
83333.3316392008
83333.3315650249
83333.3315700223
83333.3313341026
83333.3313654079
83333.3314049211
83333.33145129
83333.3315021376
83333.3315541404
83333.3316030576
83333.3316435628
83333.3316693253
83333.3316740131
83333.3316537416
83333.3316100668
83333.3315506244
83333.3314862249
83333.3314265869
83333.3314323357
83333.3312311327
83333.3312504866
83333.3312777385
83333.3313121928
83333.3313522335
83333.3313953519
83333.3314381622
83333.3314762891
83333.3315044409
83333.3315170683
83333.3315099527
83333.3314824545
83333.3314388581
83333.3313871137
83333.3313361564
83333.3312930744
83333.3312999104
83333.3311361752
83333.3311435788
83333.3311583167
83333.3311801978
83333.3312083008
83333.3312409112
83333.3312754914
83333.3313085766
83333.3313358131
83333.3313523978
83333.3313541357
83333.3313391093
83333.3313091651
83333.331269845
83333.3312285996
83333.3311926481
83333.3311665749
83333.3311737986
83333.3320425372
83333.3321085812
83333.3321490847
83333.3321585481
83333.332145389
83333.3321203007
83333.3321389913
83333.3320998964
83333.3320308345
83333.3320633488
83333.332002219
83333.3320290521
83333.3320287104
83333.3320571194
83333.332061227
83333.3320582981
83333.3320816716
83333.3320943232
83333.3320972201
83333.3320896018
83333.332096503
83333.3321212973
83333.3321354403
83333.3321351548
83333.3321199756
83333.3320955569
83333.332134205
83333.3321635064
83333.3321776382
83333.3321712954
83333.3321449381
83333.3320748792
83333.3321262418
83333.3321713805
83333.3322040348
83333.3322160807
83333.332199865
83333.332158112
83333.3320335262
83333.3320941165
83333.3321522161
83333.3322019472
83333.3322355813
83333.3322418617
83333.332211874
83333.3321490884
83333.3319732465
83333.3320386195
83333.3321048007
83333.3321664777
83333.3322168301
83333.3322460156
83333.3322416305
83333.332192261
83333.3318973108
83333.3319634397
83333.3320328149
83333.332100803
83333.3321614243
83333.3322067092
83333.3322256627
83333.3322045196
83333.3321353608
83333.3320508909
83333.3321305014
83333.3321700057
83333.3321659651
83333.3321308611
83333.3320763501
83333.3321088809
83333.3320110868
83333.3319415924
83333.331873059
83333.3318094998
83333.3317134699
83333.3317718659
83333.3318364421
83333.331903798
83333.3319694288
83333.3320278387
83333.3320721252
83333.3320932227
83333.3320802754
83333.3320279793
83333.3319484259
83333.3318627734
83333.3319607719
83333.3320432401
83333.3318661579
83333.3319622229
83333.3316126193
83333.3316638205
83333.3317220073
83333.3317844023
83333.3318471651
83333.331905591
83333.3319539741
83333.3319851247
83333.3319904475
83333.331962916
83333.3319040863
83333.331826893
83333.3317472445
83333.3317515601
83333.3315100792
83333.3315525135
83333.3316023971
83333.3316575813
83333.3317149049
83333.3317703758
83333.3318191779
83333.3318553823
83333.3318720146
83333.3318625816
83333.3318248403
83333.3317643835
83333.3316931216
83333.3316229763
83333.3316279537
83333.3314087094
83333.3314412249
83333.3314813349
83333.3315275113
83333.3315772891
83333.331627384
83333.331673743
83333.3317113907
83333.3317345067
83333.3317373478
83333.3317165045
83333.3316736604
83333.331616165
83333.3315541566
83333.3314965856
83333.3315023125
83333.3313110717
83333.3313329348
83333.3313622404
83333.3313980524
83333.3314385891
83333.3314812767
83333.3315227933
83333.331558978
83333.3315849139
83333.3315955409
83333.3315871094
83333.3315592428
83333.3315161569
83333.3314654466
83333.3314154859
83333.3313729163
83333.3313796503
83333.3312194056
83333.3312303231
83333.3312482886
83333.3312728733
83333.3313029323
83333.3313365844
83333.3313712295
83333.3314034751
83333.3314291992
83333.3314439733
83333.3314440438
83333.3314278576
83333.3313974082
83333.3313581391
83333.3313171973
83333.3312814682
83333.3312554326
83333.3312631217
83333.3311357722
83333.3311423684
83333.3311553933
83333.3311742356
83333.3311976768
83333.3312238274
83333.3312500512
83333.3312729858
83333.3312888298
83333.3312940215
83333.3312863549
83333.3312662083
83333.3312370842
83333.3312047599
83333.3311757282
83333.3311552092
83333.3311443443
83333.3311509484
83333.3319591873
83333.3320257067
83333.3320753072
83333.3321020462
83333.3321062527
83333.3320949014
83333.3320745849
83333.3320898598
83333.3320584898
83333.3320024246
83333.3320288878
83333.3319791563
83333.3320009557
83333.3320006536
83333.3320242867
83333.3320271937
83333.332024657
83333.3320456672
83333.3320548942
83333.3320564434
83333.3320499201
83333.3320604274
83333.3320789661
83333.3320887361
83333.3320871192
83333.3320743377
83333.3320635844
83333.3320933655
83333.3321148058
83333.332123533
83333.3321164093
83333.3320946083
83333.3320511839
83333.3320921762
83333.3321268201
83333.3321498211
83333.3321553741
83333.3321397681
83333.3321058899
83333.3320212724
83333.3320714447
83333.3321182129
83333.3321561797
83333.3321787354
83333.3321784065
83333.3321510797
83333.3321017212
83333.3319740969
83333.3320301735
83333.3320858627
83333.3321361456
83333.3321747361
83333.3321936445
83333.3321842268
83333.3321414102
83333.3320751366
83333.3319116672
83333.3319700596
83333.3320305689
83333.3320887464
83333.3321389299
83333.3321739392
83333.3321848516
83333.3321620761
83333.332102717
83333.3318368387
83333.3318943844
83333.3319559003
83333.3320175329
83333.332074336
83333.332120174
83333.3321472258
83333.3321460317
83333.332107972
83333.3320375274
83333.3319537397
83333.3320259645
83333.3320759664
83333.3320912597
83333.3320757064
83333.332038137
83333.3319866029
83333.3320256388
83333.3319275639
83333.3318662227
83333.3318068744
83333.3317528029
83333.3316626806
83333.3317111783
83333.3317658417
83333.3318239445
83333.3318817943
83333.3319349294
83333.3319779946
83333.3320043681
83333.3320064771
83333.3319786182
83333.3319232223
83333.3318527074
83333.331780805
83333.3318780196
83333.3319583086
83333.3317850066
83333.3318809173
83333.3315694095
83333.3316106813
83333.3316586714
83333.3317112037
83333.331765182
83333.3318167879
83333.3318614957
83333.3318938184
83333.3319074334
83333.3318966615
83333.331859943
83333.3318029549
83333.3317367537
83333.3316716759
83333.3316765808
83333.3314757061
83333.3315084983
83333.3315482662
83333.3315933744
83333.3316413301
83333.3316889313
83333.3317323338
83333.3317669079
83333.3317873236
83333.331788422
83333.3317673035
83333.3317258372
83333.3316710792
83333.3316123897
83333.3315577522
83333.3315634397
83333.3313840304
83333.3314074699
83333.3314378706
83333.3314741181
83333.3315143197
83333.3315558924
83333.3315956231
83333.3316295899
83333.3316532501
83333.3316620112
83333.3316525684
83333.3316247914
83333.3315828152
83333.3315338466
83333.3314856581
83333.3314443285
83333.331451047
83333.3312965795
83333.3313101439
83333.3313304344
83333.3313567998
83333.3313879209
83333.3314218227
83333.3314559109
83333.3314869171
83333.3315109737
83333.3315240212
83333.3315227122
83333.3315058055
83333.331475381
83333.3314367159
83333.331396578
83333.3313613733
83333.3313354104
83333.3313430359
83333.3312187799
83333.3312286455
83333.331244569
83333.3312657218
83333.3312907124
83333.3313175576
83333.3313436277
83333.3313656918
83333.3313802094
83333.3313839675
83333.3313751073
83333.3313542399
83333.3313249043
83333.3312927301
83333.3312639264
83333.3312435331
83333.3312327969
83333.3312399132
83333.3311349332
83333.3311402995
83333.3311510578
83333.3311663291
83333.331184727
83333.3312042557
83333.3312223195
83333.3312359134
83333.3312420753
83333.3312386481
83333.3312252172
83333.3312037933
83333.331178689
83333.3311555485
83333.3311397445
83333.331133664
83333.3311333221
83333.3311382242
83333.3318897855
83333.3319537671
83333.3320073513
83333.3320443118
83333.3320623515
83333.3320639709
83333.3320542298
83333.332037732
83333.3320501247
83333.3320248338