/*--------------------------------*- C++ -*----------------------------------*\
  =========                 |
  \\      /  F ield         | OpenFOAM: The Open Source CFD Toolbox
   \\    /   O peration     | Website:  https://openfoam.org
    \\  /    A nd           | Version:  12
     \\/     M anipulation  |
\*---------------------------------------------------------------------------*/
/*   Windows 32 and 64 bit porting by blueCAPE: http://www.bluecape.com.pt   *\
|  Based on Windows porting (2.0.x v4) by Symscape: http://www.symscape.com   |
\*---------------------------------------------------------------------------*/
FoamFile
{
    format      ascii;
    class       surfaceScalarField;
    location    "200";
    object      phi;
}
// * * * * * * * * * * * * * * * * * * * * * * * * * * * * * * * * * * * * * //

dimensions      [0 3 -1 0 0 0 0];

internalField   nonuniform List<scalar> 
28680
(
-8.83547645612794e-07
4.34259275629105e-08
-8.39319069739587e-07
3.6448479325539e-06
4.6981933705768e-08
-8.99190399335049e-07
-7.65027329113458e-07
3.60333351362326e-06
4.31130173790834e-08
-1.0092082245339e-06
3.31377968492864e-06
2.34067782194613e-07
-8.37861989023052e-07
4.81274173566634e-06
8.21241498137161e-08
-7.45150031075408e-07
3.59256849194328e-06
2.33090850057911e-08
-9.26347999625501e-07
3.29304420755987e-06
2.2742686639849e-07
-7.78482348427883e-07
4.65824497574361e-06
5.28012268416101e-08
-1.22579008662231e-06
2.8238098532167e-06
3.40700843131556e-07
-1.09259127049193e-06
4.39955527478707e-06
5.31679977614479e-07
-8.26024560861864e-07
5.90218840353659e-06
1.06033246394145e-07
-6.46417928936529e-07
3.71264084434182e-06
3.33465374572246e-08
-8.58214877018756e-07
3.31681368127772e-06
2.07620429245353e-07
-7.50878807384789e-07
4.65096527062461e-06
3.45320505328739e-08
-1.09969072914376e-06
2.8405129880473e-06
3.26429508294951e-07
-1.00452230738553e-06
4.30668221520997e-06
4.90914580516831e-07
-7.87973255219445e-07
5.73425721997396e-06
6.2892003548266e-08
-1.44746225780275e-06
2.3760700637884e-06
2.53227939102188e-07
-1.42508461661146e-06
3.8136511002309e-06
7.35835551701872e-07
-1.174995989875e-06
5.40963137790976e-06
8.95847675757276e-07
-7.76385169217762e-07
7.87607994751153e-06
1.97715146741494e-07
-6.21268857995087e-07
3.70343949651737e-06
1.81987330531598e-08
-7.30342706151374e-07
3.39341450954212e-06
1.91352620552873e-07
-6.82378068758382e-07
4.7858063876258e-06
3.44636003749253e-08
-9.77858719483167e-07
2.88397786753696e-06
3.11001237884256e-07
-9.18466169706082e-07
4.30926227637122e-06
4.63260377967189e-07
-7.84501641439297e-07
5.71795164530719e-06
4.35679121247507e-08
-1.27824055211962e-06
2.42358118777163e-06
2.47707967068718e-07
-1.26611815414354e-06
3.77606295492867e-06
6.98075603483375e-07
-1.07286045572455e-06
5.29101563042951e-06
8.32011697961532e-07
-7.69284780463013e-07
7.66527330932536e-06
1.55956042551936e-07
-1.64095089692753e-06
1.97397846738437e-06
1.75367103702063e-07
-1.72964696417387e-06
3.22484802317021e-06
5.89789209321726e-07
-1.63311605707187e-06
4.67749296166195e-06
1.24224684410052e-06
-1.23576298057519e-06
7.13292499769802e-06
1.48978545945e-06
-6.38986198056283e-07
1.17702754056307e-05
2.84984515118455e-07
-5.0677452907073e-07
3.82011584885354e-06
-5.35782272359169e-09
-6.56146742402329e-07
3.44811076829379e-06
1.81130247762728e-07
-6.04676472159097e-07
4.94193335708516e-06
6.84215036994131e-10
-8.26372336707728e-07
2.95266383244605e-06
2.89262028006405e-07
-7.86649399152732e-07
4.41321619231136e-06
4.32119714521651e-07
-7.45489924639559e-07
5.89893127692942e-06
4.13567240230599e-08
-1.11510495681512e-06
2.48052389345734e-06
2.40316286071977e-07
-1.11088091433352e-06
3.79719759645908e-06
6.67822499113738e-07
-9.7521210626448e-07
5.28920135265996e-06
7.94353186252854e-07
-8.03264363444866e-07
7.60334430456257e-06
1.34046162203293e-07
-1.44130789864617e-06
2.04694872398714e-06
1.76988224074534e-07
-1.51177987216783e-06
3.23186900570852e-06
5.74028122890508e-07
-1.44334562783267e-06
4.61194934651155e-06
1.18735844350609e-06
-1.11196967835415e-06
6.96677266613718e-06
1.40670737477105e-06
-6.66521868952354e-07
1.14287562330147e-05
2.50196723036809e-07
-1.7878335280196e-06
1.60831344628148e-06
1.22309813528561e-07
-1.96151286839796e-06
2.68653008735544e-06
4.22690906704628e-07
-2.02943620290385e-06
3.89769962820732e-06
1.06970007105594e-06
-1.84026684367713e-06
5.96881707252377e-06
2.14004630134448e-06
-1.25938424783837e-06
1.06655910956013e-05
2.41730065321069e-06
-4.18844032225991e-07
2.05499942634422e-05
-3.54242034636016e-07
-6.42085445858126e-07
3.69797475129114e-06
-2.22810234934709e-07
-5.2565691761353e-07
3.53897664440682e-06
1.50647213955067e-07
-5.75259280397162e-07
5.25078989195091e-06
-4.33274543156715e-08
-6.66130242283755e-07
3.02381024733055e-06
2.64056385962537e-07
-6.31676457793221e-07
4.56387092364892e-06
4.04213663404271e-07
-6.85861945988537e-07
6.17709847119641e-06
-8.00157250009794e-09
-9.34567906207836e-07
2.54592035812391e-06
2.26204472327878e-07
-9.16388898834263e-07
3.88154176993777e-06
6.26437668096755e-07
-8.70394049216584e-07
5.43832473867328e-06
7.8789997921861e-07
-8.14972199255797e-07
7.74945601963021e-06
1.28332777751328e-07
-1.25040226318264e-06
2.11411934320353e-06
1.75498022415972e-07
-1.30146775278663e-06
3.26913151290247e-06
5.58064070483565e-07
-1.26264242873497e-06
4.62675122621498e-06
1.14955773608663e-06
-1.02276419129842e-06
6.95499332912346e-06
1.35348593281988e-06
-7.54169773478897e-07
1.12859984365079e-05
2.14762636359963e-07
-1.5718005117744e-06
1.7027504776989e-06
1.28164843101873e-07
-1.70742385702808e-06
2.73100994649862e-06
4.23754643083614e-07
-1.77021684716925e-06
3.88311218629633e-06
1.04363545375176e-06
-1.61189245867204e-06
5.85700861536325e-06
2.06873232664374e-06
-1.09792246608419e-06
1.03689998886617e-05
2.30499534898017e-06
-3.90716956462251e-07
2.00790824376561e-05
-3.87484327776985e-07
-1.88786615481186e-06
1.2737833245893e-06
8.86816527460657e-08
-2.12231769839293e-06
2.19940184339642e-06
3.0121802852966e-07
-2.29404528529282e-06
3.20184282645016e-06
7.76785198002116e-07
-2.3383841528239e-06
4.73176968608182e-06
1.95508278929717e-06
-2.10529271157468e-06
8.50909126219264e-06
3.96367929804332e-06
-1.33423931858916e-06
2.02854257851222e-05
2.4181594755508e-06
-4.48161205520155e-07
4.09631099184097e-05
-6.03393237193681e-07
2.90265112848071e-06
-2.70734546055078e-07
-4.88262710402747e-07
3.70704364406123e-06
-4.64652441117826e-08
-7.39568541968297e-07
5.24307640895997e-06
-2.96421810042428e-07
-4.71519392625433e-07
3.11790033289112e-06
2.26462784396554e-07
-4.78921311150367e-07
4.89183579968025e-06
3.56838707908606e-07
-6.96971339882713e-07
6.87157005695023e-06
-8.19825182882092e-08
-7.16877222051553e-07
2.6148417018247e-06
1.9127648544495e-07
-6.60977260485373e-07
4.00918666404335e-06
5.63322341104483e-07
-7.27186576244298e-07
5.68090333454096e-06
7.57192135910043e-07
-7.90677840827456e-07
8.23356518328546e-06
8.28263195127185e-08
-1.04785472120099e-06
2.17532109772887e-06
1.68051006174237e-07
-1.06340219606086e-06
3.33888030310421e-06
5.30795246432982e-07
-1.05986388819958e-06
4.74462820034786e-06
1.1173451798705e-06
-9.50689516757202e-07
7.1277355292328e-06
1.33753428081596e-06
-8.32985260523219e-07
1.14047738806075e-05
1.53833866930285e-07
-1.36720270111252e-06
1.77906847422527e-06
1.30453032221136e-07
-1.4663477757108e-06
2.78333168433163e-06
4.20218800164743e-07
-1.52263019091171e-06
3.91362994011521e-06
1.0235887813744e-06
-1.39672304387693e-06
5.85857826828057e-06
2.03078935131523e-06
-1.01087409048485e-06
1.03148666055261e-05
2.23756130106098e-06
-5.35302921610944e-07
2.00268598890196e-05
-3.53543714251493e-07
-1.66774648138304e-06
1.38621125824791e-06
9.64199214602765e-08
-1.85094106316076e-06
2.27599583475905e-06
3.11801962773634e-07
-1.99616402900438e-06
3.23358600661928e-06
7.75392309381325e-07
-2.03256515607018e-06
4.68467767663179e-06
1.91012919814961e-06
-1.80958487505439e-06
8.2915813080908e-06
3.85042593154342e-06
-1.09131951204852e-06
1.98311270781073e-05
2.31003825737922e-06
-4.59501265605969e-07
4.1223965336444e-05
-1.95226226323418e-06
9.69666644952311e-07
6.51935965182279e-08
-2.22998692965922e-06
1.75592964263417e-06
2.22976315928406e-07
-2.45449555507775e-06
2.59571967895812e-06
5.50256389645264e-07
-2.61862426118482e-06
3.75548772284298e-06
1.35963945920306e-06
-2.71117609022656e-06
5.74090457802927e-06
4.29677444057693e-06
-3.16274696780661e-06
2.02728066836018e-05
3.34016488539624e-06
-1.35310289349254e-06
4.31536051002631e-05
3.27159316138869e-07
7.19959190034607e-06
-1.46000970385646e-07
-6.34087897021565e-07
3.06388885996576e-06
-1.54143929401052e-08
-7.02091192371297e-07
2.69593799667155e-07
-2.36740649028232e-07
3.30351979085061e-06
1.68741758565079e-07
5.12857112701059e-06
-7.70726248675621e-08
-3.33816577198243e-07
9.78589321165679e-06
-4.74667196494884e-07
-1.24552693119846e-06
-4.36753797685005e-07
2.69363107246551e-06
1.44143979449379e-07
-3.15002168131437e-07
4.28956940861465e-06
4.82745687853567e-07
-6.50890775068309e-07
6.39398319285795e-06
7.58119112370714e-07
-9.15299735253968e-07
9.38309080298448e-06
1.25808982059239e-08
-8.02067715484289e-07
2.22581448512912e-06
1.43239584389724e-07
-7.67486019504752e-07
3.44697828584942e-06
4.57563317757456e-07
-8.31612901935136e-07
4.94766469123937e-06
1.06829906645802e-06
-8.08356945580528e-07
7.51781996099419e-06
1.33059178470138e-06
-8.53989026681439e-07
1.20424506241495e-05
-1.3148781195738e-08
-1.15841184341806e-06
1.83785736803652e-06
1.28673313079181e-07
-1.21030403316182e-06
2.84411319321957e-06
4.06772728573003e-07
-1.25034012105275e-06
3.99983813136843e-06
1.00328615658002e-06
-1.18931697565452e-06
6.01185720915896e-06
2.02580269353869e-06
-9.6154703340616e-07
1.0511894341255e-05
2.18107809607488e-06
-6.5674295154642e-07
2.03938765332726e-05
-5.22161512336059e-07
-1.46047325960427e-06
1.47122725753475e-06
1.00568723064057e-07
-1.59613701644881e-06
2.34274376606624e-06
3.16237038615374e-07
-1.71652383037628e-06
3.2820615660168e-06
7.72140281137391e-07
-1.74204527326588e-06
4.70395252745354e-06
1.8876783970989e-06
-1.52520118469124e-06
8.25896597571542e-06
3.80229249366889e-06
-8.83592287008588e-07
1.98228577248916e-05
2.23384376504124e-06
-4.16096312092119e-07
4.20259146260575e-05
-1.73632052221826e-06
1.09664426939547e-06
7.36258764127329e-08
-1.95508307621309e-06
1.85946132620819e-06
2.38052414345552e-07
-2.14067175968825e-06
2.66785193929441e-06
5.63709905716532e-07
-2.27535040004865e-06
3.76774508839641e-06
1.34903718752225e-06
-2.33642446368595e-06
5.64024819982731e-06
4.18668600488815e-06
-2.5867051009867e-06
1.97944857249618e-05
3.31102176931484e-06
-1.04190333426217e-06
4.32228390917999e-05
-1.99318837007464e-06
6.96386802548429e-07
4.64511818788414e-08
-2.30052781379926e-06
1.3546824067421e-06
1.67079805198088e-07
-2.55900954933689e-06
2.06099069022288e-06
4.02093682959102e-07
-2.74960321508111e-06
2.97394471167395e-06
9.30292785060444e-07
-2.89632778500955e-06
4.20157718599331e-06
2.45590273493163e-06
-3.85251233887714e-06
7.47834751879776e-06
1.64003848983197e-05
-2.29600834978217e-06
4.61117833555839e-05
-9.91231121942173e-08
2.72066501153087e-05
-2.62020244491765e-08
6.17129068957214e-06
4.20410230561054e-07
-2.59110873423053e-07
2.70610095503289e-07
-1.69294862940024e-06
4.56869144118443e-06
-4.85967721032808e-08
-1.13588895723852e-07
3.16144768527914e-08
-1.26027941276441e-07
1.92587284684819e-07
3.01473061053248e-07
-1.45468106601552e-07
1.00006765594987e-07
2.8078411872269e-06
-4.10851551982013e-08
2.87745467103652e-07
4.75355314292476e-06
-5.89988198676297e-08
8.80057802791338e-06
8.52484116594472e-07
-5.95146680360321e-07
2.49763392112907e-07
-2.50493211478029e-07
1.21162779016485e-05
-1.28890327463732e-06
-1.50096630750523e-07
-5.46513691451805e-07
1.58727103031145e-05
-1.68032855488722e-08
-4.93882713393447e-07
2.26905129274217e-06
1.16393604872254e-07
-3.53328419597618e-07
3.64915552452504e-06
3.70392416625383e-07
-5.34883751659114e-07
5.51501004295366e-06
1.06497609846767e-06
-6.87374157949127e-07
8.67531372102237e-06
1.3448986648252e-06
-1.0801980883714e-06
1.33703350265547e-05
-1.85383641820332e-07
-9.27721060844701e-07
1.87633240780043e-06
1.1879184085235e-07
-8.96195385444292e-07
2.91409295755655e-06
3.62015107437243e-07
-9.74913828931243e-07
4.17245147561641e-06
9.57341228937125e-07
-9.71107952662119e-07
6.30697866191931e-06
2.06091615946708e-06
-7.75018749074536e-07
1.10369004076914e-05
2.14960698590475e-06
-6.6458212604004e-07
2.14492367426645e-05
-8.69616298297121e-07
-1.25429695021343e-06
1.52969791437976e-06
1.01984364963299e-07
-1.33673542832282e-06
2.39971538504986e-06
3.13671387558713e-07
-1.42676900167231e-06
3.35194233726053e-06
7.64908960849531e-07
-1.43184738271644e-06
4.80897592939266e-06
1.89595433998232e-06
-1.26971568176232e-06
8.45924820952875e-06
3.82295103412675e-06
-8.03357647462712e-07
2.0246837933941e-05
2.2478884736828e-06
-1.80595369639098e-07
4.35144378476893e-05
-1.53389303855832e-06
1.19026585055399e-06
7.85349873193965e-08
-1.69792838824624e-06
1.93956389036475e-06
2.46596414558524e-07
-1.84811964951014e-06
2.73449976395706e-06
5.71246082389663e-07
-1.95441377975732e-06
3.80881096437959e-06
1.34633311841245e-06
-1.97334710202236e-06
5.63865928006839e-06
4.14488589061629e-06
-1.96816287798641e-06
1.97656172243946e-05
3.24098895290019e-06
-8.25102976982577e-07
4.40429894080132e-05
-1.78599287737774e-06
8.34359841401247e-07
5.5089661367522e-08
-2.03156521473848e-06
1.48003266274496e-06
1.84094293294177e-07
-2.24302878452712e-06
2.16699007513099e-06
4.22934172412963e-07
-2.39665263701964e-06
3.03622940292464e-06
9.42269476033052e-07
-2.50636546882586e-06
4.18734571071371e-06
2.41195646665341e-06
-3.23227668342626e-06
7.30483846796383e-06
1.60560682726708e-05
-1.66917948604716e-06
4.59070410420992e-05
-2.01863838650958e-06
4.53291286223099e-07
3.05952668875557e-08
-2.34497062212523e-06
9.9620479464143e-07
1.21649203126127e-07
-2.63319247914988e-06
1.58540676915628e-06
2.9871395967739e-07
-2.82933929088716e-06
2.32810237604382e-06
6.54004832049142e-07
-2.91763841192082e-06
3.19115171345532e-06
1.51354819168355e-06
-3.12177165242051e-06
4.58528995285076e-06
4.85088109383143e-06
-8.09623639699809e-06
-5.14872482134828e-06
6.8748310915603e-06
1.66317852621473e-05
-2.91480166018834e-06
3.70080855223803e-05
-5.26451009709359e-07
3.55703266093744e-05
1.26305930745611e-06
2.59173847988986e-05
1.6281769263795e-06
-3.52734448510885e-06
6.37751011166187e-06
-3.60760251475578e-08
3.44106735118334e-07
-1.36480766743473e-08
8.90660071600644e-08
2.64963449296063e-06
-1.19753496811042e-06
3.21659513650358e-06
-1.30106369868947e-06
5.55573290483779e-06
-2.38734153228679e-06
-5.14608306384141e-07
2.46609367383428e-08
2.269824646468e-06
1.94698018371334e-08
2.47190581769403e-07
4.06462865886389e-06
4.73058157162699e-08
2.19052416400281e-07
6.87701935496947e-06
1.11060378927463e-06
1.14070169976967e-05
-5.27651581089529e-07
1.40200090782268e-06
6.89686045254664e-07
-9.98128726700448e-07
1.41766181363065e-05
1.4093751419366e-06
-1.37973050914601e-06
1.88466009059277e-05
-3.93083103579036e-07
1.57778961568538e-05
-1.51574165945276e-06
-2.10811428971048e-07
-6.4149799187812e-07
1.877659023905e-06
1.05169643990145e-07
-4.51510048810537e-07
3.00801617145675e-06
3.12843448637893e-07
-5.7855696473594e-07
4.54942981675009e-06
9.39602291962277e-07
-6.7822793007555e-07
7.24376267545243e-06
2.20362581979515e-06
-6.75898031203749e-07
1.25221455707019e-05
2.09395532204662e-06
-8.15458305621969e-07
2.28678763867055e-05
-1.18811991950064e-06
-1.03844736395089e-06
1.5591629486691e-06
1.01321627387062e-07
-1.04731754353558e-06
2.44610833604011e-06
2.973612345424e-07
-1.08960374189099e-06
3.45709961030156e-06
7.40197079673141e-07
-1.1812221305387e-06
5.05871799106644e-06
1.95496119553851e-06
-9.79797422734961e-07
8.85491394242175e-06
3.95297278068433e-06
-5.10585177683446e-07
2.12343984661889e-05
2.07168034742091e-06
-2.97542285043296e-07
4.50913307592595e-05
-1.3372762171326e-06
1.25209732519967e-06
8.09851538039351e-08
-1.4417385869939e-06
1.99571837056298e-06
2.49795437956473e-07
-1.55344745854022e-06
2.79696670819446e-06
5.73975445407569e-07
-1.62787614432824e-06
3.88837980031448e-06
1.35895769555082e-06
-1.56898259650021e-06
5.75724983649568e-06
4.19356800897963e-06
-1.45193914184195e-06
2.02232622010226e-05
3.33030368005197e-06
-1.70877040477005e-07
4.51081352334542e-05
-1.59203486683208e-06
9.35973987746869e-07
6.03348015061029e-08
-1.78090530447701e-06
1.57290743348552e-06
1.94534652825544e-07
-1.9485950410063e-06
2.25063817342339e-06
4.36026587154123e-07
-2.06770065272227e-06
3.09885396829011e-06
9.52247180945247e-07
-2.13554285723014e-06
4.21595785073565e-06
2.3981932593908e-06
-2.58379535261484e-06
7.27490622947162e-06
1.59870894431907e-05
-1.49492276356075e-06
4.71097312172119e-05
-1.82225897060847e-06
5.9877192303475e-07
3.92087610568342e-08
-2.08763114217974e-06
1.13836198419221e-06
1.39422553819928e-07
-2.32413626788864e-06
1.71886238629488e-06
3.23167469111469e-07
-2.47908272192722e-06
2.43145339209746e-06
6.77453388721037e-07
-2.53994336210583e-06
3.23978986652709e-06
1.51212100441514e-06
-2.67825765807351e-06
4.54306421205992e-06
4.73019198958761e-06
-7.91686566201473e-06
-4.27951360314351e-06
6.73721852695466e-06
1.6366475127339e-05
-2.18033317171994e-06
3.72556787663608e-05
-2.03254674868876e-06
2.3843191642788e-07
1.72856883024168e-08
-2.37047648958308e-06
6.79550330114541e-07
8.30586300877197e-08
-2.68453337462648e-06
1.16358742264231e-06
2.17535322888045e-07
-2.89671349937805e-06
1.77502250384979e-06
4.72775723581144e-07
-2.95093431757697e-06
2.43599357676194e-06
1.00021587307754e-06
-2.96904267144632e-06
3.25076823555474e-06
2.41070640059365e-06
-3.26128677272474e-06
4.44879533186392e-06
6.73216711044959e-06
-2.8507717922573e-06
-4.0487939773307e-06
4.14200664244226e-06
1.45347015344406e-05
-5.02958745886466e-06
3.29882752158158e-05
-6.62783711312119e-07
3.95902515665501e-05
1.99002749722005e-06
3.38452149502576e-05
1.02383008384977e-07
2.22876977487211e-05
2.95507493488314e-07
5.6694507694396e-06
4.12554719564488e-07
-2.71204041585049e-06
3.37258116853766e-06
-2.42495715334338e-07
2.23158407194165e-06
9.97773387467353e-07
-1.59684410108027e-06
5.20442877328756e-06
1.19407925579742e-06
-1.27196069370209e-07
2.17436501173636e-06
-3.72942864232055e-06
1.3487252791237e-05
2.25047196378807e-06
-2.76085717479422e-07
1.83416797744851e-06
7.02431467550499e-08
3.73501757989395e-07
3.10271905667857e-06
1.56354944602925e-07
3.55634937744229e-08
5.44518466968047e-06
8.64994981323126e-07
-1.76138450964815e-08
9.48215165899996e-06
2.37482638510011e-06
-3.14468359245656e-07
1.7992070936626e-05
2.050687245167e-06
1.66276215179535e-05
-1.79691604824475e-06
1.67328075948017e-06
-1.92522989036386e-06
2.06694671519468e-05
-7.95991507561238e-07
2.33151823620145e-05
-2.23719381318275e-06
-9.66703908328217e-07
-8.02105895557395e-07
1.54916020335889e-06
9.21589352796552e-08
-6.61252595494259e-07
2.44997460369771e-06
2.77148239402923e-07
-5.7676658653246e-07
3.61808072389121e-06
7.3134708524845e-07
-8.70921128182467e-07
5.67944691063259e-06
2.19359523091176e-06
-6.39419808687495e-07
1.01492581032716e-05
4.23611966912073e-06
-7.1898866177001e-07
2.32315665145864e-05
1.93867802418153e-06
-4.9102089086095e-07
4.58442192534654e-05
-1.14095082085349e-06
1.28138018324584e-06
8.14591098225951e-08
-1.16450300739078e-06
2.02300958149333e-06
2.47189548915564e-07
-1.22772883762968e-06
2.85783290805598e-06
5.70910668191239e-07
-1.27053835268844e-06
4.03795794929256e-06
1.40360932746847e-06
-1.24363426365229e-06
6.05749200584899e-06
4.42701532614081e-06
-7.37999843843829e-07
2.11067838771091e-05
3.36664796457985e-06
-6.85971793183183e-09
4.69990287074854e-05
-1.40664403389612e-06
1.00345718303771e-06
6.32507394208505e-08
-1.53785810530273e-06
1.63368181840674e-06
1.99978489151387e-07
-1.65608536444329e-06
2.31100923369458e-06
4.43246822319704e-07
-1.7352283954248e-06
3.16454396701031e-06
9.65337095327772e-07
-1.74729302943359e-06
4.29694632544208e-06
2.4309960441455e-06
-1.84844967480534e-06
7.40909007984771e-06
1.62723706618087e-05
-4.01471949429664e-07
4.7345000036712e-05
-1.63801185962463e-06
7.07108522731949e-07
4.46190012735957e-08
-1.8480731306852e-06
1.24291352823613e-06
1.50773172888391e-07
-2.03679378386249e-06
1.81874521510171e-06
3.39088046104294e-07
-2.15237013324253e-06
2.51439857629985e-06
6.93770393150257e-07
-2.18382568124542e-06
3.29469456953818e-06
1.51738638492702e-06
-2.24018584110345e-06
4.55671382260469e-06
4.67829216499836e-06
-8.12060481454625e-06
-3.29995377642604e-06
6.74286671309817e-06
1.63852391418091e-05
-1.27653251335045e-06
3.8085297920167e-05
-1.84771890313722e-06
3.88223940245142e-07
2.57201472322581e-08
-2.12763715329019e-06
8.33757671176508e-07
1.00974450678591e-07
-2.38833384450225e-06
1.31828048619201e-06
2.43805994271474e-07
-2.55585756289366e-06
1.91135354590988e-06
5.02412312654637e-07
-2.58565835559093e-06
2.53242816579008e-06
1.01953808146589e-06
-2.57817409102207e-06
3.28618462101335e-06
2.37812211070053e-06
-2.77466908593178e-06
4.40891080136384e-06
6.5718559481098e-06
-2.76463150436393e-06
-3.30571310636191e-06
4.08580962793472e-06
1.43021946556309e-05
-3.8311026614897e-06
3.32925322904636e-05
-2.0366564680002e-06
4.89862848934308e-08
6.52828620715236e-09
-2.38141304137735e-06
4.01841804905139e-07
5.08074108177767e-08
-2.71573263626631e-06
7.92332268765928e-07
1.49962245540936e-07
-2.95073723885009e-06
1.29405198997517e-06
3.39614542844295e-07
-3.00230562856169e-06
1.82596760635457e-06
6.92956239185637e-07
-2.95497908792897e-06
2.39612613325789e-06
1.44876387429033e-06
-2.95261775546114e-06
3.08697498495638e-06
3.33385718176667e-06
-3.14158188855023e-06
3.45722258663506e-06
6.88446818870604e-06
-1.82714504978456e-06
-4.16125315307826e-06
2.4897514609368e-06
1.30555918838655e-05
-6.55977846689131e-06
2.98242385733421e-05
5.49717518332166e-07
4.58066107893552e-05
1.90518495934726e-06
3.93605922265066e-05
2.67342797571479e-06
2.75447199633843e-05
-3.24476111795885e-06
2.58280055092622e-05
2.52747893657562e-06
4.29953638358962e-07
1.0977572727242e-07
1.03769445494874e-07
1.9901143504553e-07
-5.67096053809871e-07
2.81539157493892e-06
1.02916968048849e-06
9.51135491102058e-08
-2.91349285631701e-07
-2.70055063781552e-07
1.09888830433824e-07
2.09016002863774e-07
1.46545568004325e-06
1.70391219220017e-06
2.56287262475659e-07
7.55261975972744e-08
7.40667479257548e-07
5.06210085404882e-07
9.29238730389314e-06
2.12733282628076e-06
2.66106192401425e-06
-2.40291038084645e-07
3.02993551399611e-06
1.5030313892643e-07
4.99471345777762e-08
1.69802483269304e-06
-3.20259247062839e-06
1.82917525570769e-05
5.13572201558549e-06
-5.48154860030854e-07
1.49860006315497e-06
8.16177273320398e-08
-1.26476564032007e-07
2.42071855025143e-06
2.17465380618577e-07
4.98191760058505e-07
3.84132127901385e-06
6.85241776247945e-07
-3.82316416265604e-07
7.1603493981756e-06
2.69815654174272e-06
-1.65109195902825e-06
1.5593396836923e-05
4.42069165487882e-06
-1.29255285139658e-07
2.17471023254103e-05
-6.94633805937856e-07
2.45232021578227e-05
-4.74676015315414e-06
4.49303614627528e-06
-2.3194002248388e-06
1.59220863375362e-05
-1.42966274543687e-06
4.50221424421815e-05
-1.43520417800283e-06
-9.47413514986758e-07
1.27554165589104e-06
8.0083231051239e-08
-8.68655520696214e-07
2.00855938307718e-06
2.37731931644015e-07
-7.62096798572222e-07
2.86905371396656e-06
5.60543367774243e-07
-6.95013471050341e-07
4.2722409802094e-06
1.56301335131561e-06
-8.30291879036382e-07
6.82336771370876e-06
5.10611802761292e-06
1.4720611505591e-07
2.33310633156962e-05
3.25141589176501e-06
-2.22221882512616e-07
4.79982890425774e-05
-1.22714391524107e-06
1.03756839673301e-06
6.43132331567463e-08
-1.2940176332047e-06
1.65948059520291e-06
2.01152577008683e-07
-1.33761122983156e-06
2.34126151327707e-06
4.4529133546111e-07
-1.35474928585022e-06
3.23818310866212e-06
9.90205994440004e-07
-1.30796530690353e-06
4.46169280411895e-06
2.56006601523077e-06
-1.04812731889852e-06
7.7440610821841e-06
1.69893930543186e-05
3.47067471281208e-07
4.9617149695055e-05
-1.46331317210706e-06
7.80933161053185e-07
4.7826312219651e-08
-1.61968059128845e-06
1.31130848339385e-06
1.57234912140452e-07
-1.75879861328714e-06
1.88477048112019e-06
3.48226224199277e-07
-1.82655992186236e-06
2.57579533572542e-06
7.06188671143027e-07
-1.81646595456955e-06
3.35783705009266e-06
1.53708367022909e-06
-1.74276185571989e-06
4.62910874734704e-06
4.7135355918355e-06
-8.55424875976824e-06
-1.97224271588961e-06
6.87661516889081e-06
1.6622267879311e-05
-1.19298032175996e-06
3.87071746167041e-05
-1.67340058175377e-06
5.01585905405529e-07
3.12045901925969e-08
-1.90109249608832e-06
9.48211085818211e-07
1.12778272596878e-07
-2.11304350496024e-06
1.43288217383857e-06
2.61347924931371e-07
-2.23861127870736e-06
2.01381176522785e-06
5.22431434535349e-07
-2.24233415350122e-06
2.61080495869827e-06
1.03433740240841e-06
-2.20150185457909e-06
3.33183933347346e-06
2.36558208201775e-06
-2.27585298165593e-06
4.42074438844154e-06
6.50157712110127e-06
-2.75591583708581e-06
-2.52669028512667e-06
4.10292885017396e-06
1.42591839200851e-05
-2.3446267441331e-06
3.38428769476788e-05
-1.86342287245586e-06
2.00322415012119e-07
1.46676964607223e-08
-2.15419175554794e-06
5.63784735970159e-07
6.84718209825616e-08
-2.43588134637262e-06
9.62422375253309e-07
1.76981359180184e-07
-2.6243530326535e-06
1.45585113319425e-06
3.72924442436541e-07
-2.65044499628029e-06
1.95937909228783e-06
7.23601980216554e-07
-2.58929963433305e-06
2.48466274669507e-06
1.45537898504275e-06
-2.55570367101074e-06
3.12006888393778e-06
3.27003930135496e-06
-2.65970041597325e-06
3.45141968521506e-06
6.72434238891245e-06
-1.78017076146178e-06
-3.39584272155656e-06
2.4808227038138e-06
1.28361065824391e-05
-5.15132981889784e-06
3.01038680653199e-05
-2.03191109920725e-06
-1.1824501866794e-07
-1.75867916858583e-09
-2.38036117966968e-06
1.59006003475999e-07
2.48468616201325e-08
-2.72965953589509e-06
4.67596314461253e-07
9.41486300497724e-08
-2.98619997503785e-06
8.75297782546232e-07
2.3353350459575e-07
-3.05420726291093e-06
1.31227170370748e-06
4.85146380015431e-07
-2.98904411313382e-06
1.75580851067337e-06
9.50871208532017e-07
-2.90503823495156e-06
2.22661965113019e-06
1.91408332686997e-06
-2.89045953037898e-06
2.61372073493877e-06
3.74872962175866e-06
-3.07971126499185e-06
2.47122782142174e-06
6.38720293276775e-06
-1.52288397383061e-06
-4.66132949945436e-06
1.81512932446946e-06
1.19001993279138e-05
-8.18141203976334e-06
2.68394145390154e-05
1.88413839704974e-06
6.20647769917576e-05
1.08178171495024e-06
4.65007378352507e-05
6.05835413864626e-06
3.27730036694838e-05
2.22977292768359e-05
2.00223498472789e-06
1.6813905593074e-05
1.15415940162817e-05
2.63665563192875e-07
4.57177711725157e-07
1.5746356422765e-07
-3.40107009337542e-07
1.27633950955065e-05
3.48333984176268e-06
-5.19816571419526e-07
2.19093803644847e-06
5.60254518327818e-07
5.84001269664604e-07
1.21056394601435e-06
1.19888699714889e-06
8.51544336038313e-08
1.26142639718242e-09
1.73272700902619e-07
1.80931722733661e-08
-9.7524835512668e-08
-6.24018846111276e-08
1.37012788472294e-06
5.67737302285673e-07
3.25336652237832e-07
1.41911681491979e-06
1.0975490349287e-07
2.33916074999848e-06
2.10736478532533e-06
-1.59083016036851e-07
4.86416989376136e-06
1.14458380428321e-05
2.10557911117967e-06
4.99734883380871e-06
5.87321641062549e-07
3.96558007351011e-06
-5.88804396738241e-07
5.96303876436659e-07
8.66694144527345e-07
1.25313202883856e-06
5.57711532331911e-07
1.33555257650169e-07
2.26212791408434e-06
-3.04216181638748e-07
7.16551434393535e-08
1.38243043778915e-06
-7.47206293975337e-07
2.66298742891828e-05
-6.50982355904936e-07
-7.49044665737365e-07
1.22695167019773e-06
7.32812796672391e-08
-5.32456335938775e-07
1.94858861640512e-06
2.17551652822937e-07
-1.06573535381602e-07
2.86250710420399e-06
5.4075029739544e-07
6.75927305175199e-07
4.6217513916377e-06
1.85287508925378e-06
7.92083426625053e-07
9.48725981517284e-06
7.18187719196654e-06
2.40396248661596e-05
7.18859669797293e-06
-2.13713468942733e-06
1.8223208626519e-06
4.41841120022158e-06
4.23996136834947e-06
5.17549948328968e-05
-2.46200873088174e-06
5.04059437741947e-05
-1.05327422401546e-06
1.03808691488803e-06
6.35866761987556e-08
-1.04990685724423e-06
1.64613410831068e-06
1.98402624042839e-07
-9.98687147986366e-07
2.32611142780404e-06
4.41754981671463e-07
-8.34604131769495e-07
3.25830759550735e-06
1.05432985803711e-06
-5.84763964250769e-07
4.70344456102475e-06
2.9597165974351e-06
2.19215444671422e-07
8.50055133360888e-06
1.86692570722643e-05
6.57444622238128e-07
5.09393352037102e-05
-1.29710048073205e-06
8.22052406178755e-07
4.93044985358055e-08
-1.39822517896892e-06
1.3427307951883e-06
1.59611632130142e-07
-1.47993226845422e-06
1.91213300989794e-06
3.51420047229669e-07
-1.46768870646996e-06
2.60673360742678e-06
7.17875162069183e-07
-1.38285737027618e-06
3.43133982471897e-06
1.5869496935039e-06
-1.08397857452788e-06
4.76814594352084e-06
4.87717935677592e-06
-8.83107692910441e-06
-3.41700907996279e-07
7.12198813958942e-06
1.70679112616068e-05
-5.41814775370029e-07
4.0134886495923e-05
-1.50840776999049e-06
5.81297648798682e-07
3.46432724820737e-08
-1.68698655847709e-06
1.02514634349234e-06
1.19884783268932e-07
-1.85104647255021e-06
1.50831818058078e-06
2.71693353452385e-07
-1.93122199334647e-06
2.08169854247215e-06
5.3493840395498e-07
-1.89560472639835e-06
2.66900360455919e-06
1.04829733907447e-06
-1.79911203397864e-06
3.38618819705267e-06
2.37761176353664e-06
-1.68180554026897e-06
4.48102746470781e-06
6.51505840070388e-06
-3.06538987444697e-06
-1.4444805423798e-06
4.20475721227834e-06
1.4400672721791e-05
-1.48838098061771e-06
3.47855127704042e-05
-1.69886800382279e-06
3.16889687153701e-07
2.01413947579598e-08
-1.94115455558916e-06
6.8591434498627e-07
8.04644753633287e-08
-2.17515151810517e-06
1.08944452474294e-06
1.95487345318791e-07
-2.32074772228318e-06
1.57597444550255e-06
3.95581809571826e-07
-2.32144147156081e-06
2.05979372555594e-06
7.44442244163388e-07