/*--------------------------------*- C++ -*----------------------------------*\
  =========                 |
  \\      /  F ield         | OpenFOAM: The Open Source CFD Toolbox
   \\    /   O peration     | Website:  https://openfoam.org
    \\  /    A nd           | Version:  12
     \\/     M anipulation  |
\*---------------------------------------------------------------------------*/
/*   Windows 32 and 64 bit porting by blueCAPE: http://www.bluecape.com.pt   *\
|  Based on Windows porting (2.0.x v4) by Symscape: http://www.symscape.com   |
\*---------------------------------------------------------------------------*/
FoamFile
{
    format      ascii;
    class       volVectorField;
    location    "200";
    object      U;
}
// * * * * * * * * * * * * * * * * * * * * * * * * * * * * * * * * * * * * * //

dimensions      [0 1 -1 0 0 0 0];

internalField   nonuniform List<vector> 
10063
(
(-3.43582967191609e-05 -0.000493241914415303 0.00052637204941718)
(-3.47673896633259e-05 -0.000559832656780765 0.000504617249077607)
(-0.000121396402843115 -0.000242222729903427 0.000481765150299894)
(-3.57159678552369e-05 -0.00061558644504558 0.000487340828417983)
(-2.23751176228959e-05 -0.000615195674663256 0.000588636145781135)
(-0.000119979539653624 -0.000308791582738148 0.000468430329176566)
(-4.21010226213427e-05 -0.000667018389531522 0.000464790576713969)
(-2.32971829810194e-05 -0.000679170247020526 0.000556948899948824)
(-0.000123975870181851 -0.000347549083454036 0.000457734123168643)
(-1.24161615896523e-05 -0.000628337679497454 0.000677592446179607)
(-8.76861948035046e-05 -0.000355504468316039 0.000545808142109944)
(-0.000220230539723791 -5.47078005755737e-05 0.000411573177446837)
(-4.24119639465502e-05 -0.000715483465452022 0.000449746688585735)
(-2.50332583716639e-05 -0.000732373562573422 0.00052723833855826)
(-0.000128252896753892 -0.000395697480845238 0.000447913956359294)
(-1.27807857680223e-05 -0.000696765928064057 0.000629990182460544)
(-9.14187594160968e-05 -0.000416146649604665 0.000522794369683247)
(-0.000224441031794766 -9.98174507424432e-05 0.000412023584563445)
(-7.23519868780972e-06 -0.000592380629246487 0.00076535764949314)
(-5.14843390540898e-05 -0.000417269394083319 0.000633820646752713)
(-0.000166060577652429 -0.000124700345399418 0.00049231202128069)
(-0.000362535883694168 0.000267268602681582 0.000328929919670273)
(-3.69430535993588e-05 -0.000704875113712282 0.00044142661667109)
(-2.70382315144347e-05 -0.000770331779701609 0.000494353975862637)
(-0.000133114986487934 -0.000422977962690689 0.00043979724181258)
(-1.33778394721e-05 -0.000752176196936271 0.000585247307913533)
(-9.49006948827789e-05 -0.000466994143579907 0.000502752343536389)
(-0.000230409043600681 -0.000136570877966972 0.000412829618664926)
(-6.88514275699923e-06 -0.000665352847464444 0.000702445399335723)
(-5.37171786677227e-05 -0.000485260321417659 0.000595077148258386)
(-0.000171705489923571 -0.000184445744401803 0.000478321721090422)
(-0.000372075222259935 0.000228652385257831 0.000345596559362196)
(-3.09593072789074e-06 -0.000522244651406147 0.00084531239582586)
(-2.6817246861663e-05 -0.000414997730913445 0.000720838494171203)
(-0.000106928266053617 -0.000228516440972217 0.000581400561233087)
(-0.000278925846942258 0.000162160558917775 0.00041649047792133)
(-0.000645535224358674 0.000843632367899339 0.000202970182280752)
(-3.73292274388624e-05 -0.000682786316864545 0.000432158785041263)
(-2.87093657574347e-05 -0.000781490466010933 0.00046844807968693)
(-0.000141998037569995 -0.000403820770806048 0.000443499259573541)
(-1.46464483735724e-05 -0.000791494622167435 0.000539272478870597)
(-0.000100615493116626 -0.000496633140068428 0.000480359990388376)
(-0.000242136400850662 -0.00015354159733714 0.000416287279712846)
(-6.84911072586392e-06 -0.000722973419358102 0.000643776915353647)
(-5.54872420080109e-05 -0.000540242404175153 0.00055958131769369)
(-0.000177276120197437 -0.000231266633874779 0.000467256285218761)
(-0.000385160195438122 0.000202254309713057 0.000361095626461199)
(-2.29079303303659e-06 -0.000600749743132523 0.000770547415475556)
(-2.7136902747239e-05 -0.000488655287682831 0.000666990094398622)
(-0.000111232921085401 -0.000295752326213714 0.000551609993548218)
(-0.000289493277106241 0.000108068573235931 0.000415483766230763)
(-0.000669139103974882 0.000820929773439372 0.000239237195152348)
(-2.62042553591398e-07 -0.000430962327848426 0.000914261276524169)
(-9.70073011353722e-06 -0.000375493476663461 0.000800011399157935)
(-6.4979610874361e-05 -0.000258651275694275 0.000669253258887946)
(-0.000185211855576985 -2.04059880397515e-05 0.000510941084366268)
(-0.000509758342357778 0.000629996682706815 0.000302900893372274)
(-0.00134740171171989 0.00195722814368197 -2.43686612926592e-05)
(-5.12536335510147e-05 -0.00060075600876331 0.000446536594412839)
(-2.9049677028835e-05 -0.000770710224547336 0.000447837768447931)
(-0.000155960415102697 -0.000330164500930598 0.000460480419281759)
(-1.60211572467198e-05 -0.000808382177579249 0.000494564620296569)
(-0.000109429547480524 -0.000493701315859774 0.00046871320401837)
(-0.000263378465459737 -0.000112340070629013 0.000438417075860729)
(-7.2574432148007e-06 -0.000763118102099122 0.000585801223251116)
(-5.85564759834628e-05 -0.000576422512917243 0.000523868829451509)
(-0.000187161531288734 -0.000254473542078663 0.000456009584320907)
(-0.000408683834930411 0.000203567956346295 0.000382590444612403)
(-1.87626724995585e-06 -0.000661187134726256 0.000701082998214182)
(-2.74258017702958e-05 -0.000546832047457706 0.000617369335562086)
(-0.000114850793276395 -0.000348889478979433 0.000525118483589895)
(-0.000301070574410828 6.65666234133101e-05 0.000417135812938513)
(-0.000695620696805216 0.000811538544766273 0.000275226690753402)
(7.45908518548896e-07 -0.000514377266098488 0.000831358920173249)
(-8.59148532242447e-06 -0.000454409197939495 0.000734312721862537)
(-6.65762172601404e-05 -0.000331413901023206 0.000624544625000988)
(-0.000194399723935898 -8.35545651248419e-05 0.000492422635625643)
(-0.000532462183652911 0.000588613569120589 0.000318456529075333)
(-0.00139074463975516 0.00193965306080705 3.82971990687319e-05)
(8.81648641171395e-07 -0.000331185134020811 0.000970413554644908)
(-1.81032983627811e-06 -0.000309850248011657 0.000868548978465467)
(-3.16425496254946e-05 -0.0002480292402434 0.000750085595557849)
(-0.000123402678803103 -0.000103503593774582 0.000604279279663757)
(-0.00034814929393511 0.00027011095672891 0.000408907397740258)
(-0.00101772666483371 0.0012805351022369 0.000107898566780544)
(-0.00268872105183195 0.00200440589703842 -0.000408815434390698)
(-6.62735158984018e-05 -0.000361435284469662 0.000491497476127311)
(-2.65183370720879e-05 -0.000736110402989597 0.000439834351329205)
(-0.000160595157969196 -0.000227936997309272 0.00053831645103223)
(-1.68513221925133e-05 -0.000800779218295374 0.000451150389534705)
(-0.000116939195859714 -0.00044739096557271 0.000474317983164099)
(-0.000293127063238308 2.37243329940401e-05 0.00049768146751733)
(-8.45767229903454e-06 -0.000781580956307544 0.000528349389069153)
(-6.20076176810663e-05 -0.000582637725088733 0.000495151850406501)
(-0.000204242819889028 -0.000231904267110733 0.000460862991286121)
(-0.000446491271012838 0.000254772591483851 0.000429575137280357)
(-1.87384527965711e-06 -0.000702578367727569 0.000633672689557927)
(-2.84040966136111e-05 -0.000586134630508636 0.000570097864500096)
(-0.000120932742239304 -0.000381759001419715 0.000500228532988958)
(-0.000318594284122102 5.1985750218014e-05 0.00042195368884308)
(-0.000737316041764267 0.000834824083992207 0.000324640251297295)
(1.34789726644255e-06 -0.000577492133710966 0.000754691281785806)
(-7.79229150905409e-06 -0.000515618985581131 0.000673872048060836)
(-6.79021194932751e-05 -0.000388723320066989 0.000583810925777229)
(-0.000202713541874192 -0.000133669106995519 0.000477067717902499)
(-0.000555073570043592 0.000557067812516044 0.000336935342414838)
(-0.00143874190541165 0.00193321009315901 0.000109235598060511)
(2.00930601028746e-06 -0.000418711295783871 0.0008834096596098)
(4.06182576476401e-07 -0.000393189421106373 0.000794629113353014)
(-3.05602980888671e-05 -0.000325851882154091 0.000693211825937104)
(-0.000128567849985147 -0.000173323418903055 0.000569715814316024)
(-0.000368084551372672 0.000215795631150838 0.000404278036015111)
(-0.0010650115004027 0.00125306723590754 0.000143511989216301)
(-0.00271555217952148 0.00190966916042742 -0.000305969752655047)
(6.79156995203699e-07 -0.00023134834452397 0.00101456320090218)
(1.5703964647444e-07 -0.000231671148834339 0.000925163108308603)
(-1.33312197322691e-05 -0.000205609082693034 0.000820600177237427)
(-6.69973983392549e-05 -0.000135549349814353 0.00069187540345307)
(-0.00024470547738727 9.28898375526764e-05 0.000513567587526429)
(-0.00062711601427488 0.000406237075654752 0.000267712043682638)
(-0.00300790930333096 0.000981248594539379 -0.000331117390326357)
(-0.000209279283732263 0.00051989547813041 0.000857112825975362)
(1.31953302849355e-05 -0.000723417230130671 0.000449697007801668)
(-0.000201185162862437 0.000210105982822785 0.000535942269041606)
(-1.05874931362761e-05 -0.000753360389781448 0.000403225309423271)
(-0.000144718229221068 -0.000377194913486453 0.000468623124250653)
(-0.000353169581777006 0.000280494250537183 0.000687305535654782)
(-8.8460557919415e-06 -0.000775203472438323 0.000469514054966963)
(-6.62484118547481e-05 -0.000555039303998121 0.000476662707637184)
(-0.000225353676757457 -0.000137096299922833 0.000506987365261888)
(-0.000502102102937592 0.000429908023643932 0.000535277309445167)
(-2.26751556386209e-06 -0.000722290919025662 0.000567536943045802)
(-3.11145207463821e-05 -0.000598850925343207 0.000527623575314873)
(-0.000131340759719694 -0.000376454107033427 0.000486066893994729)
(-0.00034808314374845 8.57256225327148e-05 0.000447469256956026)
(-0.000799395359771676 0.00091750676216282 0.000410720659508947)
(1.54394580751555e-06 -0.000620156209352953 0.000681140239544754)
(-7.64772113682296e-06 -0.000557119854129793 0.000616876222809684)
(-7.06436705757525e-05 -0.000426603538678319 0.000547461859966541)
(-0.000214575669350704 -0.0001634819276272 0.000465686106440217)
(-0.000586108021770422 0.000551639801523581 0.000363724632553443)
(-0.00150962734655062 0.00197334994277992 0.00020706729672947)
(2.7310269471775e-06 -0.000484458163203791 0.00080271126834599)
(1.98365591475229e-06 -0.00045706690055442 0.000726676973296491)
(-2.97009516174907e-05 -0.000386645754855783 0.000641346072609881)
(-0.000132922038828836 -0.000228632655206881 0.000538829959821986)
(-0.000385604066504396 0.000170921233508305 0.000403857435058055)
(-0.00111105793347126 0.00122516892180988 0.000190465166052977)
(-0.00275458369057535 0.00182211288453956 -0.000183016182757817)
(1.87764322870304e-06 -0.000322014240530807 0.000926361175956615)
(3.02803296876018e-06 -0.000318612264825257 0.000846541606473358)
(-1.02419778560803e-05 -0.000287487472709753 0.000755031445616059)
(-6.7423939827767e-05 -0.000210927061664766 0.000643901933229296)
(-0.000256676786936414 2.84900592137425e-05 0.000491493737359638)
(-0.000668411932159609 0.000362704612106554 0.000275772152497199)
(-0.00302625092198867 0.000854829298226991 -0.000243326455676716)
(-2.78196439876135e-07 -0.000136486855901821 0.0010482933235735)
(-1.17141120936697e-06 -0.000149780700290391 0.000970525557140898)
(-6.52837937097845e-06 -0.00014657480986956 0.000879600273619793)
(-3.31685513905186e-05 -0.000119399424939603 0.000768532510472681)
(-0.000131674791151262 -1.00805960718842e-05 0.000615606346117747)
(-0.000265065343903233 5.70394376208539e-05 0.000383975777308516)
(-0.00175897805728451 -0.00107116272419747 -0.000263657128760383)
(-0.000318329403612875 0.00113049875423364 0.0015764363608235)
(1.40784616780132e-05 -0.000162066862356234 0.000857552817659512)
(-0.000288224816427243 0.000876058637975988 0.000702095955991379)
(-2.5612969939811e-05 -0.000696791826185085 0.000434848338425953)
(-9.32934212506565e-05 -0.000270395271050879 0.000488335887467357)
(-0.000193948488239522 -0.000234694555982373 0.000533047873666207)
(-7.22503308510502e-06 -0.000737429422513607 0.000406529359552729)
(-7.53035940356001e-05 -0.000487262055723386 0.000452821157291668)
(-0.000276956610966071 6.96691070930886e-05 0.000629729025694802)
(-0.000140786555329612 -0.000234834025604953 0.000474507984963506)
(-0.000612068685754457 0.000831471152661853 0.000793018808839032)
(-0.000426296828578762 0.00101555291510493 0.00113516207960064)
(-2.55837602084312e-06 -0.000717369248385515 0.00050038401136115)
(-3.31962009744256e-05 -0.000582354548626115 0.000491473755584499)
(-0.00014275592519289 -0.000325441565887605 0.000493269174908422)
(-0.000390524663423854 0.000211245134624039 0.000521154966952436)
(-0.000890017120417085 0.00114232545678565 0.000570427851586975)
(1.32527116444535e-06 -0.000640692580061576 0.000609259410754778)
(-9.05513889397606e-06 -0.00057435063928536 0.000563844537193731)
(-7.76189540756212e-05 -0.000433371693130135 0.000518156661063671)
(-0.000234673025818565 -0.000150417256865121 0.000467308967251215)
(-0.000633645732904277 0.000599201352815953 0.000420840210521091)
(-0.00161528988701326 0.00208815230401502 0.000366699430086051)
(3.06753784442434e-06 -0.00052892877308272 0.000725874228848486)
(2.72312079569523e-06 -0.000500546755707428 0.00066287115275127)
(-3.00419681670792e-05 -0.000427760911690033 0.000594357749958125)
(-0.000139482933925774 -0.000265169541380855 0.000514730523577653)
(-0.000407478339025261 0.00014438233784886 0.000411050541195916)
(-0.00117029300662562 0.00122281819235755 0.000256670683966226)
(-0.00281407176972423 0.00179468504073621 -1.0725312805192e-05)
(2.67775087259984e-06 -0.000390206193567523 0.000844108054032812)
(5.05632893500521e-06 -0.000385006563028091 0.000773993360673725)
(-7.92965151167942e-06 -0.000351021283483376 0.000695162684760306)
(-6.75812930200121e-05 -0.000270388400478149 0.000600594745517347)
(-0.000266578055134628 -2.37770148315815e-05 0.000473748892525838)
(-0.000703784858783592 0.000316531801074205 0.000294536461112848)
(-0.00307056549706674 0.000729200298482029 -0.000133755726649821)
(9.55398068667047e-07 -0.000229137122367738 0.000960933065966815)
(2.06435470104498e-06 -0.000239390071912721 0.000889913666578769)
(-2.15712683172901e-06 -0.000231733928868854 0.000808569820303417)
(-3.00100691822729e-05 -0.000198836516841441 0.000710857126750283)
(-0.000135483047881827 -8.17467254643856e-05 0.000577998768414698)
(-0.000290348687162868 7.14590041866786e-06 0.000377146042444301)
(-0.00174250963930721 -0.00117414726764754 -0.000198848541731058)
(-1.46823675463745e-06 -4.87006240640101e-05 0.00107327986986497)
(-3.96836366352209e-06 -6.95650029763575e-05 0.00100600856472175)
(-6.59027472877604e-06 -8.04137204967529e-05 0.00092753710056315)
(-1.89342695369398e-05 -7.80563332926035e-05 0.000832764736850787)
(-6.68043377966196e-05 -3.14108981268701e-05 0.000704208427090715)
(-0.000229666953963007 9.88751179419938e-05 0.000517454223495928)
(-0.000307866663515136 0.000288237767874463 0.000259757210557016)
(-0.00135222873147184 -0.00116319794407116 -0.000412440505812586)
(-0.000755444698512186 0.0016575247086415 0.00197055919365335)
(5.63429041673275e-05 0.000316863587629419 0.00187160300070504)
(-6.45667219507821e-06 -0.00087978915978579 6.54698963640137e-05)
(-0.000186169201102 0.000192325289661646 0.000681342447620048)
(-0.000203452333981153 4.46432064836031e-05 0.00051186771034398)
(-5.79585698472832e-05 -0.000688469072150778 0.000268678038138916)
(-2.58575523308733e-05 -0.000335393760227833 0.000609037474670452)
(-0.000103530670382982 -0.000457046696708963 0.000521355911067121)
(-2.71042945188034e-06 -0.000681274633011964 0.000434114665564573)
(-3.66262436548217e-05 -0.000529626832844693 0.000475954121099083)
(-0.000163126585402326 -0.000219358155489893 0.000537159196635874)
(-0.000456819010249654 0.000487494753636472 0.00071503297920632)
(-0.000392406228301258 0.000430876707185679 0.000964583098818084)
(-0.000275971843590952 0.000252182988298023 0.000701950338072891)
(-0.000824551488871304 0.00179771666904279 0.00148936821263222)
(-0.00103410107204305 0.00162587658112344 0.00089908441479)
(1.20237796111002e-06 -0.000637723877016395 0.000537684275070671)
(-9.99849935489598e-06 -0.000565368090935626 0.000516268449826897)
(-8.44014019891822e-05 -0.00040516707763798 0.000503171012173749)
(-0.00026187827686471 -8.40213949297096e-05 0.000495289466885241)
(-0.000703791005912941 0.000742056313620056 0.000539879976531186)
(-0.00176474669745502 0.00239839817994612 0.000622341411257139)
(3.10692547687693e-06 -0.000551498927071934 0.000651463186221304)
(2.15188567956082e-06 -0.000521106874889584 0.000602012906821371)
(-3.35414153576988e-05 -0.000443039594079258 0.000552697865148451)
(-0.000152998915882625 -0.0002675236309491 0.000498622103614244)
(-0.000441836752286978 0.000163488400291324 0.00043689979818792)
(-0.00125563212731894 0.00126812528235688 0.00038346236339132)
(-0.00292498503869544 0.00188156113703274 0.000286935493152491)
(3.10048812836168e-06 -0.000436895981387372 0.00076602316809914)
(6.18999599080259e-06 -0.000430716179743193 0.000705772368938006)
(-6.92104636346454e-06 -0.000394811828552886 0.000640305394162991)
(-6.93982755263789e-05 -0.000311152518043041 0.000563692761821597)
(-0.00027944019066423 -5.96171677463902e-05 0.000466527622279235)
(-0.00074062138748987 0.000276685569075114 0.000326051404765191)
(-0.00311166181216739 0.000634859369536354 1.88863351829726e-05)
(1.809872745835e-06 -0.000299322043513578 0.000878887894247161)
(4.35592966285826e-06 -0.000308009706718978 0.000815086422434496)
(1.03530161438763e-06 -0.000297757934308783 0.000743378997789774)
(-2.74591542470957e-05 -0.000261154174684365 0.000658494351718554)
(-0.000137727392006454 -0.000139575224563205 0.000545032734498677)
(-0.000309020425406946 -3.81184719385279e-05 0.000377900144370403)
(-0.0017467621313279 -0.00128982706695079 -0.000120743640002682)
(-2.28270390874006e-07 -0.000142181515154751 0.000988038568851679)
(-5.43168528556263e-07 -0.000160797842894599 0.000925361873514651)
(-1.4545589539611e-06 -0.000167998556560352 0.000853644251097537)
(-1.35061319128294e-05 -0.000160670061411428 0.000768650560589448)
(-6.44987930821392e-05 -0.000107787816061721 0.000655382104289396)
(-0.000238137768282998 3.21091475746214e-05 0.000491697879953304)
(-0.000329877234114543 0.000240061689519135 0.000260028803377605)
(-0.00130564997781586 -0.00124272873118058 -0.000318116906973629)
(-2.57397975395982e-06 3.15658518863633e-05 0.00109086647950127)
(-7.09630591108268e-06 6.27118508288096e-06 0.00103302868214381)
(-9.98855252611554e-06 -1.29555331559344e-05 0.000965597741011785)
(-1.61271438373188e-05 -2.51029945882865e-05 0.000885005418822311)
(-3.8989028568611e-05 -1.07469668585483e-05 0.000777186878238347)
(-0.000114033081020237 4.83122053315423e-05 0.0006272146417696)
(-0.000308819817162035 0.00015722203176327 0.000401348648946768)
(-0.000596989064117296 0.00027792701836179 4.13939055924829e-05)
(-0.000872303920164877 -0.000369897650581185 -0.000548340647366289)
(-0.00137351167845485 0.00150716326354538 0.00270822784911709)
(-0.000516940772559019 0.000855059632028208 0.00235446953421824)
(0.00029586848086081 -0.00175692937524155 0.000904247516790882)
(-9.41129768159322e-05 -0.000588917234219356 0.000622892612801545)
(-2.97961268548294e-05 -0.000617931078347392 1.6454558981257e-05)
(-4.57929399737528e-05 -0.000495096355982734 0.000363810054178824)
(2.34486086176989e-06 -0.000610258709565069 0.000354168583150913)
(-0.000278421188265674 -0.000209502261594839 0.000846909411143758)
(9.34222466930943e-07 -0.000606593061653749 0.000467462846755621)
(-1.3447920305399e-05 -0.000524504400201349 0.000480203683260961)
(-9.23037754845236e-05 -0.000335222610697816 0.000536486985357225)
(-0.000299638471214747 4.56259103262519e-05 0.000591836584202457)
(-0.000635156503071324 0.000943655795611981 0.00118908532992783)
(-0.00082611549322857 0.000969581711339179 0.000840624186319301)
(-0.00118256561954707 0.00277879760808383 0.00193423559090265)
(-0.00201011021127718 0.00314724726231559 0.00099501847133411)
(2.67766039745367e-06 -0.000551405081614448 0.000579075561007115)
(1.75134245815639e-06 -0.000517463533864495 0.000545450295551544)
(-3.72597682606503e-05 -0.000429768033062063 0.000521916828045951)
(-0.000170684410038346 -0.000231182183402034 0.000502520680805921)
(-0.000488140417704928 0.000230729590283985 0.000499599305788349)
(-0.00136295087586306 0.00140659548333776 0.000609348608560852)
(-0.00300422016880138 0.00224712540058462 0.000738278073846193)
(3.18301093744695e-06 -0.000462371878196561 0.000691265728700896)
(6.39993123189104e-06 -0.000454565128028997 0.000641047568897861)
(-8.09315966598056e-06 -0.000415599037007635 0.000588849528242388)
(-7.62776588059594e-05 -0.000326050595637893 0.000532292979726434)
(-0.000302262385227121 -6.00658467757255e-05 0.00047093041039298)
(-0.000792563077002964 0.000276837884862614 0.000392366300331259)
(-0.00320350960135192 0.000641626018494798 0.000306488228847518)
(2.31160524032427e-06 -0.000348311324192654 0.000801006482773396)
(5.70278341949724e-06 -0.000356034326412324 0.000744674606637013)
(2.81238023758776e-06 -0.000344125044129912 0.000682885418376208)
(-2.65755506365363e-05 -0.000304939083272394 0.000611691269257282)
(-0.000141657422593146 -0.000180710656241127 0.000520427535158639)
(-0.000326943592542079 -7.72562372188495e-05 0.000395556988517461)
(-0.00172639270227035 -0.00140132138811118 -1.81466901879582e-05)
(6.60249549191309e-07 -0.000213777988680002 0.000907326427374015)
(1.92067996317181e-06 -0.000231154145548384 0.00084996049895522)
(2.27805901429374e-06 -0.000236147983274072 0.00078538110154061)
(-9.39540263314517e-06 -0.000225480479578017 0.000710015867929512)
(-6.2122546221117e-05 -0.000168621486432993 0.000611611357316232)
(-0.000242528467324238 -2.41745704554638e-05 0.000471944091572093)
(-0.000337629850551284 0.000187651528996522 0.000276015066922861)
(-0.00127311211573023 -0.00133977894725251 -0.000220258619058888)
(-1.35131535865642e-06 -6.16871642923565e-05 0.0010084845697102)
(-3.59440574500131e-06 -8.55459266206854e-05 0.00095364641658805)
(-4.41601204518049e-06 -0.000102019997875907 0.000890799879443133)
(-9.33983076851102e-06 -0.000110054844033865 0.000817107253110127)
(-3.30864607920806e-05 -9.03535925880618e-05 0.000720707821669357)
(-0.000113373337366739 -2.40354557742952e-05 0.000588021428125205)
(-0.000319928257057956 9.45244832324908e-05 0.000388194399854684)
(-0.000624965296574008 0.000230862361069812 6.25961615156332e-05)
(-0.000855274607589708 -0.000426902202794829 -0.000455061408780566)
(-3.45367508829084e-06 0.000104718162391872 0.00110203634205729)
(-9.92324142748863e-06 7.67321891502163e-05 0.00105276368912486)
(-1.44627988123649e-05 5.25863046205096e-05 0.000995087189684547)
(-1.90738541316492e-05 3.20041592907516e-05 0.000926638999387229)
(-3.07346659434302e-05 2.82938537671095e-05 0.000835866427620943)
(-6.62963467917891e-05 5.18559870367623e-05 0.000713213181171717)
(-0.000164981144541685 0.000110291895840098 0.000540702469435229)
(-0.000386452589256893 0.000213965473292793 0.000278941734802243)
(-0.000713165606861101 0.00024567847576257 -0.000106583079813688)
(-0.000863856985646816 -7.264665323811e-05 -0.000683580099214217)
(-0.0017515398721552 0.00147557047340783 0.00324155173996335)
(-0.00111329571206896 0.000753237712386101 0.00317296388910779)
(-0.000497007920729106 -0.00197525723125264 0.000726197414442862)
(-0.000980705694704759 -0.00123527283985166 0.00068251134421306)
(-7.92248753225141e-05 -3.84435412064761e-05 0.000837659298125405)
(4.07062944958222e-05 -1.13907233131786e-05 0.000604178831229794)
(0.000114298894192689 -0.000330005028402261 0.000127411822804413)
(-3.31694481742197e-05 -0.000238742290216106 0.000520751449725781)
(1.87313062197607e-05 -0.000479727778153357 0.000264793365123844)
(-4.64529752011733e-05 -0.00034128610315982 0.000137401007334561)
(-0.000132412832348728 -0.000398121608984905 0.000316492344674101)
(-1.09329336885547e-05 -0.000481309475802816 0.000412143028062441)
(1.80157015772606e-06 -0.000546541416176508 0.000399193914000632)
(-0.00032443091558594 -3.14959905130681e-05 0.000953761736081863)
(2.25715689388366e-06 -0.00052697207244612 0.00051010548833954)
(-1.10035539529062e-06 -0.000488445332136239 0.0004948488586243)
(-4.34685782622786e-05 -0.000384638949776208 0.000515031076405041)
(-0.000196718925096801 -0.000157855786948571 0.000570441570155346)
(-0.00054231923605657 0.000306305276430117 0.00069672912152061)
(-0.0010319614082693 0.00123169212603785 0.00157291597398875)
(-0.00148325321249664 0.00156449192757956 0.00112608809249671)
(-0.00230841321008091 0.00491995328435579 0.00262871541696504)
(-0.00311328091876462 0.00292596367069332 0.00147200547421652)
(2.96971047091825e-06 -0.000466695140572948 0.000619751565324419)
(5.32647201135538e-06 -0.000455682466455653 0.000579913796213894)
(-1.03887230912769e-05 -0.000411371404353141 0.000544936084603343)
(-8.64748133270928e-05 -0.000310409856653169 0.000514532202221679)
(-0.000334971208510428 -2.55998259255413e-05 0.000502528871961477)
(-0.000840773045708196 0.000290529238726855 0.000500177160253981)
(-0.00329995663404734 0.000935801131216794 0.000810792571972245)
(2.4930553243391e-06 -0.00037699413016717 0.000726865830240114)
(6.09469175157306e-06 -0.00038311521951388 0.000677972851467492)
(2.8050388525977e-06 -0.000369126052621224 0.000626451216435086)
(-2.9030582498914e-05 -0.000326688766754304 0.000568701368463914)
(-0.000152669668633254 -0.000197358044362089 0.000502746885326781)
(-0.000352106132861596 -9.45912995028695e-05 0.000433031662380604)
(-0.00179193701412474 -0.00149715291613052 0.00021481425915275)
(1.22691357913793e-06 -0.00026490604192527 0.000830508742419914)
(3.45721402490126e-06 -0.000281377875719257 0.000778840563676705)
(4.51664415168688e-06 -0.000284883189029578 0.000721715728755178)
(-7.12639639389845e-06 -0.000271940404677429 0.000656238504327554)
(-6.14993767807172e-05 -0.000212592747162232 0.000574105962517766)
(-0.000247183550059369 -6.76233631680168e-05 0.000463777356604312)
(-0.000329278297453167 0.000137591109054489 0.000316325934303105)
(-0.00126129944915897 -0.00140274610097857 -8.88677115129501e-05)
(-4.46144654024365e-07 -0.000134040338486204 0.000929792911966393)
(-1.01676699012139e-06 -0.000157052478364551 0.000878820533494591)
(-3.19596773846955e-07 -0.000171783875310075 0.000821180634830048)
(-4.28734681150173e-06 -0.000176941551944779 0.000754548873671512)
(-2.83163656575251e-05 -0.000153605699275356 0.000669331623424617)
(-0.000111192136489017 -8.28971812284961e-05 0.000554157486552391)
(-0.000324183170223199 4.05328142624587e-05 0.000383632041454232)
(-0.000632682020533605 0.000186800089503104 0.000101240339790809)
(-0.000835950859007217 -0.00048308930158943 -0.000350399479091549)
(-2.26533480717702e-06 1.26113124232561e-05 0.001022899142129)
(-6.4242139072599e-06 -1.4707516491228e-05 0.000975456597032656)
(-8.6710085531645e-06 -3.70008125675251e-05 0.000920757774048545)
(-1.14790951064449e-05 -5.44118607504774e-05 0.000857003303907168)
(-2.27154939561229e-05 -5.3598139093789e-05 0.000774545753124313)
(-6.05494757398613e-05 -2.40419016187141e-05 0.000664879342157418)
(-0.000166132392995252 4.21443416817748e-05 0.000511181819546819)
(-0.000398541312811418 0.000155297701213245 0.000276937794235797)
(-0.000745682071709674 0.000205543121971249 -7.47737194314941e-05)
(-0.000857250476524815 -0.000111214207696884 -0.000583616000940924)
(-4.06964464966681e-06 0.00017152270594389 0.00110748866385503)
(-1.21494214267456e-05 0.000141790266140549 0.00106610561401985)
(-1.87316477435139e-05 0.00011473250749646 0.00101714266900833)
(-2.42028723555017e-05 8.92954338008271e-05 0.00095913979762679)
(-3.17788914428507e-05 7.48487433793468e-05 0.000882453752273913)
(-5.01266069407512e-05 7.78771769774196e-05 0.000780562515446992)
(-9.85903821928387e-05 0.00010589003777423 0.000642897851761984)
(-0.000213794264691082 0.00015842304818151 0.00044970244935235)
(-0.000443085496725219 0.000219147819956008 0.000164945101128908)
(-0.000711489830194462 0.000192551168846048 -0.000234407464004525)
(-0.000790465474285308 5.21760946346262e-07 -0.000829152941006286)
(-0.00205694520922248 0.00105967079798282 0.00400783719123715)
(-0.00172194695541506 0.000419476478356245 0.00344542516856811)
(-1.96129748404122e-05 -0.00167549256749866 0.000916499308337876)
(-0.000163214227662851 -0.000952648484314545 0.00185462090669168)
(0.00030359152826893 -0.000784072459181647 -0.00118718760898934)
(-7.74649415614033e-05 -0.000217048544466999 0.000468218910604006)
(-4.38982048335631e-05 -0.000355639156206412 0.000442323488323044)
(0.00021239951233288 -0.00069700951300027 -8.79474137420052e-05)
(5.27972791072712e-05 -0.000172947579986699 0.000320166425856592)
(2.43778819800367e-05 -0.000326734214292396 0.000261571563113967)
(-6.0382927570153e-05 -0.000146414387835108 0.000561660581272588)
(-2.2547789853928e-05 -0.000463831457851416 0.000404197925638489)
(0.000117839551524895 -0.000339743988627742 0.000149700376167496)
(2.54745636820182e-06 -0.000450320566548569 0.0003415946282485)
(1.97401735722339e-05 -0.000398247164423554 0.000329179609817235)
(-0.000142808272956075 -0.000271347982454684 0.000366735794921101)
(-4.18752413316635e-05 -0.000381607981684415 0.000443311253801266)
(-7.20763923019474e-05 -0.000176847900194938 0.000256869451586145)
(-3.05033542447176e-06 -0.000436097490787865 0.000449444828526288)
(1.72999912491543e-06 -0.000479154908336292 0.000446471886975281)
(-0.00064154549309806 -0.000149407667454632 0.00119290789468262)
(2.41033495366012e-06 -0.000450134594477617 0.000552690874088403)
(3.54414941376884e-06 -0.000435062595353307 0.000523953217002553)
(-1.49416148034159e-05 -0.000384605460001975 0.000510913105747992)
(-0.000100868696417516 -0.000268867333535061 0.000526348209248834)
(-0.000347660407207332 -1.11352644619259e-05 0.00060321786256024)