/*--------------------------------*- C++ -*----------------------------------*\
  =========                 |
  \\      /  F ield         | OpenFOAM: The Open Source CFD Toolbox
   \\    /   O peration     | Website:  https://openfoam.org
    \\  /    A nd           | Version:  12
     \\/     M anipulation  |
\*---------------------------------------------------------------------------*/
/*   Windows 32 and 64 bit porting by blueCAPE: http://www.bluecape.com.pt   *\
|  Based on Windows porting (2.0.x v4) by Symscape: http://www.symscape.com   |
\*---------------------------------------------------------------------------*/
FoamFile
{
    format      ascii;
    class       volScalarField;
    location    "700";
    object      k;
}
// * * * * * * * * * * * * * * * * * * * * * * * * * * * * * * * * * * * * * //

dimensions      [0 2 -2 0 0 0 0];

internalField   nonuniform List<scalar> 
10068
(
2.77370513746614e-06
2.79056363042051e-06
3.21385776424901e-05
2.86379150889042e-06
2.80217784993092e-06
3.22534231394798e-05
2.88305335864251e-06
6.20490338136459e-05
3.22954919410787e-05
2.99463644682348e-06
2.79978900056827e-06
3.23116612112376e-05
2.89593891073969e-06
6.21685899306063e-05
3.24173732577082e-05
3.01633099686411e-06
8.46702307461339e-05
6.20308183912215e-05
3.25310244675859e-05
3.04826364211776e-06
2.78859898216372e-06
3.22813426804972e-05
2.89299684251041e-06
6.22042548039831e-05
3.24780715390703e-05
3.03029874310356e-06
8.48081376807434e-05
6.215129630377e-05
3.26593583695725e-05
3.07102785189718e-06
0.00010336562391109
8.45477662926714e-05
6.18055145829516e-05
3.24461978116241e-05
2.9706218409999e-06
2.77059443137923e-06
3.21880987542432e-05
2.88103810635213e-06
6.21410357887951e-05
3.24459873654115e-05
3.02670331523063e-06
8.48315189942301e-05
6.21868261421088e-05
3.27207775738536e-05
3.08560115796403e-06
0.000103526690157336
8.46861362503412e-05
6.19251262789402e-05
3.25767553695055e-05
2.99298760227558e-06
0.000119732795494925
0.00010314205509127
8.40119717916275e-05
6.11500550570669e-05
3.17961518751632e-05
2.79697105489063e-06
2.7459648531122e-06
3.20413634557445e-05
2.86219518651613e-06
6.19813433364947e-05
3.23496165638986e-05
3.01348679927033e-06
8.47327679947148e-05
6.21228779160225e-05
3.26859656445506e-05
3.08148255164789e-06
0.000103544590815685
8.47090793997997e-05
6.19593268070381e-05
3.26378008475558e-05
3.00728359723424e-06
0.000119915680146097
0.000103303918438784
8.41479244769813e-05
6.12663951178812e-05
3.19248998775393e-05
2.81798803194581e-06
0.000134518262350222
0.000119398164644662
0.000102364101119241
8.29059903614509e-05
5.98926570776066e-05
3.06346828421282e-05
2.58276949331707e-06
2.71442390714999e-06
3.18417227790959e-05
2.83656128119688e-06
6.17269652414618e-05
3.22004706366754e-05
2.99328456085502e-06
8.45093655125084e-05
6.1962167118376e-05
3.2585387665384e-05
3.06731761199082e-06
0.000103413709118145
8.46098138953116e-05
6.18936947053446e-05
3.2599633507265e-05
3.0027721676646e-06
0.000119929526863874
0.000103321511599681
8.41690940844084e-05
6.12979157493406e-05
3.19843564119791e-05
2.83133090089007e-06
0.000134720835972791
0.00011958214456291
0.000102523364087986
8.30368739110679e-05
6.00033659392686e-05
3.07584370658634e-05
2.60192318788709e-06
0.000148132484089226
0.000134089516617914
0.000118398993095204
0.00010089146986889
8.11324691325858e-05
5.80413935027557e-05
2.91336717486499e-05
2.3534994316576e-06
2.67568272123247e-06
3.15867558368319e-05
2.8038340350016e-06
6.13772094956917e-05
3.19985478046885e-05
2.96614982607677e-06
8.41599824833305e-05
6.17067488410112e-05
3.24324231086398e-05
3.04607233631893e-06
0.000103131563308097
8.43859984374152e-05
6.17312558981569e-05
3.24956483641828e-05
2.98827757696123e-06
0.000119769306646818
0.000103190351083494
8.40687423141258e-05
6.12299223163357e-05
3.19432744703459e-05
2.82637235328945e-06
0.000134730713765427
0.000119595840243201
0.000102539310833274
8.30548505490512e-05
6.00310739416848e-05
3.08129754526516e-05
2.61384424860716e-06
0.000148352889701805
0.000134293439682431
0.000118580380038859
0.00010104511012948
8.12560361247161e-05
5.81446478311901e-05
2.92498752086334e-05
2.37076150013365e-06
0.000160834632492125
0.000147638955276025
0.000132903747956597
0.000116609414270582
9.86734407356264e-05
7.87107916158137e-05
5.56990618912922e-05
2.74033220836566e-05
2.11202510453442e-06
2.62947562344277e-06
3.12741978641421e-05
2.76377269217964e-06
6.09305433615988e-05
3.1741514541063e-05
2.93166897264449e-06
8.36832598767355e-05
6.13561706472718e-05
3.22271621253858e-05
3.01793259791442e-06
0.000102696646957345
8.4036407177527e-05
6.14745292433873e-05
3.23393291259301e-05
2.96684527065087e-06
0.000119433218301356
0.000102908235544738
8.38445906955382e-05
6.10659041575411e-05
3.18373669017868e-05
2.81211217712459e-06
0.000134543196453681
0.000119435618777293
0.000102407634267249
8.29529841287193e-05
5.99606385453386e-05
3.07711802485042e-05
2.60857393019122e-06
0.000148358691978601
0.000134303307714723
0.000118592679725245
0.000101057969589426
8.12696696559759e-05
5.81676304842098e-05
2.92973302783629e-05
2.38086449835056e-06
0.000161071272893832
0.000147860945564003
0.00013310511495415
0.000116784938216611
9.88190042264003e-05
7.8825337741355e-05
5.57935124058528e-05
2.75089307147576e-05
2.12727185805405e-06
0.0001727921795844
0.000160298892559727
0.000146310838032978
0.000130850285392034
0.00011400774038175
9.57540778946863e-05
7.57151468915032e-05
5.29469192305543e-05
2.54741869460794e-05
1.85776681343619e-06
2.57562769354513e-06
3.09014868302055e-05
2.71601478510852e-06
6.03848952911944e-05
3.14268195549344e-05
2.88963734669839e-06
8.30777611518791e-05
6.0908827953056e-05
3.19670604862988e-05
2.98249190481313e-06
0.000102107637606775
8.35597438279548e-05
6.11233103547448e-05
3.21316980955347e-05
2.93880062955227e-06
0.000118920196446621
0.000102473710024835
8.34955402686366e-05
6.08086954758429e-05
3.16797424675977e-05
2.791268214268e-06
0.000134157073575471
0.000119099974889066
0.000102126201123504
8.2729029543888e-05
5.97960209368112e-05
3.06649376117369e-05
2.59473322352639e-06
0.000148145427910271
0.000134116011277213
0.000118432512077384
0.000100925608130137
8.11662254641733e-05
5.80949822576121e-05
2.92538908291492e-05
2.37526176936879e-06
0.000161072807049527
0.000147866851994858
0.000133113829946037
0.000116794421843921
9.88275701001511e-05
7.88338790988137e-05
5.5811021995024e-05
2.7549288718629e-05
2.13550292965342e-06
0.00017304359043947
0.000160537349701925
0.000146530338065809
0.000131045652367398
0.000114174745486483
9.58896946907166e-05
7.58194136233358e-05
5.3031571161154e-05
2.55673564105729e-05
1.87120997170185e-06
0.00018410665113632
0.000172226185873409
0.000158863476933686
0.000144046089327694
0.000127925064904043
0.000110656481791856
9.22029467963131e-05
7.22035279666148e-05
4.98211880605995e-05
2.33459725051253e-05
1.59417556744646e-06
2.51396827592228e-06
3.04664484838785e-05
2.66036638090412e-06
5.9738643074709e-05
3.10519417265056e-05
2.83955217566452e-06
8.23419875260448e-05
6.03627863540651e-05
3.16494518381286e-05
2.93938057901145e-06
0.000101363231992908
8.2954556299927e-05
6.06760210158389e-05
3.1870193471232e-05
2.90374109436751e-06
0.000118229260747541
0.000101885459437803
8.30203863915358e-05
6.04583816919782e-05
3.14722587195391e-05
2.76419817001623e-06
0.000133571886470308
0.000118587923793555
0.000101693604350175
8.23819905650354e-05
5.95402176102207e-05
3.05082465512273e-05
2.57485210992904e-06
0.000147712485626475
0.000133730694783037
0.000118098444036014
0.000100645845404646
8.09435094375284e-05
5.79310269132506e-05
2.91494401019379e-05
2.36197573657378e-06
0.000160835030928702
0.000147653983793177
0.000132927083220442
0.000116634355270352
9.86945606529578e-05
7.87290790683998e-05
5.5736448076723e-05
2.75036500329212e-05
2.12961211433252e-06
0.000173040582948726
0.000160539095715045
0.00014653530228482
0.00013105183205657
0.000114180154114777
9.58931442081344e-05
7.58223869051509e-05
5.30429247510395e-05
2.55996945248882e-05
1.87775476655365e-06
0.000184371380606613
0.000172479643866076
0.000159099536090416
0.000144259513590112
0.000128111610093127
0.00011081290258344
9.23271815661262e-05
7.22965372917112e-05
4.98949580825429e-05
2.34261903241526e-05
1.60555481050166e-06
0.000194832675146545
0.000183515352146605
0.000170704498078264
0.000156427399077818
0.000140850616805208
0.000124202345050924
0.000106626715476751
8.80677126497965e-05
6.8207198219081e-05
4.63346059199473e-05
2.10185905221765e-05
1.32649452316592e-06
2.44486300190864e-06
2.9966846120033e-05
2.59680081365344e-06
5.89900805159081e-05
3.06143772314755e-05
2.781254080556e-06
8.14746125255594e-05
5.97162531494452e-05
3.12716132514565e-05
2.88813117642125e-06
0.000100462273002521
8.22193724493224e-05
6.01307557987408e-05
3.15518658458866e-05
2.86121425192083e-06
0.000117359461480272
0.000101142213944697
8.24177143550573e-05
6.00134694830604e-05
3.12125894350652e-05
2.73055533041097e-06
0.000132787071697928
0.000117898491915164
0.000101108559257314
8.19107585633411e-05
5.91935651394936e-05
3.03035737543913e-05
2.54920128624391e-06
0.000147059921230567
0.000133146954016075
0.000117589531196463
0.000100217290123121
8.06005921336282e-05
5.7678818569551e-05
2.89959882792268e-05
2.34325528892191e-06
0.000160357805686484
0.000147222086034231
0.00013254409712398
0.00011630322716359
9.84177288392503e-05
7.85088740696852e-05
5.55742970543357e-05
2.7400639025874e-05
2.11697037231682e-06
0.000172779151397917
0.000160301821616145
0.000146323381762713
0.000130865867887027
0.000114020311917982
9.57597479170146e-05
7.57166355850297e-05
5.29665975625477e-05
2.55518932409413e-05
1.87150850078303e-06
0.000184363414154521
0.000172476940290369
0.000159100529296315
0.000144262196217561
0.00012811395780343
0.000110813314193095
9.23249892208195e-05
7.22935797051001e-05
4.98996367239782e-05
2.34500415201717e-05
1.61038309721331e-06
0.000195109200172096
0.000183782357891507
0.000170955666749846
0.000156657351113521
0.000141054997915342
0.000124377823633954
0.000106770919670573
8.81793903845876e-05
6.82880630208917e-05
4.63959944851686e-05
2.10880853579316e-05
1.33584026247787e-06
0.000204994158041711
0.00019421783470567
0.000181918298337591
0.000168122781053059
0.000153001962951528
0.000136807483014012
0.000119757268503266
0.00010196235552285
8.33750565631467e-05
6.37435779125946e-05
4.24930060487328e-05
1.8503527012652e-05
1.061556818928e-06
2.36887040863041e-06
2.94018954472785e-05
2.52568908173842e-06
5.81378554442262e-05
3.0111330455321e-05
2.71482024708397e-06
8.04744468568489e-05
5.89675498271915e-05
3.08307452252887e-05
2.82863041214436e-06
9.94037299442802e-05
8.13528518399886e-05
5.94856348995693e-05
3.11736819559559e-05
2.81085922355894e-06
0.000116309918476149
0.000100242805251073
8.16860668557105e-05
5.94720227728393e-05
3.08974128952178e-05
2.68993007965586e-06
0.000131802044926742
0.000117030726762642
0.000100369817707629
8.1313962214827e-05
5.87546808731454e-05
3.00488302334437e-05
2.51753691883834e-06
0.000146187654320424
0.000132364253235455
0.000116904816268894
9.96386829345646e-05
8.0136444403923e-05
5.73388655852092e-05
2.8796072480428e-05
2.31931782149582e-06
0.000159641746742433
0.000146571307162545
0.000131964499129885
0.000115800081866194
9.79956744517023e-05
7.81723816707174e-05
5.53276616371971e-05
2.7251345833095e-05
2.09952072727108e-06
0.000172259696022313
0.000159825815358724
0.000145894396645312
0.000130486884411927
0.000113693596280272
9.54872244385276e-05
7.55002054629842e-05
5.28072602744505e-05
2.54506226078242e-05
1.85958657118144e-06
0.000184078961374486
0.000172216117830739
0.000158864519311649
0.000144051625588594
0.000127928986516819
0.000110653973390714
9.21916279920115e-05
7.21873161290934e-05
4.98217756229839e-05
2.33997216205998e-05
1.60390040258724e-06
0.000195095709218585
0.000183774786861451
0.000170952385958588
0.000156656293343202
0.000141054081240214
0.000124375335923448
0.000106765710174922
8.81712029028246e-05
6.82789592377544e-05
4.63932184847101e-05
2.11038149220375e-05
1.33932243098378e-06
0.000205280821319608
0.000194496861670963
0.000182183132934829
0.000168367840012863
0.000153222705660782
0.000137000414081671
0.000119919870424697
0.000102092978440179
8.34731638566894e-05
6.38114910044204e-05
4.25417027471778e-05
1.85623240673287e-05
1.06918121756307e-06
0.000214596458560922
0.000204356567360429
0.000192551021119735
0.00017920647090954
0.000164495274120698
0.000148678056469699
0.0001319979378524
0.000114634077680434
9.668763502229e-05
7.81428770542922e-05
5.88238947013205e-05
3.83017555032182e-05
1.58137142933801e-05
8.0709012553476e-07
2.28663441375172e-06
2.87736256589254e-05
2.4476923938498e-06
5.71813423093612e-05
2.95440792675247e-05
2.64072382550811e-06
7.93405870545131e-05
5.81153886286093e-05
3.03245289411573e-05
2.76103451803121e-06
9.81867320956929e-05
8.03538192556431e-05
5.87389845660432e-05
3.07325978306877e-05
2.75263638009224e-06
0.000115079879694343
9.91862001510061e-05
8.08240923964697e-05
5.88321286751338e-05
3.05233682043937e-05
2.64210397247138e-06
0.000130616270689263
0.000115983756721685
9.94762148037861e-05
8.0590159437399e-05
5.82216198927659e-05
2.97402635668818e-05
2.47954186754391e-06
0.000145095491762083
0.0001313820067542
0.000116043351778381
9.89087916633669e-05
7.95497415532382e-05
5.69098873920999e-05
2.85481287726644e-05
2.29000764691119e-06
0.000158687231398417
0.000145701578816403
0.000131187772908029
0.000115123966097445
9.74271472945697e-05
7.77186238974531e-05
5.49970948821407e-05
2.70582891492202e-05
2.0775442905155e-06
0.000171483300582069
0.000159111765830837
0.000145248534544815
0.000129914484124023
0.000113199001313234
9.50741570483216e-05
7.51723029840374e-05
5.25678892851062e-05
2.53064777613244e-05
1.84356349932766e-06
0.000183518889844233
0.000171697998117811
0.000158391881835706
0.000143627506245762
0.000127555675625813
0.000110333156399377
9.19247969285961e-05
7.19759154624148e-05
4.96661497092655e-05
2.33013305136847e-05
1.59277423232252e-06
0.000194788629725957
0.000183491028380575
0.000170693105523579
0.000156422112804185
0.000140845165806475
0.000124191654151829
0.00010660728814192
8.80383847484875e-05
6.8172655707375e-05
4.63143249526494e-05
2.10512482137389e-05
1.33291390773972e-06
0.000205261078093191
0.000194483857342177
0.000182175155341589
0.000168362726204958
0.000153218267028956
0.000136994832143359
0.000119911831974561
0.000102081718516331
8.34587658692137e-05
6.37960963644449e-05
4.25319004190592e-05
1.85716145565643e-05
1.07177202996172e-06
0.000214891430434276
0.000204645952952157
0.000192828001538702
0.000179465213440348
0.000164730996590075
0.000148887032971782
0.000132177447673075
0.000114782269698224
9.68035041453174e-05
7.82265585918727e-05
5.88781114845104e-05
3.83381262241931e-05
1.58644837288111e-05
8.1321292915926e-07
0.000223634386871537
0.000213936849379774
0.00020262351534589
0.000189718819548591
0.000175395948671892
0.000159920027210826
0.000143543887508402
0.000126469161780454
0.000108856548731695
9.08201977793777e-05
7.2384966542125e-05
5.34549426559982e-05
3.37614542464098e-05
1.29667457528614e-05
5.69344524983844e-07
2.19842916854968e-06
2.80844556152508e-05
2.36304122224352e-06
5.61202239664465e-05
2.89146764468359e-05
2.5594334727444e-06
7.80723859881209e-05
5.71590748269237e-05
2.97554037126871e-05
2.68590683312297e-06
9.68106042592561e-05
7.92213700565615e-05
5.78895906630369e-05
3.02281515643536e-05
2.68680255771274e-06
0.000113668791236492
9.79715278245398e-05
7.98306300968831e-05
5.8092174137611e-05
3.00884282907655e-05
2.58703968020979e-06
0.000129229319842069
0.000114756835100221
9.84267124188976e-05
7.97380029008628e-05
5.75924944572147e-05
2.93752692052126e-05
2.43506992309468e-06
0.000143783247044936
0.000130199675130314
0.000115004265155689
9.80264509475573e-05
7.88390544406438e-05
5.63899773815863e-05
2.82496350157678e-05
2.25503916716754e-06
0.000157494466293136
0.000144612705977251
0.000130213332777225
0.00011427392642084
9.67109200443167e-05
7.71463095318244e-05
5.45814017576619e-05
2.68204904983245e-05
2.0509289049794e-06
0.000170450814814959
0.000158160067510372
0.000144385741728733
0.000129148144940861
0.000112535550075407
9.45192905434716e-05
7.47319862940871e-05
5.2249021541157e-05
2.51223058255215e-05
1.82368673993807e-06
0.000182684807122756
0.000170923779177891
0.00015768334304459
0.00014298999157195
0.000126993552569385
0.000109849791099586
9.15230741869814e-05
7.16586271149376e-05
4.94355496245527e-05
2.31637589621385e-05
1.57826358747998e-06
0.000194189301293994
0.00018293241078555
0.000170178732520334
0.000155955054702351
0.000140427780624877
0.000123825619047372
0.000106293846129921
8.77786300491376e-05
6.79674856482993e-05
4.61635418800707e-05
2.09558514813322e-05
1.32269672936144e-06
0.000204931582517861
0.00019417755801669
0.000181893193570405
0.000168105701485681
0.000152986319913536
0.000136787905505009
0.000119729859747825
0.000101924738690711
8.33270653797813e-05
6.36903124575746e-05
4.24524835255737e-05
1.85176151907186e-05
1.06556449971059e-06
0.000214864534363692
0.00020462678696653
0.000192814760890368
0.000179455615680012
0.000164722711747771
0.00014887809748339
0.000132166411519447
0.0001147681682971
9.67859114121682e-05
7.8205851639943e-05
5.88563930421471e-05
3.83220032491472e-05
1.58696210243294e-05
8.1510593749263e-07
0.00022393560086131
0.000214234751011515
0.000202910984161124
0.000189989741715716
0.000175645258734021
0.000160143718685131
0.000143738978514691
0.000126633566655818
0.000108989001649623
9.09203280238205e-05
7.24535403348792e-05
5.34952158191032e-05
3.37867528413457e-05
1.3011464020969e-05
5.74054867686728e-07
0.000232096959123356
0.000222953658000917
0.000212140582887358
0.000199677938832044
0.00018573886729413
0.000170591170180134
0.000154491969907697
0.000137650523741991
0.000120245799375934
0.000102442240020463
8.43749128093459e-05
6.61105442681693e-05
4.763757695164e-05
2.88632777959652e-05
9.97606643267291e-06
3.54323710923192e-07
2.10480484814002e-06
2.73381436083754e-05
2.27208160285377e-06
5.49556229671789e-05
2.82236650673758e-05
2.47120324412271e-06
7.66696083651445e-05
5.60984577660901e-05
2.91243474094953e-05
2.60339804871979e-06
9.52748883348888e-05
7.79548479191663e-05
5.69367235800356e-05
2.96622890955157e-05
2.61371453516697e-06
0.000112076198287108
9.65981098244302e-05
7.87047766356416e-05
5.72509779422457e-05
2.95932986816085e-05
2.52511090995521e-06
0.00012764089010328
0.000113349374367946
9.72204358889029e-05
7.87563465260133e-05
5.68657493600061e-05
2.89532300927223e-05
2.38420367447404e-06
0.00014225081213604
0.000128816820425549
0.000113786802103551
9.69906180250044e-05
7.80030529864175e-05
5.57773014774885e-05
2.78987381578984e-05
2.21442994921739e-06
0.000156063620783343
0.000143304496483378
0.000129040630627806
0.000113249079310552
9.58458216140785e-05
7.64540344247202e-05
5.40787564736121e-05
2.65356494372357e-05
2.01932762508633e-06
0.000169162840707589
0.00015697092343727
0.000143305820635192
0.00012818726594904
0.000111702268353239
9.3821389508283e-05
7.41779753575829e-05
5.18495088180828e-05
2.4897152731331e-05
1.79980043905787e-06
0.000181577987698613
0.000169894311574021
0.000156739310450147
0.000142139015592627
0.000126242052493683
0.000109202855509523
9.09851942842181e-05
7.12345230229411e-05
4.91304932547649e-05
2.29897615489458e-05
1.5606226167776e-06
0.000193299821160301
0.000182100641430578
0.000169410510616548
0.000155255804509464
0.00013980198726766
0.000123276656709874
0.000105824239679159
8.73905082893429e-05
6.76627280330455e-05
4.5943300401602e-05
2.08254708704661e-05
1.30966443042959e-06
0.000204294138649328
0.000193579790585634
0.000181338667092988
0.000167597527155533
0.000152526909890666
0.000136378992420671
0.000119372668067096
0.000101620157209516
8.30757736661438e-05
6.34925993837129e-05
4.23075496010344e-05
1.8425456068298e-05
1.05621221348527e-06
0.000214512663099738
0.000204298157836253
0.000192510504505323
0.000179176305481436
0.000164468443858984
0.000148648765419322
0.000131961907272524
0.000114588438249953
9.66309878083348e-05
7.80759308127526e-05
5.87518440823844e-05
3.82427076892007e-05
1.58147171939855e-05
8.09287630240453e-07
0.000223900468683265
0.000214208522572284
0.000202891754427073
0.000189975094646198
0.000175632698371285
0.000160131104580217
0.000143724694533609
0.000126616497123232
0.000108968487158611
9.08962629048002e-05
7.24265573058146e-05
5.34675190235464e-05
3.37656304430661e-05
1.30147560885506e-05
5.75361443667553e-07
0.000232402144340191
0.000223258018135352
0.000212436703599091
0.000199959400054096
0.000186000288815526
0.000170828226409144
0.00015470137296196
0.000137829905638779
0.000120393629227686
0.000102557821436114
8.44585371899709e-05
6.61635463202587e-05
4.76642011258354e-05
2.88795488485705e-05
1.0016103989975e-05
3.5774245629644e-07
0.000239970224707148
0.000231396195372544
0.000221097288862409
0.000209087612268975
0.000195539109769478
0.000180721230227135
0.000164892977664772
0.000148265842659288
0.000131023883236464
0.000113345388558315
9.54060266208511e-05
7.73619026600662e-05
5.93216183577966e-05
4.13595789609546e-05
2.35843273190208e-05
6.87733024978505e-06
1.76452582953844e-07
2.00669864103041e-06
2.65331236150174e-05
2.17526843738351e-06
5.3688573891263e-05
2.74735937065991e-05
2.37634884047545e-06
7.51324374524719e-05
5.49347661773022e-05
2.84316463603125e-05
2.51383822831634e-06
9.35793936517849e-05
7.6553975129838e-05
5.58806928132373e-05
2.90347998441783e-05
2.53343486644456e-06
0.000110301884249803
9.50654850836681e-05
7.74458760337482e-05
5.63078119596457e-05
2.90385467092505e-05
2.45625973389059e-06
0.000125850838490173
0.000111760938041876
9.58567041339646e-05
7.76442694981947e-05
5.60402271117342e-05
2.84744411123622e-05
2.32692842026476e-06
0.000140498190080502
0.000127233132705722
0.000112390356580357
9.5800413206795e-05
7.70405829066265e-05
5.50703659811753e-05
2.74947452421551e-05
2.16795133619809e-06
0.000154394916468211
0.000141776831349305
0.000127669211428514
0.00011204865376748
9.48308018628791e-05
7.56404615828127e-05
5.34873828560085e-05
2.62024226980701e-05
1.98264029502183e-06
0.000167619908446677
0.000155544496345057
0.00014200856479718
0.000127031276317849
0.000110698247519521
9.29792736621229e-05
7.3508870531635e-05
5.13676696603599e-05
2.46285052821964e-05
1.77169315370351e-06
0.000180199430047034
0.000168610196064592
0.00015555998115525
0.000141074359962743
0.000125300536568497
0.000108391338242419
9.03099028313533e-05
7.07023457691787e-05
4.87497458864338e-05
2.27785309260341e-05
1.53965302930559e-06
0.000192121892504784
0.000180997009623664
0.000168389300482856
0.000154324751522928
0.000138967662620562
0.000122544130147902
0.000105197391097619
8.68727370201066e-05
6.72574712567633e-05
4.56541413868526e-05
2.06628552953248e-05
1.2941830985234e-06
0.000203351334906605
0.000192692755741493
0.000180513325526608
0.000166839402280696
0.000151840614580708
0.000135768025951741
0.000118839568013003
0.000101166753541236
8.27034523489759e-05
6.32022657714288e-05
4.20992888829745e-05
1.83025596285712e-05
1.04481421167813e-06
0.000213838101975781
0.000203662383422377
0.000191917153905656
0.000178628544044275
0.000163968731378937
0.000148198883999276
0.00013156313415856
0.000114241668388161
9.63367781726437e-05
7.78345215094916e-05
5.85629171933794e-05
3.81044754188027e-05
1.57259585054734e-05
8.01061813240029e-07
0.000223526133479617
0.000213857609637927
0.000202565411600508
0.000189673870801978
0.000175356634382983
0.000159880026128985
0.000143498434683842
0.000126414959721605
0.000108791628255074
9.07441045279961e-05
7.22991908116652e-05
5.33650553323316e-05
3.3687395872735e-05
1.29593271738662e-05
5.70357623213087e-07
0.000232357509206601
0.000223223643816733
0.000212410587243372
0.000199938982431861
0.000185982891521251
0.000170811507880359
0.000154683523306069
0.000137809633665472
0.000120370112902914
0.000102530698434125
8.44280200220391e-05
6.61305576726245e-05
4.76312627206975e-05
2.88549549884672e-05
1.00175116167309e-05
3.58655563657841e-07
0.000240276871739604
0.000231704733465323
0.000221400017638977
0.000209377795484145
0.000195811030661698
0.00018097021323652
0.000165115393300731
0.000148459001189475
0.000131185952871411
0.000113475380107042
9.5503824754274e-05
7.74285246096316e-05
5.93589926673704e-05
4.13736000818581e-05
2.35957414988682e-05
6.91397993959867e-06
1.78628817913663e-07
0.000247238901613576
0.000239250635885885
0.000229483066987931
0.000217942692100148
0.000204798979579781
0.000190322102286626
0.000174771715396596
0.000158359070355846
0.000141268553069566
0.000123681200805469
0.000105781810084347
8.77567518217827e-05
6.97811553100751e-05
5.20031247239373e-05
3.45906280324828e-05
1.7895788460907e-05
3.85340161017061e-06
5.97556572267278e-08
1.90248970476518e-06
2.56625455594594e-05
2.07283517584722e-06
5.23182409412919e-05
2.66664751207429e-05
2.27527773585359e-06
7.34616003484642e-05
5.36686892292401e-05
2.76801760362982e-05
2.41758275143792e-06
9.17243455021317e-05
7.50191877261126e-05
5.47222399828966e-05
2.83461577847808e-05
2.44628249909766e-06
0.000108345856725815
9.33734834524492e-05
7.60536707491768e-05
5.52634376714606e-05
2.8423588178792e-05
2.38074692240009e-06
0.000123859169578924
0.000109991294501361
9.43350505417201e-05
7.64011472685373e-05
5.51155461553597e-05
2.79380409422663e-05
2.2633541359021e-06
0.000138525499686183
0.000125448451808
0.000110814486423222
9.4455143009399e-05
7.59507124610825e-05
5.426801675126e-05
2.70366091975868e-05
2.11568746652878e-06
0.000152488666502292
0.000140029699502726
0.000126098746196668
0.00011067202202886
9.36649680121249e-05
7.47044306877123e-05
5.28057997085658e-05
2.58191480737787e-05
1.94083263548178e-06
0.000165822575571988
0.000153880995105981
0.000140493833314581
0.000125679693428223
0.000109522691302387
9.19918769015422e-05
7.27233428757335e-05
5.08016693111727e-05
2.43149529866811e-05
1.73923499588398e-06
0.000178550026134489
0.000167071954439666
0.000154145500527622
0.000139795786376067
0.000124168394532809
0.000107414296748917
8.94960066956559e-05
7.00607206330748e-05
4.82919012293146e-05
2.25280520681048e-05
1.51513765224843e-06
0.000190656902074626
0.000179622509936678
0.000167115694873167
0.00015316206611177
0.000137924538152606
0.000121627340509691
0.000104412242416192
8.62240539335301e-05
6.67504750903641e-05
4.52951847733533e-05
2.04671216633911e-05
1.27612543632912e-06
0.000202105270617621
0.000191518174254555
0.000179418472045406
0.000165832164119503
0.000150927754427281
0.000134954791087821
0.000118129832891713
0.00010056339050598
8.22088122561094e-05
6.28184415148538e-05
4.18282800015533e-05
1.81519974451686e-05
1.03161853554119e-06
0.000212843870716953
0.000202722147990901
0.00019103695167257
0.000177814029422552
0.000163224650804104
0.000147528879441607
0.000130969877285993
0.000113727046475226
9.59019884291472e-05
7.74801909712867e-05
5.82889220811873e-05
3.79095036914457e-05
1.56115398404113e-05
7.91400363650853e-07
0.000222815302692107
0.000213184816359773
0.000201934370883688
0.000189087820415204
0.000174818083523155
0.000159390796927076
0.000143059856556518
0.000126027995693115
0.000108456891598387
9.04618205655477e-05
7.20691554416486e-05
5.318634791243e-05
3.3556818982611e-05
1.28754945513059e-05
5.63505106932673e-07
0.000231960441528304
0.000222850344676224
0.000212062203754438
0.000199616046200491
0.0001856853837586
0.000170539173295804
0.000154436118396005
0.000137587007606562
0.000120172187378509
0.000102357442860128
8.42794556540864e-05
6.60066927981561e-05
4.75319095443319e-05
2.87793712342467e-05
9.96588798784972e-06
3.54835311411183e-07
0.000240221245428102
0.000231660941894035
0.00022136593676028
0.000209350718177569
0.00019578808443987
0.000180948837286682
0.00016509356031014
0.00014843522059534
0.000131159222221194
0.000113445160875278
9.54700704897649e-05
7.73917828778098e-05
5.93204844404211e-05
4.13367487183064e-05
2.35710456136294e-05
6.91663089003681e-06
1.79340044440193e-07
0.000247544237662006
0.000239560833167172
0.000229790135777758
0.000218239577288254
0.000205079614044054
0.000190581438669977
0.000175005752074454
0.000158564762430376
0.00014144373484969
0.000123824565421026
0.000105892928085144
8.78361436271539e-05
6.98304326856287e-05
5.20255104559582e-05
3.45938697879576e-05
1.79080519482099e-05
3.88720870862086e-06
6.06847525298198e-08
0.00025388742797207
0.000246501796428808
0.000237284319103638
0.000226232719356481
0.000213512741362492
0.000199394299575705
0.000184136854409455
0.000167950187798305
0.000151016775619512
0.00013351652309789
0.000115634429529458
9.7560718378501e-05
7.94892116339539e-05
6.16100475158284e-05
4.41093822902117e-05
2.72782889900536e-05
1.18436344041824e-05
1.43131489997989e-06
1.11527433431016e-08
1.79429096828489e-06
2.47291029460947e-05
1.96461078817865e-06
5.08441326068115e-05
2.57953695574306e-05
2.16850542985624e-06
7.1657225058585e-05
5.22995078316579e-05
2.6870560255754e-05
2.31490141894089e-06
8.97104349645042e-05
7.33509539524926e-05
5.3461959966224e-05
2.75998846697235e-05
2.35270715669104e-06
0.000106208443353394
9.15223276674458e-05
7.45286832923723e-05
5.41179200475095e-05
2.7749012069257e-05
2.29876632712656e-06
0.000121666162820761
0.000108040458541818
9.26552977101119e-05
7.50267757398187e-05
5.40921938131145e-05
2.73439840434949e-05
2.19366013516537e-06
0.00013633307698843
0.000123462795531263
0.000109058950907341
9.29543371080431e-05
7.47328257510563e-05
5.3370566362065e-05
2.65239979164107e-05
2.05780144742956e-06
0.000150345309564071
0.000138063223274536
0.000124329057522976
0.000109118726858288
9.23476142689543e-05
7.3645066940296e-05
5.20335777259325e-05
2.53853099584276e-05
1.89393320412316e-06
0.000163771477264017
0.000151980719858902
0.000138761590884706
0.000124132158311655
0.000108174946394075
9.08582930094628e-05
7.18202787030144e-05
5.0150736226027e-05
2.39553924366622e-05
1.70228441990638e-06
0.000176630672737904
0.000165280130172227
0.000152496051532391
0.000138303116923755
0.000122845101403319
0.000106270901238277
8.85424315051058e-05