/*--------------------------------*- C++ -*----------------------------------*\
  =========                 |
  \\      /  F ield         | OpenFOAM: The Open Source CFD Toolbox
   \\    /   O peration     | Website:  https://openfoam.org
    \\  /    A nd           | Version:  12
     \\/     M anipulation  |
\*---------------------------------------------------------------------------*/
/*   Windows 32 and 64 bit porting by blueCAPE: http://www.bluecape.com.pt   *\
|  Based on Windows porting (2.0.x v4) by Symscape: http://www.symscape.com   |
\*---------------------------------------------------------------------------*/
FoamFile
{
    format      ascii;
    class       volScalarField;
    location    "700";
    object      omega;
}
// * * * * * * * * * * * * * * * * * * * * * * * * * * * * * * * * * * * * * //

dimensions      [0 0 -1 0 0 0 0];

internalField   nonuniform List<scalar> 
10068
(
2.46683683998502
2.46683818538162
0.499993941130461
2.38166593315721
2.46684523249578
0.499029058608761
2.3816771757778
0.236441603211778
0.486189862874939
2.28698514551086
2.46684443991464
0.498500197614383
2.38168113103689
0.236296899821125
0.485087725438888
2.2869956207504
0.160168020578985
0.232949090668025
0.470079023980053
2.21611134704557
2.46684094122156
0.49854385483331
2.38168004091763
0.236091868304424
0.484538996959716
2.28699532346001
0.160184476554509
0.232784644955581
0.468835281797578
2.21610975363103
0.127365735473793
0.159021351003312
0.228116193081006
0.457498278880493
2.18722197064603
2.46684043373594
0.498434054696201
2.38167794855079
0.235903180306526
0.484588254689805
2.28699493440643
0.160091761578686
0.232572219943558
0.468276051473635
2.2161087422714
0.127403167329332
0.159035918124007
0.227925583856128
0.456157874506689
2.18721968060057
0.110118262908426
0.126937138535399
0.157144130043181
0.223600958153238
0.450607299258935
2.18619544350155
2.46684337501648
0.498040233987693
2.38167798706467
0.235614476376188
0.484548603402553
2.2869944390832
0.159920412221268
0.232385273367748
0.468335200693986
2.21610834368018
0.127343981619491
0.158942298254108
0.227708711055878
0.455572055266718
2.18721873502843
0.110150905868072
0.126975388239544
0.157153546543649
0.223389324620926
0.449198360962169
2.18619397466643
0.0999646656300038
0.109946834285245
0.126083586465994
0.155028807200797
0.22017089642743
0.447310679478341
2.19192955382687
2.46684015814959
0.497371073319493
2.38167985509075
0.235179461680111
0.484199988017494
2.28699401889327
0.15965595972423
0.232105605569341
0.468340571101491
2.21610824685199
0.127198678651026
0.158772265599882
0.22752775499971
0.455674491184598
2.1872182804528
0.110100549708995
0.126916576956248
0.157059159729692
0.22316759991022
0.448552922540438
2.1861930674093
0.0999897767407297
0.10998071477081
0.126121578376277
0.155033209687236
0.219943813660092
0.445847365865426
2.19193189178483
0.0935702793159171
0.0998834208800947
0.109503810317418
0.124946825113902
0.153012094207525
0.217494170640263
0.444639277404745
2.19485294959253
2.4668373554342
0.496464202314373
2.38168875067277
0.23459080189153
0.483572665127097
2.28699246124887
0.159287013446567
0.231680654434543
0.46803434210545
2.21610790901664
0.126967685946607
0.158510661539034
0.227261755236629
0.455700822225519
2.18721838962744
0.109970818090297
0.126772151407784
0.156892237641348
0.222995886929762
0.448695442171018
2.18619244192416
0.0999414084141846
0.109930868749961
0.126063374913184
0.154938362554934
0.219715267901522
0.445165549710318
2.19192870397235
0.0935887574085751
0.0999097776108662
0.10953856062998
0.124984224788347
0.153012645286017
0.217256278334432
0.443125783320256
2.19485741541291
0.0893826681042415
0.0935185614363207
0.0996122435457326
0.108823099820617
0.123673791782645
0.151104761798414
0.214884769329851
0.441135238770686
2.1951261809074
2.46683786431622
0.495341339792658
2.38167581369062
0.233852508363279
0.482702256927112
2.28700209006612
0.158810111670368
0.231102557349986
0.467443318082656
2.21610621533224
0.12664948598145
0.158145249146557
0.226852490843095
0.455439664867226
2.18721847560258
0.109763405092673
0.126542445643346
0.156636299152181
0.222743398063462
0.44873883599698
2.18619276355117
0.0998208757727222
0.109801673415206
0.125920873918487
0.154775597188177
0.219551381667418
0.445296147587065
2.19192570555882
0.0935404710098173
0.099861880933542
0.109489653761493
0.124926933384157
0.152917663312188
0.217024864954046
0.442396425528741
2.19485159244767
0.0893953933818234
0.0935382283480984
0.0996396233297379
0.108858426156159
0.123710516652374
0.1511024700589
0.214639994443373
0.439553838805918
2.19513057495491
0.0865925369415427
0.0893426097255527
0.0933231266690313
0.0991590035078681
0.107975532735668
0.122332645788439
0.149151848010612
0.211923270185304
0.436680658938039
2.19480463381858
2.466841259577
0.494027570515071
2.38167868737284
0.232971519513718
0.481618148818592
2.28697915840407
0.158225765384167
0.230375541788584
0.466608281062075
2.21610195710443
0.126243589173636
0.157672363265112
0.226290605443105
0.454887949973793
2.18721625131301
0.109479062426832
0.126225822429677
0.156277799681266
0.222351819429488
0.448520002461922
2.18619352947123
0.0996295075378906
0.109594927805889
0.125694088279644
0.154526615630003
0.219310535521274
0.445371941916868
2.19192822382158
0.0934258178881114
0.0997417184676075
0.109361814414619
0.124787132899731
0.152759073132196
0.216863709211537
0.442524836003187
2.19484598445933
0.08934641956756
0.0934903691795311
0.0995926278282348
0.108810742113764
0.123654330415931
0.15100837859808
0.214408715845398
0.438780778873343
2.19512417386355
0.0865999426537125
0.0893564781536548
0.0933437668213137
0.0991871747568594
0.108011112212336
0.122368486624235
0.149147473865489
0.211676204670964
0.43503087957187
2.19480689705106
0.0847393024152996
0.0865608067313716
0.0891877967033979
0.0929947177441525
0.0985699192916464
0.107030957088413
0.120923496493632
0.14703110051029
0.208499194256005
0.431533229711454
2.19480229569329
2.46684321754498
0.49253846464684
2.38168069544908
0.231953413757209
0.480343782164194
2.28699600402422
0.157536028230337
0.22950632306563
0.465559980257265
2.21609414455545
0.125750560197198
0.157092554698
0.225580712809635
0.454087295302906
2.18721434933317
0.109118336460154
0.125821755932168
0.155812534982257
0.221808443720275
0.448012359351965
2.18619226598453
0.0993683116495667
0.109311360316087
0.125381017461984
0.15417682581578
0.218935689631034
0.445202892393179
2.19192979258896
0.0932456765837422
0.0995507368184749
0.109156817550224
0.124564398221976
0.152517002297987
0.216633179603886
0.442629934776398
2.19485080486594
0.0892356066427368
0.0933759992564766
0.0994734847511093
0.108684887781788
0.123517541295528
0.150853508121457
0.214252358842652
0.438919483810091
2.19511812299403
0.0865497042969719
0.0893079020247728
0.0932966998246869
0.0991413289923044
0.10796470747682
0.122313539983337
0.149055428269133
0.211447477134189
0.434196827613478
2.19479832163044
0.0847414804499294
0.0865693350871624
0.0892025886733752
0.0930161560110256
0.098598615392079
0.107066370040552
0.120958143454956
0.147025702305292
0.208256253022096
0.429789260686843
2.19480464668431
0.083540139498632
0.0847159607552705
0.0864350800229425
0.0889396690867213
0.0925761712495301
0.0979091164299363
0.106036362373503
0.119436354745501
0.144703833156607
0.204640464382197
0.42588329184525
2.19513011128507
2.46684006920216
0.490890864637475
2.38167915310776
0.23080565463078
0.478900904219023
2.2869973901579
0.156743235231036
0.228501785678605
0.46432713433859
2.21611020680488
0.125171384827888
0.156407859583922
0.224729973287493
0.453074214814277
2.18721773344657
0.108681876938374
0.125330765755438
0.155241030257673
0.221117755969483
0.447249189240157
2.18619302824926
0.0990380571073272
0.108951508999571
0.124980948272276
0.153721255740638
0.218411069495734
0.444742881913983
2.19193255131371
0.0930009374263108
0.0992899726471759
0.108875298239042
0.12425630056649
0.152176216216808
0.216274304614385
0.4425107949364
2.19485314578327
0.0890634930520524
0.0931961280348863
0.099283672336509
0.10848251542504
0.123299305728478
0.150617854010428
0.214031257687916
0.439062106058329
2.19512323872234
0.0864412737143811
0.0891973367747915
0.093183135366424
0.0990237033542968
0.107841130613782
0.122179787631496
0.148904898752813
0.211299288107656
0.434354721219984
2.19479230096309
0.084689422259356
0.0865194842897071
0.0891547211060872
0.0929701011750168
0.0985539509700676
0.107021135429075
0.120904560358244
0.146936857438784
0.208033341611256
0.428889318059153
2.19480258600432
0.0835369631287398
0.0847192621921481
0.0864445191550842
0.0889552684955953
0.0925982602715957
0.0979380118994354
0.106071163064187
0.119469584519916
0.144699059685243
0.20440970055948
0.423966415642896
2.19512597727103
0.0828094707704003
0.0835252980696912
0.0846152652618344
0.0862474935052784
0.0886452299029662
0.092127803455374
0.0972356928530416
0.105028202764102
0.117887159521267
0.142195843261491
0.200411612240718
0.419783071801093
2.19485513046577
2.46683949517432
0.489080311911641
2.38167602918766
0.229536360113687
0.477309438936697
2.28699441993872
0.155850248943052
0.227370323639019
0.46293117715253
2.216110871224
0.124507278111908
0.155620795633895
0.223746688432285
0.451879359714379
2.18721976470029
0.10817046883974
0.124753860618121
0.154565415643956
0.220288155492324
0.446274824568735
2.18619246702189
0.0986394223781425
0.108516021686433
0.124494340847152
0.153160296230413
0.217740260492474
0.44401822739726
2.19192973869256
0.0926923134387568
0.0989601856036673
0.108517735057115
0.123861860350853
0.151731037885182
0.215768543179881
0.442101191539696
2.19485851733039
0.0888307539731201
0.0929516670932226
0.0990242171238218
0.108204113573767
0.122996846050169
0.150285831171218
0.213687627223387
0.438990765676939
2.19512811962
0.0862748692414665
0.0890254349759967
0.0930041226901124
0.0988357229449038
0.10764186363399
0.121966096374448
0.148675558334744
0.211090544632888
0.434541298133721
2.19479756934893
0.0845821961420184
0.0864112797125314
0.0890448310396832
0.0928577413799321
0.0984380834563061
0.106899881678384
0.120773978212592
0.146791763914763
0.207895743118855
0.429081854704567
2.19479693971644
0.0834825293952704
0.0846675929722812
0.0863953336525405
0.0889083192859369
0.0925532764422092
0.0978944145633562
0.106026946273711
0.119417545288169
0.144615116599061
0.204199311751544
0.423002559434542
2.19512400803879
0.082800676910334
0.0835232612261738
0.0846194968554165
0.0862577915770076
0.088661613700675
0.0921503786297922
0.0972644635990422
0.105061996718695
0.117918960734747
0.142193727051999
0.200180739705496
0.41764025673842
2.19485278168063
0.0824187357605726
0.0828027431148329
0.0834472769436145
0.084478068005182
0.0860510993634831
0.0883637781827405
0.0917105552178676
0.0966055909403012
0.10405698528745
0.11633317918326
0.139584010302239
0.195867331772217
0.413323790344022
2.19192953800729
2.46684120423287
0.4871100748535
2.38167932534217
0.228149671832481
0.475552924134726
2.28699279764478
0.154859941270384
0.226120281529255
0.461383283702901
2.21610787293245
0.123759627091561
0.154734349537638
0.222639467420705
0.45052464896593
2.18722121319523
0.107584997553106
0.124092284245214
0.153788516607977
0.219329002416865
0.445121301477518
2.18619256197444
0.0981731144678688
0.108005674303502
0.123922227070697
0.152496325976719
0.216932900842125
0.443083131442697
2.1919279405079
0.0923204489958057
0.0985620514185341
0.108084752263265
0.123381455579095
0.151181659500843
0.215118259292353
0.441419109394287
2.19485350026034
0.0885379912861855
0.092643332300291
0.0986958629978756
0.107850065449827
0.122608927853147
0.149851263689836
0.213201198469134
0.43862461571033
2.1951298275127
0.0860509667746286
0.0887929018529508
0.0927605816079283
0.0985783646134714
0.107367234502881
0.121669468222582
0.148352205911751
0.210763382607728
0.434523110358448
2.19480250903702
0.0844197313644954
0.0862450585497373
0.0888736080424774
0.0926800903161119
0.0982523362036432
0.10670388768878
0.120564887658752
0.146569621506328
0.207701468365124
0.429319656478491
2.1948022990897
0.0833755197382201
0.0845605846268795
0.086287726250852
0.0887994381789004
0.0924423263848975
0.0977803467357599
0.105908001604028
0.119290415039838
0.144476509705787
0.204073649691239
0.423239701257138
2.1951186532329
0.0827433197587123
0.0834692261982301
0.0845684809517547
0.0862094891977179
0.0886156876700413
0.0921064172268071
0.0972217772989341
0.105018674320203
0.117868823756028
0.142116566994709
0.199975711093399
0.416597407834558
2.19485091981598
0.0824039790001021
0.0827951153125787
0.0834462118878722
0.0844832478249377
0.0860623537461714
0.0883809413963298
0.0917334578406533
0.0966339430710275
0.104089449998
0.116363682229498
0.139583605134137
0.195618024194025
0.410876201715749
2.19192921999986
0.082275086582395
0.0824194004265748
0.0827451512650452
0.0833537504443427
0.0843632412250851
0.085906049135591
0.088156125956051
0.0913887729057323
0.0960902226254908
0.103209508946279
0.114888543605774
0.137007953834935
0.191125370474133
0.406696437264155
2.18619138570763
2.46684000030144
0.484977677214816
2.38167743508778
0.226649741658364
0.47363519634789
2.2869933173867
0.153774432770846
0.224754062310774
0.45966462439181
2.21610643245199
0.122929827084557
0.153751400464746
0.221415330710807
0.449007729717055
2.18721790135656
0.106926410910827
0.123347434928352
0.152913378123401
0.218248444303907
0.443799990916277
2.18619566097493
0.0976399171662378
0.107421345520169
0.123265911613786
0.151732409428795
0.215998432221636
0.441962973183353
2.19192506051579
0.0918860240189302
0.0980962736218827
0.107577120812422
0.122816148833103
0.15053062466539
0.214333643050178
0.440518033293373
2.19485112906194
0.0881857941681903
0.0922717662885632
0.0982992763769552
0.107420950492465
0.122135829845027
0.149314042483383
0.212572763133224
0.437982190409578
2.19512677461546
0.0857700385788667
0.0885003429073127
0.0924532285724894
0.0982523374474955
0.107017514784569
0.121288490710841
0.147928573025517
0.21029654427544
0.434205600163987
2.19480620983895
0.0842022954696175
0.0860213192739515
0.0886417721968666
0.092438046872566
0.0979976053170152
0.106433333389859
0.120274222738782
0.146255576698182
0.207393243975598
0.429362422931739
2.19480496633137
0.0832155754454224
0.0843982819693436
0.0861220737571266
0.0886292861537614
0.0922663488609343
0.0975969974656378
0.10571535086036
0.119086217923957
0.144262433916305
0.203894520564766
0.423545697735903
2.19512401637889
0.0826356738857294
0.0833624321078238
0.084462026455637
0.0861027769598413
0.0885080023888968
0.0919969268089275
0.097109471469095
0.104902052756798
0.11774546918127
0.141985235086155
0.199863811098676
0.416896669722855
2.19484773371416
0.0823431679279307
0.0827381721927303
0.0833928392489212
0.0844331254281002
0.0860150931169709
0.0883360697124078
0.0916904326354857
0.0965920146135432
0.104046936511665
0.116315756087419
0.139512083366677
0.195410026875955
0.409711336003753
2.1919279559253
0.0822539806674036
0.0824058432670266
0.0827385508249804
0.0833537491187379
0.0843695847672914
0.0859184042454219
0.0881740696689526
0.091411854340045
0.0961178736783848
0.103240327752906
0.114917274977707
0.137004968589572
0.190835895090435
0.403871490183207
2.18619278453803
0.0823093557228025
0.082282298933377
0.0823799081768423
0.0826898184521849
0.0833085789736641
0.0843326488381995
0.085873252524041
0.0880907988441914
0.0912465752000792
0.09579858810796
0.102634165244685
0.113759920478752
0.134737038771024
0.186510778242109
0.400959872493528
2.18721550682668
2.46683894233312
0.482635089396602
2.38167675438085
0.225030658486227
0.471565710322209
2.28699348150497
0.152595292319271
0.223275754915158
0.457782980326192
2.21610707480946
0.122019083123095
0.152673695205033
0.220075857385537
0.447323682800158
2.18721562907691
0.106195789294376
0.122520683196856
0.15194260681877
0.217051074791311
0.442307951550653
2.18619244981568
0.0970407229750685
0.106764005136528
0.122526793469202
0.150871460658846
0.214943853638408
0.440666029212744
2.19193097897411
0.0913898133502816
0.097563633396105
0.10699572573665
0.122167284171898
0.149780983312498
0.213423586339016
0.439427008352971
2.19484581107146
0.0877748275281929
0.0918376446784381
0.0978351544946266
0.106917530836124
0.121578606650192
0.148676637412808
0.211811622048653
0.437117969464311
2.19512425108949
0.0854326121992221
0.0881483458368598
0.0920827022681523
0.0978582846009556
0.106593223062161
0.120823314823573
0.147404177787494
0.209690975145619
0.433612641580181
2.19480495026294
0.0839302365356894
0.0857405418907954
0.0883499346819845
0.0921323148422432
0.0976745422931545
0.106088382996127
0.119900498607908
0.145843421604883
0.206948894924858
0.429107810337116
2.19480815871563
0.0830027616040318
0.0841809790789582
0.0858988896758414
0.0883985737956798
0.0920261950865953
0.0973451626434299
0.105449035268714
0.118801839155004
0.143958693707744
0.203607282612555
0.423670423059301
2.19512648022011
0.0824770855578483
0.0832026359433083
0.0843002192706318
0.0859380103104758
0.0883391617751515
0.0918227531676476
0.0969285699180752
0.104712839947112
0.11754649998883
0.141779772119949
0.199703149174604
0.417304381213273
2.19485076709353
0.082234140450299
0.0826307442751315
0.0832865773289338
0.0843275070588946
0.0859094606401274
0.0882296460759799
0.0915823754889303
0.09648141207061
0.103932649429601
0.11619635815619
0.139387836837932
0.195314141421295
0.41012866151675
2.19192713703308
0.0821892118149062
0.0823454655126622
0.0826822928245857
0.0833013116777122
0.0843205745486014
0.0858722969271035
0.0881302486514907
0.0913696630799453
0.0960765341753428
0.103198456573494
0.114871012404947
0.136935738252426
0.190614176167928
0.402554474315696
2.18619261248582
0.0822815060289328
0.0822624300006892
0.0823674420380773
0.0826844141502031
0.0833099751299648
0.0843404425506777
0.0858868579524434
0.0881095184663269
0.0912696679484954
0.0958252057866736
0.102662784733063
0.113785462625223
0.134725063762075
0.186162148384355
0.397708907717311
2.18721754078353
0.0824688064694697
0.0823222741660595
0.0822586120310978
0.0823578859150324
0.0827047431777008
0.0833755235731391
0.0844477419641702
0.0860238701702983
0.088260009201558
0.0914086963351502
0.0959056611098611
0.102586723196512
0.113331836696823
0.133363243439696
0.183020502691558
0.399554131347781
2.21610560966242
2.46684328790383
0.480163001476043
2.38167735990941
0.223289362099925
0.469313429873115
2.28699337777883
0.151322300382458
0.221675968279018
0.455749114474988
2.21610737353675
0.12102854643354
0.151502938879674
0.218620877714453
0.445483420167096
2.18721741858098
0.105394206382685
0.121613172703854
0.150877692233457
0.215740011681972
0.440657055708946
2.18619090758736
0.096376552797607
0.10603470274228
0.121706171357777
0.149915639657099
0.213772964300739
0.439204950636861
2.19192846762193
0.0908327283826437
0.0969650196381574
0.106341535516068
0.121436207147007
0.148935385023281
0.212393808109587
0.438163228860679
2.19485249161929
0.0873058881279243
0.0913417375453528
0.0973042732578029
0.106340686004996
0.120938558550347
0.14794188458191
0.210926666546782
0.43606799383905
2.19511872030849
0.0850393414617614
0.0877375713293512
0.0916496709900044
0.0973968866760735
0.106095087289569
0.120274900724403
0.146781104609281
0.208955287088629
0.432796933158237
2.19480220474518
0.0836040178649372
0.0854032528332067
0.0879986809880589
0.0917635180280532
0.0972837483742853
0.105669473370298
0.119443712297059
0.145332630448092
0.206370807133157
0.428567966023895
2.194800143637
0.0827372992157031
0.0839090299352734
0.0856186625520939
0.0881079074316616
0.0917225332761733
0.097025418267735
0.105109120404288
0.118435746384997
0.143559189238362
0.20318837347865
0.423491441683531
2.19513152157042
0.0822674140764248
0.08298993013413
0.0840833710401392
0.0857156995455818
0.0881098444827011
0.0915846769617201
0.0966797502637387
0.104450923520087
0.117268820240066
0.141487204688228
0.199439568457814
0.417556153867047
2.19485284636983
0.082075932719326
0.0824722941316599
0.0831272264235873
0.0841664643900193
0.0857457691370857
0.0880622096188004
0.0914100248039925
0.0963029610045136
0.103746944071878
0.116002793357137
0.139191480936197
0.195178110516144
0.410705886394312
2.19192752941128
0.0820781462972783
0.0822366613519938
0.0825753893996509
0.0831958629023249
0.0842159871238201
0.0857678311247847
0.0880250814259463
0.0912629685315182
0.0959675260362836
0.103086377242691
0.114755194527948
0.136817685547197
0.190538848768118
0.40314944981975
2.18619390161759
0.0822123124898925
0.0821981161791246
0.0823077804036136
0.0826291533634659
0.0832587567023146
0.0842927362985815
0.0858419827277387
0.0880667152335417
0.0912281629018966
0.0957841807859947
0.102621013651115
0.113739235891004
0.134653429713796
0.18592221308203
0.396251775583854
2.18721857164121
0.0824338398471679
0.0822957010121846
0.0822399014402013
0.0823467581033117
0.0827009883522809
0.0833787427395292
0.0844572770094571
0.0860388591231649
0.0882794660941986
0.091431559415809
0.095930744070882
0.102612084536443
0.113351476531827
0.133334198026216
0.182575216105755
0.395898075313439
2.21610688980994
0.0827124985666789
0.0824866481033969
0.0823122480678408
0.0822654750485023
0.0824247692460232
0.0828554377025512
0.0836167936653983
0.0847816805178407
0.0864556348213077
0.0887995413322923
0.0920696139845694
0.0967025472409183
0.103527744888147
0.114382074423177
0.134304516363476
0.183681033683252
0.410261208303621
2.2870039387159
2.46684219337824
0.477775082714876
2.38167967557201
0.22143150110486
0.466869193587721
2.2870064975705
0.149952995041667
0.219949728843589
0.453536581730387
2.21610716929442
0.119958901525475
0.150237279371458
0.217043326085934
0.443495043579003
2.18721751437057
0.104522817751335
0.120625995687197
0.149719763261961
0.214310271155835
0.438854875439677
2.18619230875787
0.0956485934789723
0.105234503432292
0.120805122464755
0.148866385819879
0.212487835665637
0.437587392839274
2.19192892028298
0.0902158700692436
0.0963014526507458
0.105615558371548
0.120624094586765
0.147995748033757
0.21125023025894
0.436736855905191
2.19485207413089
0.0867799473625349
0.0907849531970909
0.0967075130004627
0.105691349369643
0.120216924333362
0.147112138973721
0.209924929163727
0.434844591729084
2.19512372056358
0.0845910556847269
0.0872688099535828
0.0911548958429212
0.0968689038549705
0.105523945063479
0.119644431196077
0.146062036507568
0.208099954514051
0.431788883045887
2.19479661756823
0.083224281660392
0.0850101013634091
0.0875886635407778
0.0913323068926866
0.0968258694071328
0.105177259809451
0.118904646804761
0.144725006527527
0.205665226245954
0.427802537029735
2.19479707530322
0.0824195857516228
0.0835828975677687
0.0852819174974546
0.087757861396892
0.0913559543688679
0.0966383022035249
0.104695939885772
0.117987833592392
0.143063481998174
0.202636271766252
0.423029553522107
2.19512552922416
0.0820067529990828
0.0827245420403791
0.0838118452161652
0.0854363325278972
0.0878206322652189
0.0912833097683661
0.0963634965659572
0.104116258738488
0.116910855550445
0.141101419900988
0.199047215570803
0.41749323130523
2.19485588205261
0.0818681943067037
0.0822627105924888
0.0829148986288484
0.083950310900971
0.0855245076477266
0.087834388662835
0.0911740720778824
0.0960571982292664
0.103489547260649
0.115732091235054
0.138910834116929
0.194944918712711
0.411106073271987
2.1919287875397
0.0819194935231338
0.0820785858221898
0.0824173492824436
0.0830371954673449
0.0840558647323829
0.0856052769675554
0.087859037310884
0.0910923835478455
0.0957914479193994
0.102904083785173
0.114566862844184
0.13663049546072
0.190436590685147
0.403932808038928
2.18619245461413
0.0820986330194412
0.0820872821584605
0.0821995024973623
0.0825230637635395
0.0831543356990717
0.0841892934186375
0.0857387029834353
0.0879627409007347
0.0911226815350054
0.0956765061503256
0.102510630258152
0.11362579405604
0.134540077264943
0.185864666956487
0.397013739221567
2.18722093687263
0.0823598035956556
0.0822269857075649
0.0821763395658198
0.0822881684826344
0.0826470782611355
0.0833290168637746
0.084411035052259
0.0859952560740928
0.0882375867317326
0.0913904736882316
0.0958894876759655
0.102569207678153
0.113302453456089
0.133252999172668
0.182281662366675
0.394337771966234
2.21610874385065
0.0826701041490902
0.0824529990260532
0.0822869015841537
0.0822482493553439
0.0824155544279811
0.0828538969016041
0.0836222659619508
0.0847932241197895
0.0864720988002284
0.0888196178670633
0.0920918505143084
0.0967252433331855
0.103548126141911
0.114389950313115
0.134240310732114
0.183072124775343
0.406145745011813
2.28699341886412
0.0830082228201823
0.082734559200746
0.082488343470379
0.0823440157381286
0.0823772135042554
0.0826475696471064
0.0832048785994262
0.0841071859017461
0.0854362151988369
0.0873122242282178
0.0899179594597821
0.0935455804045712
0.0986994131112052
0.106348002603727
0.118630668049607
0.141301528653553
0.198356943796425
0.460109329460952
2.38169009876714
2.46684129943592
0.475245139504356
2.38167825306219
0.219455404727764
0.464384559664388
2.28699528408552
0.148484602530538
0.21810582314553
0.451146608729351
2.21611929462718
0.118809680066195
0.148874137072173
0.215342066205472
0.441324425686521
2.18721712726033
0.103582771004512
0.119559640986265
0.148465992103113
0.212757984266291
0.436901845176373
2.18619201784897
0.0948581742091632
0.104364537517192
0.119824632869684
0.147723951458058
0.211082372560222
0.435819633899167
2.19192866619306
0.089540549632339
0.0955740964681606
0.104818821915719
0.119731976486041
0.146963413652878
0.209988021622139
0.435156119641465
2.19485299997024
0.0861982083311229
0.0901683824540645
0.096045872038758
0.104970469209018
0.119414781555535
0.146189248246207
0.208805843666914
0.433458040475243
2.19512564186184
0.0840888022879736
0.0867430285782041
0.0905992741947194
0.0962751891742112
0.10488066210354
0.118933018072744
0.145249198209429
0.207125352048176
0.430607765054265
2.19480182119916
0.0827918931162499
0.0845619104118519
0.0871206614655689
0.0908394229351906
0.0963016256482329
0.104612495519023
0.118284345281546
0.144023075787249
0.20483710421488
0.426852601477505
2.19479140115805
0.082050250201291
0.0832032199188893
0.0848892948624407
0.0873490697457627
0.0909270748240186
0.0961843986338586
0.104210035831694
0.117458706101494
0.142472874077799
0.201957130593746
0.422346726191492
2.19512246750347
0.0816954304454429
0.0824068693185023
0.0834861040287957
0.0851004247372524
0.0874720716419783
0.0909191886143405
0.0959802606862846
0.103709062952203
0.116472401700883
0.140621489563108
0.198523921282378
0.417129094866805
2.19485247127043
0.0816108842947531
0.0820020925502968
0.0826498318558794
0.08367941251423
0.085246146981548
0.0875467210095218
0.0908750516270174
0.0957444940522557
0.103160284724986
0.115382623632671
0.138539541805627
0.194584504136408
0.411173628247279
2.19192962612906
0.0817126834365154
0.0818709182137107
0.0822080832293878
0.0828254283401574
0.0838405091010369
0.0853850892733229
0.087632680403984
0.0908584920785607
0.0955486735522267
0.10265114030495
0.114303080601764
0.136361696204538
0.190239474995791
0.404531647171472
2.18619251269182
0.0819388313824397
0.0819287580950142
0.0820418124362673
0.0823656531502155
0.0829964880543774
0.0840301330206848
0.0855772488588985
0.0877979868977988
0.0909536939057038
0.0955025316319836
0.10233127173632
0.113441823585371
0.134361895369427
0.185802183176467
0.398046035009216
2.18721956662607
0.0822430104757748
0.0821135475664575
0.082066039827974
0.082180720893334
0.0825420445932671
0.0832257698241129
0.0843087850814475
0.0858931154667976
0.088134647785149
0.0912858931662074
0.0957825535679924
0.102459304650303
0.113189082847492
0.13313967760365
0.182258403118143
0.395230125058367
2.21611060402013
0.0825908719379559
0.0823794651048943
0.082218976152669
0.0821858416208794
0.0823584635163708
0.0828016953815475
0.0835742756803275
0.0847485621720424
0.0864297395946565
0.0887784463800656
0.0920506812629183
0.0966826941765657
0.103501751454285
0.114331685165631
0.134130538812706
0.182691265823817
0.404706567020312
2.2869949506994
0.082958190247218
0.0826935236227843
0.0824559882381463
0.0823203013282936
0.0823621701292946
0.0826409726380775
0.0832061207015002
0.0841153116057333
0.0854499893617543
0.0873301790546267
0.0899384011555256
0.09356652100646
0.0987182253778591
0.106358884050628
0.118608945662474
0.141130872885742
0.197372539079489
0.455886088589507
2.38167839879971
0.0833303892470057
0.0830338780121939
0.0827462552707888
0.0825414731513018
0.0824943618193685
0.0826620881170184
0.0830899336221318
0.0838292168825092
0.0849515234003555
0.0865608412257214
0.0888124776298375
0.0919495580808783
0.0963800855254445
0.102856770346918
0.11293695950766
0.130304029630561
0.165802134367739
0.2707770509865
0.770638868785278
3.68517097144455
0.472522034186227
2.38166679421881
0.217339480371432
0.461859887012238
2.2869951238892
0.14691351844514
0.216136703188456
0.448703865290319
2.21610777521966
0.117579733858962
0.147412538412186
0.213522524284203
0.43898996037412
2.18721681852282
0.10257488540797
0.118413313215971
0.147115480061687
0.211084691561262
0.434755777414744
2.18619178594854
0.0940068353884134
0.103425912390349
0.118764663119174
0.146485144307942
0.209553597847632
0.433893439535663
2.19192789519596
0.0888083625288028
0.0947842787474361
0.103952399178037
0.118760638963752
0.145836845634197
0.208604858035951
0.43342152664176
2.19485476217458
0.0855621634613371
0.0894933347232967
0.0953204801144043
0.104179019244109
0.118533051976694
0.145173747387155
0.207567059496346
0.43191444991239
2.1951289591526
0.0835339080893346
0.0861614237635049
0.0899838786899708
0.0956166966706725
0.104166109627409
0.118141670377005
0.144343880032212
0.206031170780436
0.429269670857164
2.19480406508422
0.082307981378184
0.084059722055279
0.0865956294709853
0.0902857379234118
0.0957118171733847
0.103975955131223
0.117583817967222
0.143228262100025
0.20388882460605
0.425740058072536
2.1947967792038
0.0816301920801071