/*--------------------------------*- C++ -*----------------------------------*\
  =========                 |
  \\      /  F ield         | OpenFOAM: The Open Source CFD Toolbox
   \\    /   O peration     | Website:  https://openfoam.org
    \\  /    A nd           | Version:  12
     \\/     M anipulation  |
\*---------------------------------------------------------------------------*/
/*   Windows 32 and 64 bit porting by blueCAPE: http://www.bluecape.com.pt   *\
|  Based on Windows porting (2.0.x v4) by Symscape: http://www.symscape.com   |
\*---------------------------------------------------------------------------*/
FoamFile
{
    format      ascii;
    class       volScalarField;
    location    "700";
    object      p;
}
// * * * * * * * * * * * * * * * * * * * * * * * * * * * * * * * * * * * * * //

dimensions      [0 2 -2 0 0 0 0];

internalField   nonuniform List<scalar> 
10068
(
83333.3354103632
83333.3354082936
83333.3354103951
83333.3354103481
83333.3354062824
83333.3354083364
83333.3354082765
83333.3354104917
83333.3354103798
83333.3354103074
83333.335404334
83333.3354063392
83333.3354062602
83333.3354084508
83333.3354083212
83333.3354082358
83333.3354105359
83333.335410473
83333.3354103386
83333.3354102351
83333.3354024214
83333.3354043806
83333.3354043127
83333.3354064468
83333.33540632
83333.3354062172
83333.3354085114
83333.3354084358
83333.3354082811
83333.3354081656
83333.3354104159
83333.335410504
83333.335410425
83333.3354102642
83333.335410128
83333.3354005568
83333.3354024585
83333.3354024015
83333.3354044707
83333.3354043614
83333.3354042705
83333.3354065009
83333.3354064269
83333.335406279
83333.3354061463
83333.3354083903
83333.3354084856
83333.3354083929
83333.3354082095
83333.3354080612
83333.3354100987
83333.3354103689
83333.3354104406
83333.3354103385
83333.3354101526
83333.3354099838
83333.3353987448
83333.3354005866
83333.3354005375
83333.3354025318
83333.3354024392
83333.3354023603
83333.3354045008
83333.3354044488
83333.3354043204
83333.3354042008
83333.3354063606
83333.3354064701
83333.3354063833
83333.335406208
83333.3354060428
83333.3354080535
83333.3354083484
83333.3354084309
83333.3354083122
83333.3354081014
83333.3354079205
83333.3354095812
83333.3354100401
83333.335410287
83333.3354103337
83333.3354102112
83333.3354100019
83333.3354098017
83333.3353969873
83333.3353987688
83333.3353987259
83333.3354006451
83333.3354005669
83333.3354004969
83333.3354025381
83333.3354025083
83333.3354023981
83333.335402292
83333.3354043354
83333.3354044669
83333.3354044034
83333.3354042505
83333.3354040993
83333.3354059978
83333.3354063153
83333.3354064148
83333.335406304
83333.3354061017
83333.3354059043
83333.3354075046
83333.3354079998
83333.335408276
83333.3354083322
83333.3354081903
83333.3354079546
83333.3354077428
83333.3354088798
83333.3354095179
83333.3354099416
83333.3354101581
83333.3354101821
83333.3354100424
83333.335409812
83333.3354095826
83333.3353952846
83333.3353970061
83333.3353969686
83333.3353988138
83333.335398749
83333.3353986858
83333.335400629
83333.3354006204
83333.3354005255
83333.3354004297
83333.3354023491
83333.3354025022
83333.3354024614
83333.3354023285
83333.3354021927
83333.3354039465
83333.3354042879
83333.335404409
83333.3354043245
83333.3354041466
83333.3354039634
83333.3354054176
83333.3354059419
83333.3354062429
83333.3354063184
83333.335406185
83333.3354059579
83333.3354057302
83333.3354067638
83333.3354074461
83333.3354079106
83333.3354081568
83333.3354081883
83333.3354080263
83333.3354077694
83333.3354075286
83333.3354080118
83333.3354088148
83333.3354094076
83333.3354097924
83333.3354099794
83333.3354099856
83333.3354098324
83333.3354095839
83333.3354093277
83333.3353936367
83333.3353952984
83333.335395266
83333.3353970378
83333.3353969862
83333.335396929
83333.3353987768
83333.3353987886
83333.3353987076
83333.3353986196
83333.3354004173
83333.3354005922
83333.3354005727
83333.3354004564
83333.3354003321
83333.3354019365
83333.3354023006
83333.3354024422
83333.3354023822
83333.335402226
83333.3354020596
83333.3354033389
83333.3354038901
83333.3354042133
83333.3354043128
83333.3354042079
83333.3354040058
83333.3354037924
83333.3354046404
83333.3354053575
83333.3354058535
83333.3354061274
83333.335406179
83333.3354060252
83333.3354057768
83333.3354055204
83333.3354058504
83333.3354067037
83333.335407345
83333.3354077718
83333.3354079878
83333.3354079989
83333.3354078214
83333.3354075466
83333.3354072789
83333.3354069897
83333.3354079448
83333.3354086952
83333.3354092391
83333.3354095855
83333.3354097497
83333.335409744
83333.335409582
83333.3354093187
83333.3354090386
83333.3353920433
83333.3353936456
83333.3353936183
83333.3353953168
83333.3353952785
83333.3353952269
83333.335396981
83333.3353970122
83333.3353969451
83333.3353968637
83333.3353985436
83333.3353987397
83333.3353987405
83333.3353986392
83333.3353985234
83333.3353999832
83333.3354003692
83333.3354005313
83333.3354004937
83333.3354003553
83333.3354002013
83333.3354013062
83333.3354018805
83333.3354022246
83333.335402346
83333.3354022672
83333.3354020878
83333.3354018917
83333.3354025322
83333.3354032788
83333.3354038004
83333.3354040987
83333.3354041762
83333.335404052
83333.3354038284
83333.3354035865
83333.3354036883
83333.3354045806
83333.3354052587
83333.3354057197
83333.3354059647
83333.3354059955
83333.3354058256
83333.335405559
83333.335405276
83333.3354047791
83333.3354057892
83333.3354065944
83333.3354071889
83333.3354075771
83333.3354077682
83333.3354077645
83333.3354075765
83333.3354072873
83333.3354069953
83333.3354058214
83333.3354069186
83333.3354078152
83333.3354085071
83333.3354090031
83333.3354093192
83333.3354094688
83333.3354094572
83333.3354092916
83333.3354090174
83333.335408717
83333.3353905037
83333.3353920472
83333.335392025
83333.3353936508
83333.3353936256
83333.3353935797
83333.335395241
83333.335395291
83333.3353952377
83333.3353951626
83333.3353967277
83333.3353969437
83333.3353969643
83333.3353968775
83333.335396769
83333.3353980899
83333.3353984963
83333.3353986787
83333.3353986622
83333.3353985396
83333.3353983948
83333.3353993334
83333.3353999287
83333.3354002929
83333.3354004356
83333.3354003802
83333.3354002194
83333.3354000364
83333.3354004756
83333.3354012469
83333.335401791
83333.3354021106
83333.3354022112
83333.3354021144
83333.3354019138
83333.3354016895
83333.3354015489
83333.3354024732
83333.3354031806
83333.3354036691
83333.33540394
83333.3354039975
83333.3354038573
83333.3354036151
83333.3354033469
83333.3354025761
83333.3354036279
83333.3354044745
83333.335405109
83333.3354055332
83333.3354057531
83333.3354057681
83333.3354055869
83333.3354053053
83333.3354049983
83333.335403559
83333.3354047149
83333.3354056716
83333.3354064208
83333.3354069672
83333.3354073233
83333.3354074973
83333.3354074854
83333.3354072923
83333.3354069927
83333.3354066797
83333.3354045118
83333.3354057454
83333.3354067791
83333.3354076084
83333.3354082423
83333.3354086987
83333.3354089941
83333.3354091365
83333.3354091254
83333.335408962
83333.3354086817
83333.3354083652
83333.3353890173
83333.3353905026
83333.3353904856
83333.3353920391
83333.3353920271
83333.335391987
83333.3353935563
83333.3353936246
83333.3353935851
83333.3353935163
83333.3353949689
83333.3353952036
83333.3353952433
83333.335395171
83333.3353950693
83333.3353962563
83333.3353966815
83333.3353968831
83333.335396887
83333.3353967794
83333.3353966425
83333.3353974234
83333.3353980373
83333.3353984208
83333.3353985843
83333.3353985507
83333.3353984061
83333.3353982329
83333.3353984837
83333.3353992755
83333.3353998404
83333.3354001805
83333.3354003031
83333.3354002304
83333.3354000486
83333.3353998379
83333.335399468
83333.3354004181
83333.3354011501
83333.3354016618
83333.3354019551
83333.3354020365
83333.335401924
83333.3354017045
83333.3354014541
83333.3354004044
83333.3354014899
83333.335402369
83333.3354030346
83333.3354034879
83333.3354037346
83333.3354037763
83333.3354036244
83333.3354033665
83333.3354030748
83333.3354013138
83333.3354025133
83333.3354035149
83333.335404309
83333.3354048975
83333.3354052896
83333.3354054914
83333.3354054968
83333.3354053095
83333.3354050168
83333.3354046891
83333.3354021963
83333.3354034908
83333.3354045889
83333.3354054811
83333.3354061725
83333.3354066778
83333.3354070108
83333.3354071752
83333.3354071616
83333.3354069694
83333.3354066639
83333.3354063347
83333.3354030637
83333.3354044307
83333.3354055957
83333.335406554
83333.3354073151
83333.3354078992
83333.3354083266
83333.3354086099
83333.3354087524
83333.3354087487
83333.3354085942
83333.3354083135
83333.3354079876
83333.3353875829
83333.3353890111
83333.3353889993
83333.3353904811
83333.3353904824
83333.3353904482
83333.3353919262
83333.3353920126
83333.335391987
83333.3353919246
83333.3353932664
83333.3353935188
83333.3353935771
83333.3353935192
83333.3353934246
83333.3353944817
83333.3353949238
83333.3353951435
83333.3353951671
83333.3353950743
83333.335394945
83333.3353955753
83333.3353962057
83333.3353966071
83333.3353967904
83333.3353967776
83333.3353966482
83333.3353964833
83333.3353965584
83333.3353973673
83333.335397951
83333.3353983108
83333.3353984546
83333.3353984038
83333.3353982384
83333.3353980378
83333.3353974574
83333.335398428
83333.3353991813
83333.3353997141
83333.3354000285
83333.3354001322
83333.335400044
83333.3353998433
83333.3353996066
83333.335398299
83333.3353994108
83333.3354003163
83333.3354010076
83333.335401485
83333.3354017549
83333.3354018209
83333.3354016963
83333.3354014607
83333.3354011867
83333.3353991094
83333.3354003434
83333.3354013797
83333.3354022086
83333.3354028304
83333.3354032525
83333.3354034809
83333.3354035125
83333.3354033533
83333.3354030836
83333.3354027719
83333.3353999087
83333.3354012476
83333.3354023931
83333.3354033344
83333.3354040732
83333.3354046209
83333.3354049889
83333.3354051794
83333.3354051817
83333.3354049941
83333.335404695
83333.3354043512
83333.3354006949
83333.3354021239
83333.3354033563
83333.3354043823
83333.3354052071
83333.3354058475
83333.3354063215
83333.3354066398
83333.3354068016
83333.3354067934
83333.3354066088
83333.3354063033
83333.335405965
83333.3354014774
83333.3354029776
83333.3354042709
83333.3354053526
83333.3354062329
83333.3354069337
83333.3354074794
83333.3354078876
83333.3354081666
83333.3354083162
83333.3354083273
83333.33540819
83333.3354079171
83333.3354075913
83333.3353861999
83333.3353875716
83333.3353875651
83333.3353889759
83333.3353889908
83333.3353889623
83333.3353903498
83333.3353904543
83333.3353904427
83333.3353903867
83333.3353916193
83333.3353918885
83333.3353919653
83333.3353919219
83333.3353918343
83333.3353927649
83333.3353932222
83333.3353934592
83333.3353935021
83333.3353934241
83333.3353933024
83333.3353937885
83333.3353944331
83333.3353948507
83333.3353950527
83333.3353950598
83333.3353949454
83333.3353947885
83333.335394699
83333.3353955217
83333.3353961217
83333.3353964998
83333.3353966639
83333.3353966337
83333.3353964834
83333.3353962917
83333.3353955185
83333.3353965049
83333.3353972762
83333.3353978282
83333.3353981627
83333.3353982878
83333.3353982214
83333.3353980368
83333.3353978106
83333.3353962708
83333.3353974027
83333.3353983297
83333.3353990429
83333.3353995422
83333.3353998336
83333.335399922
83333.3353998213
83333.3353996041
83333.335399344
83333.3353969805
83333.3353982406
83333.3353993044
83333.335400161
83333.3354008098
83333.3354012569
83333.3354015085
83333.3354015639
83333.3354014315
83333.3354011833
83333.3354008892
83333.3353976725
83333.3353990459
83333.3354002275
83333.3354012064
83333.3354019824
83333.3354025644
83333.3354029622
83333.3354031786
83333.3354032058
83333.335403045
83333.3354027682
83333.3354024408
83333.3353983659
83333.335399839
83333.3354011203
83333.3354021986
83333.3354030755
83333.3354037639
83333.3354042793
83333.3354046309
83333.335404817
83333.335404823
83333.3354046421
83333.3354043419
83333.335403989
83333.3353990565
83333.3354006183
83333.3354019809
83333.3354031342
83333.3354040836
83333.3354048474
83333.3354054472
83333.3354058992
83333.3354062103
83333.3354063768
83333.3354063813
83333.3354062123
83333.3354059145
83333.3354055774
83333.3353997512
83333.3354013866
83333.3354028079
83333.3354040104
83333.3354050046
83333.3354058143
83333.3354064672
83333.3354069854
83333.3354073829
83333.3354076647
83333.3354078287
83333.3354078625
83333.335407752
83333.3354074975
83333.335407188
83333.3353848674
83333.3353861835
83333.3353861819
83333.3353875227
83333.3353875513
83333.3353875283
83333.335388826
83333.3353889488
83333.3353889514
83333.3353889016
83333.3353900265
83333.3353903119
83333.3353904072
83333.3353903784
83333.3353902978
83333.3353911049
83333.335391576
83333.3353918295
83333.3353918914
83333.3353918283
83333.3353917141
83333.3353920617
83333.3353927181
83333.3353931505
83333.3353933703
83333.3353933969
83333.3353932974
83333.3353931485
83333.335392904
83333.3353937373
83333.3353943513
83333.3353947462
83333.3353949294
83333.3353949191
83333.3353947836
83333.3353946002
83333.3353936499
83333.3353946477
83333.3353954337
83333.3353960027
83333.3353963559
83333.3353965014
83333.3353964552
83333.3353962855
83333.3353960684
83333.3353943202
83333.3353954665
83333.3353964106
83333.3353971426
83333.3353976615
83333.3353979732
83333.3353980828
83333.3353980034
83333.335397802
83333.3353975526
83333.3353949363
83333.3353962155
83333.3353973007
83333.3353981802
83333.3353988519
83333.3353993211
83333.3353995941
83333.3353996714
83333.3353995623
83333.335399332
83333.3353990516
83333.3353955215
83333.33539692
83333.3353981294
83333.3353991377
83333.3353999435
83333.3354005534
83333.3354009762
83333.335401215
83333.3354012651
83333.33540113
83333.3354008738
83333.335400564
83333.3353960996
83333.335397606
83333.3353989239
83333.3354000419
83333.3354009595
83333.3354016866
83333.3354022363
83333.3354026166
83333.335402827
83333.3354028563
83333.3354027009
83333.3354024221
83333.3354020857
83333.3353966882
83333.3353982927
83333.3353997045
83333.3354009125
83333.3354019179
83333.3354027349
83333.335403382
83333.3354038736
83333.3354042157
83333.3354044043
83333.3354044211
83333.3354042549
83333.3354039608
83333.3354036096
83333.3353972809
83333.3353989761
83333.3354004672
83333.3354017441
83333.3354028122
83333.3354036908
83333.3354044046
83333.3354049741
83333.3354054121
83333.335405723
83333.3354059013
83333.3354059262
83333.3354057825
83333.335405503
83333.3354051829
83333.3353978815
83333.3353996561
83333.3354012075
83333.3354025308
83333.3354036367
83333.3354045505
83333.3354053028
83333.3354059198
83333.3354064203
83333.3354068147
83333.335407106
83333.3354072911
83333.3354073565
83333.335407284
83333.3354070644
83333.3354067959
83333.3353835848
83333.3353848455
83333.3353848493
83333.3353861202
83333.3353861627
83333.3353861455
83333.3353873533
83333.335387495
83333.3353875122
83333.3353874685
83333.3353884864
83333.3353887877
83333.3353889019
83333.3353888879
83333.3353888141
83333.3353895002
83333.3353899841
83333.3353902535
83333.3353903344
83333.3353902863
83333.3353901794
83333.3353903932
83333.3353910597
83333.3353915056
83333.3353917425
83333.3353917883
83333.3353917039
83333.3353915628
83333.3353911715
83333.3353920128
83333.3353926386
83333.3353930488
83333.3353932501
83333.3353932592
83333.3353931386
83333.3353929633
83333.3353918493
83333.3353928547
83333.3353936525
83333.3353942361
83333.3353946065
83333.335394771
83333.3353947444
83333.3353945894
83333.3353943809
83333.3353924449
83333.3353936004
83333.3353945574
83333.3353953052
83333.3353958415
83333.3353961719
83333.3353963016
83333.335396242
83333.3353960552
83333.335395815
83333.3353929764
83333.335394268
83333.3353953693
83333.3353962672
83333.3353969586
83333.3353974477
83333.3353977407
83333.3353978386
83333.3353977502
83333.3353975351
83333.3353972655
83333.3353934637
83333.3353948795
83333.3353961097
83333.3353971413
83333.3353979713
83333.3353986049
83333.3353990497
83333.3353993091
83333.3353993803
83333.3353992678
83333.3353990285
83333.3353987321
83333.3353939289
83333.3353954587
83333.3353968039
83333.3353979523
83333.3353989018
83333.3353996599
83333.3354002377
83333.3354006423
83333.3354008738
83333.3354009246
83333.3354007936
83333.3354005343
83333.3354002153
83333.3353943947
83333.3353960302
83333.3353974781
83333.335398727
83333.3353997758
83333.3354006355
83333.3354013215
83333.3354018463
83333.3354022154
83333.3354024263
83333.3354024646
83333.3354023226
83333.335402049
83333.3354017138
83333.3353948769
83333.3353966119
83333.3353981515
83333.3353994843
83333.3354006115
83333.335401548
83333.3354023146
83333.3354029295
83333.3354034047
83333.335403744
83333.3354039419
83333.335403977
83333.3354038351
83333.3354035575
83333.3354032239
83333.335395366
83333.335397197
83333.3353988174
83333.3354002167
83333.3354014001
83333.3354023883
83333.3354032079
83333.335403883
83333.3354044311
83333.3354048627
83333.3354051798
83333.3354053767
83333.3354054305
83333.3354053231
83333.3354050776
83333.3354047988
83333.3353958626
83333.3353977825
83333.3353994683
83333.3354009147
83333.3354021326
83333.3354031487
83333.3354039962
83333.3354047047
83333.3354052971
83333.3354057889
83333.3354061875
83333.335406494
83333.3354067061
83333.3354068117
83333.3354067929
83333.3354066364
83333.3354064397
83333.3353823532
83333.3353835561
83333.3353835663
83333.3353847669
83333.3353848238
83333.335384813
83333.3353859304
83333.3353860919
83333.3353861235
83333.3353860865
83333.3353869975
83333.3353873148
83333.3353874483
83333.3353874492
83333.3353873824
83333.3353879492
83333.3353884449
83333.3353887302
83333.3353888303
83333.3353887971
83333.3353886977
83333.3353887817
83333.3353894566
83333.3353899151
83333.3353901685
83333.3353902334
83333.335390164
83333.3353900306
83333.3353894997
83333.3353903465
83333.3353909824
83333.3353914067
83333.3353916254
83333.3353916537
83333.335391548
83333.3353913807
83333.3353901145
83333.3353911242
83333.3353919309
83333.3353925272
83333.3353929132
83333.3353930959
83333.3353930885
83333.335392948
83333.3353927478
83333.3353906421
83333.3353918023
83333.3353927685
83333.3353935289
83333.3353940805
83333.3353944281
83333.3353945765
83333.3353945359
83333.3353943634
83333.3353941319
83333.3353910974
83333.3353923958
83333.335393508
83333.3353944203
83333.3353951283
83333.3353956351
83333.3353959466
83333.3353960637
83333.3353959944
83333.3353957933
83333.3353955331
83333.3353914972
83333.3353929231
83333.3353941679
83333.3353952174
83333.3353960672
83333.3353967211
83333.3353971855
83333.3353974642
83333.335397555
83333.3353974623
83333.3353972375
83333.3353969519
83333.3353918604
83333.3353934049
83333.3353947697
83333.3353959413
83333.3353969161
83333.3353976997
83333.3353983012
83333.335398727
83333.3353989781
83333.3353990487
83333.3353989391
83333.335398696
83333.3353983898
83333.3353922078
83333.3353938638
83333.3353953377
83333.3353966171
83333.3353976995
83333.3353985929
83333.3353993104
83333.3353998626
83333.3354002546
83333.335400485
83333.335400543
83333.3354004238
83333.3354001688
83333.3353998501
83333.3353925602
83333.3353943228
83333.3353958969
83333.3353972708
83333.3353984434
83333.3353994259
83333.3354002358
83333.3354008887
83333.3354013951
83333.3354017592
83333.335401977
83333.3354020317
83333.3354019126
83333.3354016545
83333.3354013363
83333.3353929314
83333.3353947978
83333.3353964646
83333.3353979199
83333.3353991647
83333.3354002145
83333.335401092
83333.3354018182
83333.3354024092
83333.3354028748
83333.3354032173
83333.3354034306
83333.3354034927
83333.3354033866
83333.3354031405
83333.3354028484
83333.3353933082
83333.3353952791
83333.3353970315
83333.3353985541
83333.3353998522
83333.3354009472
83333.3354018679
83333.335402641
83333.3354032878
83333.3354038232
83333.335404255
83333.335404584
83333.3354048044
83333.3354048956
83333.3354048394
83333.335404655
83333.3354044494
83333.335393688
83333.3353957603
83333.3353975867
83333.3353991607
83333.3354004933
83333.3354016125
83333.3354025539
83333.3354033503
83333.3354040283
83333.3354046072
83333.3354050991
83333.3354055087
83333.3354058361
83333.3354060791
83333.335406239
83333.3354062966
83333.3354062439
83333.3354061438
83333.3353811812
83333.3353823172
83333.3353823342
83333.3353834611
83333.3353835335
83333.3353835301
83333.3353845552
83333.3353847376
83333.3353847843
83333.335384755
83333.3353855587
83333.335385892
83333.3353860449
83333.3353860614
83333.3353860021
83333.3353864499
83333.3353869569
83333.335387258
83333.3353873776
83333.3353873599
83333.3353872682
83333.3353872251
83333.3353879071
83333.3353883774
83333.335388647
83333.3353887311
83333.335388677
83333.3353885515
83333.3353878866
83333.335388737
83333.3353893814
83333.3353898188
83333.3353900543
83333.3353901017
83333.3353900109
83333.3353898518
83333.3353884433
83333.3353894543
83333.3353902676
83333.3353908747
83333.3353912752
83333.3353914755
83333.3353914869
83333.3353913609
83333.335391169
83333.3353889088
83333.3353900699
83333.3353910418
83333.3353918122
83333.335392377
83333.3353927405
83333.3353929068
83333.3353928847
83333.3353927262
83333.3353925034
83333.3353892956
83333.3353905957
83333.3353917145
83333.3353926375
83333.335393359
83333.3353938813
83333.3353942098
83333.3353943451
83333.3353942939
83333.3353941064
83333.3353938551
83333.3353896177
83333.3353910475
83333.3353923012
83333.3353933636
83333.3353942291
83333.3353949001
83333.3353953821
83333.3353956786
83333.3353957877
83333.3353957131
83333.3353955015
83333.3353952254
83333.3353898908
83333.3353914424
83333.3353928198
83333.3353940084
83333.3353950029
83333.3353958072
83333.3353964291
83333.3353968739
83333.3353971432
83333.3353972324
83333.3353971413
83333.3353969118
83333.335396616
83333.3353901323
83333.3353917998
83333.3353932913
83333.3353945932
83333.3353957014
83333.3353966217
83333.3353973651
83333.3353979405
83333.3353983525
83333.335398601
83333.3353986775
83333.335398578
83333.3353983379
83333.3353980312
83333.3353903615
83333.3353921407
83333.3353937384
83333.3353951422
83333.3353963492
83333.3353973677
83333.3353982122
83333.3353988961
83333.3353994286
83333.3353998136
83333.3354000488
83333.3354001214
83333.3354000234
83333.3353997822
83333.335399479
83333.3353905967
83333.3353924861
83333.3353941846
83333.3353956801
83333.3353969714
83333.33539807
83333.3353989946
83333.3353997633
83333.3354003903
83333.3354008847
83333.3354012494
83333.3354014795
83333.3354015595
83333.3354014745
83333.3354012464
83333.3354009688
83333.3353908495
83333.3353928499
83333.3353946451
83333.3353962226
83333.3353975833
83333.335398743
83333.335399726
83333.3354005555
83333.3354012507
83333.3354018255
83333.3354022877
83333.3354026388
83333.3354028722
83333.3354029707
83333.3354029147
83333.3354027249
83333.3354025065
83333.3353911025
83333.3353932186
83333.3353951074
83333.3353967564
83333.3353981707
83333.3353993723
83333.3354003921
83333.3354012592
83333.335401998
83333.3354026269
83333.3354031578
83333.3354035962
83333.3354039419
83333.3354041889
83333.33540433
83333.3354043463
83333.3354042638
83333.3354041584
83333.3353913495
83333.3353935827
83333.3353955574
83333.3353972654
83333.3353987177
83333.335399943
83333.3354009795
83333.3354018632
83333.3354026241
83333.3354032851
83333.3354038619
83333.3354043632
83333.3354047914
83333.3354051469
83333.3354054342
83333.3354056709
83333.3354058365
83333.3354059246
83333.3354059239
83333.335380071
83333.3353811393
83333.3353811634
83333.3353822062
83333.3353822938
83333.3353822981
83333.3353832275
83333.3353834302
83333.3353834937
83333.3353834729
83333.3353841675
83333.335384517
83333.3353846898
83333.335384723
83333.3353846722
83333.3353850001
83333.3353855182
83333.3353858353
83333.3353859749
83333.3353859736
83333.3353858901
83333.3353857212
83333.3353864092
83333.3353868906
83333.3353871765
83333.3353872803
83333.3353872421
83333.3353871248
83333.3353863303
83333.3353871824
83333.335387834
83333.3353882837
83333.3353885356
83333.3353886023
83333.3353885268
83333.335388376
83333.3353868332
83333.3353878432
83333.335388661
83333.3353892773
83333.3353896912
83333.3353899084
83333.3353899386
83333.3353898273
83333.335389644
83333.3353872422
83333.3353884008
83333.3353893756
83333.3353901535
83333.3353907298
83333.3353911079
83333.3353912914
83333.3353912876
83333.3353911432
83333.3353909291
83333.3353875676
83333.3353888651
83333.3353899865
83333.3353909167
83333.3353916492
83333.3353921851
83333.3353925291
83333.3353926818
83333.3353926482
83333.3353924742
83333.3353922318
83333.3353878208
83333.335389249
83333.3353905065
83333.3353915774
83333.3353924549
83333.33539314
83333.3353936374
83333.3353939504
83333.3353940768
83333.3353940192
83333.3353938206
83333.3353935535
83333.3353880146
83333.3353895668
83333.3353909505
83333.3353921503
83333.3353931596
83333.3353939806
83333.3353946196
83333.3353950814
83333.3353953675
83333.335395474
83333.3353953996
83333.3353951827
83333.3353948961
83333.3353881636
83333.3353898346
83333.3353913361
83333.3353926535
83333.335393781
83333.3353947226
83333.3353954871
83333.3353960823
83333.3353965124
83333.3353967776
83333.3353968714
83333.335396789
83333.3353965613
83333.3353962643
83333.3353882836
83333.3353900702
83333.3353916827
83333.3353931076
83333.3353943403
83333.3353953869
83333.3353962591
83333.3353969684
83333.335397523
83333.3353979266
83333.335398178
83333.3353982674
83333.335398187
83333.3353979592
83333.3353976668
83333.3353883917
83333.3353902927
83333.3353920114
83333.3353935354
83333.3353948611
83333.3353959972
83333.3353969591
83333.3353977622
83333.3353984188
83333.3353989372
83333.3353993206
83333.3353995658
83333.3353996616
83333.3353995952
83333.3353993823
83333.3353991178
83333.3353885037
83333.3353905209
83333.3353923437
83333.3353939595
83333.3353953668
83333.3353965772
83333.3353976105
83333.3353984867
83333.3353992225
83333.3353998306
83333.3354003186
83333.3354006887
83333.3354009364
83333.3354010508
83333.3354010136
83333.3354008401
83333.3354006344
83333.335388628
83333.335390766
83333.3353926924
83333.3353943939
83333.3353958707
83333.3353971392
83333.335398225
83333.3353991534
83333.3353999458
83333.3354006193
83333.3354011855
83333.3354016503
83333.3354020144
83333.3354022732
83333.3354024186
83333.3354024327
83333.3354023384
83333.335402222
83333.3353887432
83333.3353910109
83333.3353930416
83333.3353948218
83333.3353963557
83333.335397666
83333.3353987852
83333.3353997452
83333.335400573
83333.33540129
83333.3354019114
83333.3354024464
83333.3354028983
83333.3354032667
83333.3354035518
83333.3354037599
83333.3354038814
83333.3354039416
83333.3354039442
83333.3353888386
83333.3353912419
83333.3353933735
83333.3353952237
83333.3353968023
83333.335398139
83333.335399274
83333.3354002468
83333.3354010906
83333.3354018322
83333.3354024906
83333.335403078
83333.3354036
83333.3354040588
83333.3354044597
83333.3354048218
83333.3354051714
83333.3354054833
83333.3354057039
83333.3354057907
83333.3353800283
83333.3353800554
83333.335381018
83333.3353811164
83333.335381129
83333.3353819552
83333.3353821736
83333.3353822535
83333.3353822418
83333.3353828246
83333.3353831887
83333.3353833814
83333.3353834329
83333.3353833918
83333.3353835985
83333.3353841267
83333.3353844595
83333.3353846203
83333.3353846368
83333.3353845626
83333.3353842681
83333.3353849606
83333.3353854524
83333.3353857548
83333.3353858795
83333.3353858581
83333.3353857496
83333.3353848282
83333.3353856804
83333.335386338
83333.3353867993
83333.3353870677
83333.3353871544
83333.3353870948
83333.3353869526
83333.3353852817
83333.3353862885
83333.3353871091
83333.3353877333
83333.3353881598
83333.3353883936
83333.3353884429
83333.3353883467
83333.3353881722
83333.3353856395
83333.3353867928
83333.3353877678
83333.3353885513
83333.3353891376
83333.3353895293
83333.3353897294
83333.3353897439
83333.3353896139
83333.3353894087
83333.3353859098
83333.335387201
83333.3353883217
83333.3353892562
83333.3353899972
83333.335390545
83333.3353909034
83333.3353910726
83333.3353910565
83333.3353908964
83333.3353906629
83333.335386102
83333.3353875239
83333.3353887808
83333.3353898563
83333.3353907424
83333.3353914391
83333.3353919501
83333.335392278
83333.3353924209
83333.3353923799
83333.3353921945
83333.3353919361
83333.3353862266
83333.3353877734
83333.3353891579
83333.3353903639
83333.3353913835
83333.3353922174
83333.3353928708
83333.3353933476
83333.3353936491
83333.3353937719
83333.3353937132
83333.3353935085
83333.3353932308
83333.3353862951
83333.3353879627
83333.3353894675
83333.335390794
83333.3353919351
83333.3353928929
83333.3353936745
83333.3353942865
83333.3353947327
83333.3353950133
83333.3353951232
83333.3353950559
83333.3353948397
83333.3353945516
83333.3353863207
83333.3353881063
83333.3353897256
83333.335391164
83333.3353924152
83333.335393483
83333.3353943772
83333.3353951075
83333.3353956809
83333.3353961012
83333.3353963678
83333.3353964728
83333.3353964073
83333.3353961906
83333.3353959073
83333.3353863172
83333.3353882203
83333.3353899502
83333.335391493
83333.3353928437
83333.3353940084
83333.3353949996
83333.3353958303
83333.3353965114
83333.3353970501
83333.3353974502
83333.3353977097
83333.33539782
83333.335397769
83333.3353975677
83333.3353973129
83333.3353862991
83333.3353883217
83333.3353901603
83333.3353918019
83333.3353932428
83333.3353944916
83333.3353955644
83333.3353964779
83333.3353972467
83333.3353978822
83333.3353983917
83333.3353987779
83333.3353990384
83333.3353991661
83333.3353991447
83333.3353989842
83333.3353987891
83333.3353862794
83333.3353884266
83333.335390375
83333.3353921115
83333.3353936339
83333.3353949542
83333.3353960929
83333.3353970715
83333.3353979088
83333.3353986199
83333.3353992159
83333.3353997029
83333.3354000829
83333.335400354
83333.3354005127
83333.3354005431
83333.3354004639
83333.3354003567
83333.335386263
83333.3353885431
83333.3353906046
83333.3353924331
83333.3353940283
83333.3353954066
83333.3353965948
83333.3353976201
83333.3353985064
83333.335399273
83333.3353999344
83333.3354004999