/*--------------------------------*- C++ -*----------------------------------*\
  =========                 |
  \\      /  F ield         | OpenFOAM: The Open Source CFD Toolbox
   \\    /   O peration     | Website:  https://openfoam.org
    \\  /    A nd           | Version:  12
     \\/     M anipulation  |
\*---------------------------------------------------------------------------*/
/*   Windows 32 and 64 bit porting by blueCAPE: http://www.bluecape.com.pt   *\
|  Based on Windows porting (2.0.x v4) by Symscape: http://www.symscape.com   |
\*---------------------------------------------------------------------------*/
FoamFile
{
    format      ascii;
    class       surfaceScalarField;
    location    "700";
    object      phi;
}
// * * * * * * * * * * * * * * * * * * * * * * * * * * * * * * * * * * * * * //

dimensions      [0 3 -1 0 0 0 0];

internalField   nonuniform List<scalar> 
28770
(
1.34559051339545e-06
3.3179541928673e-08
2.21171395539713e-08
1.29682497155646e-06
2.52799666027367e-08
2.34911085390095e-08
-6.31316885557617e-08
6.16975375699e-08
-4.20325562131101e-09
1.75672268395042e-06
3.46388995140375e-08
5.49903784528473e-08
1.24921741729911e-06
2.16435353852935e-08
2.59574979234891e-08
-9.06269833052402e-08
5.65177767790426e-08
-3.74515788411277e-09
1.70033181695693e-06
2.45526133089491e-08
5.53237742679983e-08
-2.98296704775449e-07
8.50779924387068e-08
-3.63309872518239e-09
8.82301143846138e-09
6.8079211425955e-08
-7.49646320098706e-09
1.95141741803059e-06
3.85086223305653e-08
9.16086984866116e-08
1.19997499347039e-06
2.3426441308099e-08
2.58137416185864e-08
-1.19899625054406e-07
5.31693532441935e-08
-2.24784452271381e-09
1.64857237049008e-06
2.05342034605146e-08
5.71937090419189e-08
-3.20510239793979e-07
8.26571373562752e-08
-3.92522078531257e-09
-2.51027727314544e-08
6.18163372885142e-08
-7.08736636528664e-09
1.89033934501451e-06
2.54029199845338e-08
9.10256735547239e-08
-3.20817054747393e-07
1.07671316792383e-07
-1.51533381056727e-09
-3.24790883119436e-07
9.58276842348439e-08
-9.05666471721752e-09
-2.14746004136357e-08
7.61990830160779e-08
-1.17772857875123e-08
2.20280998051223e-06
4.19315178726397e-08
1.32337749380222e-07
1.15038728289478e-06
2.45686983423239e-08
2.50421795357647e-08
-1.46980599216125e-07
5.20432056479842e-08
-1.54032786375491e-09
1.59507090822101e-06
2.25848874158201e-08
5.67279814211853e-08
-3.43869646129584e-07
8.00708660308039e-08
-3.54198391498109e-09
-5.91402224012919e-08
5.77534816555949e-08
-5.42912978594672e-09
1.83491194610839e-06
2.0768561115802e-08
9.1842375285633e-08
-3.42834103667242e-07
1.06742819149248e-07
-2.06846716319764e-09
-3.50221390094293e-07
9.30532124337883e-08
-9.72994727089777e-09
-5.9930251077999e-08
6.84143186805995e-08
-1.16454509621711e-08
2.13719788812366e-06
2.62372588826846e-08
1.30418085675571e-07
-3.09064590679723e-07
1.29955907442893e-07
-4.65434317644977e-11
-3.51552032658463e-07
1.21642897958516e-07
-4.11143708713473e-09
-3.99454155363616e-07
1.07679701801437e-07
-1.60654170544545e-08
-2.3063012673505e-08
8.18606449049446e-08
-1.55142641155011e-08
2.39510539983082e-06
4.3615713939126e-08
1.75798732237505e-07
1.10122929705688e-06
2.46183221211131e-08
2.45413522253486e-08
-1.71295435725022e-07
5.03753462251067e-08
-1.48539098873048e-09
1.53937890671538e-06
2.47340202711132e-08
5.59960586641261e-08
-3.65869839757959e-07
7.73310664340096e-08
-3.28905850438482e-09
-9.01940820179173e-08
5.6559488989854e-08
-4.45978333568323e-09
1.77761245354272e-06
2.31499515248597e-08
9.08672477562108e-08
-3.64955915180269e-07
1.04283225753705e-07
-2.09132837016844e-09
-3.76498370034664e-07
8.98191626599039e-08
-9.32892190491256e-09
-9.78087949299052e-08
6.34602973034554e-08
-1.02417618546588e-08
2.07817293509161e-06
2.07857117364583e-08
1.30083898193015e-07
-3.31262279938103e-07
1.29659782198044e-07
-7.18686814957737e-10
-3.75931718283493e-07
1.20671408402066e-07
-5.30700885232222e-09
-4.28129797732274e-07
1.04329544356715e-07
-1.69649435292332e-08
-6.50960748845882e-08
7.26827557790165e-08
-1.60615236008564e-08
2.32711722638921e-06
2.62595198356256e-08
1.72150364365099e-07
-2.83497948421534e-07
1.51538497765264e-07
1.32989730236404e-09
-3.37025864984204e-07
1.46260686164112e-07
-4.58761658236787e-10
-4.22240610450491e-07
1.36620454730946e-07
-7.56266336927798e-09
-4.58737862039376e-07
1.15210436215591e-07
-2.37234614050851e-08
-2.05771642511762e-08
8.2380481259515e-08
-1.69875937742614e-08
2.49648141298921e-06
4.29919138554427e-08
2.20584494737324e-07
1.05313193358346e-06
2.3756614107615e-08
2.43452321093131e-08
-1.93345046876007e-07
4.79401819508478e-08
-1.26654942710627e-09
1.48319981323402e-06
2.5279737882708e-08
5.54527759747053e-08
-3.86059646734339e-07
7.37238130304075e-08
-3.15919895750778e-09
-1.18020486313306e-07
5.50011561593208e-08
-3.93102433021631e-09
1.71780793306387e-06
2.60055431568669e-08
8.9796782845111e-08
-3.86054323164647e-07
1.00551315701483e-07
-2.12272865244784e-09
-4.0108955750884e-07
8.67442715551712e-08
-8.88262889479035e-09
-1.31875584361575e-07
6.20172314117424e-08
-9.25469525167672e-09
2.01596929945345e-06
2.409925248625e-08
1.28971064571245e-07
-3.53016970400588e-07
1.270576867907e-07
-1.0195243461011e-09
-4.00457265813628e-07
1.17851507311219e-07
-5.59762705443103e-09
-4.57613842367655e-07
1.00407030670617e-07
-1.67894303012097e-08
-1.06579713787811e-07
6.69695172550677e-08
-1.49393162194986e-08
2.26655037107939e-06
1.96329414867442e-08
1.71002045279156e-07
-3.05826634325375e-07
1.51438136611535e-07
5.50470914420436e-10
-3.61240713544699e-07
1.46085524326834e-07
-1.91710275544197e-09
-4.49470327297565e-07
1.35525338182635e-07
-9.27219426814502e-09
-4.89445876879255e-07
1.11461882540544e-07
-2.50343101873336e-08
-6.42201737449098e-08
7.22141340742109e-08
-1.83650187211222e-08
2.42852034782505e-06
2.47707385471537e-08
2.15352631276921e-07
-2.52845222712049e-07
1.72188067053546e-07
2.6896805026705e-09
-3.09725267684171e-07
1.69658623805895e-07
2.80091561224732e-09
-3.99530472220009e-07
1.63712390662062e-07
-1.01522357051293e-09
-4.83910135562682e-07
1.45656207323221e-07
-1.13729526271118e-08
-5.05289411957286e-07
1.14809983077164e-07
-3.08635221031844e-08
-1.73953013760564e-08
7.87919807318062e-08
-1.58360274923425e-08
2.52758656117552e-06
4.11992633334724e-08
2.6519019029324e-07
1.00655772444282e-06
2.22828961040104e-08
2.43021861989934e-08
-2.13338431793613e-07
4.4678244818836e-08
-9.27610617220608e-10
1.42757832951837e-06
2.47607878106961e-08
5.51898093612851e-08
-4.04372781961115e-07
6.92619846512663e-08
-3.00788900838427e-09
-1.43402104374535e-07
5.26794300277796e-08
-3.28289473150631e-09
1.65718081251337e-06
2.69403243540024e-08
8.91502322265954e-08
-4.05732324262066e-07
9.55573648353073e-08
-2.15495190621709e-09
-4.23621337675881e-07
8.28868653138157e-08
-8.51559116116032e-09
-1.62008116283693e-07
6.04161770851323e-08
-8.20132213017348e-09
1.9507630248681e-06
2.73532704538653e-08
1.27656216093035e-07
-3.73758362049962e-07
1.2254200030059e-07
-1.24914606545806e-09
-4.23908405828472e-07
1.13753740406661e-07
-5.68051240388116e-09
-4.84979164543665e-07
9.68589656629755e-08
-1.63586394968634e-08
-1.43657017552995e-07
6.56347349627688e-08
-1.37225696932349e-08
2.20168406069604e-06
2.38339306511005e-08
1.70007721644918e-07
-3.27371619144268e-07
1.48519066264876e-07
8.33952573346354e-11
-3.85039858483148e-07
1.43282195641052e-07
-2.65009262057902e-09
-4.76916523649036e-07
1.32267855901694e-07
-1.0012367101468e-08
-5.2128776100573e-07
1.0712645382432e-07
-2.51045034145491e-08
-1.07825287349438e-07
6.5929498437679e-08
-1.76329863321362e-08
2.36878841311751e-06
1.7555869738722e-08
2.13194308969266e-07
-2.75256102663124e-07
1.72056145537219e-07
1.79286107241326e-09
-3.33989548779862e-07
1.69776346203534e-07
1.12445302630235e-09
-4.26377250059864e-07
1.63660503963257e-07
-3.2042172668254e-09
-5.12770740809128e-07
1.4470650919871e-07
-1.36568696579338e-08
-5.36267065492138e-07
1.10871110464813e-07
-3.27156425288785e-08
-6.09764407165009e-08
6.79873184082259e-08
-1.80005537253833e-08
2.46145160226574e-06
2.25735663881395e-08
2.58871565217571e-07
-2.21757732406787e-07
1.91916489780272e-07
4.02007995823287e-09
-2.78213812055951e-07
1.91886251114675e-07
5.88303938079347e-09
-3.65619257138974e-07
1.89278950571132e-07
4.52838919332228e-09
-4.56146202436498e-07
1.73984058353227e-07
-1.57805702452471e-09
-5.32273559941153e-07
1.44556939673302e-07
-1.50008552387483e-08
-5.4129923407334e-07
1.08632713295455e-07
-3.69785740886749e-08
-1.42813328889738e-08
7.3091063165706e-08
-1.20734609490004e-08
2.52111159516195e-06
3.92401320846085e-08
3.09233929398946e-07
9.61796944028468e-07
2.03807114624839e-08
2.43895345995517e-08
-2.31297137958524e-07
4.07340899599792e-08
-5.0426807274385e-10
1.37328419244019e-06
2.34866659713007e-08
5.51049196403613e-08
-4.20843353304858e-07
6.39690541876707e-08
-2.81854691612813e-09
-1.66515769959464e-07
4.94126869423888e-08
-2.46806197431668e-09
1.5969559074906e-06
2.65698570009295e-08
8.88214478707788e-08
-4.23779861195439e-07
8.94675246701699e-08
-2.158177433889e-09
-4.43996996351625e-07
7.81482565161653e-08
-8.09729949547967e-09
-1.89355872186029e-07
5.80067683649786e-08
-7.00464827641449e-09
1.88427480138881e-06
2.88233853554163e-08
1.26812241073882e-07
-3.9317940013421e-07
1.16384530474411e-07
-1.40622991223225e-09
-4.4580373278653e-07
1.08315037512662e-07
-5.68953939883876e-09
-5.0986123927463e-07
9.2563661085393e-08
-1.57837006145474e-08
-1.76537600357343e-07
6.41818651749283e-08
-1.21614638622499e-08
2.13339869112894e-06
2.73419457538833e-08
1.68596076233686e-07
-3.47819313748222e-07
1.43243645031695e-07
-2.53586015596173e-10
-4.07818153028746e-07
1.38387170175398e-07
-3.10483015471178e-09
-5.03092282806534e-07
1.27662585122483e-07
-1.0309991142685e-08
-5.50827424077509e-07
1.03433537384514e-07
-2.46215246968668e-08
-1.46544432597998e-07
6.48581613620474e-08
-1.60452016055509e-08
2.30456655813049e-06
2.17447230600571e-08
2.12513698658941e-07
-2.9663663211374e-07
1.68720700258038e-07
1.17910490124138e-09
-3.57444670433438e-07
1.66741128948264e-07
8.05555080955652e-11
-4.52813866728678e-07
1.60592307170337e-07
-4.53707034891375e-09
-5.42151724978466e-07
1.41339848675513e-07
-1.48467956921194e-08
-5.68806750727333e-07
1.06402107780238e-07
-3.30359838861302e-08
-1.04947068288792e-07
6.14094321359922e-08
-1.75325398284421e-08
2.40357238602138e-06
1.46925206330202e-08
2.56379453130116e-07
-2.44299139526525e-07
1.91605400958095e-07
2.99240616296316e-09
-3.02634792295913e-07
1.92028865024551e-07
3.96100009871267e-09
-3.92458064329096e-07
1.8967526613319e-07
1.94915593444278e-09
-4.84497117460461e-07
1.74365213640629e-07
-4.51272039845682e-09
-5.61044302858656e-07
1.43901772341458e-07
-1.79154648098536e-08
-5.71279279864241e-07
1.04635632733622e-07
-3.9388313744995e-08
-5.67308851725153e-08
6.18612190423964e-08
-1.48401931269624e-08
2.45810564392218e-06
1.98659331423029e-08
3.02028434694367e-07
-1.92173836558027e-07
2.10932496811715e-07
5.28267820447769e-09
-2.45972191067392e-07
2.13160076895539e-07
8.76680410721071e-09
-3.29215874532688e-07
2.13640072943602e-07
9.55955308176981e-09
-4.17493535872957e-07
2.00767818035512e-07
6.42927191197631e-09
-5.0101098962528e-07
1.72495055995068e-07
-2.14776353825476e-09
-5.69948298709385e-07
1.36359196248084e-07
-1.82493488754383e-08
-5.7175191920923e-07
9.97534350332882e-08
-4.20503393999212e-08
-1.0261413727901e-08
6.63653380727097e-08
-5.51458950085579e-09
2.5023127981896e-06
3.73220027437689e-08
3.521436495347e-07
9.19108846801558e-07
1.82070056327681e-08
2.44982006629402e-08
-2.47168662875734e-07
3.62553642525456e-08
2.01531833909929e-13
1.32080018954213e-06
2.17311443233814e-08
5.51400617480321e-08
-4.35468831072574e-07
5.79455025911675e-08
-2.58700956841196e-09
-1.87347642810324e-07
4.5331124864723e-08
-1.50702119342705e-09
1.53804734409624e-06
2.53095993674772e-08
8.87021679831901e-08
-4.40099369033688e-07
8.2405355365798e-08
-2.11697678616348e-09
-4.62282568934621e-07
7.24703694952168e-08
-7.58841678718034e-09
-2.14189024642395e-07
5.44971115763745e-08
-5.56619213980368e-09
1.81801553969177e-06
2.87026932504718e-08
1.26366176013534e-07
-4.11077638538069e-07
1.08855527760442e-07
-1.48910168557734e-09
-4.65862347198153e-07
1.01660056339736e-07
-5.61048198442108e-09
-5.32229705588086e-07
8.73174631376039e-08
-1.50352103497027e-08
-2.06280200437203e-07
6.1892439222599e-08
-1.03395778385036e-08
2.06327652013522e-06
2.93040945653149e-08
1.67653286354588e-07
-3.66938488525941e-07
1.36019869512782e-07
-5.16032025897865e-10
-4.29185746003596e-07
1.31683770941353e-07
-3.40719491511917e-09
-5.27456874256302e-07
1.21590462863993e-07
-1.03502944399669e-08
-5.77645922102387e-07
9.8996906139681e-08
-2.37801203062323e-08
-1.81024079910175e-07
6.36862407323808e-08
-1.40373525603705e-08
2.23596820941357e-06
2.57253316934369e-08
2.11465684673197e-07
-3.16798918189884e-07
1.62712433556852e-07
6.93568429149354e-10
-3.7976117351281e-07
1.61106678373899e-07
-6.56291975691059e-10
-4.7808512619356e-07
1.55191235598117e-07
-5.36364138356664e-09
-5.70247747937461e-07
1.36573636952176e-07
-1.53547873796145e-08
-5.98988621388254e-07
1.02861817432804e-07
-3.24439988986045e-08
-1.44206372359639e-07
6.06350737434773e-08
-1.56969150177689e-08
2.3416773833576e-06
1.88590749916891e-08
2.55542269566769e-07
-2.65598133610326e-07
1.87772418602963e-07
2.2471909540435e-09
-3.25952633091587e-07
1.88604738196895e-07
2.63377363207796e-09
-4.18423506743864e-07
1.86471531873117e-07
1.65184993216751e-10
-5.1262692144887e-07
1.71387501592136e-07
-6.45501222622889e-09
-5.90680171594826e-07
1.40718259103619e-07
-1.95274570079812e-08
-6.03227793943254e-07
1.00240040286899e-07
-3.99194270174296e-08
-1.00127032714447e-07
5.51885698013426e-08
-1.46155410658268e-08
2.40343163914508e-06
1.17395779133643e-08
2.99353062439585e-07
-2.14990479048416e-07
2.10310044606396e-07
4.11208171569746e-09
-2.70670967355953e-07
2.13149460164415e-07
6.56997814830219e-09
-3.563070793635e-07
2.14156463519165e-07
6.57154122226302e-09
-4.4588332477843e-07
2.01766904397766e-07
2.93600980174393e-09
-5.29231261766258e-07
1.73438166402931e-07
-5.82929958061651e-09
-5.97484647770852e-07
1.36025590854269e-07
-2.1770423790821e-08
-6.00134089872102e-07
9.57727558913791e-08
-4.49160020534253e-08
-5.11859915683866e-08
5.47699273118639e-08
-8.80330947597647e-09
2.44273806898632e-06
1.73273248043282e-08
3.44255767104158e-07
-1.64512008690001e-07
2.29524196088364e-07
6.45500364480256e-09
-2.14489960849317e-07
2.33791558785015e-07
1.14177887405971e-08
-2.92622817668565e-07
2.37127070879971e-07
1.41637961581284e-08
-3.77306021131737e-07
2.26496201250386e-07
1.34998304244151e-08
-4.59321962379075e-07
1.99201694483098e-07
8.20398505492803e-09
-5.36647219706229e-07
1.62871376152612e-07
-2.7818236547658e-09
-6.03155657739013e-07
1.25009757590241e-07
-2.11652880552675e-08
-6.00530942479117e-07
8.95928189197969e-08
-4.60955781150162e-08
-3.04860729106428e-09
5.88971480928838e-08
4.38035964971897e-09
2.48335579450982e-06
3.56484735440505e-08
3.9362047489717e-07
8.78660229979782e-07
1.58270113079973e-08
2.46131654468514e-08
-2.60884910587278e-07
3.13566654920135e-08
5.60354121291538e-10
1.27045342100087e-06
1.96472785141249e-08
5.51992026631113e-08
-4.48215554822717e-07
5.13101000981235e-08
-2.30796505423252e-09
-2.05819897829219e-07
4.06109123710924e-08
-4.12925201942817e-10
1.48104966312388e-06
2.34728113222901e-08
8.86608510753658e-08
-4.54633079768292e-07
7.45053035652166e-08
-2.02603660342992e-09
-4.78494862718994e-07
6.59381263994086e-08
-6.98126533863532e-09
-2.36507655793939e-07
5.00142182610959e-08
-3.88198566474735e-09
1.75306853830016e-06
2.75072498221649e-08
1.26141242331028e-07
-4.27326336316969e-07
1.00170004833991e-07
-1.51553676119606e-09
-4.83981596451369e-07
9.39010154898618e-08
-5.42937857438145e-09
-5.52213925587545e-07
8.09863875213189e-08
-1.40988780277277e-08
-2.33271058239734e-07
5.83259363788384e-08
-8.1994084382514e-09
1.9930145698877e-06
2.95635017265737e-08
1.67039632570133e-07
-3.84568411336167e-07
1.27187181780757e-07
-7.01666318876803e-10
-4.48878526746131e-07
1.23439059585104e-07
-3.57472261686241e-09
-5.49714969003673e-07
1.1414402714217e-07
-1.01793092431974e-08
-6.0168171096227e-07
9.35249878702111e-08
-2.26282210655629e-08
-2.12161145697418e-07
6.1696148539093e-08
-1.16070887805999e-08
2.16498483756558e-06
2.82282014296645e-08
2.10416087542351e-07
-3.35588329803722e-07
1.54499665781327e-07
3.09906268219832e-10
-4.00666787475863e-07
1.53282748971832e-07
-1.20968700575246e-09
-5.01760934203009e-07
1.47730116322845e-07
-5.87065460057838e-09
-5.96397395386902e-07
1.3021726343415e-07
-1.54202109922128e-08
-6.26389849664338e-07
9.86046876013473e-08
-3.12961311892885e-08
-1.79173077286754e-07
5.98549497557119e-08
-1.31892816473119e-08
2.27524239851598e-06
2.31943777991193e-08
2.54686355877623e-07
-2.85546634085824e-07
1.81005313532276e-07
1.65564518681241e-09
-3.47987716112877e-07
1.82201142779651e-07
1.63477567955222e-09
-4.43113753846458e-07
1.80311733545155e-07
-1.0875620976357e-09
-5.39596793578705e-07
1.65860864349802e-07
-7.68046221783249e-09
-6.19131135532257e-07
1.36160764545568e-07
-2.0204748910163e-08
-6.32893347724718e-07
9.70292922166292e-08
-3.91714124029081e-08
-1.39141567688299e-07
5.47178832093582e-08
-1.25375871915958e-08
2.3444042174405e-06
1.59567568926207e-08
2.98581796628587e-07
-2.3634837046698e-07
2.05893066561743e-07
3.23741131985577e-09
-2.94014851970763e-07
2.09225104770809e-07
4.97066589804121e-09
-3.82178525676504e-07
2.10606232574774e-07
4.36995538426388e-09
-4.73494612716382e-07
1.98768525995605e-07
3.97033341015219e-10
-5.57476392176606e-07
1.7084502560341e-07
-8.33505961855211e-09
-6.26209752525838e-07
1.33178486849429e-07
-2.37416051881701e-08
-6.30851961104954e-07
9.15634796062762e-08
-4.55735555427714e-08
-9.35605931946741e-08
4.81159274854684e-08
-8.62156903228099e-09
2.3916535755167e-06
8.76398603919493e-09
3.41707845888117e-07
-1.87779644694318e-07
2.28450266876047e-07
5.12708736702773e-09
-2.39619203820344e-07
2.33474161905843e-07
8.91667694264943e-09
-3.20164069104446e-07
2.37542769258114e-07
1.07247490162651e-08
-4.06111454410031e-07
2.27724386792805e-07
9.41962131177075e-09
-4.8769401767171e-07
2.00923020684106e-07
3.82269700209345e-09
-5.63657528643475e-07
1.64351164202632e-07
-7.14453829026148e-09
-6.28960324510918e-07
1.24981642730044e-07
-2.51788375665362e-08
-6.27083734828734e-07
8.56542718204626e-08
-4.92523843691071e-08
-4.21385106629595e-08
4.69225763267536e-08
6.9189741572974e-10
2.42719123171426e-06
1.47278047749288e-08
3.85699254421351e-07
-1.38633143672437e-07
2.47987395191651e-07
7.53285224313752e-09
-1.84329060921932e-07
2.54108030635468e-07
1.38460096670259e-08
-2.56681380433833e-07
2.60080063920812e-07
1.83544001227676e-08
-3.37038058869928e-07
2.51540231721617e-07
1.99020582422373e-08
-4.16695081132744e-07
2.25136483017922e-07
1.72607783287008e-08
-4.93156285674855e-07
1.886048646192e-07
9.6504726673421e-09
-5.68981679744267e-07
1.49669451699471e-07
-3.53342216545683e-09
-6.36103004014118e-07
1.12214369461277e-07
-2.38016978691463e-08
-6.29180446047961e-07
7.83455841793514e-08
-4.89790306794802e-08
1.01884877159902e-08
5.07346721108783e-08
1.85371053227716e-08
2.46733936528797e-06
3.42893180357733e-08
4.33484359757476e-07
8.40537913040765e-07
1.33265339197668e-08
2.47955961146097e-08
-2.72343865700047e-07
2.61193205077621e-08
1.16818014701654e-09
1.22234969518209e-06
1.73536146169183e-08
5.53647154994514e-08
-4.59042850149399e-07
4.41690021311684e-08
-1.98525552267683e-09
-2.21815008898351e-07
3.53934900528498e-08
8.09660203855667e-10
1.42631978985728e-06
2.12272224573552e-08
8.87080431876719e-08
-4.67335730340786e-07
6.58992739988497e-08
-1.88639548235895e-09
-4.92606313596517e-07
5.86848415507413e-08
-6.26941258616102e-09
-2.56211014313321e-07
4.4765287620502e-08
-1.98731439826962e-09
1.6901099756691e-06
2.55947438016428e-08
1.26028834993665e-07
-4.41849594812292e-07
9.05151684996434e-08
-1.48664322306749e-09
-5.00107992824988e-07
8.51753158377168e-08
-5.13723710338816e-09
-5.69850637515896e-07
7.36458987661171e-08
-1.29695447131581e-08
-2.57541647647014e-07
5.36087932948216e-08
-5.71474415938257e-09
1.92400156796529e-06
2.85314105611995e-08
1.66645514956772e-07
-4.00604386627455e-07
1.17023351663513e-07
-8.17566713267135e-10
-4.66755196789836e-07
1.13878120350524e-07
-3.61510198104145e-09
-5.69764329453848e-07
1.05417369863657e-07
-9.80672325136381e-09
-6.23101116265935e-07
8.68206848924452e-08
-2.11748226878461e-08
-2.40379153119108e-07
5.83252266182215e-08
-8.7407088903799e-09
2.093572322912e-06
2.88844754084891e-08
2.09600857384821e-07
-3.5289081970206e-07
1.44473346854984e-07
1.59481752310106e-11
-4.19961319813937e-07
1.43630616147894e-07
-1.59902888735296e-09
-5.23556471180773e-07
1.38491872825135e-07
-6.12696386892718e-09
-6.20251007882753e-07
1.2233234034163e-07
-1.51344520574514e-08
-6.50891194672924e-07
9.32800405623848e-08
-2.97044746440103e-08
-2.10668773119107e-07
5.8268336274975e-08
-1.01657796838616e-08
2.2055841190695e-06
2.62060793591202e-08
2.53852339741277e-07
-3.04051389671496e-07
1.71820129769291e-07
1.18430448637054e-09
-3.68555694131142e-07
1.7330317065797e-07
8.57182094323805e-10
-4.66234088084324e-07
1.71627647684224e-07
-1.98603727076103e-09
-5.64881703534399e-07
1.58045644755988e-07
-8.41438833993368e-09
-6.45642433839918e-07
1.29957306512565e-07
-2.02614691708698e-08
-6.59812830514134e-07
9.31575808759893e-08
-3.7682587828721e-08
-1.73941190798555e-07
5.43591930528444e-08
-9.53767136397478e-09
2.2805826557981e-06
2.05745898493084e-08
2.97946774669943e-07
-2.56207311681084e-07
1.98326886929773e-07
2.53737525997367e-09
-3.15913724239044e-07
2.02022786944596e-07
3.73269203600557e-09
-4.06610061109146e-07
2.03651563621687e-07
2.7267365725785e-09
-4.99815521572961e-07
1.92501410180986e-07
-1.40701380406711e-09
-5.84679286947596e-07
1.65601831553956e-07
-9.9197544380112e-09
-6.53908054835136e-07
1.29040931909344e-07
-2.45203657826399e-08
-6.59446595584593e-07
8.8748026922e-08
-4.46086520247445e-08
-1.31880941338722e-07
4.79814000691649e-08
-6.25067479514252e-09
2.33597200204368e-06
1.31009136254058e-08
3.41164103248059e-07
-2.09354036315459e-07
2.23349013494104e-07
4.11849215385723e-09
-2.63142828068267e-07
2.28941694276955e-07
7.04433391452932e-09
-3.46187217038584e-07
2.33494127136453e-07
8.10581041162452e-09
-4.33726126910334e-07
2.24441686281633e-07
6.3125207713171e-09
-5.15463668665992e-07
1.98431526606775e-07
5.79417059062008e-10
-5.90948707670301e-07
1.62264431431862e-07
-1.012902803609e-08
-6.56262996385181e-07
1.22522089556924e-07
-2.73994140983206e-08
-6.56334591903256e-07
8.1685195151309e-08
-4.98902033783296e-08
-8.3321382328595e-08
4.02997396339876e-08
1.00919054057564e-09
2.38006519227753e-06
5.7311088561916e-09
3.83098011326001e-07
-1.62517911033838e-07
2.46303032128531e-07
6.03188691825098e-09
-2.10059930502611e-07
2.5332362838749e-07
1.10085215922669e-08
-2.84847664219617e-07
2.60207859284201e-07
1.44183703646196e-08
-3.66501523398772e-07
2.52736062271252e-07
1.51765085774759e-08
-4.45665482086883e-07
2.27190476927169e-07
1.21230123838745e-08
-5.20447103019877e-07
1.9099128507736e-07
4.47244240994778e-09
-5.94322429865705e-07
1.5162089017957e-07
-8.44282711070361e-09
-6.59978665256815e-07
1.12478526186797e-07
-2.81281465758134e-08
-6.53734238829439e-07
7.44393594807023e-08
-5.22143237052813e-08
-2.7404400896825e-08
3.82881370829235e-08
1.47125387472391e-08
2.41577841964498e-06
1.20418286855203e-08
4.25262556496201e-07
-1.14351389185783e-07
2.66590157284858e-07
8.52462372127332e-09
-1.5562450671083e-07
2.74414259187875e-07
1.60799510759254e-08
-2.21863100469726e-07
2.82837859484279e-07
2.21830884737977e-08
-2.97131516391327e-07
2.7622495742489e-07
2.57253096896223e-08
-3.7388155123007e-07
2.50622730586643e-07
2.54512263347412e-08
-4.48964789824246e-07
2.13894968907841e-07
2.05420397430855e-08
-5.2430050330506e-07
1.74001666174131e-07
1.06966938685878e-08
-6.01749221636014e-07
1.34832710804162e-07
-4.42280842515402e-09
-6.70183138993691e-07
9.80863208974667e-08
-2.6103097867336e-08
-6.57817137332441e-07
6.58396908929058e-08
-5.03639280149753e-08
3.24661177471315e-08
4.19637991570597e-08
3.79753338443867e-08
2.45565206310512e-06
3.38272493777933e-08
4.70014076550656e-07
8.04719991174936e-07
1.06689099617417e-08
2.51470873616798e-08
-2.81395535437818e-07
2.05906918052291e-08
1.78796523055396e-09
1.17664594190574e-06
1.4913424802838e-08
5.55994256847383e-08
-4.67903753699162e-07
3.66102869447402e-08
-1.63073491084386e-09
-2.35183223761994e-07
2.97875399037451e-08
2.10436000165977e-09
1.3739428168068e-06
1.8777828975112e-08
8.89324925095352e-08
-4.78166875042568e-07
5.67052844605651e-08
-1.70405789328841e-09
-5.04568338885152e-07
5.08396921508905e-08
-5.46539307160452e-09
-2.73164697667812e-07
3.89092461460821e-08
7.80735104183839e-11
1.6294768089598e-06
2.31996123019644e-08
1.26132818157458e-07
-4.54598866499093e-07
8.00571598175085e-08
-1.40836299373407e-09
-5.14198466972052e-07
7.5628965481239e-08
-4.74075241399947e-09
-5.85126660700029e-07
6.54389553857654e-08
-1.16674515683014e-08
-2.78966373677907e-07
4.79733765370732e-08
-2.9426304064864e-09
1.85690564398609e-06
2.66813785550304e-08
1.66474390914273e-07
-4.14979980165729e-07
1.05764863014873e-07
-8.74134992004444e-10
-4.82734280806793e-07
1.03202199226673e-07
-3.53518801141366e-09
-5.8756073169168e-07
9.55483195187823e-08
-9.24262976402302e-09
-6.41971581973438e-07
7.89413354269038e-08
-1.94321410266934e-08
-2.65776711350808e-07
5.36492218405166e-08
-5.4399967345387e-09
2.02307162302373e-06
2.80426163482305e-08
2.09127158050971e-07
-3.68623138565613e-07
1.32958796831341e-07
-2.03301699923246e-10
-4.37517820219525e-07
1.32458636870383e-07
-1.84180039773107e-09
-5.43314589188783e-07
1.27719948224534e-07
-6.16136316880779e-09
-6.41702672639493e-07
1.12995407822397e-07
-1.45328298965558e-08
-6.72672531594684e-07
8.66225871309824e-08
-2.76923373506486e-08
-2.39151715933293e-07
5.52168055736203e-08
-6.59352710931129e-09
2.13479894618498e-06
2.72616261704896e-08
2.53144137275925e-07
-3.21044335867461e-07
1.60653305611831e-07
8.13219806893903e-10
-3.87515476969251e-07
1.62342586540404e-07
2.63256762245357e-10
-4.8756255549152e-07
1.6082464350536e-07
-2.60319183208649e-09
-5.88149419076539e-07
1.48234934898086e-07
-8.76293346479836e-09
-6.69808489648576e-07
1.22141278788361e-07
-1.98297981098942e-08
-6.83829058878056e-07
8.8210020148139e-08
-3.56242348850369e-08
-2.05182891953122e-07
5.3212070683517e-08
-5.91157341257322e-09
2.21322020986197e-06
2.39471308802592e-08
2.97244342759543e-07
-2.74527601065851e-07
1.88166797630803e-07
1.97396436853914e-09
-3.3625500868406e-07
1.92080596706578e-07
2.74769204288979e-09
-4.29410456742247e-07
1.93809213327352e-07
1.47515165226285e-09
-5.24483373506062e-07
1.8341184846456e-07
-2.68438505308542e-09
-6.10229352519526e-07
1.57945427499488e-07
-1.08519010619959e-08
-6.79757548577335e-07
1.23262356002862e-07
-2.45166422290448e-08
-6.85379107353812e-07
8.53399023294604e-08
-4.27315204892972e-08
-1.66122543552821e-07
4.80584294494826e-08
-2.77096054757155e-09
2.27522257348164e-06
1.80085207383431e-08
3.40705749545894e-07
-2.29255494017832e-07
2.14919559976569e-07
3.30871603730685e-09
-2.85040941833271e-07
2.20885345554271e-07
5.57338594025968e-09
-3.70581684873745e-07
2.25688687484195e-07
6.08921281303663e-09
-4.59854350020118e-07
2.1737866097715e-07
3.97811180262608e-09
-5.42036871242929e-07
1.9250346928328e-07
-1.7336724936732e-09
-6.17365886841233e-07
1.57530525390942e-07
-1.19924111914162e-08
-6.82723018084294e-07
1.18875500487096e-07
-2.81865571545963e-08
-6.83626506833426e-07
7.92954502223111e-08
-4.86287240076647e-08
-1.20747302133541e-07
4.05383692209464e-08
3.75062298296405e-09
2.32800656528596e-06
1.03981748753625e-08
3.82836905943002e-07
-1.84446436472031e-07
2.40395347139566e-07
4.88219714185053e-09
-2.33914210086304e-07
2.48062458565593e-07
8.85201843045501e-09
-3.11201181202166e-07
2.555225588472e-07
1.13694174305351e-08
-3.9442337114264e-07
2.48977598613276e-07
1.14913222841342e-08
-4.73570574079011e-07
2.24489090595806e-07
8.16092139647493e-09
-5.47341757888816e-07
1.89115176075099e-07
6.25360937777132e-10
-6.20204081441693e-07
1.5005562412946e-07
-1.17815489868272e-08
-6.85668053637434e-07
1.10424028922183e-07
-3.04480448742045e-08
-6.81392114206261e-07
7.07344816222189e-08
-5.26685991224014e-08
-6.74299865509989e-08
3.16415692237248e-08
1.51114429183407e-08
2.37313553716619e-06
2.97314570836005e-09
4.22811263751099e-07
-1.38993152809914e-07
2.64110110579008e-07
6.83459035465378e-09
-1.82122908423547e-07
2.72981784862204e-07
1.28722140574698e-08
-2.50831708601473e-07
2.82485475847473e-07
1.76994624494959e-08
-3.27435556470962e-07
2.77166539194771e-07
2.0291118802694e-08
-4.0370256699967e-07
2.52711310586698e-07
1.94768562065896e-08
-4.7700495991957e-07
2.16695439685008e-07
1.44583090827689e-08
-5.50043271108303e-07
1.76958090890999e-07
4.87633955604041e-09
-6.25239317088271e-07
1.37221103705169e-07
-9.6961038727163e-09
-6.91991209706323e-07
9.8650773554439e-08
-3.05319265991331e-08
-6.80245221135744e-07
6.1953907472935e-08
-5.34515717435742e-08
-3.65745141652314e-09
2.88208426511657e-08
3.40415265610486e-08
2.40891488945553e-06
1.03158524653703e-08
4.61709412572578e-07
-9.15885981366433e-08
2.85558649126885e-07
9.44425058590312e-09
-1.28400445122463e-07
2.94981377216497e-07
1.81514011819462e-08
-1.88405450313788e-07
3.05716893343049e-07
2.57142137172144e-08
-2.58078869739102e-07
3.00875888336699e-07
3.10596150207378e-08
-3.31100334240102e-07
2.75951148233653e-07
3.2916474070231e-08
-4.04404490647645e-07
2.38995898642236e-07
3.04227591890019e-08
-4.78844199913244e-07
1.98235390535472e-07
2.32215965323971e-08
-5.56090539011104e-07
1.57573545859304e-07
1.13227104651325e-08
-6.36017768633895e-07
1.18454315960357e-07
-5.41191527089265e-09
-7.05510098439715e-07
8.22958689083371e-08
-2.78884555426707e-08
-6.85936210596427e-07
5.19786304785089e-08
-4.97698980219775e-08
6.71209046813713e-08
3.3007382424181e-08
6.35283997584939e-08
2.44428628594058e-06