/*--------------------------------*- C++ -*----------------------------------*\
  =========                 |
  \\      /  F ield         | OpenFOAM: The Open Source CFD Toolbox
   \\    /   O peration     | Website:  https://openfoam.org
    \\  /    A nd           | Version:  12
     \\/     M anipulation  |
\*---------------------------------------------------------------------------*/
/*   Windows 32 and 64 bit porting by blueCAPE: http://www.bluecape.com.pt   *\
|  Based on Windows porting (2.0.x v4) by Symscape: http://www.symscape.com   |
\*---------------------------------------------------------------------------*/
FoamFile
{
    format      ascii;
    class       volVectorField;
    location    "700";
    object      U;
}
// * * * * * * * * * * * * * * * * * * * * * * * * * * * * * * * * * * * * * //

dimensions      [0 1 -1 0 0 0 0];

internalField   nonuniform List<vector> 
10068
(
(-6.53946126100977e-06 0.000302135826002368 1.08584728570769e-05)
(-5.08584804582209e-06 0.000306223605695874 6.87806179412066e-06)
(-4.1695849191108e-06 0.000338213497390251 2.73919336500582e-05)
(-1.97921381398548e-05 0.000357988291748575 1.01887983688e-05)
(-3.5194519499845e-06 0.000317510797043414 3.20873138415477e-06)
(-3.70365066008707e-06 0.000346397515484978 2.36102450274608e-05)
(-1.66978757146539e-05 0.000361070470429296 5.16359205315017e-06)
(-1.95875898030459e-06 0.00026690719336786 3.95398770391026e-05)
(-1.44434941503008e-05 0.000406929474422869 2.58930353938806e-05)
(-3.21652131298051e-05 0.000396315595779278 1.11053401102416e-05)
(-3.5515050757974e-06 0.000326385327615837 3.56078207570342e-06)
(-3.30189095510816e-06 0.000359584928853235 1.9644061545866e-05)
(-1.35827387955196e-05 0.000372365806647706 2.36691889190744e-07)
(-1.88791697990279e-06 0.000278147851816778 3.73004082997566e-05)
(-1.33674786591414e-05 0.000415623526459668 2.16681043308e-05)
(-2.88221994751083e-05 0.000398655892197482 4.42730571024684e-06)
(-9.72765346500159e-07 0.000229946450265981 5.28026005623401e-05)
(-7.20019667874445e-06 0.000306634751431697 3.77891263710923e-05)
(-2.46671281791691e-05 0.000445528211914783 2.48047932999481e-05)
(-4.51377837980225e-05 0.000410552256905839 1.20427920201169e-05)
(-3.68712016268494e-06 0.000327502368070822 4.03246144325498e-06)
(-3.1754959127035e-06 0.000370594345136608 1.85515265194392e-05)
(-1.3204984458928e-05 0.00037873948332565 6.00490846910983e-07)
(-1.79841240180088e-06 0.000290987982312867 3.52345952956202e-05)
(-1.21638802179863e-05 0.0004282039306611 1.68960335338927e-05)
(-2.54797755395656e-05 0.000409987061142432 -1.29932720438198e-06)
(-1.02869260131232e-06 0.000242254235362899 5.15784012914106e-05)
(-7.15337685122797e-06 0.000317961304212076 3.52876159786347e-05)
(-2.32706585575362e-05 0.000454209707977148 2.01597511436128e-05)
(-4.2013327897044e-05 0.000412083317598066 4.41141443755464e-06)
(-4.26369585096762e-07 0.000204512782005247 6.64763920741899e-05)
(-3.61202734825327e-06 0.000251822114333411 5.06556119051454e-05)
(-1.27261229745165e-05 0.00033256136659162 3.59692618160502e-05)
(-3.54966593580605e-05 0.000465202517385205 2.34617552599887e-05)
(-5.8848867568443e-05 0.000419897637321968 1.26659466530622e-05)
(-3.64000082338165e-06 0.000327971523857838 4.04275252236323e-06)
(-3.1454109189588e-06 0.000378378557751378 1.75827149379803e-05)
(-1.31102400324481e-05 0.000376471571178501 1.09758549348468e-06)
(-1.76933518525684e-06 0.000302571453751489 3.35049619865985e-05)
(-1.17202161588415e-05 0.000437290508074287 1.54584916888806e-05)
(-2.44978311360446e-05 0.000415727739873761 -1.10928190900811e-06)
(-1.02595430385637e-06 0.000254758774271606 4.97687290255325e-05)
(-6.84401817854148e-06 0.00033020448598258 3.2691579922924e-05)
(-2.1773760660155e-05 0.00046649168022545 1.49267129864238e-05)
(-3.85695087654992e-05 0.000423177937355735 -2.09233899740014e-06)
(-5.23661456023084e-07 0.000217196280007196 6.58074276999744e-05)
(-3.86615822736702e-06 0.000263973391968565 4.91897913798177e-05)
(-1.25855423594616e-05 0.000343759116460594 3.32628445109452e-05)
(-3.41097520310847e-05 0.000473466736471502 1.85433603661133e-05)
(-5.57592783753042e-05 0.000420579911106181 4.80083335287733e-06)
(-1.85854549823237e-08 0.000182161693017842 7.97475022109591e-05)
(-1.64466845131038e-06 0.000219440505162398 6.37909828282259e-05)
(-6.49977997527227e-06 0.000269036134171829 4.82218772426294e-05)
(-1.87777597010479e-05 0.000349883963117134 3.36165283368177e-05)
(-4.69518542767652e-05 0.000480900901768825 2.15291413534906e-05)
(-7.2786452069645e-05 0.000428539886566439 1.21609293152099e-05)
(-3.46649124029255e-06 0.000328205340307827 3.68272349552815e-06)
(-3.05209956120992e-06 0.000384798609063767 1.64261452671724e-05)
(-1.26475385930575e-05 0.0003738296071318 1.26847276982104e-06)
(-1.74111258008534e-06 0.000312728742459575 3.14865653905232e-05)
(-1.14078363597837e-05 0.000442615596338727 1.43917275634168e-05)
(-2.36043313730975e-05 0.0004119433217858 -4.41701421866471e-07)
(-1.03831518076704e-06 0.000266299159003027 4.75370693723184e-05)
(-6.65157943081122e-06 0.000340647833917272 3.07237547232031e-05)
(-2.09533684759778e-05 0.000474669017226767 1.32302646509897e-05)
(-3.66325210626726e-05 0.000428706407482029 -2.00261618255209e-06)
(-5.70534948884073e-07 0.000229524634540767 6.40306258860536e-05)
(-3.86056380889808e-06 0.000275944933430922 4.7107179566268e-05)
(-1.22100694445023e-05 0.000355623074523329 3.04022509354641e-05)
(-3.24262218875934e-05 0.000485444478679635 1.29325883385321e-05)
(-5.21821158427029e-05 0.000431290408128925 -2.44005212279686e-06)
(-1.45815327463897e-07 0.000195079655193651 7.93270379682923e-05)
(-2.00132194317139e-06 0.000231867691695985 6.29598575495059e-05)
(-6.84371432546476e-06 0.000280935876082277 4.66384100914393e-05)
(-1.86621627239887e-05 0.000360641352497142 3.08150383379138e-05)
(-4.5615666033845e-05 0.000488513420702747 1.64326388934056e-05)
(-6.95317728226294e-05 0.000428343074708018 4.30507465569144e-06)
(3.13952600403274e-07 0.000161374049651783 9.23731900268809e-05)
(-2.88879543003274e-07 0.000194210894027116 7.64948147390591e-05)
(-3.03574633524798e-06 0.000232598085669482 6.06908170977362e-05)
(-9.76014070865344e-06 0.000282904465682176 4.50247420183937e-05)
(-2.52686227536054e-05 0.000365236564071789 3.04662531524241e-05)
(-5.86810566769865e-05 0.000495867301985917 1.89002550911661e-05)
(-8.63125237693374e-05 0.000438270768299033 1.0953997765477e-05)
(-3.21378659054168e-06 0.000328020414782338 3.0922918088207e-06)
(-2.91554997918945e-06 0.000390194277697729 1.48635364320671e-05)
(-1.18739891273684e-05 0.000371384450946967 1.03591282616576e-06)
(-1.68942555375657e-06 0.000321834467634416 2.91184888401038e-05)
(-1.09594599732815e-05 0.00044664042339202 1.33192139283341e-05)
(-2.24126116078923e-05 0.00040776715983219 -9.5740724860503e-08)
(-1.04116624378744e-06 0.000276947087862865 4.47339233237658e-05)
(-6.46340347994268e-06 0.000349485577690693 2.86405014515397e-05)
(-2.0219706631556e-05 0.000478714856258387 1.21470506532006e-05)
(-3.48323798361824e-05 0.00042421891618208 -1.25368994291752e-06)
(-6.12668043106148e-07 0.000241022322354061 6.13294273916718e-05)
(-3.83815967395777e-06 0.000286736267844259 4.47814962982769e-05)
(-1.18996232099941e-05 0.000365351372516893 2.8327059040922e-05)
(-3.11481482750296e-05 0.000493105093051571 1.11509970194227e-05)
(-4.92407922287146e-05 0.000436487924660874 -2.51683771580249e-06)
(-2.2658717019652e-07 0.000207394010900754 7.74216783389416e-05)
(-2.15579572414709e-06 0.000243696806209245 6.10603363331814e-05)
(-6.92135637473924e-06 0.000292489992044206 4.44426794179598e-05)
(-1.82408604743991e-05 0.000372085102872243 2.78307894948705e-05)
(-4.37658132352214e-05 0.000500115285932306 1.05421664882051e-05)
(-6.56246268857498e-05 0.000438598148917935 -3.40963353376459e-06)
(1.59736123009633e-07 0.000174530790655719 9.20164277740384e-05)
(-7.12818633181034e-07 0.000206842509160383 7.59799174001395e-05)
(-3.59639028875578e-06 0.000244719509574461 5.98307578784348e-05)
(-1.02174918716658e-05 0.000294338231150541 4.34735891108064e-05)
(-2.52500043950338e-05 0.000375371733281151 2.76506930808405e-05)
(-5.73479004095213e-05 0.000502727124373941 1.36715766842191e-05)
(-8.26768456662472e-05 0.000437148095805085 2.89965243115082e-06)
(5.99131456773101e-07 0.000141830391610383 0.00010433796380589)
(7.73110804104964e-07 0.00017197061047829 8.8604637353764e-05)
(-6.47530647223652e-07 0.000205411744951526 7.27512876590522e-05)
(-4.67900328485995e-06 0.00024444329651447 5.67229328848724e-05)
(-1.33319199634232e-05 0.000296372574671491 4.086721146347e-05)
(-3.19234820618505e-05 0.000380391487590356 2.65923616919848e-05)
(-7.03015023588375e-05 0.000511110704530051 1.55762251743939e-05)
(-9.88913921896464e-05 0.00044956047476972 9.31795573667215e-06)
(-2.91465135318004e-06 0.000327210610022602 2.33626499102946e-06)
(-2.74926295395608e-06 0.000394614871173199 1.29514306871331e-05)
(-1.09620546485051e-05 0.000368774582976941 5.01673033372166e-07)
(-1.61959731317843e-06 0.000329929855256262 2.63578977553633e-05)
(-1.04017480337611e-05 0.000449786147812516 1.1864463574523e-05)
(-2.09424716454177e-05 0.000403959750157498 -2.3867556056274e-07)
(-1.0286678938442e-06 0.00028673111571254 4.13906901263594e-05)
(-6.22156510897665e-06 0.000357291987531095 2.63021226451788e-05)
(-1.93483606719472e-05 0.000481438159639485 1.11570946810241e-05)
(-3.28183695600477e-05 0.000419223494903603 -7.55757754532676e-07)
(-6.40979049358675e-07 0.00025177635419424 5.77920425585444e-05)
(-3.7855586861935e-06 0.000296594447597564 4.19755150772886e-05)
(-1.15538075207328e-05 0.000373328116405777 2.6249042817118e-05)
(-2.9902604867473e-05 0.000496416543925304 1.01319152616154e-05)
(-4.65256938785532e-05 0.000431317052425356 -1.94798358171393e-06)
(-2.93048547709248e-07 0.000218903976343106 7.42739636133924e-05)
(-2.24660543876953e-06 0.000254579964012707 5.83385539267886e-05)
(-6.9133599092909e-06 0.000302706103566868 4.21119488187362e-05)
(-1.77777929106998e-05 0.000381240095109214 2.57807340565483e-05)
(-4.19984212804329e-05 0.000507315645929604 8.76727894678491e-06)
(-6.18165474010708e-05 0.000443117905602313 -3.59605505619606e-06)
(5.17301061137859e-08 0.000186925021372173 8.98993039950578e-05)
(-9.63685104424201e-07 0.00021868401612936 7.40352499019723e-05)
(-3.91321636609136e-06 0.000256130110418013 5.79237569901114e-05)
(-1.03770638774558e-05 0.000305437085863643 4.13040567841711e-05)
(-2.47974122155792e-05 0.000386330019434192 2.46298728937941e-05)
(-5.52848844395501e-05 0.000513850323100177 7.58943422454324e-06)
(-7.82764368291857e-05 0.000446981706835986 -5.03568018173441e-06)
(4.1652930190097e-07 0.000155262029830293 0.000103937592903624)
(2.76533496114447e-07 0.000184829761509945 8.82136553369573e-05)
(-1.35616028776582e-06 0.000217725955968302 7.2284111813537e-05)
(-5.44978589878859e-06 0.00025610195363355 5.59925304392744e-05)
(-1.39584649965917e-05 0.00030719805291275 3.94276556151915e-05)
(-3.201453305006e-05 0.000389806269176972 2.37968105205974e-05)
(-6.88629198813148e-05 0.000517155702920662 1.02179059144178e-05)
(-9.46874731071676e-05 0.000447649843045968 9.6445894126458e-07)
(8.50877622851737e-07 0.000123395798145429 0.000115792044978863)
(1.67420396059468e-06 0.000151510787216911 0.000100159200898324)
(1.2382276528021e-06 0.0001820497449761 8.43075226080151e-05)
(-1.1660882393725e-06 0.000216108118106505 6.81256620381575e-05)
(-6.55804372015703e-06 0.000256702306284739 5.17436729095242e-05)
(-1.70359108683883e-05 0.00031021160949834 3.59580924094976e-05)
(-3.85442397001957e-05 0.000396045554741349 2.20461387702006e-05)
(-8.14308971363687e-05 0.00052727787475691 1.15605735917595e-05)
(-0.000109918097001656 0.000462005508170138 7.26679206156228e-06)
(-2.64607790585127e-06 0.000325652825012457 1.48475785826788e-06)
(-2.56630654152263e-06 0.000398033886816861 1.07715515977478e-05)
(-1.00084934119469e-05 0.000365737797708536 -2.03047611252569e-07)
(-1.53719012833699e-06 0.000337001382073121 2.32357185112469e-05)
(-9.78510381644157e-06 0.000452047644678143 1.00303097703619e-05)
(-1.93472749315097e-05 0.000400134626475707 -7.16751869579076e-07)
(-1.00196855114617e-06 0.000295583105653849 3.75527560197127e-05)
(-5.93037605203069e-06 0.000364134346841157 2.35944743697319e-05)
(-1.83371829174439e-05 0.000483353580418947 9.79326383902882e-06)
(-3.05688135886055e-05 0.000414709773646219 -7.82245069519754e-07)
(-6.55151778980151e-07 0.000261731005272542 5.35436533066779e-05)
(-3.69155884635395e-06 0.000305618747748164 3.86684948007656e-05)
(-1.1117399259774e-05 0.000380271292782903 2.39670119884797e-05)
(-2.85259827810694e-05 0.000498385014123306 9.27794307103069e-06)
(-4.36184109988642e-05 0.000425536486387018 -1.40618806277051e-06)
(-3.40536145686418e-07 0.000229682340989013 7.00806015576799e-05)
(-2.29391553914102e-06 0.000264728608874155 5.48354333008154e-05)
(-6.82412082776509e-06 0.000311946336807607 3.93595385196133e-05)
(-1.72306352494265e-05 0.0003885697647496 2.37967826955088e-05)
(-4.01897935657981e-05 0.000509979685420427 7.84593237403971e-06)
(-5.81278706898461e-05 0.00043724816845424 -3.09701277567139e-06)
(-3.70662687501202e-08 0.000198479268841753 8.63125259834899e-05)
(-1.1439059934493e-06 0.000229643179519767 7.09169348145375e-05)
(-4.09690503872515e-06 0.000266506660582839 5.52613828327578e-05)
(-1.0376681283354e-05 0.000315127429244568 3.90795829509416e-05)
(-2.41553856502772e-05 0.000394935226498822 2.2671613577886e-05)
(-5.30101941937597e-05 0.000520535394632989 5.90640388434733e-06)
(-7.36786898657733e-05 0.000450799845060032 -5.21652550605779e-06)
(2.80556516838771e-07 0.000167799414992805 0.000101558108028066)
(-5.86076522667027e-08 0.00019677531067687 8.61164252670841e-05)
(-1.83462810159626e-06 0.000229164711800837 7.04109364892144e-05)
(-5.93614179230165e-06 0.000267057166323025 5.42160212216146e-05)
(-1.42001403373276e-05 0.000317777930069763 3.73684522887338e-05)
(-3.15216414838144e-05 0.000400213620201785 2.08081606762933e-05)
(-6.65142925999864e-05 0.000527759548181921 4.06469222822355e-06)
(-8.97051560096344e-05 0.000456857875604698 -7.05527172137759e-06)
(6.37659803073799e-07 0.000137161356014926 0.000115261304586157)
(1.09406452183734e-06 0.000164645385167044 9.97684628049308e-05)
(3.86277053923715e-07 0.000194597464349912 8.40166824091826e-05)
(-2.17415408095924e-06 0.000227979120665511 6.78526463695187e-05)
(-7.57085543546973e-06 0.000267779807899453 5.12103126506491e-05)
(-1.78440918040613e-05 0.000320344762130189 3.46492564042325e-05)
(-3.87128849328536e-05 0.000404673349574828 1.92961217042083e-05)
(-7.9795495118094e-05 0.000532455221067379 6.04793638840052e-06)
(-0.000105100291448651 0.00045933088089315 -1.4698108810126e-06)
(1.07856606377543e-06 0.000105980804605964 0.000126926105562764)
(2.47147514188092e-06 0.000132381464133814 0.00011129859082395)
(2.83976595639523e-06 0.000160804675765215 9.54260847967864e-05)
(1.62665791102027e-06 0.000191954043179433 7.91501605831799e-05)
(-1.86579861465904e-06 0.000227553613145856 6.24957327861233e-05)
(-8.59786467147382e-06 0.000269709883724132 4.60098590084648e-05)
(-2.07855678185282e-05 0.000324804784282307 3.04045050931974e-05)
(-4.5020637450966e-05 0.000412710384801451 1.67638390376159e-05)
(-9.17876297487041e-05 0.000544903219236349 6.7598782378673e-06)
(-0.000118847832877773 0.000475295661812987 4.77615830407376e-06)
(-2.35266578968471e-06 0.000323229817217567 5.51472725181936e-07)
(-2.36764598783244e-06 0.000400431494368749 8.38682958778777e-06)
(-9.06272857266126e-06 0.000362061910738035 -9.94742397153014e-07)
(-1.44178398638736e-06 0.000343030195715848 1.98064560560352e-05)
(-9.12301358006689e-06 0.000453384615950154 7.90492403010115e-06)
(-1.77003175861793e-05 0.000395979627343637 -1.38099320404295e-06)
(-9.62971860833816e-07 0.000303448049581765 3.32794912567046e-05)
(-5.6029269330716e-06 0.000369990908563833 2.05203123642312e-05)
(-1.72324026129017e-05 0.000484453147283075 8.02688317810429e-06)
(-2.81797665488698e-05 0.000410322930382493 -1.21322585016415e-06)
(-6.56195079858252e-07 0.000270799616020503 4.86830367143356e-05)
(-3.55917396845047e-06 0.00031374234371325 3.48763846152531e-05)
(-1.05943833184444e-05 0.000386285689047329 2.13240184608149e-05)
(-2.69942033692336e-05 0.000499607126305206 8.03758371044411e-06)
(-4.05265337890294e-05 0.000420355282018903 -1.24489853181737e-06)
(-3.75152010720683e-07 0.000239669637765391 6.50169177355397e-05)
(-2.30011120542882e-06 0.000274118429783329 5.0638059221691e-05)
(-6.65291006731351e-06 0.000320367789152852 3.6124479809979e-05)
(-1.65611329973421e-05 0.000394877655703545 2.16354897812519e-05)
(-3.82410294816268e-05 0.000511298871516683 7.15029174969707e-06)
(-5.4293430272516e-05 0.000430673463428138 -2.38063471514869e-06)
(-1.0555479407362e-07 0.000209275464950719 8.15108732139043e-05)
(-1.27662809838239e-06 0.000239901877464557 6.67874003869459e-05)
(-4.18165462616548e-06 0.00027614422200694 5.18455916884374e-05)
(-1.02412418078721e-05 0.000323828941855846 3.64659488048241e-05)
(-2.33650624026664e-05 0.000401663891400471 2.08298612829787e-05)
(-5.06058940824705e-05 0.00052256954541432 5.12955691740353e-06)
(-6.90308738190996e-05 0.000443995432625712 -4.61527933635585e-06)
(1.70464796296678e-07 0.000179432851319644 9.75294810004349e-05)
(-3.1411035691462e-07 0.000207827368111663 8.25988777811362e-05)
(-2.16519132501149e-06 0.000239663916157227 6.73990297557554e-05)
(-6.22018875007762e-06 0.000276945185452025 5.17214482466765e-05)
(-1.41838503891892e-05 0.000326929495480284 3.53171214325986e-05)
(-3.06767981358095e-05 0.000408253024013675 1.89873739729074e-05)
(-6.37228295677294e-05 0.000533873535407321 2.49865632416532e-06)
(-8.43489949447102e-05 0.000459889023050326 -7.14035984340313e-06)
(4.77019739033561e-07 0.000149898751230252 0.000112570112244818)
(6.77169307918605e-07 0.000176756778255071 9.7452033891047e-05)
(-2.32836151131156e-07 0.000206164460017749 8.20467006941883e-05)
(-2.89338632886795e-06 0.00023898519476972 6.61810198447e-05)
(-8.21881001781657e-06 0.000278217608195802 4.96382807148091e-05)
(-1.8154331599382e-05 0.000330349978681102 3.27413267401238e-05)
(-3.81433144298806e-05 0.000414477700554158 1.63880421673173e-05)
(-7.70911304735445e-05 0.000542524090098201 -1.27983837317572e-07)
(-9.94596689493849e-05 0.000467880952252982 -9.5168703062389e-06)
(8.33043586998105e-07 0.000120146829832978 0.000126182437563627)
(1.79949064208941e-06 0.000145851695354126 0.000110813953652166)
(1.83662344985511e-06 0.000173638627671604 9.51762752792022e-05)
(3.9796143611329e-07 0.000204085391641247 7.91030052000914e-05)
(-3.18542492442394e-06 0.000238878443348107 6.24837606616455e-05)
(-9.84454142543928e-06 0.000280130005707036 4.56885201709364e-05)
(-2.17408590359449e-05 0.000334184123420912 2.92344786396025e-05)
(-4.51972092614025e-05 0.000420488358903957 1.40753449545482e-05)
(-8.99025927233747e-05 0.00054916772168698 1.04910336239787e-06)
(-0.000113412633500515 0.000471829639737867 -4.48078154266662e-06)
(1.28554552938393e-06 8.95294834527723e-05 0.000137920468663471)
(3.18936505276313e-06 0.00011437525786676 0.000122183020168737)
(4.24749766843431e-06 0.000141025403940564 0.0001062251115783)
(4.00062333226558e-06 0.000170040009036155 8.98500834699544e-05)
(1.86580507752449e-06 0.000202706623169639 7.30104010619547e-05)
(-2.76173125387302e-06 0.000239905772551872 5.61221686403694e-05)
(-1.07781841675994e-05 0.00028361837790944 3.96353064543917e-05)
(-2.45659962114253e-05 0.000340460928966728 2.41236254326406e-05)
(-5.12986650546826e-05 0.00043083234405883 1.06054152041388e-05)
(-0.000101179927239424 0.000564470125985473 1.04676430557635e-06)
(-0.000125132764572063 0.000489748192033129 1.51720728716202e-06)
(-2.04583626577216e-06 0.000319821477997635 -4.36853303570031e-07)
(-2.15556293869897e-06 0.000401758029232592 5.83706257034847e-06)
(-8.06433263820616e-06 0.000357549699528911 -1.88734495216963e-06)
(-1.33709240595621e-06 0.000347993859308578 1.61207040640115e-05)
(-8.42512467991501e-06 0.000453753077427458 5.55216660718663e-06)
(-1.601569504069e-05 0.000391175971576796 -2.18938453636881e-06)
(-9.13011221915992e-07 0.000310291953120414 2.8634714471639e-05)
(-5.2436222508556e-06 0.000374844674781162 1.71287062384813e-05)
(-1.60551562463722e-05 0.000484678102997212 5.94014073106337e-06)
(-2.57574366291721e-05 0.000405613848721925 -1.90967844227314e-06)
(-6.45379723714031e-07 0.000278920184629846 4.33020871425683e-05)
(-3.39200157314604e-06 0.000320905892209384 3.06465451639308e-05)
(-1.00042310861403e-05 0.000391350417923476 1.83056848861985e-05)
(-2.53316232878898e-05 0.000500065773303665 6.35881200616793e-06)
(-3.73013706149891e-05 0.000415420554749412 -1.5990806776258e-06)
(-3.96520097770189e-07 0.000248795559955206 5.9225222765707e-05)
(-2.26822961707457e-06 0.000282655570940097 4.58338412538508e-05)
(-6.40902966472292e-06 0.000327916762486207 3.24032944411523e-05)
(-1.57733572554008e-05 0.000400300337869531 1.91085435912695e-05)
(-3.61223918443522e-05 0.000511907745055164 6.06124051976853e-06)
(-5.03021951343692e-05 0.000424791733510824 -2.03945946519465e-06)
(-1.5649335645284e-07 0.000219266882864982 7.57023014476335e-05)
(-1.36001543662038e-06 0.000249416047894296 6.17968726158894e-05)
(-4.18357450226907e-06 0.000285048166486007 4.77416678368579e-05)
(-9.9818171341421e-06 0.000331739511103499 3.33730122871204e-05)
(-2.2420305978588e-05 0.000407389897646643 1.88363500064229e-05)
(-4.80379715520831e-05 0.00052324417930307 4.61284623295728e-06)
(-6.42670050130542e-05 0.000436533962073923 -3.7150498662729e-06)
(8.32995110310077e-08 0.000190253368289933 9.21417025873759e-05)
(-5.08721181401574e-07 0.000218154638188778 7.7882490606881e-05)
(-2.38828950053757e-06 0.00024947511919741 6.33848081021282e-05)
(-6.34745686488319e-06 0.000286111485642249 4.84826549323774e-05)
(-1.3973386793817e-05 0.000335097786449965 3.29007379191343e-05)
(-2.96126430905854e-05 0.000414385440530503 1.73255169022001e-05)
(-6.07083990791678e-05 0.000535225497770508 1.91158656225631e-06)
(-7.88290621584807e-05 0.000452116742037032 -6.40343216213284e-06)
(3.47373487778726e-07 0.000161643421942306 0.000108085587816838)
(3.53220809784864e-07 0.000187922758075732 9.35262504040064e-05)
(-6.90277550252464e-07 0.000216792725900471 7.86784639902971e-05)
(-3.38940317547079e-06 0.000249034223080494 6.33854330295114e-05)
(-8.58281327485771e-06 0.000287593344387916 4.73778134201109e-05)
(-1.80951003479513e-05 0.000338941142633127 3.09000429124642e-05)
(-3.70699405485687e-05 0.000421914131064613 1.47362479926773e-05)
(-7.37711787935557e-05 0.000547987808359537 -1.51987350034381e-06)
(-9.34300880123345e-05 0.000470029454358495 -9.4393888188261e-06)
(6.47163987709129e-07 0.000133136873437295 0.000123125777053427)
(1.30490844938093e-06 0.000158181818178082 0.000108221407741561)
(1.08392227898683e-06 0.000185394968275903 9.30294331438591e-05)
(-5.23158480033983e-07 0.000215246809633037 7.73834303546562e-05)
(-4.13433173753999e-06 0.000249387391450938 6.1079285657479e-05)
(-1.06305317743855e-05 0.000289994427227379 4.43471034777417e-05)
(-2.20840487719953e-05 0.000343561512507179 2.75007014309926e-05)
(-4.449471505601e-05 0.000429644027290113 1.12826425118905e-05)
(-8.67691907529078e-05 0.000558665213865886 -5.11344460753268e-06)
(-0.000107110595950303 0.000479664110022298 -1.2625331453194e-05)
(1.00601848325084e-06 0.000104166887566486 0.000136875213857808)
(2.41954023650484e-06 0.000128251498848817 0.000121518334591577)
(3.08424753299745e-06 0.000154211095574 0.000105918118589592)
(2.549509411867e-06 0.000182489715016963 8.98848813156216e-05)
(2.59693072991913e-07 0.000214331740791933 7.32722788920383e-05)
(-4.3661723814583e-06 0.000250613848266496 5.63814089883068e-05)
(-1.22105759399252e-05 0.000293322547609916 3.95244893213989e-05)
(-2.56005819722168e-05 0.000349026700822767 2.3098810931067e-05)
(-5.13957478698795e-05 0.000437685033689432 7.97444199392268e-06)
(-9.89540965374911e-05 0.00056780660636646 -4.91757024255675e-06)
(-0.000119074946788152 0.000485088371750091 -8.40903726065423e-06)
(1.47612509879883e-06 7.40215138907098e-05 0.000148932556254899)
(3.84197289416061e-06 9.73922267086813e-05 0.000132969177066859)
(5.50821665494787e-06 0.000122427470543195 0.00011683872471528)
(6.08282915719393e-06 0.000149632497532447 0.000100321478654982)
(5.03853669539417e-06 0.000180123771901633 8.33141633752057e-05)
(1.88185134066044e-06 0.000214412076549021 6.61422912671324e-05)
(-3.87730447438945e-06 0.000253212241501088 4.91093220517395e-05)
(-1.31137642073398e-05 0.000298586965485348 3.2518257123632e-05)
(-2.83840929313255e-05 0.000357424368310257 1.69151065842945e-05)
(-5.73369006731078e-05 0.000450785936195062 3.35259467772009e-06)
(-0.000109400907965663 0.000586607497199305 -5.75189381567977e-06)
(-0.000128170525059317 0.000505294235280384 -2.47213216380047e-06)
(-1.72828700925218e-06 0.000315421763848164 -1.45311010092843e-06)
(-1.93352540968861e-06 0.000401970153154249 3.14685829979249e-06)
(-7.0726632230215e-06 0.000352209031221029 -2.82099633362271e-06)
(-1.22434970059693e-06 0.000351864111544462 1.22215355855476e-05)
(-7.69701134810795e-06 0.000453100996210369 3.02854609329696e-06)
(-1.42804249477123e-05 0.000385589895733257 -3.07679887262314e-06)
(-8.5371596123669e-07 0.000316086657126862 2.36780216809611e-05)
(-4.85446958604798e-06 0.00037867269629242 1.34727224075348e-05)
(-1.48256466659171e-05 0.00048397331717785 3.61059291553082e-06)
(-2.32439632452542e-05 0.000400304381387624 -2.80511108404145e-06)
(-6.23838350347366e-07 0.00028605419012449 3.74847424264435e-05)
(-3.1935281303492e-06 0.000327074382889614 2.60392790676126e-05)
(-9.35664257805272e-06 0.000395443802363322 1.49542124305472e-05)
(-2.35820526882432e-05 0.000499688425774152 4.32878498790448e-06)
(-3.39940694079941e-05 0.000410180540639063 -2.26835100496534e-06)
(-4.05839956282872e-07 0.000257002460665967 5.28277609164143e-05)
(-2.20153353683638e-06 0.000290271506292008 4.05073529918432e-05)
(-6.10124767838883e-06 0.000334531512369931 2.82339994667587e-05)
(-1.48845756542702e-05 0.00040481381166306 1.61867504338162e-05)
(-3.38597354549205e-05 0.000511812700947355 4.50014878318017e-06)
(-4.62020934805313e-05 0.000419176236952459 -2.35532738548943e-06)
(-1.92053943308291e-07 0.000228395601938301 6.90644465090931e-05)
(-1.4020094015553e-06 0.000258100480292945 5.60828384880315e-05)
(-4.11294736520888e-06 0.000293127575727618 4.302632707621e-05)
(-9.61133816305325e-06 0.000338811625691026 2.97808903884958e-05)
(-2.13247640846886e-05 0.000412274877714866 1.64705748254551e-05)
(-4.52986969662952e-05 0.000523252513626748 3.69128297804375e-06)
(-5.93743925808941e-05 0.000429903226409561 -3.26272310929603e-06)
(1.61342228150573e-08 0.00020023569008155 8.56380079786828e-05)
(-6.5096131056695e-07 0.000227721720616365 7.21682491900164e-05)
(-2.52210609281802e-06 0.000258570390731817 5.85105812634454e-05)
(-6.3447734143111e-06 0.000294577635624493 4.45478563382137e-05)
(-1.35955036071177e-05 0.000342511126174478 3.00065842458661e-05)
(-2.83602501245974e-05 0.000419540622529764 1.552745425953e-05)
(-5.75162416793253e-05 0.000535238803558068 1.59236254709696e-06)
(-7.31911856641879e-05 0.000443744110613518 -5.3577975097213e-06)
(2.4346158313975e-07 0.000172503694806373 0.000102124681362912)
(9.98228963919868e-08 0.000198311508798584 8.82514246366205e-05)
(-1.02765979225838e-06 0.000226712817810774 7.41129674183763e-05)
(-3.71393524175703e-06 0.0002584201785871 5.95827346356863e-05)
(-8.73138472181374e-06 0.000296275501474565 4.437719311341e-05)
(-1.77822432212186e-05 0.000346567541911703 2.87142568750378e-05)
(-3.57089812039813e-05 0.000427432970641843 1.32801429114184e-05)
(-7.01574545418424e-05 0.000548592813008131 -1.88462859836432e-06)
(-8.71093872363564e-05 0.000461146328833703 -8.54077217094777e-06)
(4.97180757614582e-07 0.000145027004836535 0.00011815578615292)
(9.1704739723942e-07 0.000169487913585805 0.000103867155606809)
(5.09638200073931e-07 0.000196170001615016 8.92886984474515e-05)
(-1.20097269111413e-06 0.000225463463504482 7.42693517696852e-05)
(-4.77982234842951e-06 0.000258956145484455 5.85617229796816e-05)
(-1.10448020487206e-05 0.000298827826698333 4.23472170245938e-05)
(-2.1950628648061e-05 0.000351556996304614 2.5888122998006e-05)
(-4.31593221771169e-05 0.000436428457907234 9.82496771527546e-06)
(-8.29161285321147e-05 0.000563396936489441 -6.26875218414613e-06)
(-0.000100425876745413 0.00048084712210242 -1.22861926277715e-05)
(7.93467728164909e-07 0.000117460944373303 0.000133386544271124)
(1.84548378423941e-06 0.000140851429655732 0.000118588707432475)
(2.19676420966247e-06 0.000166208700878538 0.000103527994605421)
(1.43382359409815e-06 0.00019387222618445 8.80241974170922e-05)
(-9.54358181616777e-07 0.000225029924742582 7.18623114602122e-05)
(-5.51313668762551e-06 0.000260573478796435 5.5260772690336e-05)
(-1.30916512907727e-05 0.000302564204878526 3.84220426682795e-05)
(-2.59205793557804e-05 0.000357721593548166 2.15583872842976e-05)
(-5.04952912054354e-05 0.000446140093626064 5.31429952380169e-06)
(-9.534443758564e-05 0.000576733969434054 -1.1076525880335e-05)
(-0.000112177231435222 0.000492253650386238 -1.64389474454154e-05)
(1.16008784572908e-06 8.91999551612868e-05 0.000147483877658145)
(2.96716834807817e-06 0.000111748175005825 0.000132032867575746)
(4.17309573951002e-06 0.000136038122452852 0.000116384045885584)
(4.39629033000786e-06 0.000162466814423675 0.00010033158150785)
(3.13851846161997e-06 0.000192107176377491 8.3691422057925e-05)
(-6.95321923972849e-08 0.000225462124273823 6.67139395558852e-05)
(-5.71241718555673e-06 0.000263245708114126 4.96288361954091e-05)
(-1.46623924151451e-05 0.000307516964071342 3.26208569843728e-05)
(-2.94099539282101e-05 0.000365109708442429 1.60485452738882e-05)
(-5.72521125014254e-05 0.000456645875182262 7.76388248620589e-07)
(-0.000106703094944433 0.000588918362490159 -1.2045137673631e-05)
(-0.00012158274439257 0.000499386148475656 -1.29117259404399e-05)
(1.65351466062463e-06 5.94661877990871e-05 0.00016009739897978)