/*--------------------------------*- C++ -*----------------------------------*\
  =========                 |
  \\      /  F ield         | OpenFOAM: The Open Source CFD Toolbox
   \\    /   O peration     | Website:  https://openfoam.org
    \\  /    A nd           | Version:  12
     \\/     M anipulation  |
\*---------------------------------------------------------------------------*/
/*   Windows 32 and 64 bit porting by blueCAPE: http://www.bluecape.com.pt   *\
|  Based on Windows porting (2.0.x v4) by Symscape: http://www.symscape.com   |
\*---------------------------------------------------------------------------*/
FoamFile
{
    format      ascii;
    class       surfaceScalarField;
    location    "0";
    object      phi;
}
// * * * * * * * * * * * * * * * * * * * * * * * * * * * * * * * * * * * * * //

dimensions      [0 3 -1 0 0 0 0];

internalField   nonuniform List<scalar> 
28900
(
3.21002520630876e-06
-2.31831730147106e-09
5.25370467363242e-08
3.1482397918694e-06
1.51648342974197e-08
4.66202467661117e-08
3.25915346500037e-06
-3.52271707956697e-09
5.44265560344177e-08
3.44160539805585e-06
-2.88003248995128e-09
1.08956932520092e-07
3.0769181511951e-06
3.00606644388092e-08
4.12606802205135e-08
3.19456347007816e-06
3.09375511574135e-08
4.88169960824353e-08
3.3756299090971e-06
1.60963107625479e-08
9.64990771244845e-08
3.37776519862982e-06
-1.33143766585918e-09
5.81151834389633e-08
3.59403509134465e-06
-4.18957698506241e-09
1.14236757571796e-07
3.80073993159498e-06
-3.02921827937531e-09
1.70323552729476e-07
2.99789439910513e-06
4.25994084864052e-08
3.64240767640779e-08
3.12052432659301e-06
6.03636455789908e-08
4.3735921265981e-08
3.29939763146322e-06
3.22849543318272e-08
8.52076948419832e-08
3.30680238396906e-06
5.02035509553943e-08
5.16965539119351e-08
3.52302401318779e-06
3.38505190051092e-08
1.02073584150149e-07
3.72852123036562e-06
1.80668637000924e-08
1.50650578808904e-07
3.51769266064725e-06
6.75373833104093e-09
6.1542821369075e-08
3.78126247957578e-06
-4.75427241694769e-10
1.2218819165436e-07
4.05332862175471e-06
-3.74908470141136e-09
1.80229173476041e-07
4.16243891917247e-06
-1.28306199928392e-09
2.33841942570593e-07
2.91280324508721e-06
5.30148643267521e-08
3.2076040967218e-08
3.0388929197247e-06
8.51022246250312e-08
3.91283837618402e-08
3.21487409921082e-06
4.59190356672617e-08
7.50282975134116e-08
3.22645815275787e-06
9.45708366371139e-08
4.61368148730368e-08
3.44155468109322e-06
6.64498695333498e-08
9.10401005149502e-08
3.644911303846e-06
3.60895624109947e-08
1.32727765357446e-07
3.43642442265139e-06
7.67247681288047e-08
5.47466692818337e-08
3.70200100141792e-06
5.5828290388457e-08
1.08979978917099e-07
3.97386950873868e-06
3.95758792346898e-08
1.60023438131569e-07
4.08444928923243e-06
2.24165766435184e-08
2.06223302191061e-07
3.63717747906619e-06
2.41312094989953e-08
6.64386200642712e-08
3.92567836754053e-06
7.77793349811868e-09
1.30828824394948e-07
4.32924713387133e-06
1.94357664339895e-09
1.93292427556911e-07
4.45913658370303e-06
1.50715989631331e-09
2.47961906411964e-07
4.41584836670404e-06
5.17210893455191e-09
2.92908273865206e-07
2.8230831965243e-06
6.15454761847485e-08
2.81743318328803e-08
2.95132547485999e-06
1.05635963997413e-07
3.4946157913898e-08
3.12381571062548e-06
5.72394973979465e-08
6.58946755476072e-08
3.13876489566569e-06
1.31676912436164e-07
4.11183761956707e-08
3.35168129774137e-06
9.3862528197625e-08
8.10580711432726e-08
3.55207353795781e-06
5.12789755857895e-08
1.16586830496175e-07
3.34663646441083e-06
1.35962853627342e-07
4.83956185009193e-08
3.61209023129933e-06
1.05564171920005e-07
9.69330358448839e-08
3.88253705140707e-06
7.66369178905959e-08
1.41825000227838e-07
3.99394740920208e-06
4.18272337538943e-08
1.81402124392659e-07
3.54335108871482e-06
1.12243401586368e-07
5.83073045200645e-08
3.83466008335078e-06
8.63022767461722e-08
1.15290626221901e-07
4.23894919346262e-06
6.71982153495407e-08
1.71655356914253e-07
4.37306478948903e-06
4.90733329741889e-08
2.19438298387904e-07
4.33511978083588e-06
2.85433681177886e-08
2.5840815055884e-07
3.72899310326485e-06
5.32222639085306e-08
7.17053238971027e-08
4.02297041603992e-06
2.80344345243034e-08
1.39129018115156e-07
4.49540429870248e-06
1.4358458103563e-08
2.06918722165625e-07
4.77821035585313e-06
9.93981619539116e-09
2.67402597911656e-07
4.70716971040479e-06
1.27657015243777e-08
3.12233200579024e-07
4.53406625114681e-06
1.17455760550309e-08
3.44384072699866e-07
2.7299900506279e-06
6.84118060818742e-08
2.4681101825451e-08
2.85926106095405e-06
1.22473129666351e-07
3.11365837567982e-08
3.0277691007463e-06
6.64939864667055e-08
5.77267093618055e-08
3.04544661835657e-06
1.62440516170424e-07
3.65135546294957e-08
3.25522941536297e-06
1.16584369007957e-07
7.20529875260698e-08
3.45195006559171e-06
6.38898064212629e-08
1.02128106641869e-07
3.25024173738934e-06
1.85474707168116e-07
4.25966426308327e-08
3.51390508953221e-06
1.47114149660265e-07
8.60516840057302e-08
3.78165290724034e-06
1.07793397349984e-07
1.25427628921766e-07
3.89322364632264e-06
5.82008753091256e-08
1.59109471240763e-07
3.44197776842304e-06
1.86321279012412e-07
5.10144862801822e-08
3.73425032765028e-06
1.52882104408108e-07
1.014871360338e-07
4.13645758129856e-06
1.24243747875552e-07
1.51817631203101e-07
4.27371151385996e-06
8.94485571858402e-08
1.93556821516552e-07
4.24080750887209e-06
4.84657532749976e-08
2.27248327628476e-07
3.619973543374e-06
1.58897736602906e-07
6.2364693323976e-08
3.91889334654846e-06
1.27030095886239e-07
1.21656037867241e-07
4.39168903988917e-06
1.04619929232528e-07
1.81583739689647e-07
4.67956503942179e-06
8.33410108815653e-08
2.3603273774329e-07
4.61824809608602e-06
6.13615933256019e-08
2.75541522704919e-07
4.45374354638397e-06
3.48022481547231e-08
3.03928231492876e-07
3.80815953942257e-06
9.63337358382813e-08
7.7692557967254e-08
4.1073168946441e-06
6.17197710821661e-08
1.49217983611416e-07
4.57695356390729e-06
4.00611752271244e-08
2.18691632261952e-07
4.94548704147467e-06
2.91761484461668e-08
2.84280949932308e-07
5.01878855823616e-06
2.70654574550583e-08
3.37091885686494e-07
4.8040865006632e-06
2.61931946029377e-08
3.67998999667296e-07
4.55560537454914e-06
1.84688379608045e-08
3.86053663511212e-07
2.63461858006146e-06
7.38017876794394e-08
2.15694412592823e-08
2.76394355276358e-06
1.36065200304427e-07
2.76639396709754e-08
2.92808379795258e-06
7.39199661025429e-08
5.0446194651457e-08
2.94792908187396e-06
1.87839268892864e-07
3.21512396370456e-08
3.15379649589575e-06
1.35116194028256e-07
6.39471253152598e-08
3.34625408903244e-06
7.41926499276907e-08
8.92298129116837e-08
3.14905914973199e-06
2.26608546466724e-07
3.70142941029697e-08
3.40935219000743e-06
1.81408542868811e-07
7.6242091077733e-08
3.67327926293875e-06
1.3360500947728e-07
1.10711287257069e-07
3.78439680948572e-06
7.17903100633371e-08
1.3916441281819e-07
3.33533538557701e-06
2.47836102419278e-07
4.42806183232108e-08
3.62635230744217e-06
2.08464363675539e-07
8.9144179289602e-08
4.02442835466346e-06
1.71915366755385e-07
1.33958788913876e-07
4.16370953262401e-06
1.23352952261603e-07
1.70277438924067e-07
4.13543908983395e-06
6.52312300130913e-08
1.99246386689299e-07
3.50501442751695e-06
2.47184660570351e-07
5.4095264333023e-08
3.80639993879616e-06
2.10266272241849e-07
1.0612325508114e-07
4.2770709725443e-06
1.81086729943144e-07
1.59261827462102e-07
4.56756969354203e-06
1.45506907311168e-07
2.07754403277912e-07
4.51518619367768e-06
1.02672421908567e-07
2.42411923411448e-07
4.35920116256298e-06
5.44407063577651e-08
2.67349659376732e-07
3.68140972932858e-06
2.18613163466815e-07
6.70338619228251e-08
3.98704215972059e-06
1.80130202198279e-07
1.29538898531383e-07
4.45898495538418e-06
1.53325414912533e-07
1.90918633879415e-07
4.8330937918672e-06
1.2784939490072e-07
2.4946799023302e-07
4.91741030069279e-06
1.01927414514256e-07
2.96844847120479e-07
4.71612263767142e-06
7.37746010682267e-08
3.24532891722889e-07
4.47801030257918e-06
4.0664715773709e-08
3.40858157074937e-07
3.89453940436437e-06
1.55967727118407e-07
8.45901119837009e-08
4.20006618678933e-06
1.10911369436647e-07
1.61663324687649e-07
4.65357707943522e-06
8.0621132367645e-08
2.33917131075115e-07
5.00903298502702e-06
6.11976530630135e-08
3.00210304759524e-07
5.16590169997626e-06
5.18432471656756e-08
3.57703288488385e-07
5.08973736914172e-06
4.7274541713769e-08
3.97646661659389e-07
4.81084185199613e-06
4.01842792471148e-08
4.1285920483493e-07
4.52834097151402e-06
2.55972807569535e-08
4.16391050650056e-07
2.53791332302281e-06
7.79005468690684e-08
1.88044622377967e-08
2.66647511560964e-06
1.46736570105904e-07
2.45334789846562e-08
2.82593401699795e-06
7.97374209251105e-08
4.39815553784496e-08
2.84737339031885e-06
2.08675545207836e-07
2.79451949613574e-08
3.04877655632862e-06
1.49932119191512e-07
5.66715599180052e-08
3.23648050455967e-06
8.24522130022305e-08
7.7767346555618e-08
3.0443788066843e-06
2.60526682622851e-07
3.19926830622142e-08
3.30007011827057e-06
2.09136909946636e-07
6.74124210802756e-08
3.55922757424399e-06
1.54637416663033e-07
9.75539199177825e-08
3.66934654060639e-06
8.28853800739419e-08
1.21394496633143e-07
3.22505555919298e-06
2.98157061433569e-07
3.87309727657175e-08
3.51265876711427e-06
2.54017829255194e-07
7.80983044854633e-08
3.90504775865027e-06
2.11247289769452e-07
1.17980280711175e-07
4.04533569177274e-06
1.51430014091067e-07
1.49445359693588e-07
4.02127494959478e-06
7.91314684995964e-08
1.74196846434131e-07
3.38625037158927e-06
3.20000822055896e-07
4.65989155058036e-08
3.68740824180408e-06
2.79404748751066e-07
9.23315019591695e-08
4.15379828995764e-06
2.44907679950064e-07
1.39424190971645e-07
4.44493860766515e-06
1.97532268144601e-07
1.8241037863776e-07
4.40067826135072e-06
1.37356413965091e-07
2.12660116884633e-07
4.2530347313108e-06
7.09535009931541e-08
2.34459036808973e-07
3.55083735377266e-06
3.20053814894682e-07
5.77027791300072e-08
3.86015304879409e-06
2.79066185679438e-07
1.12184110822335e-07
4.33135556776511e-06
2.48553247235764e-07
1.66285653954272e-07
4.70826041537295e-06
2.11228612835474e-07
2.18372911613428e-07
4.80178634977006e-06
1.6540821958895e-07
2.60642259780657e-07
4.61344173318632e-06
1.14240454270395e-07
2.85292990475893e-07
4.38581480277999e-06
5.95790681872545e-08
2.99965703724653e-07
3.7472293949435e-06
2.93430032061687e-07
7.24926611644695e-08
4.0603138487786e-06
2.47451571423123e-07
1.39464245711235e-07
4.51791689064121e-06
2.15505071065835e-07
2.0301901272885e-07
4.88152938585885e-06
1.84237100093933e-07
2.62033808671243e-07
5.05108153910182e-06
1.52500487694471e-07
3.13714173549172e-07
4.9900875896148e-06
1.20317891547075e-07
3.49951001327437e-07
4.72615423076088e-06
8.57327104505681e-08
3.64152359143336e-07
4.45473709365103e-06
4.66477892062086e-08
3.67813790389952e-07
4.0009129468106e-06
2.34969592872788e-07
9.25403054575817e-08
4.309587822659e-06
1.78244635957016e-07
1.76477649517248e-07
4.75911060773027e-06
1.38454905829923e-07
2.53613413863051e-07
5.07963963831157e-06
1.08733836909765e-07
3.20928535864934e-07
5.21071324545326e-06
8.96717320521404e-08
3.77280517017649e-07
5.21315542185038e-06
7.8443389678187e-08
4.21682464491124e-07
5.07556695926953e-06
6.87564938377398e-08
4.4623546936249e-07
4.77769575317532e-06
5.50511364641896e-08
4.45313515442599e-07
4.48196762616755e-06
3.32804026811589e-08
4.34321410133504e-07
2.44067468815502e-06
8.08919207955711e-08
1.63464557392747e-08
2.56780922620752e-06
1.54844458123822e-07
2.17217957238955e-08
2.7223290596967e-06
8.41526715499907e-08
3.8256494835923e-08
2.74494053350409e-06
2.25056048321365e-07
2.41132271487483e-08
2.94137158813604e-06
1.61510780131849e-07
5.01649195774197e-08
3.12392874212699e-06
8.89170840587147e-08
6.76160129559203e-08
2.93672210869655e-06
2.87270143375135e-07
2.90618641238687e-08
3.18751601239579e-06
2.30929335107865e-07
5.95019168013804e-08
3.44107836657229e-06
1.71441023815151e-07
8.58318333278409e-08
3.549716272966e-06
9.17707199802972e-08
1.05626695062072e-07
3.1113156451718e-06
3.38812355633571e-07
3.5453924276756e-08
3.39478692725644e-06
2.90591251256502e-07
6.84099570898961e-08
3.7802150842242e-06
2.43132963310374e-07
1.03749437492523e-07
3.92058825561763e-06
1.74303010576473e-07
1.3088367440153e-07
3.9003143288977e-06
9.04666582248414e-08
1.51888237254024e-07
3.26547213923705e-06
3.78961368991453e-07
3.99735397832133e-08
3.56369771663772e-06
3.36099911578865e-07
8.03590201057379e-08
4.02395791427543e-06
2.97346477422241e-07
1.21839166561199e-07
4.31406526165557e-06
2.40473863547032e-07
1.59809619792772e-07
4.27711900122765e-06
1.66065527891946e-07
1.86070503223858e-07
4.13756770059118e-06
8.46349095678823e-08
2.05028702452423e-07
3.41822652618676e-06
4.03128899217803e-07
4.94823632969673e-08
3.72853217004965e-06
3.60730630989682e-07
9.6893612539765e-08
4.19643548364801e-06
3.27636983291946e-07
1.44521858795037e-07
4.57371166290875e-06
2.80793859040152e-07
1.90710817696447e-07
4.67475323319149e-06
2.18558555394428e-07
2.28241100821314e-07
4.4987831945363e-06
1.48214268816509e-07
2.50057834394009e-07
4.2816149639635e-06
7.5484248673763e-08
2.63174284525172e-07
3.5987442320765e-06
4.06535340526616e-07
6.20032324521473e-08
3.91630012826014e-06
3.60731217021446e-07
1.2005095763103e-07
4.37464900202235e-06
3.28213190633074e-07
1.75791700155951e-07
4.74323406066941e-06
2.87673944679662e-07
2.28134976002662e-07
4.92293849869906e-06
2.37550790456236e-07
2.7437252843381e-07
4.87564113579627e-06
1.8228535776154e-07
3.07043516172153e-07
4.62637698083786e-06
1.24492607481359e-07
3.2015657559557e-07
4.36627091673963e-06
6.46002831898243e-08
3.23831170948908e-07
3.82979853836766e-06
3.85688471945632e-07
7.88555606000564e-08
4.14688089692673e-06
3.31278144933272e-07
1.51372662851656e-07
4.60168081981459e-06
2.93492631373516e-07
2.18905938664907e-07
4.93346484792878e-06
2.54758020671894e-07
2.78672436252411e-07
5.08096221767459e-06
2.149086665903e-07
3.29375751151539e-07
5.10084498184535e-06
1.7650535253074e-07
3.6983620445155e-07
4.98003537797586e-06
1.38446136438835e-07
3.92768829528006e-07
4.69743689905438e-06
9.8114874594534e-08
3.92943946709872e-07
4.4129295758698e-06
5.30295211165865e-08
3.83821868928e-07
4.13048349408124e-06
3.36529051634972e-07
1.01586198235073e-07
4.43981664504958e-06
2.66933795729922e-07
1.93567053809315e-07
4.89311854180664e-06
2.16794493251467e-07
2.77369999162466e-07
5.19658383698111e-06
1.74884078749626e-07
3.48250707196509e-07
5.27662296212046e-06
1.43374853157093e-07
4.03146708483918e-07
5.24350897624863e-06
1.22422723597016e-07
4.44405030393595e-07
5.18240333922083e-06
1.07246633305543e-07
4.7297636221116e-07
5.03070265164787e-06
9.17533723983251e-08
4.81241400222896e-07
4.72896790648451e-06
7.09266420175715e-08
4.6440882875467e-07
4.4304253222668e-06
4.13022400034919e-08
4.39324483089575e-07
2.34356454515978e-06
8.2954189066703e-08
1.41556829220864e-08
2.46875243487141e-06
1.60781088057986e-07
1.91674321427338e-08
2.61812609374947e-06
8.73495153458451e-08
3.31996434739773e-08
2.64163996670997e-06
2.37475504566368e-07
2.06693646490141e-08
2.83261305336439e-06
1.70270180682486e-07
4.4362646967136e-08
3.00971169128337e-06
9.38183377894963e-08
5.86549807230092e-08
2.82764873845081e-06
3.07965067319905e-07
2.61641193430586e-08
3.07288301279964e-06
2.47828767166662e-07
5.24280727129232e-08
3.32018718843488e-06
1.84554578087332e-07
7.54184798427409e-08
3.42693299732106e-06
9.87135009701672e-08
9.16855894881106e-08
2.99581830572286e-06
3.70914447344277e-07
3.18527324801243e-08
3.2746757942033e-06
3.19878121507507e-07
6.02239960296654e-08
3.65158934957206e-06
2.68444396919834e-07
9.11241749617535e-08
3.79121054891109e-06
1.92572847774798e-07
1.14407369422544e-07
3.77431255188368e-06
9.95276801396961e-08
1.32100582511277e-07
3.14253114371073e-06
4.25517137478899e-07
3.62358538065402e-08
3.43762387520904e-06
3.81739682227047e-07
7.03789629386507e-08
3.88946846196799e-06
3.39669023950657e-07
1.06363042872041e-07
4.17704539517496e-06
2.75329097825821e-07
1.39743082819225e-07
4.14662209640709e-06
1.89436478308598e-07
1.62410735189034e-07
4.01486342161098e-06
9.57795132389143e-08
1.78812775988835e-07
3.28515720327512e-06
4.70063420845864e-07
4.19669223191477e-08
3.5936614071113e-06
4.27331144142862e-07
8.3612806850782e-08
4.05631151460738e-06
3.92390032658186e-07
1.25439046060862e-07
4.43182303724211e-06
3.37993979824777e-07
1.66207167698574e-07
4.53882269303315e-06
2.62427608331455e-07
1.99377854191909e-07
4.37459172436784e-06
1.76324236489889e-07
2.18572630058645e-07
4.16774769775108e-06
8.86581739534991e-08
2.30237482126613e-07
3.45059025935745e-06
4.98377572698166e-07
5.29049499181862e-08
3.76989186665559e-06
4.53528803093073e-07
1.03091998746326e-07
4.22604536394248e-06
4.21242071063145e-07
1.51891859549344e-07
4.5968192057383e-06
3.73555965502677e-07
1.98173986589172e-07
4.7843455962836e-06
3.08504863149395e-07
2.3935659144867e-07
4.74927700316826e-06
2.34178279527287e-07
2.68640963547843e-07
4.5142451302648e-06
1.57040987018396e-07
2.80632867069896e-07
4.26550897812967e-06
7.97013536263126e-08
2.84234482678888e-07
3.66071013712364e-06
5.08532669139552e-07
6.70907334042722e-08
3.98280877373931e-06
4.57205092480926e-07
1.29601211320447e-07
4.43925375160225e-06
4.2213444253744e-07
1.88556323420693e-07
4.77871563491633e-06
3.76795696137405e-07
2.41418773503992e-07
4.93961799079683e-06
3.20221422677936e-07
2.86807701203185e-07
4.97466803238746e-06
2.59397122468132e-07
3.23436774275182e-07
4.86932777909037e-06
1.97604203040995e-07
3.44639204382939e-07
4.60180040933412e-06
1.34787280327403e-07
3.45605908193061e-07
4.32881036751313e-06
6.98851883973854e-08
3.38064754548975e-07
3.93203486586464e-06
4.98025085916542e-07
8.61116561896816e-08
4.25045891786995e-06
4.34371606916028e-07
1.65119317530774e-07
4.70967350603417e-06
3.90190622385964e-07
2.38119357380959e-07
5.02704248784808e-06
3.4237552613202e-07
3.00829164150353e-07
5.12813631336224e-06
2.91786532524096e-07
3.50280639670392e-07
5.11694952904899e-06
2.44291720246221e-07
3.88147880983786e-07
5.07506526372511e-06
2.00642101314829e-07
4.14977352612585e-07
4.94034366150613e-06
1.57484401595484e-07
4.23757947188032e-07
4.65367931705202e-06
1.11273837291277e-07
4.09988038131964e-07
4.36615625126935e-06
5.96837388506295e-08
3.88406770864858e-07
4.27985818270862e-06
4.6407381198066e-07
1.11644865937678e-07
4.59128873009455e-06
3.80622872123362e-07
2.12828053395827e-07
5.05113306463015e-06
3.19482037633386e-07
3.04697708129963e-07
5.34997762295907e-06
2.63531049998957e-07
3.81255040581264e-07
5.39986809301593e-06
2.16549549481353e-07
4.37528722063536e-07
5.30438323778646e-06
1.82332504149424e-07
4.74607809888246e-07
5.20323460272579e-06
1.5831053810107e-07
4.98131072179173e-07
5.1276853661617e-06
1.38350703350025e-07
5.09821024138456e-07
4.97531673802077e-06
1.16229457834406e-07
5.01728175576854e-07
4.67480083379447e-06
8.73946606753508e-08
4.69689630268134e-07
4.37936074904285e-06
4.93657571135969e-08
4.31368833468601e-07
2.24715225858281e-06
8.419467304149e-08
1.22173264133274e-08
2.36991599358926e-06
1.65009963355458e-07
1.67804615564077e-08
2.51405317363671e-06
8.94868801662709e-08
2.87414457632159e-08
2.53836441031089e-06
2.46429124578535e-07
1.7627356036389e-08
2.72337218644983e-06
1.76561782220286e-07
3.91958473674571e-08
2.89478385056853e-06
9.73596332173168e-08
5.07676130190845e-08
2.71818660849155e-06
3.2344642962809e-07
2.34909724797228e-08
2.95718030053079e-06
2.60518607522182e-07
4.61234787577378e-08
3.19771676628751e-06
1.94457846937624e-07
6.6193429232318e-08
3.30222586111946e-06
1.03961518079019e-07
7.94003943495012e-08
2.87979053896759e-06
3.95552441330681e-07
2.84400967522588e-08
3.15315610584695e-06
3.42563249372859e-07
5.29491157879155e-08
3.52054569034224e-06
2.88088298775476e-07
7.99379084587031e-08
3.65870333435435e-06
2.0680939079589e-07
9.98297595482277e-08
3.64479623447927e-06
1.06586763284557e-07
1.14614933877477e-07
3.01904674497507e-06
4.62192127535296e-07
3.2206374386207e-08
3.3100625940704e-06
4.17729732873261e-07
6.15620451373301e-08
3.75205590816866e-06
3.73261176416382e-07
9.28194787736488e-08
4.03569622316033e-06
3.03055014291158e-07
1.21991051689062e-07
4.01103617023934e-06
2.08080060910699e-07
1.4144088547231e-07
3.8867358708605e-06
1.04671637493998e-07
1.55556266087556e-07
3.15268983780382e-06
5.22728927572861e-07
3.52552525912239e-08
3.45798177906152e-06
4.80999821014769e-07
7.26551042297175e-08
3.91301335338852e-06
4.44479091501841e-07
1.0886669425742e-07
4.28468644851914e-06
3.8422859203208e-07
1.44599662472531e-07
4.39619847336545e-06
2.98028547888703e-07
1.73775031955348e-07
4.24303269136569e-06
1.99187174332414e-07
1.90562105454016e-07
4.04629512796983e-06
9.93806838006184e-08
2.00884375766566e-07
3.30395117952096e-06
5.71739495065266e-07
4.49626947287587e-08
3.62247289610784e-06
5.28430417617818e-07
8.82862054852325e-08
4.07402566636313e-06
4.96971146076412e-07
1.31051126461741e-07
4.44459028559592e-06
4.43840520053628e-07
1.71820844626335e-07
4.63781020443004e-06
3.66841692681719e-07
2.08327702931932e-07
4.61354827341367e-06
2.76999565975281e-07
2.34431027662896e-07
4.39220935431597e-06
1.83964756156861e-07
2.4530176557699e-07
4.15477466840808e-06
9.22057284937096e-08
2.48765699397713e-07
3.49482549208955e-06
6.0727527813419e-07
5.69866497917702e-08
3.81902579461058e-06
5.59466374947458e-07
1.10750144097689e-07
4.27396743073557e-06
5.2752413180287e-07
1.62095868951726e-07
4.6179427772746e-06
4.77510744037894e-07
2.08709604677997e-07
4.78948709434356e-06
4.07655549279381e-07
2.49153380398783e-07
4.8375311106709e-06
3.28557177711253e-07
2.82113737954622e-07
4.74631315889687e-06
2.47156401440228e-07
3.01539899293208e-07
4.49349100502625e-06
1.65591318800087e-07
3.03052183069573e-07
4.23213359152575e-06
8.40671445122384e-08
2.96843707489235e-07
3.73943247522945e-06
6.28218851965848e-07
7.29158985047994e-08
4.06324878133874e-06
5.70854072287108e-07
1.40651442194389e-07
4.52444507945431e-06
5.32895522547119e-07
2.04068275283922e-07
4.85167129240918e-06
4.81385930599975e-07
2.59336736462384e-07
4.97027397075999e-06
4.15867243854742e-07
3.03634753317389e-07
4.97821208518278e-06
3.4682583894762e-07
3.38115508126029e-07
4.9534365487974e-06
2.79639871517948e-07
3.63028886569752e-07
4.83447622354632e-06
2.13322469744565e-07
3.7197111784444e-07
4.56275377754339e-06
1.45658757712324e-07
3.60757708802011e-07
4.28659859528216e-06
7.53835794732703e-08
3.42238405353038e-07
4.05050451760505e-06
6.33232143015517e-07
9.41463228193699e-08
4.37141315727327e-06
5.5979462600865e-07
1.80563993306789e-07
4.83736955228493e-06
5.089226843999e-07
2.60150293141566e-07
5.15229284260101e-06
4.50601594475931e-07
3.27577733295002e-07
5.22766041839007e-06
3.86590869879207e-07
3.78231801016325e-07
5.15971264160399e-06
3.26620593745573e-07
4.1262174815846e-07
5.08248784492882e-06
2.74227673093661e-07
4.35308132321821e-07
5.02632748553738e-06
2.26291171537536e-07
4.47527500409189e-07
4.89061609675942e-06
1.77715625971682e-07
4.42016452730022e-07
4.60470276236886e-06
1.24923492410258e-07
4.14846190432719e-07
4.31985325756096e-06
6.63794890824175e-08
3.81534363441692e-07
4.44295784034914e-06
6.21084425578816e-07
1.22549141164742e-07
4.76088853737281e-06
5.23191514271228e-07
2.34063963883557e-07
5.230298908672e-06
4.50746101068898e-07
3.35306832543194e-07
5.52867594918641e-06
3.79040929362201e-07
4.19047258165958e-07
5.56229628630894e-06
3.13407551508796e-07
4.79027712302391e-07
5.42681594878634e-06
2.62050150378921e-07
5.14858490963498e-07
5.25824103410946e-06
2.25190759577128e-07
5.31641678616608e-07
5.14177690057073e-06
1.97325557065743e-07
5.36589086359367e-07
5.06586156050637e-06
1.71447175494614e-07
5.31249044883554e-07
4.91591461505263e-06
1.41531953707836e-07
5.07266067529392e-07
4.61987477674919e-06
1.03909513329791e-07
4.611545356352e-07
4.33028090622878e-06
5.71723993241229e-08
4.10865901606382e-07
2.1519125772722e-06
8.47289105841697e-08
1.05104667283007e-08
2.2718767921274e-06
1.67603408042869e-07
1.46302458131773e-08
2.41071916103909e-06
9.07318789900482e-08
2.4819167510823e-08
2.43537499989159e-06
2.52291863849202e-07
1.57073340334203e-08
2.61441279013644e-06
1.8062201653043e-07
3.46045235025255e-08
2.77995810232758e-06
9.97224014866745e-08
4.38445406113697e-08
2.60912019280428e-06
3.34460437663741e-07
2.10348638609662e-08
2.84120314025486e-06
2.69626724222704e-07
4.05393951678855e-08
3.07465911319846e-06
2.01569816944776e-07
5.80431766509264e-08
3.17664915655211e-06
1.07736402717935e-07
6.86077011723397e-08
2.76417070380426e-06
4.13737168187787e-07
2.53288016282271e-08
3.03119576826056e-06
3.59511076939891e-07
4.64586288256075e-08
3.38825239729109e-06
3.02827382649187e-07
7.00471300013285e-08
3.5243560255104e-06
2.17531042549519e-07
8.69711651762789e-08
3.51308404126265e-06
1.11896026586929e-07
9.92163506457121e-08
2.89613924450965e-06
4.90037040321736e-07
2.84225655766128e-08
3.18201528164541e-06
4.45326056701462e-07
5.37242527328469e-08
3.6129770264564e-06
3.99213374043334e-07
8.09026353332928e-08
3.89155844498237e-06
3.2455722832045e-07
1.06327727983772e-07
3.87196202953175e-06
2.22570175083164e-07
1.22920475333261e-07
3.754769607816e-06
1.11577160747474e-07
1.35003827360677e-07
3.02084240107251e-06
5.62836156366649e-07
3.12031008514373e-08
3.32217481808798e-06
5.2267781473311e-07
6.30650295103376e-08
3.76794720455432e-06
4.85499445352362e-07
9.43895791339797e-08
4.13409795163599e-06
4.20853227692072e-07
1.25609296668178e-07
4.24879447590429e-06
3.26326207525357e-07
1.51148711852909e-07
4.10600744440548e-06
2.17394857953443e-07
1.65742928110947e-07
3.91909372480254e-06
1.07922108924755e-07
1.74835287087382e-07
3.15971089596382e-06
6.29096459890241e-07
3.78724659310973e-08
3.47525037247126e-06
5.87923625786026e-07
7.55535849429585e-08
3.92050503069271e-06
5.57589152396162e-07
1.13065441102615e-07
4.28857448866307e-06
5.00362111752196e-07
1.48748420942247e-07
4.48551450553026e-06
4.13980208578068e-07
1.80942948616613e-07
4.47070067622879e-06
3.11724436083209e-07
2.04085162785384e-07
4.26244858487446e-06
2.05843992726621e-07
2.13859537027329e-07
4.03614502128833e-06
1.02373741283738e-07
2.17139946242633e-07
3.33299703795419e-06
6.85261289434305e-07
4.83064048744333e-08
3.65680219047805e-06
6.41180146828096e-07
9.44363943681638e-08
4.10753677945129e-06
6.12581504332516e-07
1.39106151093354e-07
4.45330068033434e-06
5.59418394847378e-07
1.80115055193293e-07
4.63298516404376e-06
4.79178491945044e-07
2.15985197056399e-07
4.69198097703189e-06
3.85402901515643e-07
2.45473644577857e-07
4.61354524558837e-06
2.88035689338054e-07
2.63127758367748e-07
4.37494359060714e-06
1.91064636538156e-07
2.6499017021409e-07
4.12519613822014e-06
9.5804952964418e-08
2.59897810695455e-07
3.55342020083605e-06
7.31613190501147e-07
6.16740936718223e-08
3.87950293648162e-06
6.80559338061295e-07
1.19639133418518e-07
4.33933399582817e-06
6.48787102877552e-07
1.74598029614376e-07
4.67285578242721e-06
5.95268328705188e-07
2.2315330610415e-07
4.80572994772038e-06
5.18265910604187e-07
2.62642773557629e-07
4.83014120282758e-06
4.31961430641626e-07
2.93819132790681e-07
4.82041245249201e-06
3.45564813401353e-07
3.16728530607114e-07
4.71593803061463e-06
2.6010541807394e-07
3.2556369775685e-07
4.4588537044723e-06
1.74547321569091e-07
3.16471938535136e-07
4.19422808902864e-06
8.85943440829753e-08
3.00619463142967e-07
3.83150947219177e-06
7.67871557761531e-07
7.93420900623177e-08
4.15789608589984e-06
7.04250287167043e-07
1.53036594780385e-07
4.62573859215061e-06
6.63365217185398e-07
2.21812305793579e-07
4.95216549546125e-06
6.04605861944468e-07
2.80975419774271e-07
5.04878479390473e-06
5.27779990501525e-07
3.26298972829196e-07
5.00497568539634e-06
4.47323805324056e-07
3.5787315595574e-07
4.94904060396806e-06
3.71820956081247e-07
3.79380752895808e-07
4.91026769514281e-06
3.00729874698962e-07
3.91680337246485e-07
4.79008309834993e-06
2.29986739048141e-07
3.88175794179905e-07
4.5187199852658e-06
1.56929481758918e-07
3.65194420215984e-07
4.2448541076262e-06
8.09208949612894e-08
3.36316247608733e-07
4.17932731600741e-06
7.94070285133446e-07
1.02792146164816e-07
4.50662530191243e-06
7.10707753565663e-07
1.97496020449807e-07
4.98185300746028e-06
6.53235611622965e-07
2.8469673527326e-07
5.29816244514599e-06
5.83195515664645e-07
3.58069303118082e-07
5.36144576332186e-06
5.03114525131034e-07
4.11904180426922e-07
5.25909400436277e-06
4.27182419144225e-07
4.45391212982762e-07
5.12035060840499e-06
3.62238637738701e-07
4.6250061077323e-07
5.02789074551795e-06
3.06291320769914e-07
4.69193213095238e-07
4.97094001015596e-06
2.53572865919715e-07
4.66590846304158e-07
4.83708106311986e-06
1.9865070326528e-07
4.47122451468483e-07
4.55497625147886e-06
1.3862506836367e-07
4.07498981762467e-07
4.27539049298219e-06
7.28656178889593e-08
3.63558747084201e-07
4.61325887240114e-06
8.10888783383461e-07
1.34086619147621e-07
4.94335398249824e-06
6.98536857179484e-07
2.56966545100699e-07
5.4267213440042e-06
6.15003804624026e-07
3.68872378977368e-07
5.72772048073198e-06
5.26049041220174e-07
4.61193851958794e-07
5.74874918746825e-06
4.38468256293329e-07
5.26406715019965e-07
5.58800288120064e-06
3.65838780606311e-07
5.63411364722035e-07
5.37483697643327e-06
3.11842036566016e-07
5.76345542587685e-07
5.19038562149456e-06
2.71934258760969e-07
5.72293112153637e-07
5.07428537786972e-06
2.38851005209837e-07
5.58782312994571e-07
5.00123093426299e-06
2.05611816839123e-07
5.3683114086555e-07
4.85573303974298e-06
1.66872943555359e-07
4.9787704472372e-07
4.56582549048801e-06
1.1992768328931e-07
4.3920527841972e-07
4.28065621873938e-06
6.43859644205993e-08
3.78662563232914e-07
2.05823640220268e-06
8.46595947938794e-08
9.01625706184715e-09
2.17510956523722e-06
1.68773997642484e-07
1.27219006416609e-08
2.30863045064787e-06
9.12244931549076e-08
2.13743728647001e-08
2.33341379835986e-06
2.55659901459366e-07
1.39045165314037e-08
2.50634335830191e-06
1.82912147705288e-07
3.0519194322155e-08
2.66591411896025e-06
1.01083596530228e-07
3.77792861023938e-08
2.50097077153589e-06
3.4168520800882e-07
1.87558280311935e-08
2.7259686620727e-06
2.75817946593753e-07
3.57456902733906e-08
2.95187163794086e-06
2.06251449551637e-07
5.08627957046148e-08