/*--------------------------------*- C++ -*----------------------------------*\
  =========                 |
  \\      /  F ield         | OpenFOAM: The Open Source CFD Toolbox
   \\    /   O peration     | Website:  https://openfoam.org
    \\  /    A nd           | Version:  12
     \\/     M anipulation  |
\*---------------------------------------------------------------------------*/
/*   Windows 32 and 64 bit porting by blueCAPE: http://www.bluecape.com.pt   *\
|  Based on Windows porting (2.0.x v4) by Symscape: http://www.symscape.com   |
\*---------------------------------------------------------------------------*/
FoamFile
{
    format      ascii;
    class       volVectorField;
    location    "0";
    object      U;
}
// * * * * * * * * * * * * * * * * * * * * * * * * * * * * * * * * * * * * * //

dimensions      [0 1 -1 0 0 0 0];

internalField   nonuniform List<vector> 
10123
(
(1.18550785325821e-05 -0.00202568856003849 -3.6692500695624e-07)
(1.04272346875309e-05 -0.00199062274131944 4.4554534777271e-06)
(1.17557456858e-05 -0.00203539347246383 -1.076675989226e-06)
(3.5927388569565e-05 -0.00202356311848692 -3.68904543044992e-07)
(9.13942183444336e-06 -0.00194895021488988 8.56226617312703e-06)
(1.02695605368589e-05 -0.00199890317900464 1.37771211576218e-05)
(3.16548426125712e-05 -0.00198869874569679 4.56638667213938e-06)
(1.18370283976005e-05 -0.00205631263894072 -4.82699906485541e-07)
(3.56251334049156e-05 -0.00203365784284627 -7.38173390811569e-07)
(6.10822015672906e-05 -0.00201885494070093 -1.90914286811952e-07)
(7.98229226929594e-06 -0.00190188021981647 1.20174348695413e-05)
(8.9379617137721e-06 -0.00195596569243547 2.64477407359184e-05)
(2.77941716413621e-05 -0.00194721397371845 8.77383929440861e-06)
(1.02538560837243e-05 -0.00201670853521088 2.48730567573352e-05)
(3.13091510227668e-05 -0.0019973118425603 1.43014595270499e-05)
(5.38645569090984e-05 -0.00198444534556612 4.83314556314041e-06)
(1.19933953626436e-05 -0.00209012189442255 2.810668578393e-06)
(3.59858782647245e-05 -0.00205537173831858 6.3946902314001e-07)
(6.1188903191854e-05 -0.00202928247792179 5.58536036281398e-08)
(8.70756216539089e-05 -0.00201097095254773 1.33763938506527e-07)
(6.94615907633161e-06 -0.00185049920992886 1.48858435066781e-05)
(7.74615716504597e-06 -0.00190774984248572 3.71007264476097e-05)
(2.43222997174614e-05 -0.00190031876319941 1.23146024180472e-05)
(8.88367713234523e-06 -0.0019710593568696 4.66297874474697e-05)
(2.74249587595993e-05 -0.00195452049847801 2.7163774579408e-05)
(4.73140045509113e-05 -0.00194337368794291 9.12178957462471e-06)
(1.05173874474739e-05 -0.00204573146354396 3.93154743036991e-05)
(3.1519463654372e-05 -0.00201576121838683 2.58793376494694e-05)
(5.38338585171787e-05 -0.00199334237475966 1.52682383127054e-05)
(7.6771826239934e-05 -0.00197734743307331 5.3606054342879e-06)
(1.2722523086468e-05 -0.00213760687717815 1.05409294414368e-05)
(3.72783098549093e-05 -0.00209009881334224 4.46388770828689e-06)
(6.21859636554591e-05 -0.00205149938482326 2.11705398509414e-06)
(8.78937934705917e-05 -0.00202146983047654 1.42861150187925e-06)
(0.00011262957661048 -0.00199952917675239 1.21418499549569e-06)
(6.02058325325029e-06 -0.00179576995756569 1.72335437164278e-05)
(6.67971990477909e-06 -0.00185534387758298 4.59415699670164e-05)
(2.12130691949402e-05 -0.00184909889359492 1.52523398866511e-05)
(7.66282783104114e-06 -0.00192036272169159 6.48578478012221e-05)
(2.39397648234981e-05 -0.00190643538122261 3.7977792461099e-05)
(4.1421382574242e-05 -0.00189686832114309 1.27320654547143e-05)
(9.1510921781419e-06 -0.00199541057176981 7.04319138022043e-05)
(2.75235371630373e-05 -0.00197019150346607 4.79007014255347e-05)
(4.72223579877254e-05 -0.00195093119972856 2.82661620663301e-05)
(6.74701326463488e-05 -0.00193694656962772 9.63691798370173e-06)
(1.11436663764523e-05 -0.00208599995996404 5.84417012375787e-05)
(3.26288553628061e-05 -0.00204566601557351 4.0813260401904e-05)
(5.47147107230991e-05 -0.00201225715141662 2.76851474486847e-05)
(7.74151155323311e-05 -0.00198625349638807 1.68796837796248e-05)
(9.93236406026422e-05 -0.00196694417790702 6.11260473485291e-06)
(1.37748878738552e-05 -0.00219840865264539 2.44614654506728e-05)
(3.96555480988611e-05 -0.00213797644728633 1.23403857134691e-05)
(6.52784234734542e-05 -0.00208663417323403 6.89866166215896e-06)
(9.02136476172846e-05 -0.00204374126606735 4.5876096656471e-06)
(0.000114206834360883 -0.00200975309880515 4.26254202833795e-06)
(0.000136079632429714 -0.00198460484851814 2.34537757630157e-06)
(5.19635739401476e-06 -0.00173853577016113 1.91212293538451e-05)
(5.72330383187595e-06 -0.00179970680421329 5.31839545227163e-05)
(1.84380714865849e-05 -0.0017945174287298 1.76517268492464e-05)
(6.56023427897516e-06 -0.00186575203453828 7.9970050087722e-05)
(2.08198344428557e-05 -0.00185414538419951 4.69395554996985e-05)
(3.6147781779708e-05 -0.00184601141501828 1.5726590067067e-05)
(7.91333655728896e-06 -0.00194063988480377 9.64370666308192e-05)
(2.39470733545168e-05 -0.00191952418627753 6.63331991579136e-05)
(4.12893392484984e-05 -0.00190319925368465 3.91913125951694e-05)
(5.91101698850897e-05 -0.0018910971930162 1.32406477683213e-05)
(9.72802484767375e-06 -0.00202929265203046 9.88303674889818e-05)
(2.84474617761525e-05 -0.00199520458823297 7.21608089735822e-05)
(4.79064115469651e-05 -0.00196698052276182 4.9831371342705e-05)
(6.79666719103115e-05 -0.00194455394069439 2.98312051235838e-05)
(8.73333292920112e-05 -0.00192760034000106 1.02872522914199e-05)
(1.20346644566172e-05 -0.00213738511697425 8.33574115970864e-05)
(3.46227642409785e-05 -0.00208622079304158 6.03546271467619e-05)
(5.70620357989303e-05 -0.00204245788910937 4.34840377527078e-05)
(7.93706656173169e-05 -0.00200532431253776 3.05170358375287e-05)
(0.000100671561829234 -0.00197568869807381 1.91495884020732e-05)
(0.000120093648901857 -0.00195340675674855 7.04484051869971e-06)
(1.51021423913678e-05 -0.00227142358879134 4.61028315166765e-05)
(4.29170101954794e-05 -0.00219832446559761 2.6647616134339e-05)
(6.95206660732015e-05 -0.00213441152388185 1.58338037858265e-05)
(9.50213964830259e-05 -0.00207864016110959 1.08146568998652e-05)
(0.000117997677922676 -0.0020315369923653 9.15710706426161e-06)
(0.000138350991630326 -0.00199434924191395 7.6665611374207e-06)
(0.000156076497421538 -0.0019666850401494 3.65274338408081e-06)
(4.46602204832564e-06 -0.0016795321866025 2.06011997972029e-05)
(4.86573967353452e-06 -0.00174166931598845 5.90201849733875e-05)
(1.59697851186882e-05 -0.00173741957486904 1.95741614657785e-05)
(5.5356878725392e-06 -0.00180817759682081 9.24033479187058e-05)
(1.80304723577467e-05 -0.00179861161984233 5.42469261364615e-05)
(3.14476389203587e-05 -0.00179176480213286 1.81698515796705e-05)
(6.73586364387696e-06 -0.0018825174128318 0.000118007985250551)
(2.07372315517076e-05 -0.00186491264626625 8.15595049108325e-05)
(3.59859259016779e-05 -0.00185123541018335 4.82387630551734e-05)
(5.16319687645699e-05 -0.00184085477000154 1.62295922009754e-05)
(8.4221328708364e-06 -0.00196886234391769 0.000132454838754458)
(2.47013043368151e-05 -0.00194029344389275 9.8321479918697e-05)
(4.18030711727057e-05 -0.00191659995251192 6.83655326727902e-05)
(5.94854130514264e-05 -0.0018974725629489 4.07138989455338e-05)
(7.65610807496283e-05 -0.00188271911345207 1.37991701297383e-05)
(1.04904297576844e-05 -0.00207224256061262 0.000132698129468082)
(3.01398299120565e-05 -0.00202933066435197 0.000100860635448967)
(4.98079098860231e-05 -0.0019922801944793 7.48837676951814e-05)
(6.95557490899202e-05 -0.0019606626384071 5.24817144014282e-05)
(8.84365403008944e-05 -0.00193501527326341 3.18121204009414e-05)
(0.000105646057520123 -0.00191540164933516 1.10475641587364e-05)
(1.31079980126994e-05 -0.00219874742009072 0.000115407755609137)
(3.73272687809844e-05 -0.00213720710185928 8.55409146005099e-05)
(6.06653097636914e-05 -0.00208295211991014 6.37574267146474e-05)
(8.31667290954784e-05 -0.00203514437150445 4.75224159785938e-05)
(0.000103770883030221 -0.00199433131800626 3.4412320979572e-05)
(0.000121974450482622 -0.0019617551617547 2.19785034624805e-05)
(0.000137798763809034 -0.00193714953208208 8.11490413752877e-06)
(1.6638472124713e-05 -0.00235533976591544 7.70146201611826e-05)
(4.69348861358245e-05 -0.00227028591695585 4.85721680974682e-05)
(7.5239628828514e-05 -0.00219394679936054 3.09842969098119e-05)
(0.000101484179884056 -0.00212562505920035 2.15748882551792e-05)
(0.000124352641136407 -0.00206556468852381 1.72900241591414e-05)
(0.000143233113485536 -0.00201525592878537 1.49635508126454e-05)
(0.000158745451379008 -0.00197590225193946 1.16546361849346e-05)
(0.000171554617328024 -0.00194645945252057 5.09650057234778e-06)
(3.82092529918225e-06 -0.00161939740004842 2.17244977098609e-05)
(4.10533545482071e-06 -0.00168195795246648 6.35977126816893e-05)
(1.37838180926592e-05 -0.00167854124570044 2.1077395043234e-05)
(4.56723482873538e-06 -0.00174841971788143 0.000102527426254115)
(1.55427962328672e-05 -0.00174067339734117 6.00877967376746e-05)
(2.7274519293416e-05 -0.00173497442554638 2.01247071280333e-05)
(5.68335500157142e-06 -0.00182195772241075 0.000135796473671394)
(1.78347988985159e-05 -0.00180731204930472 9.38980411241181e-05)
(3.12627789110394e-05 -0.00179600203373051 5.56067305786193e-05)
(4.49711282921526e-05 -0.00178717606895092 1.86676036742363e-05)
(7.34473510443217e-06 -0.00190584488769332 0.000160151472227414)
(2.12895388041237e-05 -0.00188188059076899 0.000119804994386725)
(3.63577848324746e-05 -0.00186225276378378 8.366584392997e-05)
(5.19091441890586e-05 -0.00184611351104731 4.97248194378174e-05)
(6.69257506064507e-05 -0.00183337552877247 1.6710650947898e-05)
(9.08637403109542e-06 -0.00200426607247981 0.000173511093675051)
(2.6113480714191e-05 -0.00196852251133421 0.000134562406732987)
(4.33607611952e-05 -0.00193760747999872 0.000101086780664937)
(6.0766228986205e-05 -0.00191091505564206 7.0874782592316e-05)
(7.74525632318729e-05 -0.00188892088123486 4.24477859052462e-05)
(9.26570490865923e-05 -0.00187177987621869 1.44133144589678e-05)
(1.1357810622924e-05 -0.00212320383152127 0.000173087788108829)
(3.238854415924e-05 -0.00207194686208005 0.00013487694437796)
(5.28064046149508e-05 -0.00202633744380838 0.000104169726028035)
(7.26476740570316e-05 -0.00198577237928753 7.85584986536376e-05)
(9.09739747558137e-05 -0.00195077619284245 5.58428839950279e-05)
(0.000107192633375411 -0.00192247077359469 3.41557669667752e-05)
(0.000121265831111199 -0.00190073975494732 1.19172968357894e-05)
(1.43290741900208e-05 -0.00226878464127277 0.000155935514465116)
(4.05976514279329e-05 -0.00219767677591045 0.000117715699728674)
(6.53736742108555e-05 -0.00213325797626782 8.95052999914143e-05)
(8.85645265460228e-05 -0.0020750537766328 6.88668642207245e-05)
(0.000108983015353097 -0.00202337792485766 5.30242321738693e-05)
(0.00012600075914826 -0.00197965196337941 3.92398275578337e-05)
(0.000140007149349521 -0.00194505270108653 2.52606006697765e-05)
(0.000151521847497802 -0.00191878942391331 9.30575688045554e-06)
(1.83558625024292e-05 -0.00244897331544427 0.000118858302695507)
(5.16101172572397e-05 -0.00235299915987199 7.96563766285204e-05)
(8.21833486110241e-05 -0.00226455438933931 5.36008017815108e-05)
(0.00010982065406413 -0.00218374663560596 3.81019702789034e-05)
(0.000133042449496364 -0.00211113872309697 2.99234735051305e-05)
(0.000151039811651107 -0.00204794416477677 2.55413104202792e-05)
(0.000164421993157498 -0.00199574442120169 2.1766036163411e-05)
(0.00017445917528278 -0.00195514796645813 1.60828925598776e-05)
(0.000181897701228009 -0.00192465723810568 6.64521053614184e-06)
(3.25100870101004e-06 -0.00155867757965741 2.25418515624406e-05)
(3.4342744928605e-06 -0.00162120956131126 6.70718747907291e-05)
(1.18532671910258e-05 -0.00161851881657019 2.2215979062e-05)
(3.69890576311252e-06 -0.00168717886367608 0.000110473707426852)
(1.33377677525629e-05 -0.00168105906712352 6.464819022102e-05)
(2.35827311473329e-05 -0.00167637672258337 2.16509040649435e-05)
(5.05413020442098e-06 -0.00175949354105522 0.000150086328024188)
(1.52041687294047e-05 -0.00174755628628088 0.000103645062648426)
(2.70720092631296e-05 -0.00173834111035159 6.14882069613596e-05)
(3.9061772577151e-05 -0.00173090624434081 2.06170006435127e-05)
(6.70367392577766e-06 -0.00184076573458068 0.000182756835450619)
(1.82865468861754e-05 -0.00182083869317849 0.000137088804877259)
(3.15182870379814e-05 -0.00180489871364528 9.60777960047562e-05)
(4.51706119771293e-05 -0.00179143852467507 5.70623361697412e-05)
(5.83448617102546e-05 -0.00178052660050241 1.90843596083219e-05)
(7.84208380257296e-06 -0.00193459758059038 0.00020670633641182)
(2.26786311985769e-05 -0.00190476775085989 0.000162182920317896)
(3.76396936117434e-05 -0.00187943614160147 0.000122635533399717)
(5.29389699105604e-05 -0.00185716460922955 8.60631544606399e-05)
(6.76416067290262e-05 -0.00183848366079102 5.12533688375746e-05)
(8.10355186275066e-05 -0.00182361030350874 1.72027090027114e-05)
(9.81148306679175e-06 -0.00204594009903562 0.000220476023155419)
(2.7993775389607e-05 -0.00200369066377282 0.000175701656713832)
(4.5852037853154e-05 -0.00196581490300119 0.000137788286820378)
(6.33034825800962e-05 -0.00193178914686456 0.000104472443946755)
(7.9525348542888e-05 -0.00190207162032411 7.37995269873585e-05)
(9.39219713067512e-05 -0.00187768517009907 4.43844933285058e-05)
(0.000106393314713876 -0.00185862542721959 1.51148992747484e-05)
(1.23228215246156e-05 -0.00218096480651852 0.000221122882251455)
(3.50483838469944e-05 -0.00212218082543171 0.000175260397006931)
(5.66737822399283e-05 -0.00206838042408241 0.000138529588360695)
(7.70987044543042e-05 -0.00201928896997322 0.000108702878113189)
(9.52497510500829e-05 -0.0019752614558686 8.32570811948552e-05)
(0.000110503328089587 -0.00193760416605121 5.98537773097415e-05)
(0.000123085868776332 -0.00190743169515596 3.68441294771003e-05)
(0.000133389290847374 -0.0018841708140891 1.28951475615019e-05)
(1.56925637997412e-05 -0.00234630285721936 0.000206352298663179)
(4.43653946178326e-05 -0.00226670825464547 0.000158265315914727)
(7.10262676616103e-05 -0.00219259513172518 0.000122095323042802)
(9.54027874088127e-05 -0.00212419383523137 9.55903496920947e-05)
(0.000116139452198604 -0.00206211865521882 7.58902445428898e-05)
(0.00013243572310287 -0.0020075633624784 5.98719242919765e-05)
(0.000144698858302342 -0.00196204880285635 4.48515102140617e-05)
(0.00015392768899909 -0.00192624641185804 2.89133405985895e-05)
(0.000160719862823876 -0.00189898425328391 1.05895687581619e-05)
(2.02467140372665e-05 -0.00255121052602885 0.000173466315630302)
(5.68865149208329e-05 -0.00244554521745576 0.000121624905383009)
(9.0246571727522e-05 -0.00234566635534746 8.52742013423197e-05)
(0.000119829482165532 -0.00225247384053291 6.19371772304296e-05)
(0.000143920745666692 -0.00216729353619305 4.83129269697352e-05)
(0.000161604429664809 -0.00209164083627869 4.05991271543524e-05)
(0.000173373919245026 -0.00202680594939867 3.52306806797452e-05)
(0.000180668791386073 -0.00197384042959319 2.9329465283716e-05)
(0.00018493677572881 -0.00193280437802955 2.08210715526353e-05)
(0.000186797963763871 -0.00190198942423558 8.25087644670501e-06)
(2.74580505221433e-06 -0.00149783116214322 2.31028556902058e-05)
(2.83624843857393e-06 -0.00155996892628037 6.9607314047113e-05)
(1.015154955465e-05 -0.00155789734795262 2.30365288177545e-05)
(2.9309226763188e-06 -0.00162510983474756 0.000116494685470445)
(1.13906590385344e-05 -0.00162039541572052 6.80930858898065e-05)
(2.03281861688125e-05 -0.00161660796812606 2.28044284414157e-05)
(4.44432282760436e-06 -0.00169573692038677 0.000161209757732114)
(1.28627807007855e-05 -0.00168635914608487 0.000111212039715574)
(2.33669565472096e-05 -0.00167898168388025 6.60709973012785e-05)
(3.38379069488205e-05 -0.00167278243325878 2.21372883167082e-05)
(6.00382640344003e-06 -0.00177417079011707 0.00020057713688095)
(1.60110123080908e-05 -0.00175810520531871 0.000150825277889921)
(2.7236733948517e-05 -0.00174537353536983 0.00010593821828646)
(3.92005188761311e-05 -0.00173428881231417 6.29187072181903e-05)
(5.07332688943137e-05 -0.00172501676094409 2.09808507624161e-05)
(7.14246543940847e-06 -0.00186371452361759 0.000233215982346698)
(2.00775480981254e-05 -0.00183915274653601 0.000184401609984673)
(3.26243711689505e-05 -0.00181868694067161 0.000140042395370041)
(4.60009972174988e-05 -0.00180036334880852 9.8395837079024e-05)
(5.89171766933611e-05 -0.00178465917533298 5.84225466798873e-05)
(7.06837395253277e-05 -0.00177184613397783 1.94753066556028e-05)
(8.39303251016362e-06 -0.00196794363086682 0.000258739192736301)
(2.41526845246664e-05 -0.00193332700604918 0.000209066619076947)
(3.97801998389334e-05 -0.00190241197380246 0.000165342299347879)
(5.50331309424501e-05 -0.00187425618693134 0.000125800602053603)
(6.93330180593835e-05 -0.0018492911218911 8.86314129136895e-05)
(8.20661130925957e-05 -0.00182846695902562 5.28522418901399e-05)
(9.30809840083101e-05 -0.00181186395610913 1.77642180563789e-05)
(1.05790871658469e-05 -0.00209289500203889 0.000274266329130228)
(3.01822406569882e-05 -0.00204491388184533 0.00022255722880796)
(4.90228964453844e-05 -0.0020004920966043 0.000179093753939756)
(6.69670100217448e-05 -0.00195955642490827 0.000141837191320351)
(8.30337776731191e-05 -0.00192243693617135 0.000108511054485685)
(9.66370078366516e-05 -0.00189030954030609 7.71327816368904e-05)
(0.000107887708225199 -0.00186421305901646 4.65763726202742e-05)
(0.000117068234492015 -0.00184375204303263 1.5914309135464e-05)
(1.34001819854512e-05 -0.0022443679065578 0.000277988275950069)
(3.80776999583026e-05 -0.0021791171349382 0.000223195755974862)
(6.12650304593978e-05 -0.00211767459456943 0.000179105244572247)
(8.26915024943721e-05 -0.00206035550911976 0.000143756028353146)
(0.000101124222198566 -0.00200780001100726 0.00011462081893593)
(0.00011579261648944 -0.00196114317570582 8.89347404920482e-05)
(0.000126950397314052 -0.00192180756855721 6.446735368336e-05)
(0.000135374542392022 -0.0018904880178383 3.98443476776744e-05)
(0.000141537677018498 -0.0018662861894923 1.39555759398846e-05)
(1.71946842141377e-05 -0.0024301629467209 0.00026819802365205)
(4.85977645460962e-05 -0.00234332822738593 0.00020868255323796)
(7.75461850701259e-05 -0.00226029967562334 0.000162988508957571)
(0.000103551622011584 -0.0021819734231047 0.0001290494384825)
(0.000125048741631489 -0.00210962801219182 0.000104055971751838)
(0.00014112601540609 -0.00204473547148638 8.47045786842344e-05)
(0.000152086817331316 -0.00198859023541611 6.78591015678253e-05)
(0.000159065811479816 -0.00194227135355727 5.10931790442081e-05)
(0.000163239562122513 -0.00190598411215634 3.28337053871045e-05)
(0.000165115532323231 -0.00187837748952762 1.1922555936617e-05)
(2.23015812304531e-05 -0.00266075784778475 0.00024283612796054)
(6.27254237783408e-05 -0.00254685190477421 0.000176360238865039)
(9.93705749105409e-05 -0.00243654397839037 0.000127775162693139)
(0.00013144234778997 -0.00233140953982762 9.47454574305079e-05)
(0.00015690040646579 -0.0022335813805376 7.39405500990248e-05)
(0.000174724549987918 -0.00214536858042812 6.13717246787251e-05)
(0.000185427959471384 -0.00206828767167638 5.31584488852583e-05)
(0.000190435316482779 -0.00200309979892356 4.60109999845394e-05)
(0.000191459250571584 -0.00195029589706979 3.74160230239106e-05)
(0.000189883862652254 -0.00190957983602577 2.57219195199552e-05)
(0.000186160595448633 -0.00187914358619835 9.85918386426997e-06)
(2.30192931568113e-06 -0.00143724415534511 2.34370501900453e-05)
(2.28793830908377e-06 -0.00149867497808589 7.13877967916155e-05)
(8.65159951677466e-06 -0.00149713981332995 2.35817703422607e-05)
(2.26357755752239e-06 -0.00156278632912697 0.000120853408432214)
(9.6686171949658e-06 -0.00155921650529556 7.0563834217151e-05)
(1.74661558955739e-05 -0.0015562137918742 2.36327549002824e-05)
(3.88949892680551e-06 -0.00163144907412915 0.000169571280232376)
(1.07933908562348e-05 -0.00162431376991132 0.000116895409628767)
(2.01020053075333e-05 -0.00161854926743242 6.95235171555802e-05)
(2.92352526188462e-05 -0.00161344214947305 2.32831261363976e-05)
(5.34226619706331e-06 -0.00170691098986088 0.000214294470751441)
(1.39455997161716e-05 -0.00169441014106616 0.000161450596932816)
(2.34558904325824e-05 -0.00168438973561865 0.000113589257500795)
(3.39290197116449e-05 -0.00167539400258609 6.74765724099945e-05)
(4.40062988830535e-05 -0.00166758407324957 2.24571732274028e-05)
(6.38401917803004e-06 -0.00179204411861386 0.000254109272003846)
(1.76469579390659e-05 -0.00177252635630273 0.000202019296965268)
(2.83041536944055e-05 -0.00175619759196515 0.000153843634266553)
(3.98755659408965e-05 -0.00174134098281468 0.000108208023970418)
(5.11895272414882e-05 -0.00172828680238491 6.41415570054759e-05)
(6.15006610965835e-05 -0.00171733031977095 2.12887917397311e-05)
(7.12267697547988e-06 -0.00188998910778121 0.000288888862117813)
(2.13187623723239e-05 -0.0018618918304585 0.000235953787500318)
(3.45906254170144e-05 -0.00183707776147189 0.000187527715768871)
(4.77551478873425e-05 -0.00181410339059578 0.000143056441344859)
(6.0298850932217e-05 -0.0017933813439956 0.000100676697961942)
(7.15210452614495e-05 -0.00177576655719583 5.97431940588982e-05)
(8.12191345948559e-05 -0.00176140235273688 1.99211173001113e-05)
(9.05388485250398e-06 -0.00200537358697544 0.000316888615117103)
(2.58630070876271e-05 -0.00196674093852416 0.000260905445680424)
(4.23590233934164e-05 -0.00193056801769118 0.000212189777580671)
(5.80679001279054e-05 -0.00189690048285741 0.00016899842162995)
(7.22148547289073e-05 -0.00186596991921882 0.00012930187086198)
(8.42884451620749e-05 -0.00183883506561459 9.14054956233094e-05)
(9.43041060551011e-05 -0.00181645478434924 5.46316373514122e-05)
(0.000102451971990908 -0.0017985767349216 1.84149584515584e-05)
(1.14288606757106e-05 -0.00214400060836392 0.000335848668544605)
(3.26255538263415e-05 -0.00209123732228136 0.000276136065572651)
(5.27435633262689e-05 -0.00204091367175862 0.000225964111180243)
(7.15293589027313e-05 -0.00199342024295313 0.000183607039963106)
(8.78469788304906e-05 -0.0019493978629468 0.000146839748422881)
(0.000100975876988798 -0.00190989058593065 0.000113219595443881)
(0.000111061420344403 -0.00187620362733022 8.09148131729419e-05)
(0.000118700774217954 -0.00184902669610354 4.90306354044213e-05)
(0.000124261159074335 -0.00182768831083348 1.6787391562269e-05)
(1.4590468573187e-05 -0.00231229375104126 0.000344974877991352)
(4.14654845601911e-05 -0.0022417870434233 0.000279964127396555)
(6.6525622412172e-05 -0.00217352162734533 0.000227188780969039)
(8.93095003989153e-05 -0.00210836065958234 0.000184924109898692)
(0.000108401781354091 -0.00204751393336534 0.000150779784212021)
(0.000122920292523204 -0.00199237662198535 0.000121888641311517)
(0.00013302784960902 -0.00194420107138861 9.54997645394539e-05)
(0.000139610813276632 -0.0019040483334079 6.95992590625815e-05)
(0.000143618685457506 -0.00187221976517411 4.30754688965264e-05)
(0.000145462443393709 -0.00184766514691966 1.50581027310425e-05)
(1.88239348929924e-05 -0.00251907105343485 0.000343122313832726)
(5.32619711678619e-05 -0.00242643153549108 0.00027055936552997)
(8.48860041523543e-05 -0.002335553887648 0.000213728410692243)
(0.000112955930810461 -0.00224788815893864 0.00017075329274062)
(0.000135625019120024 -0.00216539305560545 0.000138885697858996)
(0.000151875760892191 -0.00209022849133009 0.000114766865634988)
(0.000162008155562876 -0.0020239088529826 9.50259470142308e-05)
(0.000167133584675407 -0.00196729550155154 7.67439173808569e-05)
(0.000168642088893018 -0.00192099410708503 5.77779914557266e-05)
(0.000167676659364671 -0.00188490608513165 3.6896065930239e-05)
(0.000164618425404311 -0.00185759327234217 1.32580157737087e-05)
(2.45013932772153e-05 -0.00277590459420211 0.000329051055223735)
(6.90810018522949e-05 -0.00265556860898439 0.000245871425520217)
(0.000109495244111263 -0.00253616496957451 0.000183007901463911)
(0.000144606132105906 -0.00241989144822417 0.000138319065195828)
(0.000171960201986614 -0.00230967135855813 0.000108477377807313)
(0.000190346677574315 -0.00220869380108944 8.9327150962578e-05)
(0.000200363020751638 -0.00211920819554461 7.67467632087675e-05)
(0.000203566007548835 -0.00204212824397992 6.71344620707649e-05)
(0.000201715346681227 -0.00197764636595118 5.75297467971821e-05)
(0.000196515310375332 -0.0019258446555012 4.57717262945105e-05)
(0.000189206876553705 -0.00188617767389876 3.06317844934703e-05)
(0.000180061806040932 -0.00185678828295292 1.14182414619993e-05)
(1.91450375361703e-06 -0.00137724304196766 2.3576212210256e-05)
(1.80328708862157e-06 -0.00143769707161494 7.24645848719415e-05)
(7.33594585326966e-06 -0.00143663603329032 2.38940466932363e-05)
(1.84158012811136e-06 -0.00150055797206143 0.000123811055005227)
(8.13558107251489e-06 -0.0014979813279338 7.21648819207888e-05)
(1.49560811302636e-05 -0.00149565957006799 2.41805299794329e-05)
(3.38661338295528e-06 -0.00156716329314813 0.000175545019747364)
(8.98312653264203e-06 -0.00156190633614683 0.000120958909327072)
(1.72327657814839e-05 -0.0015575788221326 7.1993482822106e-05)
(2.51923866165624e-05 -0.00155343303479302 2.41034016734277e-05)
(4.74023405554816e-06 -0.00163961545877739 0.0002244715040055)
(1.20992211626673e-05 -0.00163022755333726 0.00016938611705149)
(2.01271574043537e-05 -0.0016225445834004 0.000119325020334109)
(2.92891313181006e-05 -0.00161538185943643 7.09025945957033e-05)
(3.80810127142441e-05 -0.00160886843470935 2.35665272794919e-05)
(5.66893629575177e-06 -0.00172038270887297 0.000270044128383243)
(1.54493675383715e-05 -0.00170538153163487 0.00021556876250063)
(2.4501462189591e-05 -0.00169265355978464 0.000164505681855182)
(3.44801833238903e-05 -0.0016808094484095 0.000115817128823536)
(4.43686803489042e-05 -0.00167009724975143 6.85858691968262e-05)
(5.33844239125964e-05 -0.00166080182758835 2.26971706961381e-05)
(6.35706351506463e-06 -0.00181239276346806 0.000312229775822158)
(1.86889839414106e-05 -0.00179020961182656 0.000256960620566603)
(3.0040402740976e-05 -0.00177060439793813 0.000205041743200043)
(4.13785574568723e-05 -0.00175214000490588 0.000156734999018785)
(5.23214180027436e-05 -0.00173516876805721 0.000110258113342417)
(6.21793070898244e-05 -0.00172042174040298 6.52342446180015e-05)
(7.06936237993603e-05 -0.00170808123504056 2.16393371075717e-05)
(7.6890585764247e-06 -0.00191901390898315 0.000350309770354453)
(2.20960812583344e-05 -0.00188835147737945 0.000291562330350588)
(3.67048047485483e-05 -0.00185950030181672 0.000238732527138793)
(5.03038277848737e-05 -0.00183223022375558 0.000190878391139868)
(6.2674366501318e-05 -0.0018067891928762 0.000146125541921427)
(7.3338437799616e-05 -0.00178412341716463 0.000102992294351187)
(8.22176668959518e-05 -0.00176510147450666 6.11819545500166e-05)
(8.9422771755323e-05 -0.00174958413430252 2.04488196478767e-05)
(9.73347946771558e-06 -0.00204580892174441 0.00038179574374071)
(2.78894136566049e-05 -0.00200385291568961 0.000318635078786342)
(4.53216300459456e-05 -0.00196321490164736 0.000263925052014211)
(6.17792987100581e-05 -0.00192438621494899 0.000216100506700172)
(7.61590035829537e-05 -0.00188795856274215 0.000173249200772265)
(8.78432006576034e-05 -0.00185486708593341 0.000133212394776582)
(9.69040722901977e-05 -0.00182629523961884 9.44985643061284e-05)
(0.000103790386295349 -0.00180290765830797 5.66316105613183e-05)
(0.000108780717970692 -0.00178421881669084 1.9131749351611e-05)
(1.23701478490515e-05 -0.00219817374793567 0.000406304724251121)
(3.53366659756239e-05 -0.00214175880069599 0.000337539227628203)
(5.69819902016705e-05 -0.00208635128980925 0.000279537083333705)
(7.68878279896882e-05 -0.0020327685050872 0.00023084999504181)
(9.37768914063955e-05 -0.00198214410553916 0.000189441250730855)
(0.000106808040280339 -0.00193577227106754 0.0001528283567939)
(0.000116047203600462 -0.00189483214712664 0.000118603027881064)
(0.000122182258269093 -0.00186033604391153 8.51201807349751e-05)
(0.000125973782321327 -0.00183264285742609 5.1684147517219e-05)
(0.000127750455945958 -0.00181095296001665 1.76962571573795e-05)
(1.58809659032876e-05 -0.00238349146102432 0.000423446313946252)
(4.51863031184881e-05 -0.00230910125271335 0.000346908965134776)
(7.24202387711571e-05 -0.00223508056423 0.00028411676611147)
(9.69089276422647e-05 -0.00216274116522291 0.000233563405808648)
(0.000116998405847989 -0.00209385872251324 0.000192982024219535)
(0.000131703707084437 -0.00203042111560743 0.000159550484045149)
(0.000141168483745982 -0.00197389143664224 0.00013034813515688)
(0.000146252343182471 -0.00192517184659249 0.000102798062387236)
(0.000148076722668191 -0.00188492743542306 7.51049528012669e-05)
(0.000147579421578919 -0.00185320229284938 4.64297252844579e-05)
(0.000145078603656179 -0.00182887086481866 1.61624100290004e-05)
(2.05601529478457e-05 -0.00261138999282845 0.000432799509078394)
(5.83131230714716e-05 -0.00251467362135049 0.00034555034634885)
(9.29887754469785e-05 -0.00241729317186576 0.0002759218698895)
(0.000123562432329481 -0.00232119089851469 0.000222263876752724)
(0.000147837622058788 -0.00222897390855681 0.000181903574767692)
(0.00016462076050443 -0.00214354629656169 0.000151426324082439)
(0.000174257865835475 -0.00206706543469964 0.000127350077887161)
(0.000177952345703327 -0.00200055773270275 0.000106513270498227)
(0.000177123262579206 -0.00194440884541544 8.62489696016065e-05)
(0.000173175403637282 -0.00189887752703455 6.46953971728085e-05)
(0.000167149355871318 -0.00186364968096353 4.09706343535344e-05)
(0.000159289105928679 -0.00183724015916626 1.45524709023565e-05)
(2.68158047952566e-05 -0.00289438151286595 0.000434165390967562)
(7.58857968039183e-05 -0.00276991365137239 0.000332226308206609)
(0.000120535768795559 -0.00264315420964571 0.000252976239482922)
(0.000159236915627977 -0.00251690391887466 0.000194551906531206)
(0.000189046250391506 -0.0023949140200976 0.000153700963790271)
(0.000208468998579971 -0.00228128570666313 0.000126122782123393)
(0.000218130641089356 -0.00217911869324792 0.000107453974645788)
(0.000219820308099709 -0.00208995326135577 9.38522683321782e-05)