/*--------------------------------*- C++ -*----------------------------------*\
  =========                 |
  \\      /  F ield         | OpenFOAM: The Open Source CFD Toolbox
   \\    /   O peration     | Website:  https://openfoam.org
    \\  /    A nd           | Version:  12
     \\/     M anipulation  |
\*---------------------------------------------------------------------------*/
/*   Windows 32 and 64 bit porting by blueCAPE: http://www.bluecape.com.pt   *\
|  Based on Windows porting (2.0.x v4) by Symscape: http://www.symscape.com   |
\*---------------------------------------------------------------------------*/
FoamFile
{
    format      ascii;
    class       volScalarField;
    location    "200";
    object      k;
}
// * * * * * * * * * * * * * * * * * * * * * * * * * * * * * * * * * * * * * //

dimensions      [0 2 -2 0 0 0 0];

internalField   nonuniform List<scalar> 
10140
(
0.000246137811768287
0.000246410546698382
0.000246885398932566
0.000693053520082608
0.00024668160375089
0.000247217573832835
0.000693392244392
0.000247879379378749
0.000693330513082304
0.00101292081434677
0.000246896822052544
0.000247516872320256
0.000693681259230636
0.000248291330808854
0.000693704797150813
0.00101321180417846
0.000246324845475294
0.000692186465214917
0.00101219631686442
0.00126929602397791
0.000247055129431349
0.000247740287057353
0.000693876737445101
0.000248620796315625
0.000694008352860455
0.00101338948546971
0.000246784261044659
0.000692601067564714
0.00101251357482969
0.00126953306724
0.000241380778351268
0.000686186474614478
0.00100730196732957
0.00126777584028346
0.00149006053605832
0.000247171595797239
0.000247902635176209
0.000693959820051012
0.000248842548299702
0.000694208967208073
0.00101344365071598
0.000247140109162461
0.000692919132268518
0.00101270056555343
0.00126959101861395
0.000241861782661308
0.000686628820992042
0.001007638427037
0.00126804006569771
0.00149024538876658
0.000233913169669935
0.00067324799474132
0.00099598321353261
0.00125989527750926
0.00148749596001877
0.00168666775723911
0.000247252517800095
0.00024802209992662
0.000693921113602858
0.000248996353859451
0.000694294534699653
0.00101334534818431
0.000247364998088159
0.000693120630680966
0.00101275733272142
0.00126948417543598
0.000242232935994184
0.00068696140121015
0.00100783439440931
0.00126810564033243
0.00149019019346553
0.000234396605049657
0.000673703055374495
0.000996326611323256
0.0012601768019783
0.00148771161167084
0.00168680151812801
0.000224981732618031
0.000653996117070927
0.000976676685790433
0.00124392544749402
0.00147690978629383
0.00168285549891866
0.00186480151279019
0.000247296219894728
0.00024810661264934
0.000693744975616922
0.000249106497218161
0.000694257184146658
0.00101306527729349
0.000247517622341292
0.000693203055931842
0.00101265905401192
0.00126918237619145
0.00024246084830939
0.000687165158841245
0.00100789213812274
0.00126799982834495
0.00148992450771764
0.000234777065072496
0.000674045213992454
0.000996527532813413
0.001260249380583
0.00148766465842802
0.00168663980057618
0.000225459377368706
0.000654452099795613
0.00097701651242879
0.00124420931840421
0.0014771448489254
0.00168302422268444
0.00186488568005249
0.000214997222261212
0.000630072528254392
0.000949731986096324
0.00121899580755848
0.0014567822255088
0.00166965694153797
0.00185992851163221
0.00202783772153324
0.000247292028593041
0.0002481533207048
0.000693404569861561
0.000249180397401696
0.000694081649400367
0.00101256755921933
0.000247627615941261
0.000693160306740207
0.00101237773456365
0.00126864528944311
0.000242612269125508
0.000687244053839771
0.00100779028902295
0.00126769665638701
0.00148941879513997
0.000235011574577488
0.000674250711748388
0.000996584160637035
0.00126014309933274
0.00148740004266695
0.00168622156479306
0.000225843585243088
0.00065479966187254
0.000977216822371233
0.00124428316760081
0.00147710554399296
0.00168287211076527
0.00186462266284974
0.000215462485757035
0.000630520922690208
0.000950060531344984
0.00121927063911129
0.00145701889958778
0.0016698480255818
0.00186005183519068
0.00202787631136076
0.000203949529802799
0.000602506556176484
0.00091637783922691
0.00118561645293104
0.00142676896885822
0.0016457803423127
0.00184450958837317
0.00202225930951801
0.00217806707573636
0.000247218545046965
0.000248146860961168
0.000692860097324737
0.000249221588313513
0.000693741297709318
0.00101180447347799
0.000247700868072658
0.00069297741551248
0.00101187782874033
0.00126782241505503
0.000242721350766425
0.000687194514218785
0.00100750229559958
0.00126715701249741
0.00148862633743445
0.000235163532542552
0.000674325518741772
0.000996476162165475
0.00125983501057941
0.00148689297658716
0.00168551768945622
0.00022608019148682
0.000655007514215357
0.000977269760495508
0.00124417323739193
0.00147684049938013
0.0016824557542655
0.00186405804348665
0.000215849669249323
0.000630874562140093
0.000950255447463424
0.00121933882920721
0.00145698023308543
0.00166970514266499
0.00185980002271775
0.00202751676197827
0.000204367979272147
0.00060293890488838
0.000916690078535646
0.00118587487860785
0.00142699436294421
0.00164597376752287
0.00184465847248346
0.00202234080925982
0.00217806860222247
0.000192002770632963
0.000571590371474028
0.00087749698293097
0.00114480565272987
0.00138765733911908
0.00161125390117827
0.00181747975018083
0.00200517030357334
0.00217205673924756
0.00231703924694191
0.000247060204924044
0.000248075961398783
0.000692058997798711
0.000249222585901986
0.000693196301528992
0.00101071383940316
0.000247739588868295
0.000692628507717256
0.0010111117725866
0.00126664966730673
0.000242797559093317
0.000687002213272868
0.00100699321856992
0.00126633077271093
0.00148748638242601
0.000235269517743085
0.000674268399164593
0.00099617809033362
0.00125928735800208
0.00148609811983101
0.00168447733562568
0.000226232114559202
0.000655078848274796
0.00097715394826903
0.00124385697372207
0.00147632846380492
0.0016817513405005
0.00186316266450525
0.00021608439641205
0.000631084683049747
0.00095030266619216
0.00121922148107273
0.001456710988011
0.00166928927080354
0.00185923807567545
0.00202680990228269
0.000204744479547958
0.000603304554201481
0.000916876705024013
0.00118593204811646
0.00142694819833319
0.00164583229460966
0.00184441776277846
0.00202199384036844
0.00217761640362721
0.000192321519266563
0.00057199392287662
0.000877790407380076
0.00114504308626203
0.0013878637421139
0.00161143545313889
0.00181763238155244
0.0020052803648062
0.00217210438272685
0.00231702348321865
0.000180986973080683
0.000537411375567274
0.000833446418838396
0.00109726766184657
0.00134042378964057
0.00156707967261817
0.00177910843781297
0.00197563456669692
0.00215374286721366
0.0023107397433684
0.0024457259824723
0.000246794685585263
0.00024793047557724
0.000690938334148415
0.000249165165861955
0.000692394046590957
0.00100921800330228
0.00024773931669332
0.00069207465761455
0.00101001746119538
0.00126504695870523
0.000242835897718465
0.000686641728446083
0.00100621589537333
0.00126515400714124
0.00148592217556917
0.00023534301356101
0.000674066691972218
0.00099565579494002
0.00125845067253122
0.00148495518488321
0.00168303214912762
0.000226338280268319
0.000655013938302594
0.000976844448590137
0.00124329741817153
0.00147552567285492
0.00168070952180552
0.00186188261235734
0.000216235808272299
0.000631152929667236
0.000950178332939758
0.00121889474256637
0.00145619050631235
0.00166858070221402
0.00185834290043004
0.00202572772873335
0.000204988316571586
0.00060352003181973
0.000916917235894731
0.00118580435009816
0.00142667016770981
0.00164541282069849
0.00184385740825307
0.00202129032800553
0.00217676819287582
0.000192825976128897
0.000572392608855635
0.000877969550867133
0.00114508621167064
0.00138780416171289
0.00161128637233485
0.00181739442624216
0.0020049462490705
0.00217166593205862
0.00231647919057736
0.000181138190228133
0.000537797494695636
0.000833724909956864
0.00109748181777765
0.00134060657644457
0.00156724115787469
0.0017792494597821
0.00197574992658218
0.00215382163316542
0.00231077277822979
0.00244574922984408
0.0001790906754977
0.000500250567441552
0.000784341929857191
0.00104334132176414
0.00128567619221667
0.00151424447402519
0.00173054234534512
0.0019340611469837
0.00212221324592502
0.00229147475278219
0.00243919591616502
0.00256468440142375
0.000246384955310481
0.000247675536110691
0.000689418703461181
0.00024902875180597
0.000691272130276993
0.00100722338981455
0.000247682622786356
0.000691263374202418
0.00100851719318798
0.00126291678941854
0.000242830968473446
0.00068607487259493
0.00100510856141433
0.00126354669364584
0.00148383911511336
0.000235383263867857
0.000673695014307546
0.000994862758763708
0.00125726146768938
0.0014833876289192
0.00168109526322228
0.000226411861065725
0.000654802415439181
0.000976307972002441
0.00124244583779012
0.00147437263561093
0.00167926260756046
0.00186014402139433
0.000216342489219418
0.000631081915067707
0.000949857473916232
0.00121832172097833
0.00145537589201389
0.00166753192681377
0.00185706241379725
0.00202421487290058
0.000205152385907108
0.000603587435052796
0.000916784615010592
0.00118546598862438
0.00142613845927458
0.00164469651160273
0.00184295903250354
0.00202020892723443
0.00217550063309033
0.000193187153063275
0.000572631207605845
0.000878005434497624
0.00114494696559133
0.00138751394072114
0.00161085825271796
0.00181683151905749
0.00200424534377062
0.00217082161854133
0.00231548383897193
0.000186966121934711
0.000538354999962429
0.000833908663735843
0.00109751090983723
0.00134053040475292
0.00156707808610626
0.00177900462517014
0.00197542002740853
0.00215339757997654
0.00231024323761396
0.00244509571526317
0.000179478140926723
0.000500696898352703
0.000784616820692556
0.00104353329822558
0.00128583285051628
0.00151438114247805
0.00173066305562392
0.00193416548510743
0.00212229865020844
0.00229154106466229
0.00243926900541977
0.00256490434485119
0.000155396535597559
0.000460612368230583
0.000730239999699409
0.000983198009450797
0.00122372621476107
0.00145331459217869
0.00167281264827782
0.00188170909781957
0.00207795029486115
0.00225829562507593
0.00241913192948626
0.00255794641458013
0.000245783806330305
0.000247285554284472
0.000687408590306333
0.000248771962705491
0.000689751960416286
0.00100461936462861
0.000247547489255323
0.000690129892134115
0.00100651737941923
0.00126014338681194
0.000242773550660458
0.000685249756610681
0.00100359368570128
0.00126141132330222
0.00148112334612678
0.000235377124926078
0.000673115456026888
0.000993737844136481
0.00125564012326128
0.00148130098723644
0.00167856014541437
0.000226452660870793
0.000654420667790136
0.00097549884943892
0.00124123950643856
0.00147279334158378
0.00167732411605362
0.00185785199591474
0.000216417430992313
0.000630862851422991
0.000949307732190864
0.0012174542983496
0.00145420845462782
0.00166607621938201
0.00185532338714706
0.0020221931548493
0.000205267973296755
0.000603511840870738
0.000916453688497349
0.00118487970662344
0.0014253102652639
0.00164363692462565
0.00184167270952622
0.00201869628038996
0.00217375900552969
0.000193422779997934
0.000572708094754042
0.000877866865290672
0.00114459734386874
0.00138696966626926
0.0016101312568143
0.00181592644498707
0.00200316154897938
0.0021695552360297
0.0023140272625932
0.000188770799565282
0.000538689676308408
0.000833949818735702
0.00109736161911956
0.00134022668393248
0.00156663767141737
0.00177843395502155
0.00197471771493976
0.00215255681105659
0.00230925233181936
0.00244393196228308
0.0001800414008995
0.000502035331065901
0.000784849584031753
0.00104355400708209
0.00128573954181318
0.00151420076378544
0.00173040461358243
0.00193382978023001
0.00212188021196205
0.00229102725068404
0.00243863161596025
0.00256405663290571
0.000155941030932167
0.000461017188396748
0.000730530605514424
0.000983374677816983
0.00122385675467642
0.00145342376353986
0.00167290809887091
0.0018817932648056
0.0020780252152194
0.00225836966989891
0.00241923856314673
0.00255820623068598
0.00267494768210099
0.00012725648149469
0.000414057506301814
0.000671162351691414
0.000916960408106241
0.00115477927367433
0.00138458504460859
0.00160648917467344
0.00181968375934603
0.00202231157772252
0.00221171956103667
0.00238452869117189
0.00253717435781068
0.000244923569098789
0.000684794667004845
0.000246697287388721
0.000248385811126268
0.000687739908045845
0.00100127553202486
0.000247299776753071
0.000688594809225475
0.00100390702589519
0.00125659218640247
0.000242640415859873
0.000684101286204432
0.0010015775848341
0.00125863214008411
0.00147764104970185
0.000235314560216848
0.000672278042506144
0.000992204128624662
0.00125348943189819
0.00147858153906663
0.00167529921838488
0.000226449942076738
0.000653831173869903
0.00097435693079157
0.00123959960851577
0.00147069383385099
0.00167478760771133
0.00185488944670647
0.000216461129237269
0.000630473296134924
0.000948484655388168
0.00121623063766191
0.00145261302212734
0.00166412781555541
0.00185303125099729
0.00201956068716546
0.000205349829721184
0.00060328716822918
0.000915893006900794
0.00118399795418909
0.0014241275350864
0.00164216826201518
0.0018399262994639
0.002016674908564
0.00217146175756045
0.000193572913261187
0.0005726329528033
0.000877528488587942
0.00114399958041441
0.00138612825045292
0.00160905916875875
0.00181463055511656
0.00200164390456285
0.00216781421908243
0.00231205772310812
0.000189429217394981
0.000538806076619973
0.000833812218223684
0.00109700330039516
0.00133967037713439
0.00156589866098187
0.00177751934686242
0.0019736282845179
0.00215128873624895
0.0023077973340103
0.00244227573924898
0.000180451095659641
0.000502673607789667
0.000784921658145124
0.00104340073373148
0.00128542345350083
0.00151374674286472
0.00172982249329074
0.00193312092398934
0.00212103924732546
0.00229004086589179
0.00243747320998177
0.00256267678598231
0.000156575613751701
0.000461611857228517
0.000730889457764502
0.000983402144030228
0.00122374928361157
0.00145322533626516
0.00167263262293469
0.00188144481786324
0.00207760213931713
0.00225786274714963
0.00241861830878071
0.00255738231071634
0.00267365317231492
0.000127864537330497
0.000414534513437863
0.000671434517662038
0.000917131718414549
0.00115488685601742
0.00138466597163607
0.00160655652556776
0.00181974263142983
0.00202236651891523
0.00221178342311724
0.00238464247327551
0.0025374570168056
0.00266800360966261
0.00277510724878613
9.81130709240645e-05
0.00036182455425758
0.000606692688196876
0.000844755867799904
0.00107901796122459
0.00130827544630117
0.0015318663995669
0.00174859161186676
0.00195648899172988
0.00215318999278069
0.00233591785243344
0.00250130570591573
0.000243732565126865
0.000681448324069508
0.000245855152585509
0.000997047400051802
0.000685121958329379
0.000247799898149512
0.000246908254885942
0.000686564669088622
0.0010005568792605
0.0012521089728372
0.000242406600060337
0.000682550271937921
0.000998949250974555
0.00125507447780933
0.00147323833628752
0.000235181092223671
0.000671118547056597
0.000990168400800543
0.00125069402516999
0.00147509556302306
0.00167116282625752
0.00022638596689293
0.000652984643923386
0.000972806607537195
0.00123742967711699
0.00146796093360614
0.00167152559610388
0.00185111641171064
0.000216462886727763
0.000629876995671513
0.000947329397921021
0.00121457302592319
0.00145049653322382
0.00166158088219904
0.00185006920015531
0.00201619110100226
0.000205403140529193
0.00060289303872241
0.000915059427378587
0.00118276001238158
0.00142251615212585
0.00164020575338059
0.00183762601760851
0.00201404328407038
0.0021685007442187
0.000193672077234271
0.000572405765848887
0.000876960220299175
0.00114310671338161
0.00138493222461274
0.00160757692575389
0.00181287280970945
0.001999616122775
0.00216551779422726
0.002309490373879
0.00018967399651755
0.000538741870851492
0.000833471634399759
0.00109639764500812
0.00133881804162009
0.00156481470135917
0.00177621248410652
0.00197210224179182
0.00214954335259943
0.00230582874983974
0.00244007662176479
0.00018065382072188
0.000502883729542152
0.000784798784088603
0.00104303951319273
0.00128485781784696
0.00151299649589649
0.00172889726433185
0.00193202335873822
0.00211976665904241
0.00228858495301195
0.00243581915623356
0.00256080544788815
0.000157054899240821
0.000462028583497395
0.000731026392011644
0.000983256955275757
0.00122342520464309
0.00145275881253468
0.00167203783926948
0.00188072588123598
0.00207675607446648
0.00225687750077234
0.0024174658302293
0.0025560112399537
0.00267201615279664
0.000128606482810267
0.000415125587573199
0.000671704872818906
0.000917183041343037
0.00115477224353939
0.00138445130451404
0.00160626318486928
0.00181937798794596
0.00202193180284048
0.00221127306225716
0.00238403030752393
0.00253665645627988
0.00266677287675231
0.00277385471511829
9.87683095077356e-05
0.000362404028117653
0.000606997442685666
0.000844919300424399
0.00107910803559694
0.00130832959719774
0.00153190453465053
0.00174862223485116
0.00195651870968236
0.00215323377542684
0.00233602032058956
0.00250158744829753
0.00264657375449889
0.00276797866218454
0.00286622694897835
6.95433266805086e-05
0.000305045319889316
0.000536512398042347
0.000766614819948405
0.000996615151018707
0.00122459537012379
0.00144917101305588
0.00166874112807991
0.00188113916704258
0.002083981901738
0.00227481403140792
0.00245087744991453
0.000242108871318398
0.000677227503946115
0.000244666893541919
0.000991772152498482
0.000681768397055109
0.000246945119627713
0.00124652304977622
0.000996320629369633
0.000683923531368286
0.000246327153995367
0.000242019684612728
0.00068050133240272
0.000995579786951788
0.00125058459935646
0.00146774143223318
0.000234948529605346
0.000669558914196369
0.000987520292275166
0.00124711968752301
0.0014706892409451
0.0016659804741186
0.000226244140985675
0.000651819240200685
0.000970755840935857
0.00123461528495071
0.00146446158664402
0.0016673889432657
0.00184636994366672
0.00021640451764033
0.000629025406346802
0.000945767979680937
0.00121238663654551
0.00144774690749792
0.00165830862669798
0.00184629756028743
0.0020119331770258
0.000205416875561515
0.000602294046468799
0.000913895748348398
0.00118108969930791
0.00142038428487694
0.00163764466363771
0.00183465581886554
0.00201067533699319
0.00216474055048408
0.000193740543348154
0.000572010649597007
0.000876120675834531
0.00114185933343522
0.00138330868021523
0.00160560092480656
0.00181056053732643
0.00199697752994878
0.00216255806065866
0.00230621015993159
0.000189762668865257
0.000538514563852859
0.000832900748005813
0.0010954985003889
0.00133761283369517
0.00156332144839593
0.0017744432336807
0.00197006451593667
0.00214724116344225
0.00230326252741182
0.00243724349127787
0.000180663026120154
0.000502840130361696
0.000784464476352322
0.00104243198523342
0.00128399885743455
0.00151190351146973
0.00172758055259031
0.00193048805087177
0.00211801400798812
0.00228661263686029
0.00243362143747891
0.00255837600006559
0.00015735387319967
0.000462198140268881
0.000730933877940424
0.000982902410112706
0.00122285559955982
0.00145200031670044
0.0016711031190489
0.00187961952110175
0.00207547699518593
0.00225541838248837
0.00241581196784882
0.00255414340166696
0.00266993024787727
0.000129202771844866
0.00041558581484421
0.000671834790458516
0.000917058409939421
0.00115444797975501
0.00138397594803971
0.00160565693091219
0.00181864797847517
0.0020210773661503
0.00221028441349846
0.00238288072100427
0.00253529564714643
0.00266515375505025
0.00277210358506606
9.95912310438789e-05
0.000363128281560326
0.00060729826068353
0.000844969012878977
0.00107899492896103
0.00130810317408167
0.00153159474384154
0.0017482405901177
0.00195606896763788
0.0021527130396141
0.00233540601361527
0.00250079874083831
0.00264539262770849
0.00276678842566005
0.00286499343026879
7.02331650121268e-05
0.000305768626173303
0.000536892118833664
0.000766792973623337
0.000996693392016807
0.00122462651293262
0.00144918068967356
0.00166874218866812
0.00188114062537994
0.0020840001922765
0.00227489495934354
0.00245114187323924
0.00260954293818375
0.00274596531065166
0.00285892865292498
0.00294861556032267
4.29610402379957e-05
0.000244452822958309
0.000460695535114123
0.000682352022891606
0.000907660149332846
0.00113372966907417
0.00135862027695252
0.00158036470140124
0.0017965908087365
0.00200480072062955
0.00220256373206219
0.00238746147904665
0.000240122722439921
0.000671987543667638
0.000242975328184607
0.000985276139438597
0.000677532171062576
0.000245714358197106
0.00123964704917425
0.000991035434276084
0.000680538708967733
0.000245452996033448
0.00146095810414423
0.00124499126340975
0.000991322204106009
0.000677837919818011
0.000241439649225803
0.000234579385549065
0.000667502290913837
0.000984131032580816
0.0012426133557717
0.00146518896551836
0.00165956122251758
0.000226006071439507
0.000650258216207579
0.000968095578625888
0.00123102333830327
0.0014600426996652
0.00166220727485443
0.00184046436813633
0.000216262268848278
0.000627858084190258
0.000943710320136049
0.00120955851677076
0.00144423240100336
0.00165416285330795
0.00184155365661956
0.00200661168291803
0.000205369407080859
0.000601442880856854
0.000912330010732332
0.00117889419633926
0.00141762159708558
0.00163435952107005
0.00183087690308937
0.00200642031747614
0.00216001987732226
0.000193774490493665
0.00057141381746488
0.00087495457048009
0.00114018318740896
0.00138116743162209
0.00160302795032743
0.00180757896086039
0.00199360293324946
0.00215880019717228
0.00230207323975036
0.000189807279227553
0.000538119063368744
0.000832060857255306
0.00109424806627923
0.00133598321668812
0.00156133654459457
0.00177212023412341
0.00196741565363163
0.00214427516469339
0.00229998403601925
0.00243365289017977
0.000180555133973557
0.000502608241268992
0.000783897714828688
0.00104153340597434
0.00128279049196527
0.00151040426904511
0.00172580305524105
0.00192844094219073
0.00211570310023236
0.00228404120625485
0.00243078981811977
0.00255528296202698
0.000157500939736555
0.000462144867375226
0.000730615607199345
0.000982301844731281
0.00122199652596102
0.00145090329260008
0.00166978004609831
0.00187807675583387
0.00207371694470468
0.00225344004954292
0.00241361134988891
0.00255171603038988
0.0026672791902084
0.000129619017504079
0.000415830644313296
0.000671763657807969
0.000916721603224418
0.00115388269588847
0.00138321455325548
0.00160471603892725
0.00181753442273782
0.00201979170472898
0.00220882074880045
0.00238122536040362
0.00253343019946579
0.00266307378430492
0.00276985373813912
0.000100291460251036
0.000363721038412838
0.000607482291745137
0.000844861892367569
0.001078680000054
0.00130762528441984
0.00153098054539151
0.00174750092898488
0.00195520547734088
0.00215171812932128
0.00233425521978778
0.00249944479250093
0.00264379377572849
0.00276505718053297
0.00286316585465062
7.11075266531402e-05
0.000306667288687717
0.000537291749033811
0.000766878416885549
0.000996586157817531
0.0012243950758581
0.00144885810848043
0.00166834486006984
0.00188067517039479
0.00208346585957624
0.00227427194106403
0.00245035406156685
0.00260838623784034
0.00274482304177406
0.00285775673195736
0.00294735629683686
4.3564675259413e-05
0.000245393509693984
0.000461202330436588
0.000682575709573279
0.000907743516824301
0.00113374408842154
0.0013586043338164
0.00158033657897788
0.00179656258595758
0.00200479039702536
0.00220261745737114
0.00238769894208982
0.00255744872060779
0.00270790775795711
0.00283639401293083
0.00294116160501656
0.00302252625876685
2.1262902131033e-05
0.000181031438591226
0.000379598360276226
0.000591808565436524
0.000812047972772523
0.00103576619668829
0.00126039138229681
0.00148367622343335
0.0017030802171813
0.00191599395692395
0.00211991323663384
0.00231246238809934
0.000665681003683307
0.000240933348329417
0.0009773873260364
0.000672259265874486
0.000243918431139171
0.00123128217913116
0.000984526587301577
0.00067625873626355
0.000244181253067978
0.00145267965265628
0.00123810721260077
0.000986013508842171
0.000674422435815611
0.000240558954978421
0.00165169399341415
0.00145840260127237
0.0012370041541776
0.000979853733477371
0.000664831424978588
0.000234000976780313
0.000225636641743461
0.000648207062936986
0.00096469811082182
0.00122650195763137
0.00145453153789469
0.00165578959298507
0.00183319232709376
0.000216015645235475
0.000626301578009006
0.000941049471614516
0.00120595749776189
0.00143980143212918
0.00164897414143615
0.00183565214651078
0.00200002688236135
0.000205236866322878
0.000600281157998336
0.000910274687019143
0.00117606265934813
0.00141409833569561
0.00163020373267952
0.00182612761010862
0.00200110309402936
0.00215415125750678
0.000193756208749631
0.000570569811031964
0.000873392464520513
0.00113798786455534
0.00137840035874847
0.00159973446503897
0.0018037907976307
0.00198934258704448
0.00215408310834377
0.00229690790319854
0.000189819012338469
0.000537526693871959
0.000830899356365987
0.00109257443987929
0.00133384126457248
0.00155875870564841
0.0017691304204866
0.00196403187011228
0.00214051154671241
0.00229584982157819
0.00242915169702787
0.000180513131229733
0.000502205741923688
0.00078306395564959
0.00104028802943258
0.00128116285838533
0.00150841781448548
0.00172347488463625
0.00192578401664949
0.00211272824549023
0.00228075703422495
0.00242720132629992
0.0025513916423652
0.000157549049126439
0.000461903791070245
0.000730061170952316
0.000981413114481009
0.001220793020266
0.00144940514513726
0.00166800020724679
0.00187602445208074
0.00207139881415134
0.00225086114853611
0.00241077519349817
0.00254862499759277
0.00266393702702775
0.000129874207666523
0.000415849518679515
0.000671469780368168
0.000916138996457372
0.00115303269198744
0.00138212058630028
0.00160339230996336
0.00181598840353819
0.00201802689622351
0.00220683711443687
0.00237902024974743
0.00253100116851357
0.00266042573026042
0.0027670054470212
0.000100803467749234
0.000364086246274967
0.000607472511265227
0.000844552198226553
0.0010781294360106
0.00130686880600785
0.00153003908955151
0.00174638399138499
0.00195391539834818
0.00215025050372567
0.00233259770868547
0.00249758057699346
0.00264171980873552
0.00276281442990936
0.00286078234837735
7.19211196895668e-05
0.000307429168349642
0.00053757607757722
0.000766820096474515
0.000996289992743371
0.00122392327613655
0.00144824181592769
0.00166759917085172
0.0018798043634692
0.00208246444253574
0.00227311766509273
0.00244900266960449
0.00260680168814048
0.00274311466991406
0.0028559495958897
0.00294545208924809
4.42091116819422e-05
0.000246502506019027
0.000461750637185229
0.000682733411958161
0.000907664083577268
0.00113351661364533
0.00135827494212366
0.00157992692262355
0.00179608278270749
0.00200424194836804
0.00220198292933324
0.00238690596613911
0.00255630093786678
0.00270678806156026
0.00283526843162979
0.002939964422448
0.00302121667464909
2.16736790212711e-05
0.000182309033113445
0.000380312458170997
0.000592119669891152
0.000812156656593167
0.00103577570263189
0.00126035505936163
0.00148362117598249
0.00170302245807103
0.0019159534710731
0.00211993638397419
0.00231266691355747
0.00249190867524635
0.00265434363638748
0.00279741982860881
0.00291816298570508
0.00301493171502234
0.00308823473879011
6.04215922286524e-06
0.000116267242841924
0.000294204749084427
0.00049505645583828
0.000709505314449373
0.000930571456545353
0.00115453656948299
0.00137882909728234
0.00160081019956228
0.00181779833620799
0.00202722382914538
0.00222665793304974
0.000967960917623271
0.000665918287882324
0.000241780843343584
0.00122122725561098
0.000976619921335043
0.000670923436312168
0.000242311306488684
0.00144268459959424
0.0012297336010968
0.00097947898811119
0.00067010277025163
0.000239264585979592
0.00164215109345769
0.00145012165179391
0.00123010559093857
0.00097452568040811
0.00066140644616598
0.000233118829915281
0.00182432653917489
0.00164792540504307
0.00144773698550167
0.00122088155253236
0.00096041733197016
0.00064554630719134
0.000225066517862217
0.000215648831014523
0.000624264577353126
0.000937660337575168
0.00120143375981068
0.00143428301228498
0.0016425525486115
0.0018283860352676
0.00199195651328092
0.00020499096251887
0.0005987376745517
0.000907625707017239
0.00117246659681248
0.00140966527693181
0.00162500972669007
0.00182022378972236
0.00199452446200383
0.00214692213909935
0.000193663013309803
0.000569420845613596
0.000871350063248385
0.00113516574974687
0.00137488039197733
0.00159557620377982
0.00179903619433288
0.00198402242153017
0.00214821974049104
0.00229051540931125
0.000189835804888155
0.000536694186765008
0.000829350074869397
0.00109039016322879
0.00133108133002808
0.00155546687729922
0.00176533865203096
0.00195976509123868
0.0021357902354244
0.00229068857184125
0.00242355803603711
0.000180492781507624
0.000501611781048359
0.000781914620437429
0.00103862679407537
0.00127903071095653
0.00150584522977379
0.00172048508954463
0.00192239536009954
0.00210895716526318
0.00227661768927734
0.00242270323469623
0.00254653887371481
0.000157563875617799
0.00046149723843941
0.0007292410077429
0.000980182866650377
0.00121917733238459
0.00144742669591829
0.00166567542024402
0.0018733662223858
0.0020684184615472
0.00224756946809459
0.00240718164115558
0.00254473625082351
0.00265975720387617
0.000130011246180202
0.000415658553180128
0.000670938832230183
0.000915271693671698
0.00115184459148283
0.00138063257159098
0.00160161823510204
0.00181393779998595
0.00201570682016478
0.00220425328048781
0.00237617803827115
0.00252790646569639
0.00265708615706676
0.00276343083625174
0.000101128151316297
0.000364213081265209
0.00060723152378519
0.000844000303589689
0.0010772998690359
0.00130578731876844
0.00152872245812653
0.00174484108024212
0.00195215084930571
0.00214826512877666
0.00233038971198747
0.00249514902141926
0.0026390717065857
0.00275996983845594
0.00285775812301381
7.25413861337643e-05
0.000307936000593366
0.000537659689007611
0.000766561692708989
0.000995766716395788
0.00122318182351804
0.00144730765730516
0.00166648485692444
0.00187851421237107
0.00208099567868316
0.00227145933853041
0.00244713950751691
0.00260473274033905
0.00274087979179267
0.00285357375105048
0.00294294693451318
4.48317056519082e-05