/*--------------------------------*- C++ -*----------------------------------*\
  =========                 |
  \\      /  F ield         | OpenFOAM: The Open Source CFD Toolbox
   \\    /   O peration     | Website:  https://openfoam.org
    \\  /    A nd           | Version:  12
     \\/     M anipulation  |
\*---------------------------------------------------------------------------*/
/*   Windows 32 and 64 bit porting by blueCAPE: http://www.bluecape.com.pt   *\
|  Based on Windows porting (2.0.x v4) by Symscape: http://www.symscape.com   |
\*---------------------------------------------------------------------------*/
FoamFile
{
    format      ascii;
    class       volScalarField;
    location    "200";
    object      nut;
}
// * * * * * * * * * * * * * * * * * * * * * * * * * * * * * * * * * * * * * //

dimensions      [0 2 -1 0 0 0 0];

internalField   nonuniform List<scalar> 
10140
(
7.75434407787077e-05
7.75889954860383e-05
7.90508335527839e-05
0.000639996661672119
7.76246897734718e-05
7.91082996012843e-05
0.000640226330526219
8.08330947469489e-05
0.000649645115771493
0.00152961298501964
7.76555417935075e-05
7.91427564092251e-05
0.000640387572681063
8.09135321946333e-05
0.000649903277661652
0.00153008725679078
8.18544489750597e-05
0.000661757982173928
0.00154220037545514
0.00251924083919629
7.76797585717751e-05
7.91729055218678e-05
0.000640498552940988
8.09498801477876e-05
0.000650060233573957
0.00153042960658724
8.19523891899833e-05
0.000662078010882102
0.00154270095378607
0.00251993691810857
8.15582250849625e-05
0.000668995089318579
0.00155677398535659
0.00252857640005866
0.0034941190099033
7.76979968451975e-05
7.91978077213299e-05
0.000640564853885915
8.09770342748699e-05
0.000650167313699166
0.00153066239293429
8.19927435325684e-05
0.000662237012329762
0.00154305187944494
0.00252041075962267
8.16659542121509e-05
0.000669372784938261
0.00155731649572136
0.0025292951306785
0.00349499670202652
8.03004059907021e-05
0.000667274119619362
0.00156368069178253
0.00253585455348067
0.00349686011887077
0.00440069357828755
7.77107447621367e-05
7.92167333633071e-05
0.0006405797403133
8.09990511954424e-05
0.00065023541424877
0.00153078048590459
8.20192686469413e-05
0.000662336351083032
0.00154328866655477
0.00252070210969683
8.1708497831105e-05
0.000669544789137784
0.00155768260377907
0.00252977937356925
0.00349552829899726
8.04127022831173e-05
0.000667690004452691
0.00156425944402868
0.00253660170368379
0.00349775834631738
0.00440170558582612
7.86421327521825e-05
0.000658015788602617
0.00155661822342001
0.00253282699454703
0.00349221917660884
0.00439629756514431
0.0052194561986912
7.77178440130284e-05
7.92301471428825e-05
0.000640531950224771
8.10151622250297e-05
0.000650253540412021
0.00153076347321503
8.20403104409424e-05
0.000662401293105408
0.0015434110050616
0.00252078846330539
8.17348512449678e-05
0.000669641784386488
0.00155792291884347
0.00253007533467905
0.00349577954056465
8.04566060543837e-05
0.000667874481162197
0.00156464350417365
0.00253710060764505
0.00349829873203483
0.00440222832588686
7.87556851563442e-05
0.000658455852730572
0.00155721879930452
0.00253359172789731
0.00349313948559735
0.00439732891778549
0.00522055456172364
7.68160104384738e-05
0.000644573081896152
0.00153626769132593
0.00251364910196323
0.00347385479416009
0.00437913680868701
0.00520972910318046
0.00594842054776195
7.77175892618754e-05
7.92371873139323e-05
0.000640405919237348
8.10250127106143e-05
0.000650208085996514
0.00153058081013136
8.20560989895244e-05
0.000662417139666919
0.00154339774075366
0.00252062880801767
8.17555412886174e-05
0.000669702934537699
0.00155804635674201
0.00253016401609802
0.00349571599448798
8.04840576647197e-05
0.000667971634178397
0.00156488757883133
0.00253740095664991
0.0034985524780867
0.00440235138827589
7.88034781879533e-05
0.000658654370232402
0.00155761734215694
0.00253410199655552
0.0034936897327676
0.00439785893222211
0.00522101279282143
7.69290851711144e-05
0.000645025972359146
0.00153687794215975
0.00251441697631025
0.0034747797859637
0.0043801868521482
0.00521084681861377
0.00594956545966697
7.47974841414265e-05
0.000628831065842087
0.00150641666793544
0.00247798799036376
0.00343745106431231
0.00434444924768928
0.00518241247359968
0.00593554987168106
0.00659343903305685
7.77058747321332e-05
7.92347029182036e-05
0.000640179719528529
8.10300294708775e-05
0.000650082373137823
0.00153019090330985
8.20656436688337e-05
0.000662367625054495
0.00154321719323459
0.00252016681864809
8.17712141991541e-05
0.000669714705895783
0.00155803185270105
0.00253000498354815
0.00349527493862315
8.05050002317235e-05
0.000668029467506365
0.0015650088723999
0.00253748832337408
0.00349848853812623
0.0044020329000786
7.88315166737658e-05
0.000658756985510953
0.00155786418205125
0.002534403709933
0.00349394330014085
0.00439798314835236
0.00522094098287913
7.69850163704755e-05
0.000645258301049607
0.00153728927009418
0.00251493115535597
0.00347533147058465
0.00438072234524624
0.00521131211710118
0.00594991734159983
7.49015413948001e-05
0.000629283896603017
0.00150702739094919
0.00247874650928304
0.00343836256680152
0.00434549461969804
0.00518354733177437
0.00593671419697167
0.00659460140556719
7.25203945618838e-05
0.000611040746724462
0.00146959021250373
0.00242825004604178
0.00338226864035915
0.00428921717224711
0.00513352137647477
0.00590112298946662
0.00657875960686542
0.00716259469025506
7.76812456159744e-05
7.92219468020898e-05
0.000639825145939535
8.10294970294207e-05
0.000649853898604257
0.00152953901951844
8.20695311586766e-05
0.000662236631566091
0.00154282716093536
0.00251932821643699
8.17817722360379e-05
0.000669659662221363
0.0015578466480201
0.00252954172322658
0.00349437147886549
8.05202567089516e-05
0.000668036614121672
0.00156498837248243
0.0025373234644252
0.00349804525881751
0.0044011910169943
7.88526391240606e-05
0.000658813768003032
0.00155798094888362
0.00253448492776641
0.00349387270418055
0.00439766314841051
0.00522029017350683
7.70126388089291e-05
0.000645373346281707
0.00153753985546393
0.00251522935011281
0.00347557838559907
0.0043808416312797
0.00521124039516709
0.00594960219192973
7.49692682142619e-05
0.000629580440512466
0.00150745722237828
0.00247925816423974
0.00343890369278269
0.00434602249810749
0.00518401510709199
0.00593707298988758
0.00659481600899583
7.26182824231022e-05
0.000611476222994082
0.00147018667497165
0.00242898827056114
0.00338315164597222
0.00429023486232357
0.005134644565699
0.0059023035329567
0.00657994101421636
0.00716376231578877
6.9731841396632e-05
0.000590889669337053
0.00142641557932224
0.00236610247419675
0.00330916508221506
0.0042125819810606
0.00506060294119513
0.00584095396445407
0.00653934915291396
0.00714662709853081
0.00766376390219867
7.76414467644844e-05
7.9199266517487e-05
0.000639311308480468
8.10201849496813e-05
0.000649494366837483
0.00152855636249876
8.20679703118473e-05
0.000662002533853455
0.00154217236707199
0.00251801794267443
8.17853325477906e-05
0.000669520644305983
0.00155744818134684
0.00252869967808184
0.00349289565605478
8.05306592114167e-05
0.000667976439274318
0.00156479326112647
0.00253684985829621
0.00349713805905889
0.00439971249698236
7.8868433182095e-05
0.000658816427677067
0.0015579512176437
0.00253430779227441
0.00349341772400423
0.00439681808330163
0.0052189605536723
7.70344960967949e-05
0.000645431522885251
0.00153765156805893
0.0025152993591263
0.00347549370945064
0.00438051027106694
0.00521058732193273
0.0059485662907397
7.50004299287308e-05
0.000629718584926982
0.00150771500220056
0.00247954879553877
0.00343913523740707
0.00434612652089173
0.00518393447046817
0.00593675728945287
0.00659422407653807
7.27963681189223e-05
0.00061201338105763
0.0014706431053743
0.00242949353172424
0.00338367131327821
0.00429073846744464
0.00513509738459216
0.00590266247023937
0.00658016232915417
0.00716381498268835
6.99496488495784e-05
0.000591593458142939
0.00142698961313549
0.00236680334995567
0.00331000652749316
0.00421355343498664
0.00506168637344274
0.00584211725995933
0.00654054584328274
0.00714781299940589
0.00766495949873591
8.15858783578186e-05
0.000568738716399219
0.00137672164558493
0.00229173697378919
0.00321842556258375
0.00411426250170157
0.0049627313121054
0.00575247788824579
0.00647016393935473
0.00710331730514466
0.00764663241650744
0.00810400297391091
7.75805073136611e-05
7.91597555964204e-05
0.000638594148630472
8.09989860356944e-05
0.000648973417733868
0.00152715948135768
8.2057883453946e-05
0.000661636232283027
0.00154118321437671
0.00251611782795743
8.17818003765715e-05
0.000669276253691211
0.00155678088271974
0.0025273834530201
0.00349070919594735
8.05355255813524e-05
0.000667829793124126
0.00156438051170017
0.00253599276661126
0.0034956570772141
0.00439745163781709
7.88794388724115e-05
0.000658750663174166
0.00155774327727369
0.00253381627297628
0.00349249437096128
0.00439533584134922
0.00521681415890606
7.70517003269881e-05
0.000645432262288034
0.00153761091495704
0.002515104510255
0.00347501815357994
0.0043796491392189
0.00520925498901281
0.005946695050546
7.50279750107938e-05
0.000629783548037829
0.00150782232742588
0.00247960357611044
0.00343902852587878
0.00434577296946244
0.0051832661901729
0.00593571866864752
0.00659277063759098
7.28830269899251e-05
0.000612267571462912
0.00147091399476263
0.00242977390091603
0.00338387920059068
0.00429081457752744
0.00513499388953503
0.00590233452386259
0.00657956925853284
0.00716292166972226
8.51856542835463e-05
0.000593867109626252
0.0014276169538691
0.00236729623010828
0.00331049576592493
0.00421401770736777
0.00506210315278719
0.00584245524725996
0.00654076532184932
0.00714787203854203
0.00766481634959014
8.17621650892843e-05
0.00057100800426844
0.0013775143962812
0.00229237767338412
0.00321921031442123
0.00411517195880941
0.00496375249884166
0.00575359111065417
0.00647133862343411
0.00710451822776945
0.00764784156895461
0.00810525377336779
7.08005866006275e-05
0.00056050952474075
0.00132049268870544
0.00220429824320588
0.00310919489411785
0.00399330158111032
0.00483902382578215
0.00563469621667638
0.00636811137791722
0.00702653152086599
0.00759991459098582
0.0080857229340203
7.74904408708901e-05
7.91012341210006e-05
0.000637626738113532
8.0956702426451e-05
0.000648248070212019
0.00152524614687909
8.20355013244089e-05
0.000661102755407678
0.00153977575403037
0.00251348430268828
8.17706399781414e-05
0.000668897102462855
0.00155577412950282
0.00252547415160941
0.00348764186812633
8.05317225413612e-05
0.000667574558966037
0.00156369426988801
0.00253465640383048
0.00349346395445743
0.00439422819536322
7.8885112332169e-05
0.000658598647805416
0.00155731390089555
0.00253293579290857
0.00349099312059084
0.00439307157782101
0.00521367296859774
7.70637822868753e-05
0.000645363227853646
0.00153738856136812
0.00251458992081328
0.00347406850947587
0.00437814733133866
0.00520710631093657
0.00594382758617138
7.50503291478795e-05
0.000629785052487412
0.00150777055973625
0.00247938682903771
0.00343852452636736
0.00434488377178684
0.00518191481614532
0.00593384475732039
0.00659032895535334
7.29407185363534e-05
0.00061237544214773
0.00147101934013499
0.00242981033038352
0.00338374320126631
0.00429042766146464
0.00513429627683907
0.00590127735503544
0.00657811254959146
0.00716103272749473
8.60079899109764e-05
0.000594799070107635
0.00142799069056519
0.00236756360243537
0.00331067297910979
0.00421405388577424
0.00506196054564425
0.00584209801848135
0.0065401572088359
0.00714697713671905
0.00766359695284535
8.20185177629169e-05
0.000588645030858726
0.00137919533455919
0.00229290002422325
0.00321965963303003
0.00411558439843323
0.00496411439950552
0.00575388328327046
0.00647153224354067
0.00710457350905927
0.00764770619249604
0.00810487657085203
7.10485450841979e-05
0.000561467194080175
0.00132214429232364
0.00220496544231387
0.00310990525352759
0.0039941339150141
0.00483996393397898
0.00563573311354122
0.00636922717573492
0.00702770734546751
0.00760113363969398
0.00808696920752734
0.00849072543179901
5.8056873431288e-05
0.00052013884432607
0.00125873884896811
0.00210191183242759
0.0029795049731872
0.00384773100303378
0.00468769825157532
0.00548653387992801
0.00623208663386475
0.0069124720703898
0.00751641660231084
0.00803586443884945
7.73590212639646e-05
0.000636339746119229
7.90100104628197e-05
8.0897162830475e-05
0.000647266083035393
0.0015226868937797
8.1993880237928e-05
0.000660356997645517
0.00153784604195458
0.00250994541061038
8.17475240831593e-05
0.00066834616808985
0.00155434155417242
0.00252282754089761
0.00348348867765373
8.05184360343563e-05
0.000667183091042901
0.00156266334096565
0.00253272141315806
0.00349038838773011
0.00438982199062654
7.88830841063325e-05
0.000658336194921516
0.00155660735486693
0.00253157060224564
0.00348877571939308
0.00438984472894135
0.00520931543788958
7.70706143507695e-05
0.000645207361975683
0.0015369428046426
0.00251368183257938
0.00347253595617861
0.00437586099196054
0.00520396385598755
0.00593975536700727
7.50662150354376e-05
0.000629713887679377
0.00150753352663101
0.00247884554017753
0.00343754106182148
0.00434334918835644
0.00517974473500926
0.00593097571507244
0.00658671694888406
7.29800209256223e-05
0.000612391282548849
0.00147095642166476
0.00242956827660924
0.00338320410631243
0.00428949979511599
0.00513291067053413
0.0058993816168828
0.00657566792770254
0.0071580109329675
8.63080657015236e-05
0.000595114669633786
0.00142812961566024
0.00236757900662492
0.00331050141865935
0.00421362339265432
0.00506121948847803
0.0058410054252062
0.00653867902459928
0.00714508452926498
0.00766126473588559
8.22053168668791e-05
0.000592637713457319
0.00138007567415702
0.00229318729517559
0.00321979966522916
0.00411557046354889
0.00496391755829904
0.00575347765280447
0.00647088971175324
0.00710366123247998
0.00764648569492936
0.00810331367861386
7.13375432579484e-05
0.000564157736286777
0.00132801340655175
0.00220576190086864
0.00311031791648244
0.00399448359651431
0.00484025545830135
0.00563595750546633
0.00636936709178891
0.00702773269600542
0.00760099404024003
0.00808661058998092
0.00849021812049437
5.83342100352969e-05
0.000520978391675287
0.00125979867762439
0.00210280302034173
0.00298015836039664
0.00384847175248037
0.00468854039782384
0.00548747272113924
0.0062331140799253
0.00691358228382102
0.00751760418125934
0.00803710118036699
0.00847130019715585
0.00882711409208474
4.48785050270104e-05
0.000467546719739656
0.00117127072138232
0.00198051536109655
0.00282602099125068
0.00367450207825938
0.00450590891681591
0.00530578845941728
0.00606102357214645
0.00675988347744458
0.00739161351158104
0.0079463020795928
7.71741972403227e-05
0.000634657401455093
7.88764082711816e-05
0.0015193415310334
0.000645957325871156
8.08046528994745e-05
8.19293809690436e-05
0.000659347840302813
0.00153526740939782
0.00250529480339894
8.17087078737816e-05
0.000667577861968694
0.00155237798020853
0.00251927048548558
0.00347800733506731
8.04942897946507e-05
0.000666618211072111
0.00156119995825834
0.0025300425738567
0.00348622504394386
0.00438396682314128
7.88697213758716e-05
0.000657935432988082
0.00155555319058693
0.0025296012820447
0.00348567197867817
0.00438543481821499
0.00520347256444945
7.70703337295347e-05
0.000644941318389045
0.00153621815118994
0.00251228523236126
0.003470282955593
0.00437261008212182
0.00519960662183675
0.00593421897817563
7.50765210045415e-05
0.000629555291222547
0.00150707184095013
0.0024779078974531
0.00343597067765429
0.00434102672589369
0.00517657974155569
0.00592690373172845
0.00658169830563177
7.30060378829779e-05
0.000612323965731025
0.00147070354011681
0.00242899722529027
0.00338218116779382
0.00428792238760611
0.00513070307955121
0.00589648922900059
0.00657205461493816
0.00715365396846066
8.6419796255966e-05
0.000595194212479317
0.00142806584494105
0.00236730803748266
0.00330992138383707
0.00421264791730913
0.0050597865903262
0.00583907027930078
0.00653620995354164
0.00714205958758277
0.0076576681685865
8.22977456259843e-05
0.000593604702778233
0.00138038241180689
0.00229319509262606
0.00321958700114042
0.0041150877006158
0.00496312054210795
0.00575233339937422
0.00646937127842613
0.00710174487127573
0.00764414994164579
0.0081005435285923
7.15559892560233e-05
0.000565549346981985
0.00133028657582918
0.00220620691112821
0.0031104261656421
0.00399441115869333
0.00483999178097299
0.00563548614134464
0.00636866906328938
0.0070267820100473
0.00759975518264163
0.00808505131759317
0.00848835144695737
5.86727175820659e-05
0.000522247995642364
0.0012619189574817
0.00210437493603291
0.00298058692428774
0.00384875275500899
0.00468874887296661
0.00548761149303747
0.00623317603184705
0.00691354787236585
0.00751743176381762
0.00803674773496472
0.00847082400760317
0.00882651630933083
4.51781790928884e-05
0.000468496601734529
0.00117228998066362
0.00198134079723589
0.00282667360286352
0.00367514901529724
0.00450663840153747
0.0053066102537852
0.00606193855749016
0.00676089563103021
0.00739272814897846
0.00794749489335804
0.00841849480010681
0.00880664463698912
0.00911975432397878
3.17953182459004e-05
0.000406194844398666
0.00106130058881407
0.00183023220449764
0.00264333848021117
0.00346924235437467
0.00428976234877162
0.00508904682871546
0.00585256153491857
0.00656777057985109
0.00722406852988217
0.00781184512775426
7.69176870139914e-05
0.000632495042396077
7.8686398882554e-05
0.00151504188857468
0.000644242362176289
8.06641315806456e-05
0.00249930126339416
0.00153189287372861
0.000658002886106863
8.18360296032989e-05
8.16434434620931e-05
0.000666538198010648
0.00154975685025166
0.00251459788514929
0.00347091471854815
8.04546252737415e-05
0.00066583551929816
0.00155919783913548
0.00252644610482311
0.0034807311719805
0.00437635300729739
7.88426894532681e-05
0.00065736168938893
0.00155406364898203
0.00252688245282597
0.00348147677872327
0.00437957739368628
0.00519582423930986
7.70592270572034e-05
0.00064453587230987
0.00153514504306993
0.00251028159750423
0.00346714019088758
0.00436817480023077
0.00519376620290712
0.0059269037983943
7.50800239473569e-05
0.000629287179461597
0.00150633175746398
0.00247648059700617
0.00343367735108792
0.00433773779388034
0.00517220002530856
0.00592137000727421
0.00657497685033102
7.3023532910859e-05
0.000612165755834026
0.00147022529104961
0.00242802836808883
0.00338056913674048
0.0042855548545335
0.00512749914548275
0.00589239387761767
0.00656703649338698
0.00714769756414015
8.64599714541111e-05
0.000595145771258616
0.0014277976192793
0.00236670315694198
0.00330885398001487
0.00421102026476485
0.00505752949575178
0.00583613655534525
0.00653257128501369
0.00713770129625183
0.00765258268096984
8.23021254914471e-05
0.000593830509262304
0.00138035555270971
0.00229289637864288
0.00321896041585815
0.00411405709615767
0.0049616298600328
0.00575034442252294
0.0064668587832493
0.00709869347056836
0.00764055046862066
0.00809639158700721
7.16922582290598e-05
0.000566122350610017
0.00133097315960378
0.00220626081489288
0.00311017354354707
0.00399386903018983
0.00483912852269512
0.00563427640583211
0.00636709310783521
0.00702482201777147
0.00759739448522504
0.0080822791962271
0.00848517440003325
5.89448105874877e-05
0.000523221793970745
0.00126324687559601
0.00210518482813927
0.00298070009033314
0.0038486188626394
0.00468840849448574
0.00548706029115008
0.00623240389865453
0.00691253671293479
0.00751615224912667
0.00803517475771746
0.00846896688936794
0.0088244044479966
4.55546284447057e-05
0.000469827982649116
0.00117375264759317
0.00198241840921828
0.00282720936946729
0.00367537088903713
0.00450675520151692
0.00530664922682252
0.00606190317802974
0.00676077582977902
0.00739249153094408
0.00794711135294873
0.00841804405700394
0.00880606714125222
0.00911903244747763
3.2110713736917e-05
0.000407304680572192
0.00106248998269759
0.00183112597228268
0.00264398168751673
0.00346981165917894
0.00429037096597887
0.00508973552637305
0.00585334332249661
0.00656865852179539
0.00722507688335628
0.00781295805004883
0.0083233884731219
0.00875120288735827
0.009098326560667
0.00937335227877259
1.93857950675067e-05
0.00033501868148112
0.000928056263475261
0.00164636677792924
0.00242359897742755
0.00322589903488814
0.00403417914667339
0.00483185500655167
0.0056029773983544
0.00633374919687424
0.00701286111967812
0.0076308709543958
7.66183798574001e-05
0.000629766011809001
7.84093388542387e-05
0.00150960374285088
0.000642036620133611
8.04600454792388e-05
0.00249169866816718
0.00152755376704698
0.000656236715902988
8.16912425492475e-05
0.0034618870211558
0.00250857512302064
0.00154632772381643
0.000665157383765924
8.1548733568428e-05
8.03935397579695e-05
0.000664777960142677
0.00155653010904326
0.00252172704815497
0.00347362366602875
0.00436662292872836
7.88007316061884e-05
0.000656571589341365
0.00155203290637432
0.00252324041884034
0.00347594752368304
0.00437196255468444
0.00518599588970733
7.70321863542442e-05
0.000643956926526938
0.00153363750860006
0.00250752661138646
0.00346290364168507
0.00436229216480253
0.00518612320024914
0.0059174390983458
7.50719372690069e-05
0.000628881535581613
0.00150524494996254
0.00247444708967218
0.00343049370485143
0.00433326436648856
0.00516633865451826
0.00591406137494512
0.00656619788246609
7.30344322481675e-05
0.000611897895022703
0.00146947104046415
0.00242657142183283
0.00337823450630376
0.00428222104871695
0.00512308123192493
0.00588683847831612
0.00656031932276234
0.00713981374157794
8.64800782654849e-05
0.000594990900547784
0.00142730092679775
0.00236570013537973
0.00330719706355425
0.00420860233015333
0.00505427632880927
0.00583200026364827
0.00652752857457905
0.00713174628082895
0.00764571728935442
8.22527619832348e-05
0.000593795420885717
0.00138007566832304
0.00229225288875191
0.00321784305840219
0.00411237321060072
0.0049593149478096
0.00574735684903269
0.00646317601929227
0.00709430832900815
0.00763546420074546
0.00809060811279249
7.17593490388391e-05
0.00056630133423702
0.00133102965099408
0.0022059481959025
0.00310949710302732
0.00399277691061751
0.00483757184002623
0.00563222279793251
0.00636452268926447
0.00702172471957218
0.00759376759997219
0.00807812527892987
0.008480500767082
5.91346940774473e-05
0.000523803948898539
0.00126381342197354
0.00210535788564249
0.00298042438367039
0.00384801428328901
0.00468747106972988
0.0054857742267153
0.00623075645156131
0.00691051578295913
0.0075137463039501
0.00803237890068999
0.00846579026293242
0.00882086286027497
4.58749775822919e-05
0.000470931609101784
0.00117493290596586
0.00198312402236051
0.00282738464656032
0.00367518502617883
0.00450633266266465
0.00530600758402794
0.00606104226595612
0.00675968537888351
0.00739114882336848
0.00794550000248171
0.00841618132330572
0.00880396505044418
0.00911668732789691
3.25104858025249e-05
0.000408872835520079
0.0010641057106995
0.00183220048448191
0.0026444991289613
0.00347000121466356
0.00429039578369156
0.00508966483096455
0.00585319563743933
0.00656843326172852
0.00722474993821185
0.00781250853628122
0.00832291345503146
0.00875064188728852
0.00909762069896003
0.00937248854433374
1.96581833445e-05
0.000336360025468833
0.000929528108526102
0.00164743372959409
0.00242430071204905
0.00322641249294017
0.00403467003569372
0.00483239995254803
0.00560360885117879
0.00633449095766296
0.00701373619307331
0.00763187291947729
0.00818020626645228
0.00865118473804628
0.00904052805656637
0.00935106685567077
0.00959212010831893
9.29730873238536e-06
0.000251818336389129
0.000766543641493937
0.00142277868628388
0.00215902906021235
0.00293673176484482
0.00373272537088891
0.00452872198635981
0.00530750869850891
0.00605396052387686
0.00675564562459032
0.00740252302565943
0.000626490897234884
7.81026475376184e-05
0.00150283825084343
0.000639254962544943
8.01522577036255e-05
0.00248219252457129
0.00152206529069918
0.00065396126682806
8.14717727733287e-05
0.00345055732162058
0.00250093585033852
0.0015419190680765
0.000663346063234555
8.13998554753478e-05
0.00435436334446734
0.00346457816487217
0.00251564899820345
0.00155304568542701
0.000663376537732362
8.02965880995804e-05
7.87387798040452e-05
0.000655510074071489
0.00154933400257051
0.0025184709232726
0.00346880161486289
0.0043622316376346
0.00517355507881803
7.69871748448081e-05
0.000643164949908424
0.00153159181289317
0.00250384813371508
0.0034573320834109
0.00435465337207843
0.00517630384505028
0.00590538949893455
7.50468557625311e-05
0.000628305858821103
0.00150372852038289
0.00247166525576272
0.00342621812525359
0.00432734580579613
0.00515867807323769
0.00590460705313628
0.00655494086615307
7.30347514785041e-05
0.000611496052871753
0.00146837696351841
0.00242451285246722
0.0033750130461887
0.00427770598248039
0.00511718509671412
0.00587951195502041
0.00655154874184144
0.00712960829243258
8.64856349670447e-05
0.00059472367290551
0.00142653322445017
0.00236421347792303
0.0033048210723728
0.00420522149950235
0.00504981272603136
0.00582640716541474
0.00652078991179023
0.00712386770555022
0.00763671325463675
8.22334242460644e-05
0.000593608487750878
0.00137955390002434
0.00229121021821319
0.00321613719812822
0.00410990108805952
0.00495600709906449
0.0057431698013412
0.00645809134125588
0.00708832816176246
0.00762860120379373
0.00808287620273726
7.17810964243509e-05
0.000566260831926129
0.00133073262269542
0.00220526156103067
0.00310832371059852
0.00399103125338166
0.00483519319770148
0.00562917381395893
0.00636078433057383
0.00701729431246261
0.00758865409597063
0.00807234214282668
0.00847406049224833
5.92511176037114e-05
0.000524058079070403
0.00126387432622398
0.00210505310298913
0.00297970129664455
0.00384685635579027
0.00468584230304837
0.00548364828611489
0.00622811836717731
0.0069073591368172
0.00751007288142945
0.00802819805094536
0.0084611161167956
0.00881570767183062
4.61091906635497e-05
0.000471670112123834
0.00117559903219958
0.00198332316042242
0.002827116346209
0.00367452332017475
0.00450531707610411
0.00530463754148091
0.00605931306918533
0.00675759046932521
0.00738868101159481
0.00794265997363023
0.00841298381056322
0.00880042516561902
0.00911280854851185
3.28825276429083e-05
0.000410232586066426
0.00106549013594241
0.00183301110754564
0.00264470154471497
0.00346978721127305
0.004289893618072
0.00508892677763247
0.00585223547054587
0.00656724929967354
0.00722332571520487
0.00781083442222881
0.00832101698669264
0.00874853474395181
0.00909528541779139
0.00936991669845969
1.99489924046938e-05
0.000338223423690658
0.000931476746321225
0.00164872016273623
0.00242491116313492
0.00322658707800896
0.00403461508620512
0.00483221674832836
0.00560333873761149
0.00633414513920651
0.00701329906506777
0.00763132976473932
0.00817966074315693
0.00865059460273895
0.00903983505362584
0.00935021743214782
0.00959111313504492
9.47692210667913e-06
0.000253715742375939
0.000768477093925435
0.00142414017493809
0.00215985306803691
0.00293723513658194
0.00373311516036143
0.00452912182887972
0.00530797823273889
0.0060545383538828
0.00675636483427542
0.00740338762286285
0.00798715302071894
0.00850032060515346
0.0089361622085368
0.00929119677556395
0.00956908077498051
0.00977981659214795
2.53693206235206e-06
0.000155383035022458
0.000570272234271846
0.0011514947941669
0.00184092145028115
0.00259307967303623
0.00337770441883884
0.00417309904930436
0.00496050221057025
0.00572352200765832
0.00644853478363623
0.00712452089369706
0.00149460216296765
0.000635936623237496
7.98221850785327e-05
0.00247046910120534
0.00151523812140059
0.000651086005455507
8.11403032354403e-05
0.00343651708259414
0.00249138526357781
0.0015363442812864
0.000661001002255466
8.11707436441715e-05
0.00433910872084558
0.00345322794300074
0.00250794492682497
0.00154857066025519
0.000661536757513076
8.0145169816148e-05
0.00515800785986083
0.00434997339063246
0.00345971526933299
0.00251233781600533
0.00154581654242098
0.000654102494843895
7.86431070622148e-05
7.69260016833904e-05
0.00064210801813074
0.00152888275205962
0.00249904393546182
0.00345014486690444
0.00434490096620607
0.00516387663839095
0.00589025398652467
7.49989483654563e-05
0.000627526589609039
0.00150168292579018
0.00246796616104223
0.00342061238317823
0.00431967606634536
0.00514884672995599
0.00589257344198652
0.00654071610301225
7.30082772020053e-05
0.000610936140508259
0.00146686746866008
0.00242171513756879
0.00337070696590283
0.00427175281086697
0.00510949653305583
0.00587004561558517
0.00654030551843034
0.00711661672279042
8.64934961444417e-05
0.00059432855108278
0.00142544128529485
0.00236213573792844
0.00330156596220658
0.00420066717857861
0.00504387858125005
0.00581904966789932
0.0065120031500579
0.00711367250789086
0.00762514072348566
8.22243532469532e-05
0.000593286538413074
0.00137876734070682
0.00228969232139736
0.00321371889853735
0.00410647286063432
0.00495149637714639
0.00573753314850423
0.00645131632448805
0.00708042855319499
0.00761960390984411
0.00807280850547513
7.17878188002891e-05
0.000566065447986608
0.00133016143413161
0.00220416939286493
0.00310656307928462
0.00398850130559801
0.00483182784393033
0.00562493250187715
0.00635565018093298
0.00701127281987786
0.007581766452479
0.00806461421690137
0.00846551423951573
5.93135600876647e-05
0.000524065197562113
0.0012635633982873
0.00210431989682435
0.00297846666733008
0.00384504379140159
0.00468339559910462
0.00548053368810891
0.00622431923909878
0.00690287426048686
0.00750491488206741
0.00802238857070679
0.00845467777333888
0.00880865704958524
4.62576619268885e-05
0.000472078502397409
0.0011757658059094
0.00198302861349278
0.00282635880980274
0.00367330024285488
0.0045036129413642
0.00530243444643563
0.00605660149085072
0.00675436695462261
0.0073849494960892
0.00793843400165094
0.00840828437265845
0.00879527093063268
0.00910720837536789
3.31661148495719e-05
0.000411179148241499
0.00106637218610032
0.00183333486396811
0.0026444542576176
0.00346908508335453
0.00428880259201424
0.0050874696098779
0.00585041817991723
0.0065650718073974
0.00722078468228877
0.00780793429610865
0.0083177781875168
0.00874497556789737
0.00909140937518791
0.00936572273301315
2.02299802696397e-05
0.000339911747949247
0.000933174558722832
0.00164975956626282
0.00242521795879026
0.0032263703749807
0.0040340476653516
0.00483138358827204