/*--------------------------------*- C++ -*----------------------------------*\
  =========                 |
  \\      /  F ield         | OpenFOAM: The Open Source CFD Toolbox
   \\    /   O peration     | Website:  https://openfoam.org
    \\  /    A nd           | Version:  12
     \\/     M anipulation  |
\*---------------------------------------------------------------------------*/
/*   Windows 32 and 64 bit porting by blueCAPE: http://www.bluecape.com.pt   *\
|  Based on Windows porting (2.0.x v4) by Symscape: http://www.symscape.com   |
\*---------------------------------------------------------------------------*/
FoamFile
{
    format      ascii;
    class       volScalarField;
    location    "200";
    object      omega;
}
// * * * * * * * * * * * * * * * * * * * * * * * * * * * * * * * * * * * * * //

dimensions      [0 0 -1 0 0 0 0];

internalField   nonuniform List<scalar> 
10140
(
3.17419254673921
3.17584401183184
3.12312201955107
1.08290177369342
3.1778755505596
3.12505230271467
1.08304237319025
3.06655807444643
1.06724501770314
0.662207253904661
3.17938445023104
3.12747348652371
1.08322098807516
3.06860081465238
1.06739698197362
0.662192172166426
3.00930308076898
1.0459812859998
0.6563325576715
0.503840682569615
3.18043122138534
3.12910440035482
1.08333849352042
3.07129295141297
1.06760622634133
0.662160141902578
3.01131258629398
1.04610190367438
0.656325240705142
0.503795574451481
2.95961294032346
1.02569732658787
0.647044450128601
0.501379290044015
0.426448135233826
3.18118363192418
3.13017042149062
1.08335606588651
3.0730015062669
1.06773895362154
0.662094826000915
3.01417050478734
1.04633102555053
0.656297159572959
0.503723852854848
2.96159868570203
1.02577941087846
0.647035095181634
0.501341282920017
0.426393932761791
2.91297617719416
1.00895265520768
0.63694795156499
0.496832626216653
0.425380458312162
0.383273165293969
3.18170310369442
3.13093066826085
1.08327046569326
3.07406506847405
1.06775872166511
0.661979531040006
3.0159376225721
1.04647831807449
0.656233247006401
0.503623244711235
2.96459906159197
1.02601261686286
0.647008827064142
0.501271238741769
0.426313296875041
2.91492013568196
1.00900575249248
0.636931817881348
0.49679727020139
0.425332874478643
0.383215434389719
2.8608294910693
0.99389122327866
0.627434955531098
0.491121363666798
0.422914402448245
0.382789261641669
0.357278889179642
3.18197478372241
3.1314672709355
1.08307630146081
3.07481328650847
1.06767151733884
0.661803926615636
3.01702444823719
1.04650015503749
0.656117554359088
0.503486268152476
2.96643163370677
1.02616828110691
0.646946088238407
0.501170779764864
0.426206655891401
2.91805827496379
1.0092393600958
0.636903889068147
0.496728185230608
0.425253751146262
0.383133194309361
2.86276955017443
0.993919481589608
0.627411198005792
0.491085167631491
0.422870273293081
0.382737851580141
0.357219842835389
2.79885952204476
0.977503631397229
0.61820735504541
0.484950666585246
0.419356107790633
0.381275355048471
0.357010599744381
0.340903556709049
3.18193128404654
3.13177851356124
1.08275790249929
3.07535153732908
1.06747618854449
0.661557725352917
3.01778440592057
1.04641058516201
0.655940920367873
0.503305082211143
2.96753302958421
1.02619238829255
0.646829463489337
0.501033390847932
0.426069737212198
2.91997671832723
1.00940021589048
0.636840738030071
0.496627502259826
0.425147272188519
0.383027481469044
2.86590884610995
0.994147600723424
0.627379264420626
0.491015424514129
0.422792422045686
0.382657137643787
0.357138114163113
2.80079355263069
0.977512456411814
0.618175656818835
0.484911870464895
0.419312586505016
0.381227578171204
0.356957688440648
0.340844440675215
2.72668970278696
0.958137389999411
0.608316316947566
0.478459321651916
0.415065972479131
0.378823700884077
0.35591717135012
0.340702942985342
0.330338547883193
3.18146531261856
3.13179518344805
1.08228998231154
3.07566947637708
1.06715906533623
0.66122760976387
3.018326025349
1.04621269111012
0.655693724238147
0.50307083073776
2.96829823481986
1.02610038001125
0.646650640584107
0.500851587541267
0.425896778815586
2.92110467505948
1.00942481064332
0.636722372466428
0.496488988333242
0.42501010375856
0.382895295813469
2.86789092771643
0.994308263323101
0.627313838879542
0.490913595381702
0.422685880254723
0.38255166004804
0.357034881183181
2.80378805416613
0.97770855657941
0.618137045479545
0.484839844069061
0.419234897568007
0.381148361177666
0.356877496670122
0.340763853608949
2.72848829899161
0.958134966019546
0.608276985568439
0.478417165356232
0.415021492126018
0.378777080993658
0.355867971181815
0.340649851443316
0.330280553481782
2.64756930506109
0.935437406651011
0.597103175745832
0.471452952135625
0.410274134514559
0.375652207960862
0.35404152761684
0.339794697916401
0.330162047110044
0.323491604249828
3.18043567614006
3.13140450863345
1.08163769772205
3.0757019978971
1.06669561114864
0.660796374924372
3.01865485729784
1.04589277412712
0.655362958462308
0.502772786428802
2.96884687693679
1.02589755965587
0.646400735174886
0.500616677354367
0.425680667159334
2.92186745744602
1.00932850821525
0.636540250298124
0.496305408300535
0.424836733053984
0.382732157982105
2.86904936946075
0.994330841415842
0.627192488437818
0.490773079806102
0.422547868455091
0.382419317657005
0.356907873428354
2.80583031245251
0.97785984916439
0.618067013232267
0.484735708502308
0.419127646220503
0.381043053208002
0.356774574705805
0.340663095934705
2.73104545935808
0.958264449433027
0.608227345634047
0.478341491508257
0.414942762522824
0.378698521539257
0.355789426665676
0.340570824009143
0.330201236949867
2.64838981106746
0.935431176826243
0.597060510970148
0.471407416882051
0.410228061685089
0.375605416684845
0.353993807808
0.339745381376832
0.330110008286379
0.32343667769546
2.59547101375448
0.909495297438896
0.584294248408594
0.463744775981891
0.405064043750676
0.371999804315649
0.351560566692634
0.338238338928866
0.329351257571856
0.32333291096767
0.319128565765268
3.17864614674021
3.13046428936937
1.0807541255459
3.07534679187295
1.06605088811218
0.6602425844818
3.01870895249321
1.04542599495209
0.654931629408607
0.502397912765307
2.9691864073129
1.02557215268223
0.646067013608879
0.500318016452209
0.425412701061766
2.92240267080349
1.00911746633536
0.636285840228673
0.496068251109041
0.424620120740337
0.382532301890628
2.86982093007654
0.99422830212677
0.627005799364855
0.490586590137787
0.422373099763071
0.382255870032143
0.356753532280912
2.80699971089051
0.977877446775165
0.617941250591139
0.484592316275927
0.418988100123055
0.380910122100367
0.356647492041404
0.340540498285588
2.73316188675687
0.958396411136111
0.608150236985413
0.478233923942806
0.414833982738475
0.378592940815006
0.355686866559975
0.340470433513682
0.330102248211531
2.64884060993113
0.93526159161173
0.596997019643102
0.47132712918069
0.410147450275938
0.375526586987359
0.353916253213667
0.339668117426541
0.3300322732825
0.323358321812501
2.58955110150242
0.909065993366166
0.584254364770699
0.463697931557435
0.40501629386812
0.371952363262164
0.351513177331043
0.338190734397538
0.329303040567697
0.323283888151782
0.319081820360228
2.19511855608449
0.879578887487601
0.569717148250361
0.455262245928275
0.399473645487866
0.368047608386419
0.34870764434171
0.3362135734473
0.327999918675425
0.322592199439347
0.318989560803174
0.316471305560992
3.17586161578367
3.12880622539328
1.07958819375296
3.07446752106537
1.06517788153916
0.659540409570783
3.01838912193445
1.04477859656682
0.654378521502292
0.50193070268246
2.96925437389871
1.02509967866194
0.645632646553557
0.499942615409612
0.425082420740195
2.92272586748175
1.00878250902222
0.63594678617064
0.495766977036533
0.424351587170388
0.382288516550185
2.87035334305495
0.994006461085048
0.626745103796012
0.490345669905545
0.422154620454013
0.382055585323597
0.356567047384412
2.80775749660702
0.977766300108
0.617748914680908
0.484402026242166
0.418811018444485
0.38074555148296
0.356492899217663
0.340393253007774
2.7343452342622
0.958404577149324
0.608018994237672
0.4780869006827
0.414692244784495
0.378458912409815
0.355559403064742
0.340347823070722
0.329982757277488
2.65064667374449
0.935263003130539
0.596911469755451
0.471215434966884
0.410036487259634
0.37542015009332
0.353813764561656
0.339568239595307
0.329933698277597
0.323259690073047
2.19480760589549
0.9065243574463
0.584126338284088
0.463613677020485
0.4049334297754
0.371872686573289
0.351435869929008
0.338114704145142
0.329227158293411
0.323207134257146
0.319002517965603
2.19512461210797
0.876864938161738
0.569588835376778
0.455218749659633
0.399424928764696
0.367999480370726
0.34866022349579
0.336166656251581
0.327953577104301
0.32254700335701
0.318948684204137
0.316449603747009
2.19484813698115
0.821774381878038
0.553005712144689
0.446036743204429
0.393582987375987
0.363938100506448
0.345692170260691
0.333950407521614
0.326305582855678
0.321395501944265
0.318310410008498
0.316353458491348
3.17179517328873
3.12619084938929
1.07807365848566
3.07290138122288
1.06402470305957
0.658660483545055
3.01756538643432
1.04390714830486
0.65367789873601
0.501353195428419
2.96895744885151
1.02444718939223
0.645076728472149
0.499475048080915
0.424677590799335
2.92278766054195
1.00830004227458
0.635506481844212
0.495388693064553
0.424020687360006
0.381992029268208
2.87066411108407
0.993656257829861
0.626398344532818
0.490039862010575
0.421883770809183
0.381811242166373
0.356342257580153
2.80828976427194
0.977531449260163
0.61748067862953
0.484156199097406
0.418589458055109
0.380543662260125
0.356306031864625
0.340217330589137
2.73507092676828
0.958282255965104
0.607820389235918
0.477892232364285
0.414512170651776
0.378292495485949
0.355403895059817
0.340200386587391
0.329840743953143
2.65178056755134
0.935223810976863
0.596774523175278
0.471064481682435
0.409892117625891
0.375284559923019
0.353685558267987
0.339445416384323
0.329814246818328
0.323141556623322
2.19480538680966
0.905666641696206
0.584002279738693
0.463498263780862
0.404820014658425
0.371764983050173
0.351333033710006
0.338015163164463
0.329129215448894
0.323108957485691
0.318901421528398
2.19513112172946
0.852865996903978
0.5690633983203
0.455124076958221
0.399340206220234
0.367918773421799
0.348582742926874
0.336091242214221
0.32787910684984
0.322472172011828
0.318870986225
0.316359738546415
2.19485185442383
0.821093722407078
0.552534704234536
0.445981900190254
0.393535061329661
0.363889592704037
0.345644744814368
0.333903899793292
0.326260181633359
0.321352264526984
0.318273388920989
0.316336833371989
0.315043479333688
2.19192791436318
0.796051882720463
0.533202222400319
0.436250652363094
0.387574205804748
0.359844553456803
0.342703196421309
0.331663633027617
0.324499914159315
0.319960722953337
0.317242752409279
0.315731353747668
3.16606344156113
1.07614630577631
3.12235482495995
3.07038964576269
1.06253042770393
0.657571517897184
3.01607602952149
1.04276143310458
0.652800734603602
0.500645225625399
2.96816837673325
1.02357329011044
0.644374193140176
0.498897415570585
0.424184255048908
2.92249293213348
1.0076365116737
0.634944266377639
0.49491800613602
0.423615189720531
0.38163260878507
2.87070345489394
0.993156959792937
0.625949072992054
0.489656345122738
0.421550123063467
0.381514087883289
0.356071631449895
2.80860780805632
0.977163828702074
0.617124236844148
0.483844304358076
0.418314753384409
0.380297230330852
0.356080730434982
0.340007384543686
2.73558257365502
0.958033767450191
0.607544038471637
0.477640875560281
0.414286697809448
0.378088012453032
0.35521563196504
0.340024138598141
0.329672851347945
2.65240967056542
0.935076917522291
0.596570010955725
0.47086537613629
0.409708727849634
0.375115805015499
0.353528567238388
0.339297240720039
0.329672094594326
0.323002820861802
2.19480318386555
0.905381944208393
0.583849119211916
0.463343904184631
0.404672950624174
0.371627579178464
0.351203766386535
0.337891876628111
0.32900968653692
0.32299090718353
0.3187823190353
2.19512681827939
0.84819713017786
0.568752621934716
0.455000224328202
0.399224668348844
0.367809701297011
0.348479295430419
0.335991732417186
0.32778170264175
0.322374729163753
0.318770387761026
0.316250473278073
2.19485570431745
0.818231901359352
0.550363011516798
0.445833316661675
0.393448295792074
0.363808062081737
0.345567013424057
0.3338287799435
0.326186591128573
0.321278973577496
0.318197632569691
0.316248975050792
0.314909833218659
2.19193055418302
0.795684658062042
0.532969695545456
0.436147232785267
0.387525331326256
0.359796319342513
0.342656005761075
0.33161761778235
0.324455239063981
0.319918579445159
0.31720777202133
0.315717938577667
0.31494617680511
0.314384431858037
2.18619294169925
0.773878927990459
0.517978189944733
0.426533358131687
0.381815267673247
0.356041558403716
0.339968345531802
0.329563009388957
0.322798446242804
0.318524720132402
0.316022726130577
0.314776065755093
3.15821315727943
1.07372626949144
3.11696688495557
0.656236520681198
1.06063037121749
3.0666538281872
3.01367167633348
1.04127840742348
0.65171505181169
0.499785083631062
2.96671684534275
1.02242796057537
0.643496148302983
0.498189648567022
0.423586897426427
2.92171150057529
1.00675099466192
0.634235477372907
0.494337145980705
0.42312115380662
0.381198784953412
2.87037868200442
0.99247526608772
0.625376627057119
0.489179731960274
0.421141444916689
0.381153902723892
0.35574635760696
2.80864083821672
0.976642335840476
0.616663328178506
0.483453475058494
0.417976445086726
0.37999749600192
0.355809455351024
0.339756774803431
2.73591713868531
0.957649069316278
0.607177045257307
0.477322023791632
0.414007069785878
0.377838206707404
0.354988449778281
0.339813733313841
0.329474345909045
2.65282273700032
0.934808692593828
0.596286196624999
0.470608488754041
0.409479018392182
0.374908121098568
0.353338086730215
0.339119778755862
0.329503925500722
0.322840660739418
2.19479800618548
0.905153073662009
0.58363669809228
0.463141098517119
0.404486356732755
0.371456322027193
0.351044940808859
0.33774250821793
0.328866937855126
0.322852073909978
0.318644862645596
2.19512477951573
0.847169382568092
0.568537223725793
0.454841158759975
0.399075352643629
0.367670534863712
0.348348836113004
0.335867764366438
0.327661926918825
0.322256712187527
0.318651409879216
0.316127607838824
2.19485330122245
0.816955383226908
0.549525497207987
0.445677579159128
0.393330411812083
0.363697865547199
0.345462950131983
0.33372912896335
0.326089494339944
0.321182227874058
0.318097856066595
0.316140385453311
0.314786230223115
2.19192988002277
0.794882107805115
0.532288439631152
0.435845830340517
0.387431157980855
0.359714274374273
0.342578207617458
0.331542783277266
0.324382271976576
0.31984635140748
0.317133614567489
0.315632210930784
0.314818590772124
0.314263818012316
2.18619500588245
0.773546759519522
0.517787793718115
0.426438148148527
0.381758981476944
0.35599361869465
0.339921777200476
0.329517743196586
0.322754625624649
0.318483510608304
0.315988938523643
0.314764272499021
0.314376122732215
0.314305706234432
0.314287737054727
2.18721907869173
0.750982746570571
0.505523509265046
0.418862053713465
0.377028957312757
0.352986400209139
0.337820815055372
0.327908385252789
0.321421510191563
0.317304308425653
0.314893750245892
0.31373861230389
3.14763587826501
1.07072381370861
3.10939243651377
0.654616984505639
1.05824831939343
3.06139934551733
0.498748617476946
0.650385315093608
1.0393929051205
3.01000861343642
2.96434930166924
1.02094873847252
0.642410315392454
0.497329854105961
0.422868768394034
2.92026131258394
1.00559206409135
0.633351501322444
0.493626080185206
0.422523075836476
0.380677808974881
2.86956397041448
0.991568645879871
0.624656423545934
0.488592290302213
0.420643789897994
0.380719140999644
0.35535650526777
2.80828819473737
0.97593544963218
0.616077278137591
0.48296838002194
0.417562263938136
0.379634218532274
0.355483379142864
0.33945770767713
2.73597242997079
0.957105223380059
0.60670283542784
0.476922654163225
0.413662711910573
0.377534268195761
0.354714784789494
0.339562522612696
0.329239265743589
2.65312476163891
0.93440484729122
0.59590913118428
0.470282533945027
0.40919402155727
0.374654153150803
0.353107915955774
0.338907678513198
0.329305016476817
0.32265077519533
2.19480374182143
0.90484481258097
0.583346502865185
0.46287955343094
0.40425260279668
0.371245292139012
0.350851781521233
0.337563128836029
0.328697701067299
0.322689677224419
0.318486397714946
2.1951198105926
0.846773822696239
0.568306096796855
0.454635453631106
0.398886190432463
0.367496968596225
0.348188115866202
0.335716943025262
0.327518209223043
0.32211739334016
0.318513888164689
0.315989656944357
2.19485167696793
0.816428003188438
0.549172515363133
0.44550599071417
0.393179217313122
0.363557318911738
0.345331418913872
0.333604421528935
0.325969317557473
0.32106413184314
0.317979008796627
0.316017714762844
0.314658264168006
2.19192784839133
0.794282309401369
0.531831745193542
0.435618952636093
0.387307660874389
0.359603275209895
0.342473769681265
0.331443046362807
0.324285363884491
0.319750115664856
0.3170346531074
0.315524643034227
0.314696442891531
0.314140586076084
2.18619346582451
0.772896240689696
0.51739884202078
0.426231419638687
0.381646630282756
0.355910522658673
0.339844228354365
0.329443404942086
0.322682317778894
0.31841213106521
0.315915953889096
0.314680218984273
0.314252647027605
0.314191157219205
0.314177347955513
2.18721905677796
0.750712281881347
0.505314993625193
0.418754900116159
0.376966828750209
0.352937459787776
0.337775148388112
0.327864223989899
0.321378829454613
0.317264200195764
0.31486100370558
0.313727765788262
0.313519301257001
0.313781470501433
0.314225768207136
0.314574281711387
2.2161092742595
0.729669228825035
0.496409057559691
0.41445930034488
0.374509214513802
0.351446110623076
0.336777378385105
0.327072045675702
0.320649305004187
0.316526698218321
0.314074911006263
0.312868805319181
3.13400939679004
1.06704320504271
3.09880598070458
0.652672030063934
1.05528586659368
3.05386800036681
0.497510820634701
0.648772865253654
1.03703235810466
3.00464270555656
0.422012068913927
0.496294191864035
0.641081569474397
1.01906396344921
2.96067932217746
2.91788850516202
1.004098106337
0.632259554031836
0.492762829617449
0.421804175232791
0.380055995125934
2.86807072514234
0.990384333961025
0.623759699069422
0.487873977093723
0.420041640363478
0.380197052024935
0.354891212272094
2.80742737657429
0.975000125515373
0.615341183848257
0.482371158606358
0.417058211963585
0.379195796800289
0.35509253936179
0.339101366244559
2.73563483975317
0.956369120140595
0.606100695275566
0.476427320373796
0.413241276344793
0.377165892233444
0.35438577017946
0.3392626809685
0.328960521139672
2.65319363112496
0.933838508210065
0.595421445123357
0.46987415130265
0.408842970801714
0.374344979413833
0.352830431342042
0.338654260787484
0.329069377717925
0.322427632298652
2.1948092905844
0.904415618580586
0.58296105721874
0.462547239151081
0.403962385976582
0.370986950562679
0.35061799530476
0.337348347854994
0.328497246728893
0.322499419560383
0.318302756703847
2.19512548417959
0.8464333398181
0.568010677111073
0.454371073577938
0.398649178559453
0.367282878205619
0.347992227435221
0.335535271751101
0.327347281571333
0.321954037001121
0.318355211184468
0.315833238540708
2.19484905933732
0.816075893583892
0.548910091261816
0.445296878029993
0.392988475458402
0.363382008331562
0.345169043750935
0.333452141936444
0.325824424854763
0.320924009347979
0.317841087195999
0.315879729798881
0.314519067147748
2.1919284360264
0.793866951915328
0.531537049795656
0.435423169369926
0.38715382353283
0.359461907213404
0.342341534498202
0.331317758920256
0.324164765615716
0.319631821729899
0.316915858491492
0.315402227756981
0.314568835465394
0.314011654190118
2.18619093755697
0.7723436511441
0.517035729155747
0.426025746671119
0.38151158575692
0.355798490444823
0.339739797302541
0.329343843051634
0.3225856860169
0.318316313366153
0.315817645615198
0.314573631831886
0.31413222626364
0.31406953170418
0.31405770009128
2.18721821276561
0.75003096818022
0.504923283120639
0.418555951371445
0.376852518839349
0.352851483360883
0.337698007719417
0.327790712252789
0.321307416817791
0.317193731984112
0.314789018376312
0.313644977178256
0.313398217094699
0.313671051464382
0.314121331996621
0.314468914301178
2.21610890975852
0.729556103915572
0.496168245162472
0.41432665685524
0.374435197874881
0.35139464990987
0.336732451922256
0.32702934245842
0.320608135519603
0.31648800360195
0.314043385256837
0.312858844386177
0.312638659381501
0.313010048906741
0.313742072939056
0.314526850295477
0.315105130527454
2.28699538146645
0.71889696829496
0.495207760821572
0.415952650360721
0.376117203671476
0.352693497270434
0.33765982146087
0.32761477253452
0.32088128610317
0.316486034120517
0.313798762462825
0.312388408666022
1.06255494951546
3.08482946385871
0.65036095899733
1.0516293267371
3.04318852802743
0.496046203887354
0.646835975642884
1.03409600929982
2.99712703867805
0.4209985568285
0.495057565124346
0.639471635870093
1.0166977286743
2.95527496423228
0.379319285679914
0.420946658401103
0.491723668548756
0.630923959721095
1.00219315451101
2.91420821629576
2.86563548870069
0.988859040580196
0.622653417030341
0.487002627784009
0.41931816788323
0.379573972803268
0.35433899884421
2.8058653362839
0.973780642272531
0.614425765202335
0.481641630545918
0.416448694366876
0.37866943716099
0.354626042338314
0.338678233285408
2.73478301305925
0.955396403790742
0.605345096990885
0.475817935542088
0.4127286366483
0.376721391319362
0.353991387751494
0.338905379481003
0.328630158760074
2.65293171849374
0.933071944377093
0.594801257592437
0.469367635398305
0.408413342373611
0.373970177377963
0.352496687835068
0.338351652698964
0.328789908039106
0.322164670061397
2.19480393953053
0.903825958778273
0.582460570931491
0.462130196820941
0.403604683994224
0.370672200223668
0.350335847380415
0.337091420896684
0.328259547641943
0.322275751947146
0.318088635258496
2.19513090795769
0.846021834739079
0.567621138714314
0.454034300808876
0.398354541320862
0.367020466470076
0.34775472475848
0.335317269602539
0.327144373445696
0.321762336925701
0.318171216643605
0.315653930404275
2.19485431366289
0.815708530464813
0.548615971759651
0.445032522138701
0.392749640619295
0.363165571281648
0.344970746575278
0.333268169376591
0.32565147731781
0.320759120012768
0.317681523365022
0.315723113874398
0.314363701966087
2.19192840437474
0.793517999793394
0.531278914711629
0.435209446809904
0.386962509727358
0.359285727999675
0.342178034655642
0.331164273999198
0.324018712755794
0.31949071573159
0.316777252006456
0.315263917563111
0.314429644214359
0.313872187012597
2.18619035161078
0.771908664374686
0.516734443144808
0.425826821911703
0.381353048117849
0.355656691259125
0.339607415794714
0.329218344840475
0.322464836531524
0.318197812295126
0.315698797258266
0.314451403595958
0.314005098336053
0.31394101738436
0.313929820115065
2.18721384409991
0.749402116729611
0.504534072576598
0.418339034236006
0.376711691621425
0.352737272233906
0.337593876413787
0.327691720419593
0.321211334186773
0.317098430029032
0.314691286910667
0.313539186368474
0.313279217229024
0.313551326044681
0.31400329563085
0.314352003762455
2.21610749982241
0.728815595706583
0.49571890979444
0.414099025043212
0.374308179770117
0.351305136430657
0.336655396636914
0.326956965076144
0.320537962599259
0.316418696496607
0.313972484119635
0.312777201316584
0.312519188525682
0.312901966380813
0.313641611247384
0.314427385649861
0.315001672080155
2.28699558541227
0.718556252781948
0.494891078962854
0.415773447242924
0.376024030806567
0.352636290411949
0.337614835123277
0.327573695748755
0.320842019955361
0.316449142624457
0.313768784838207
0.312379552627446
0.311989599896516
0.312263943877393
0.313044880265984
0.314078267439122
0.315070149988204
0.315776345056368
2.38167955402928
0.748262143451631
0.515902285616418
0.429925049028512
0.385407706744367
0.358867282876715
0.341811013137701
0.330408907383156
0.322711316638694
0.317601353463077
0.314369681976385
0.312534409860406
0.647637840762459
1.04714568016573
3.0289930437974
0.494330107191038
0.644532306534312
1.03046821877669
2.98632488204515
0.419810105673966
0.49359431440596
0.637538734020646
1.01376967351805
2.94767024715773
0.378453548667404
0.419932212912018
0.490483494187358
0.629306563413461
0.999803017223735
2.90870716788114
0.353688204582169
0.37883574382129
0.418455529660043
0.485954374747894
0.621300979523742
0.986919194285297
2.86187214963629
2.80332821536836
0.972211154083452
0.613297740661937
0.480757357948836
0.415716750343836
0.378041424047869
0.354072369133381
0.338178373604599
2.7332511586694
0.954123194882825
0.604405691394308
0.475074016540545
0.41210903751159
0.37618786726869
0.353520678549684
0.338481052742116
0.328239615553809
2.65261722001684
0.932046424917464
0.59402098817034
0.46874454065084
0.40789080922348
0.373517915109884
0.352096568163622
0.337990971699185
0.328458622374358
0.321854541073718
2.19479860741361
0.903026088494704
0.581819878114339
0.461611983477734
0.403166662506559
0.370290435107869
0.349996262517773
0.33678438973458
0.32797745735203
0.322012092811455
0.317837810989177
2.19512558481951
0.845479795294315
0.567111359075696
0.45360976423309
0.397990848402656
0.366700397367582
0.347467706426187
0.335056079039945
0.326903388267903
0.321536708148835
0.317956584536661
0.315446461041123
2.19485531460617
0.815271873739816
0.548234965343875
0.44469489043052
0.392452141247151
0.3628998927208
0.344729877397519
0.33304688043112
0.325445611804199
0.320565113615668
0.317496147664705
0.315543457179935
0.314187316756356
2.19193125464139
0.793142828628423
0.530989448681095
0.434948932932175
0.386724016124495
0.359068100779085
0.341977994643082
0.330978314013768
0.323843739810594
0.319323979737732
0.316616254229465
0.315106460303715
0.314274089243904
0.313717609925778
2.18619245123398
0.771509567615523
0.51645618603062
0.425611762657888
0.381161749633298
0.355480693773505
0.33944357075754
0.329064149282416
0.322317862955767
0.318055732418626
0.315559329582627
0.314312498019175
0.313865657917955
0.313801571347093
0.313790791340971
2.18721386158079
0.748909573625815
0.504195154389586
0.418124210571017
0.37654904165099
0.352594933282884
0.33746194334056
0.327566547756624
0.321090587818058
0.316979880759009
0.314572368305327
0.313417021034171
0.313152464710852
0.313423379003411
0.313875839629265
0.314225289217629
2.21610229245698
0.72801330063947
0.495269365733617
0.413852379157828
0.374155287928739
0.3511879276899
0.336551502654229
0.326858949792395
0.320442824059986
0.316324176442592
0.313875426523054
0.312672124606383
0.312401229243346
0.312783772022194
0.313525461286362
0.314312070822017
0.314886038025022
2.28700593835545
0.717494020904544
0.494341619210877
0.415497950629548
0.375874752425784
0.352539605802209
0.337536960378689
0.327502526415375
0.320773436492541
0.316381347135881
0.313699222428137
0.312299173972133
0.311871616971085
0.31215735566464
0.312946592309995
0.313982681002545
0.314972568489566
0.315673038815587
2.38168145625283
0.745776145002851
0.515215792437424
0.429645267487511
0.385276614944542
0.358797800790458
0.341763989173893
0.330369160838755
0.322674243732451
0.317566681527432
0.314341658531063
0.312527007046877
0.311796455872562
0.311802889883965
0.312414323861837
0.313444947303959
0.314651691289241
0.315751928978255
0.316510884168845
3.68516517047986
1.02852321502429
0.606589630905036
0.473737646194152
0.410227225873973
0.374021269724297
0.351542939959871
0.336868033952772
0.327053119400547
0.32049153634361
0.316221287028501
0.313619043642129
0.492338826726224
0.641813459681284
1.02600285667151
2.97203856931603
0.418429768432684
0.491879466642504
0.63524013915612
1.0101465065486
2.93673884330277
0.377445169167082
0.418742603807684
0.489016518674262
0.627367180208443
0.99684923009627
2.90086611190281
0.352927517807236
0.37796814336159
0.417435307205297
0.484704037978878
0.619664348970411
0.984485721692078
2.85621388610233
0.337591915872542
0.353419795008868
0.377297483839587
0.414844379617055
0.47969411937216
0.611920194324951
0.970222630398799
2.79941888883272
2.7307177587812
0.952472481481851
0.603248623898905
0.474172863853176
0.411365283919708
0.375551465698514
0.352962040315942
0.337979722397946
0.327780121888656
2.65203430885442
0.930824021115067
0.593045941378146
0.467983719362831
0.407259357579687
0.372975116343497
0.351618991155432
0.337562575675049
0.328066928768593
0.321489433351806
2.19480421378859
0.902255673108019
0.581002139646604
0.460973166169036
0.402633692527272
0.369829616636711
0.349588966581255
0.336418266433121
0.327642930874722
0.321701073018695
0.317543397216488
2.19512025608535
0.844903643079783
0.566447505849959
0.453079345458586
0.397544765680812
0.366311807004168
0.347121910844154
0.334743604726891
0.326617090777758
0.321270521363907
0.317705074591628
0.315204816142194
2.19485207565669
0.814716644910045
0.54773110815467
0.44426566428053
0.392083771879075
0.36257530382398
0.344438315431911
0.332781253351833
0.325200614819341
0.320336333699513
0.317279605294721
0.31533547475608
0.313984610525052
2.19193118340958
0.792684942179883
0.530614284513783
0.434615956030923
0.386426200659199
0.358800511288141
0.341734519457351
0.330754071007194
0.323634840811236
0.319127166594079
0.316428650342476
0.314925448629474
0.314097350091055
0.31354318936747
2.18619365611158
0.771068905349504
0.516150111278838
0.425356007381219
0.380926033892225
0.355263499642072
0.339242794875271
0.328876805727374
0.322141142292101
0.317887121976133
0.315396576598804
0.314153659302258
0.313709285590991
0.313646800985043
0.313636848837455
2.18721698531951
0.748480219089689
0.503879813203946
0.417899195877716
0.376358036403905
0.352420071465243
0.337298714715401
0.327412351432306
0.32094313988422
0.316837032215599
0.314432024462435
0.313277326245487
0.31301250131026
0.313283712001073
0.313736827794987
0.314086702075842
2.21610342175294
0.727419684645386
0.494893521511083
0.413614390004215
0.373985328636614
0.351044816642867
0.336420462966
0.326734714166894
0.320322680347474
0.316205899662017
0.313756570306916
0.312549976456152
0.312274655261147
0.312656267972862