/*--------------------------------*- C++ -*----------------------------------*\
  =========                 |
  \\      /  F ield         | OpenFOAM: The Open Source CFD Toolbox
   \\    /   O peration     | Website:  https://openfoam.org
    \\  /    A nd           | Version:  12
     \\/     M anipulation  |
\*---------------------------------------------------------------------------*/
/*   Windows 32 and 64 bit porting by blueCAPE: http://www.bluecape.com.pt   *\
|  Based on Windows porting (2.0.x v4) by Symscape: http://www.symscape.com   |
\*---------------------------------------------------------------------------*/
FoamFile
{
    format      ascii;
    class       volScalarField;
    location    "200";
    object      p;
}
// * * * * * * * * * * * * * * * * * * * * * * * * * * * * * * * * * * * * * //

dimensions      [0 2 -2 0 0 0 0];

internalField   nonuniform List<scalar> 
10140
(
83333.3280544625
83333.3279295221
83333.328055188
83333.3280540964
83333.3278026387
83333.3279301376
83333.3279290975
83333.3280563543
83333.3280548433
83333.3280546342
83333.3276740545
83333.3278031017
83333.3278021775
83333.3279312412
83333.3279297852
83333.3279298392
83333.3280579766
83333.3280559996
83333.3280553673
83333.3280579498
83333.3275436147
83333.3276744964
83333.3276735109
83333.3278041291
83333.3278027407
83333.3278028744
83333.3279328801
83333.3279309184
83333.3279305856
83333.3279334319
83333.3280601604
83333.3280576266
83333.3280565299
83333.3280587474
83333.3280651152
83333.3274112708
83333.3275440773
83333.3275429788
83333.3276755371
83333.3276740427
83333.3276740601
83333.3278057788
83333.3278038176
83333.3278035462
83333.3278065617
83333.327935144
83333.3279326032
83333.3279317807
83333.3279343189
83333.3279407588
83333.3280629623
83333.3280598214
83333.328058201
83333.3280599394
83333.3280658753
83333.3280760936
83333.3272769774
83333.3274117615
83333.327410554
83333.3275451621
83333.3275435252
83333.3275433925
83333.3276772458
83333.3276751288
83333.3276747012
83333.3276776855
83333.3278081255
83333.3278055266
83333.3278047224
83333.3278073939
83333.3278139881
83333.327938075
83333.3279349149
83333.3279335686
83333.3279356553
83333.3279416977
83333.3279518842
83333.3280663835
83333.3280626458
83333.3280604475
83333.3280616817
83333.3280671617
83333.3280768006
83333.3280906314
83333.3271406717
83333.3272774982
83333.3272761884
83333.3274129044
83333.3274111303
83333.3274108535
83333.327546952
83333.327544655
83333.3275440345
83333.3275469179
83333.3276797061
83333.3276768926
83333.3276758871
83333.3276784739
83333.3276851252
83333.3278112026
83333.3278079298
83333.327806554
83333.3278087242
83333.327814889
83333.3278252351
83333.32794167
83333.3279378994
83333.3279359824
83333.3279375716
83333.3279431557
83333.3279527873
83333.327966573
83333.3280704017
83333.3280661097
83333.3280633292
83333.3280640196
83333.3280689723
83333.3280781119
83333.3280913082
83333.3281084038
83333.3270022779
83333.3271412263
83333.3271398179
83333.3272787097
83333.3272768033
83333.3272763771
83333.3274147926
83333.3274123206
83333.3274115121
83333.3274142734
83333.3275495415
83333.3275464945
83333.3275452513
83333.3275477016
83333.3275543342
83333.3276829553
83333.3276794067
83333.3276777682
83333.3276797912
83333.3276859749
83333.3276964502
83333.3278149992
83333.3278110642
83333.3278090789
83333.3278106992
83333.3278163518
83333.3278261089
83333.3278400722
83333.3279459059
83333.3279415594
83333.3279390677
83333.3279401057
83333.3279451703
83333.3279542836
83333.3279674412
83333.3279845557
83333.3280750054
83333.3280701964
83333.3280668623
83333.3280670012
83333.3280713895
83333.3280799476
83333.3280925716
83333.3281090614
83333.3281291094
83333.3268617084
83333.3270028691
83333.3270013637
83333.3271425188
83333.3271404744
83333.3271398902
83333.3272807152
83333.3272780692
83333.3272770683
83333.3272796945
83333.3274175303
83333.3274142556
83333.3274127808
83333.3274150778
83333.3274216468
83333.3275529703
83333.3275491328
83333.3275472022
83333.3275490362
83333.3275551789
83333.3275657108
83333.3276869727
83333.3276827046
83333.3276804027
83333.3276818056
83333.3276874227
83333.3276972743
83333.3277114221
83333.3278194862
83333.3278149247
83333.3278123304
83333.3278133624
83333.3278184408
83333.3278276195
83333.3278409154
83333.327858247
83333.3279507918
83333.32794588
83333.3279428336
83333.3279433051
83333.327947807
83333.3279563393
83333.3279688952
83333.3279853519
83333.3280054934
83333.328080274
83333.3280748707
83333.3280710338
83333.3280706519
83333.3280744791
83333.3280824211
83333.3280943945
83333.3281102499
83333.3281297026
83333.3281523761
83333.3267188848
83333.3268623451
83333.3268607387
83333.3270042644
83333.3270020666
83333.3270013155
83333.3271446612
83333.3271418255
83333.3271406249
83333.3271431038
83333.3272836271
83333.327280122
83333.3272784078
83333.3272805356
83333.3272870123
83333.327421156
83333.3274170378
83333.3274148254
83333.3274164593
83333.3274225226
83333.3274330567
83333.3275572065
83333.3275526058
83333.3275499642
83333.327551113
83333.3275566442
83333.3275665319
83333.3275808055
83333.3276917129
83333.3276867778
83333.3276838125
83333.3276845807
83333.3276895552
83333.3276987757
83333.3277122203
83333.3277297835
83333.327824658
83333.3278194884
83333.3278163098
83333.3278167474
83333.3278212231
83333.3278297626
83333.327842391
83333.3278590188
83333.3278794285
83333.3279565793
83333.32795085
83333.3279472594
83333.3279471938
83333.3279511303
83333.3279590482
83333.3279709492
83333.3279867446
83333.3280062195
83333.3280290701
83333.3280862338
83333.328080133
83333.3280757998
83333.3280749634
83333.3280782665
83333.328085609
83333.3280969013
83333.328112045
83333.3281308332
83333.3281529254
83333.3281778822
83333.3265737141
83333.3267195776
83333.326717834
83333.3268638646
83333.3268614857
83333.3268605622
83333.3270065684
83333.3270035086
83333.3270021027
83333.3270044131
83333.3271477789
83333.3271440212
83333.3271420511
83333.3271439934
83333.3271503497
83333.3272874812
83333.3272830775
83333.3272805718
83333.3272819888
83333.327287944
83333.3272984409
83333.3274256291
83333.3274207062
83333.3274177384
83333.3274186296
83333.3274240368
83333.327433913
83333.3274482622
83333.3275621809
83333.3275568946
83333.3275535524
83333.327554016
83333.327558843
83333.3275680566
83333.3275816037
83333.3275993557
83333.3276971096
83333.3276915838
83333.3276880005
83333.3276881412
83333.3276924582
83333.3277009711
83333.3277136925
83333.3277305232
83333.3277512164
83333.3278307156
83333.3278247363
83333.3278209845
83333.3278208647
83333.3278247477
83333.3278326317
83333.3278445439
83333.3278604376
83333.3278801345
83333.3279033191
83333.3279634479
83333.3279565233
83333.3279523049
83333.3279517619
83333.3279551683
83333.3279624843
83333.3279737049
83333.3279887826
83333.3280075579
83333.3280297584
83333.328055012
83333.3280916323
83333.3280859392
83333.3280811361
83333.3280799021
83333.3280827462
83333.3280895336
83333.328100167
83333.328114567
83333.3281326005
83333.3281540096
83333.3281783971
83333.3282052903
83333.326426082
83333.3265744584
83333.3265725406
83333.3267212342
83333.3267186283
83333.326717512
83333.3268663622
83333.326863034
83333.3268614127
83333.3268635233
83333.3270099257
83333.3270058734
83333.3270036268
83333.3270053601
83333.3270115618
83333.3271519085
83333.3271471879
83333.3271443603
83333.3271455379
83333.3271513548
83333.3271617773
83333.327292229
83333.327286973
83333.3272836621
83333.3272842845
83333.3272895324
83333.3272993589
83333.3273137437
83333.3274308571
83333.3274252288
83333.3274215343
83333.3274216879
83333.3274263356
83333.3274354937
83333.327449097
83333.3274670016
83333.3275677625
83333.3275619371
83333.3275579663
83333.3275577673
83333.3275618818
83333.3275703274
83333.3275831049
83333.3276001014
83333.3276210472
83333.3277031149
83333.3276970428
83333.3276929244
83333.3276924869
83333.3276961734
83333.327703973
83333.3277159079
83333.3277319409
83333.3277518942
83333.3277754216
83333.3278377428
83333.3278306665
83333.3278263028
83333.3278256952
83333.3278290302
83333.327836285
83333.3278474745
83333.3278625856
83333.3278815025
83333.3279039881
83333.3279296578
83333.3279683218
83333.3279629018
83333.3279579458
83333.3279569724
83333.3279599125
83333.3279666719
83333.3279772335
83333.3279915674
83333.32800958
83333.3280310649
83333.3280557029
83333.3280830237
83333.3280977035
83333.3280917492
83333.3280870135
83333.3280854386
83333.328087894
83333.328094184
83333.3281042025
83333.3281178821
83333.3281351214
83333.328155744
83333.3281794304
83333.3282057334
83333.3262758855
83333.3264268744
83333.3264247581
83333.3265762614
83333.3265733997
83333.3265720571
83333.3267239562
83333.3267203077
83333.3267184368
83333.3267203167
83333.3268700042
83333.3268655963
83333.3268630457
83333.3268645349
83333.3268705494
83333.3270143838
83333.3270092969
83333.3270061084
83333.3270070132
83333.3270126525
83333.3270229582
83333.3271569863
83333.3271513584
83333.3271476645
83333.3271479897
83333.3271530379
83333.3271627761
83333.3271771585
83333.3272977591
83333.3272917648
83333.3272877018
83333.3272875298
83333.3272919644
83333.3273010215
83333.3273146403
83333.3273326665
83333.3274366706
83333.3274305293
83333.3274261988
83333.3274256602
83333.3274295417
83333.3274378751
83333.3274506602
83333.3274677806
83333.3274889553
83333.3275737869
83333.3275675935
83333.3275631509
83333.3275623593
83333.3275658032
83333.3275734781
83333.3275854059
83333.3276015519
83333.3276217306
83333.3276455748
83333.3277096613
83333.3277030162
83333.3276984894
83333.3276975879
83333.3277007037
83333.3277078337
83333.3277189856
83333.3277341609
83333.3277532646
83333.3277760613
83333.3278021382
83333.3278426954
83333.3278372525
83333.3278322003
83333.3278311874
83333.3278340513
83333.3278407334
83333.3278512375
83333.3278655606
83333.3278836453
83333.3279053298
83333.3279303282
83333.3279581864
83333.3279742517
83333.3279685144
83333.3279641543
83333.3279627871
83333.3279653379
83333.3279716004
83333.3279815478
83333.3279951614
83333.3280123791
83333.3280330725
83333.3280570007
83333.3280837128
83333.3281127109
83333.3281040595
83333.3280980509
83333.3280932471
83333.3280915404
83333.3280936694
83333.3280995274
83333.3281089857
83333.3281219889
83333.328138453
83333.3281582421
83333.328181112
83333.3282066721
83333.3261230443
83333.3262744154
83333.3262767085
83333.3264288408
83333.3264256776
83333.3264240946
83333.3265792441
83333.3265752424
83333.3265730578
83333.3265746719
83333.3267279327
83333.3267231028
83333.3267202039
83333.326721402
83333.326727177
83333.3268748459
83333.3268693214
83333.326865729
83333.3268663138
83333.3268717168
83333.3268818574
83333.327019868
83333.3270138058
83333.3270096726
83333.3270096516
83333.3270144491
83333.3270240507
83333.327038399
83333.3271628853
83333.327156476
83333.327151992
83333.3271514601
83333.3271556355
83333.3271645423
83333.3271781328
83333.3271962505
83333.3273038895
83333.327297366
83333.3272926543
83333.327291761
83333.3272953756
83333.3273035485
83333.3273162927
83333.3273334979
83333.3273548817
83333.3274428721
83333.3274364274
83333.3274316691
83333.3274305284
83333.3274337016
83333.3274412089
83333.3274530833
83333.327469299
83333.3274896692
83333.3275138167
83333.3275802489
83333.327573641
83333.3275689667
83333.327567748
83333.3275706009
83333.3275775632
83333.3275886478
83333.3276038676
83333.3276231385
83333.3276462195
83333.3276726789
83333.3277154871
83333.3277094508
83333.3277045533
83333.3277033635
83333.3277060169
83333.3277125495
83333.3277229744
83333.3277372979
83333.3277554882
83333.3277774065
83333.3278027715
83333.3278311184
83333.327848729
83333.3278429822
83333.3278386526
83333.3278372761
83333.3278397725
83333.3278459555
83333.3278558316
83333.327869407
83333.32788665
83333.3279074704
83333.3279316698
83333.3279588903
83333.3279885837
83333.3279806248
83333.3279748011
83333.3279704434
83333.3279691667
83333.3279713975
83333.3279772354
83333.3279866261
83333.3279995643
83333.3280160068
83333.3280358677
83333.328058991
83333.3280849902
83333.3281133491
83333.3281440103
83333.3281105067
83333.3281045678
83333.3280998975
83333.3280981047
83333.3281000246
83333.3281055135
83333.3281144751
83333.3281268536
83333.3281425834
83333.3281615531
83333.3281835565
83333.3282082609
83333.325967563
83333.3261214739
83333.3261238784
83333.3262735334
83333.3262753984
83333.3262788613
83333.3264321206
83333.3264276965
83333.3264251746
83333.3264264643
83333.3265836198
83333.3265783064
83333.3265749852
83333.3265758374
83333.326581301
83333.326733227
83333.3267271784
83333.326723126
83333.3267233281
83333.3267284241
83333.3267383431
83333.3268808163
83333.3268742388
83333.3268696017
83333.3268691716
83333.3268736516
83333.3268830526
83333.3268973024
83333.3270262281
83333.3270193267
83333.3270143448
83333.3270133961
83333.3270172455
83333.3270259412
83333.3270394434
83333.3270576181
83333.3271694261
83333.327162441
83333.3271572876
83333.3271559963
83333.3271592942
83333.3271672494
83333.3271798981
83333.327197144
83333.3272187145
83333.327310414
83333.3273035881
83333.3272984496
83333.3272969467
83333.3272998165
83333.3273071066
83333.3273188749
83333.3273351132
83333.3273556435
83333.327380086
83333.3274495656
83333.3274426637
83333.3274377716
83333.3274362346
83333.3274388009
83333.3274455538
83333.3274565256
83333.3274717485
83333.3274911509
83333.3275144926
83333.3275413314
83333.3275868654
83333.3275801107
83333.3275752034
83333.3275738225
83333.3275762303
83333.3275825694
83333.3275928818
83333.3276071845
83333.327625467
83333.3276476039
83333.3276733127
83333.3277021194
83333.3277220074
83333.3277157254
83333.3277111041
83333.3277097041
83333.3277120494
83333.3277180839
83333.3277278575
83333.3277413894
83333.3277586694
83333.3277796353
83333.3278041127
83333.3278317665
83333.3278620923
83333.3278551809
83333.3278494076
83333.3278451169
83333.3278439187
83333.3278461311
83333.3278519057
83333.3278612241
83333.3278741102
83333.3278905487
83333.3279104879
83333.3279338105
83333.3279602523
83333.3279892963
83333.3280205833
83333.3279869094
83333.327981325
83333.3279771848
83333.3279759185
83333.3279780321
83333.3279835209
83333.3279924245
83333.3280047429
83333.328020452
83333.3280394936
83333.328061759
83333.3280869334
83333.3281145507
83333.3281445843
83333.3281769182
83333.3281166276
83333.3281111625
83333.3281067468
83333.3281050667
83333.3281068661
83333.3281120784
83333.3281206116
83333.3281324247
83333.3281474693
83333.3281656571
83333.3281868068
83333.3282106144
83333.3258099308
83333.325965919
83333.3259684518
83333.3261203264
83333.3261224885
83333.326126253
83333.3262755733
83333.3262746983
83333.3262776112
83333.3262825117
83333.3264369655
83333.3264310881
83333.3264272884
83333.3264277166
83333.3264327663
83333.3265894468
83333.3265827813
83333.3265781904
83333.3265779335
83333.3265826343
83333.3265922347
83333.3267397633
83333.326732571
83333.3267273624
83333.3267264439
83333.3267305201
83333.3267396288
83333.3267537063
83333.326887752
83333.3268802571
83333.3268746868
83333.3268732467
83333.3268766842
83333.3268850889
83333.3268984348
83333.326916604
83333.3270332909
83333.3270257441
83333.3270200564
83333.3270182945
83333.3270212004
83333.3270288644
83333.3270413492
83333.3270585827
83333.3270803054
83333.3271763936
83333.3271690819
83333.3271634684
83333.3271615545
83333.3271640682
83333.3271710774
83333.3271826766
83333.3271988831
83333.3272195378
83333.3272442626
83333.3273174255
83333.3273101642
83333.3273049047
83333.3273030143
83333.3273052635
83333.3273117582
83333.3273225615
83333.3273377358
83333.3273572293
83333.3273808113
83333.3274080343
83333.3274568092
83333.3274493796
83333.3274442547
83333.3274426442
83333.3274447822
83333.3274508889
83333.3274610426
83333.3274752836
83333.3274936239
83333.3275159544
83333.3275419955
83333.3275712668
83333.3275937118
83333.3275868792
83333.3275818916
83333.3275804268
83333.3275826006
83333.3275884456
83333.3275980803
83333.3276115422
83333.3276288431
83333.3276499443
83333.32767469
83333.3277027575
83333.3277336514
83333.327728725
83333.327722542
83333.3277179044
83333.3277165728
83333.327718717
83333.327724374
83333.3277335864
83333.3277464045
83333.3277628323
83333.3277828429
83333.3278063468
83333.3278331184
83333.3278627597
83333.3278947903
83333.3278614401
83333.3278560542
83333.3278520285
83333.327850899
83333.3278530577
83333.3278585153
83333.32786736
83333.3278796252
83333.3278953152
83333.3279144041
83333.3279368211
83333.3279623886
83333.3279906508
83333.3280212721
83333.3280541312
83333.327992562
83333.3279877107
83333.3279840598
83333.3279830424
83333.3279851176
83333.3279903792
83333.3279988774
83333.3280106429
83333.3280256716
83333.3280439315
83333.3280653451
83333.3280896372
83333.3281164081
83333.3281456919
83333.3281774452
83333.3282112474
83333.3281221339
83333.3281175783
83333.3281137076
83333.3281122803
83333.3281140893
83333.3281191219
83333.328127313
83333.3281386304
83333.3281530489
83333.3281705024
83333.3281908351
83333.3282137645
83333.3256498043
83333.3258080729
83333.3258112831
83333.3259644161
83333.325967004
83333.3259711642
83333.3261219046
83333.3261215525
83333.3261249284
83333.3261303599
83333.3262814106
83333.3262769167
83333.3262770275
83333.3262813732
83333.3262879166
83333.3264434305
83333.3264360555
83333.326430818
83333.326430006
83333.3264341921
83333.3264433442
83333.3265966385
83333.3265887259
83333.3265828581
83333.3265813518
83333.3265849144
83333.3265936177
83333.3266074158
83333.3267473814
83333.3267391828
83333.3267329346
83333.3267309094
83333.3267338307
83333.3267418394
83333.3267549352
83333.3267730172
83333.326895468
83333.3268872426
83333.3268809033
83333.3268785765
83333.326880991
83333.3268882682
83333.3269005026
83333.3269176525
83333.3269394746
83333.3270408473
83333.3270329083
83333.327026709
83333.3270242952
83333.3270263689
83333.3270330144
83333.3270443642
83333.3270604714
83333.3270812029
83333.3271061863
83333.327183762
83333.3271761471
83333.3271703631
83333.3271680458
83333.3271699227
83333.3271760914
83333.327186657
83333.3272017188
83333.3272212551
83333.3272450522
83333.3272726599
83333.3273249901
83333.3273172131
83333.3273117607
83333.327309818
83333.3273116461
83333.3273174742
83333.3273274119
83333.3273415359
83333.3273598881
83333.3273823826
83333.3274087493
83333.3274385015
83333.327463792
83333.327456635
83333.3274511913
83333.3274495662
83333.3274515332
83333.3274571498
83333.3274665992
83333.3274799482
83333.327497235
83333.3275184476
83333.3275434509
83333.3275719318
83333.3276033929
83333.3276007179
83333.3275940246
83333.3275890123
83333.3275875384
83333.327589603
83333.3275951101
83333.3276041798
83333.3276168983
83333.3276332926
83333.32765336
83333.3276770387
83333.3277041364
83333.3277342966
83333.3277670356
83333.3277351632
83333.3277294613
83333.3277251171
83333.3277238401
83333.327725946
83333.3277313341
83333.3277400906
83333.3277522817
83333.3277679333
83333.3277870418
83333.3278095607
83333.3278353531
83333.3278641197
83333.3278954525
83333.3279290695
83333.3278669366
83333.3278624445
83333.3278590194
83333.3278582241
83333.3278604137
83333.3278656945
83333.3278741619
83333.3278858866
83333.3279008941
83333.3279191842
83333.3279407183
83333.3279653685
83333.327992748
83333.3280225796
83333.3280547914
83333.3280890994
83333.3279973074
83333.3279935216
83333.3279908678
83333.3279903226
83333.3279925482
83333.3279976958
83333.3280058925
83333.3280171859
83333.3280316011
83333.3280491303
83333.3280697258
83333.328093142
83333.3281190145
83333.3281474457
83333.3281784759
83333.3282117465
83333.3282467827
83333.3281260056
83333.3281236739
83333.3281205673
83333.3281196401
83333.3281215589
83333.3281265129
83333.3281344563
83333.3281453719
83333.3281592388
83333.3281760183
83333.328195582
83333.3282176733
83333.3256477784
83333.3256518223
83333.3258060971
83333.3258094818
83333.325814698
83333.3259653871
83333.3259656986
83333.3259697484
83333.3259758875
83333.3261270873
83333.3261233257
83333.3261241044
83333.3261291773
83333.3261364638
83333.326291462
83333.3262829315
83333.3262794238
83333.3262809506
83333.326286936
83333.3262951443
83333.3264513866
83333.326442641
83333.3264359912
83333.3264337726
83333.3264366797
83333.3264448284
83333.3264582
83333.3266050248
83333.3265960206
83333.3265890061
83333.3265862758
83333.3265885498
83333.3265960283
83333.3266087467
83333.3266266313
83333.3267558936
83333.3267468597
83333.3267397534
83333.3267367525
83333.3267385533
83333.3267453204
83333.3267571914
83333.326774162
83333.3267960089
83333.3269037618
83333.3268950541
83333.326888136
83333.3268851056
83333.3268866257
83333.3268927995
83333.3269037969
83333.3269197171
83333.32694046
83333.3269656619
83333.3270487411
83333.3270405984
83333.3270341476
83333.3270312938
83333.3270327049
83333.3270384567
83333.3270486943
83333.3270635624
83333.3270830791
83333.3271070541
83333.3271350369
83333.3271914686
83333.3271836068
83333.3271777356
83333.3271753229
83333.3271767722
83333.3271822527
83333.3271919009
83333.3272058367
83333.3272241419
83333.3272467621
83333.3272734419
83333.327303689
83333.3273322227
83333.3273248103
83333.3273190682
83333.3273171545
83333.3273188376
83333.327324177
83333.3273333828
83333.3273465611
83333.3273637837
83333.3273850725
83333.327410318
83333.3274392176
83333.3274712668
83333.327471014
83333.327463959
83333.3274586707
83333.327456989
83333.3274589216
83333.3274642374
83333.327473118
83333.3274856914
83333.3275020142
83333.3275221129
83333.3275459577
83333.3275733861
83333.3276040605
83333.3276374869
83333.3276074222
83333.3276012668
83333.3275965426
83333.3275951119
83333.3275971632
83333.3276024587
83333.3276110929
83333.3276231757
83333.3276387597
83333.3276578643
83333.3276804711
83333.3277064851
83333.3277356747
83333.3277676781
83333.3278020856
83333.3277406929
83333.3277360636
83333.3277323623
83333.327731443
83333.3277336127
83333.3277388658
83333.3277472775
83333.3277589403
83333.3277739
83333.3277921784
83333.3278137584
83333.3278385501
83333.3278663383
83333.3278967905
83333.327929716
83333.3279647905
83333.3278717518
83333.3278680404
83333.3278658056
83333.3278656294
83333.3278680788
83333.327873315
83333.3278815257
83333.3278928045
83333.3279072096
83333.3279247647
83333.3279454621
83333.327969209
83333.3279956601
83333.3280246064
83333.3280560433
83333.3280897354
83333.3281253139
83333.3280020519
83333.3279984307
83333.3279972795
83333.3279975673
83333.3280001271
83333.3280053187
83333.3280133317
83333.3280242624
83333.3280381497
83333.3280550167
83333.3280748443
83333.3280974189
83333.3281224031
83333.3281499341
83333.3281801278
83333.3282127204
83333.3282472586
83333.328283335
83333.3281281649
83333.3281286605
83333.3281270683
83333.3281268903
83333.3281290806
83333.3281340697
83333.3281418899
83333.3281525127
83333.3281659257
83333.328182111
83333.3282009689
83333.3282222728
83333.3256452876
83333.325649816
83333.3256561567
83333.3258062009
83333.3258075815
83333.3258127823
83333.3258203488
83333.3259696956
83333.3259668672
83333.3259684988
83333.3259745872
83333.325982903
83333.3261363887
83333.3261286927
83333.326126063
83333.3261285078
83333.3261354563
83333.3261446354
83333.3263058039
83333.3262930515
83333.3262856489
83333.3262835961
83333.3262867221
83333.3262943094
83333.3263040316
83333.3264606069
83333.3264507225
83333.3264428246
83333.3264392338
83333.3264406902
83333.3264474662
83333.3264596432
83333.3264771809
83333.3266144175
83333.3266044971
83333.3265965328
83333.3265927301
83333.3265937617
83333.3265998613
83333.326611222
83333.3266278861
83333.3266496554
83333.3267650822
83333.3267554558
83333.3267476849
83333.3267439089
83333.3267447387
83333.3267503012
83333.3267608135
83333.326776432
83333.3267970968
83333.3268224572
83333.3269123664
83333.3269035027
83333.326896239
83333.3268927145
83333.3268935309
83333.3268987472
83333.3269085403
83333.3269231099
83333.3269425241
83333.3269666224
83333.3269949565
83333.3270567718
83333.327048658
83333.3270421688
83333.3270391421
83333.3270401068
83333.3270451411
83333.3270544025
83333.3270680578
83333.3270862388
83333.3271089318
83333.3271359008
83333.3271666484
83333.3271991033
83333.3271914425
83333.3271855433
83333.3271831918
83333.3271844817
83333.3271894694
83333.3271983559
83333.3272112869
83333.3272283779
83333.3272496933
83333.3272751554
83333.3273044743
83333.3273371357
83333.3273396017
83333.32733239
83333.3273269169
83333.3273249943
83333.3273266892
83333.3273317519
83333.3273403837
83333.3273527521
83333.3273689495
83333.3273890394
83333.3274130297
83333.3274407872
83333.3274719852
83333.327506115
83333.3274779441
83333.3274714759
83333.3274664926
83333.3274649188
83333.3274668707
83333.3274720302
83333.3274804954
83333.3274924219
83333.3275078965
83333.3275269676
83333.3275496514
83333.327575895
83333.3276055102
83333.3276381518
83333.3276733489
83333.3276130354
83333.3276081988
83333.3276041348
83333.3276030433
83333.3276051787
83333.327610386
83333.3276187112
83333.3276302772
83333.3276451552
83333.3276633903
83333.327684991
83333.3277099093
83333.3277380085
83333.32776904
83333.3278027172
83333.3278386373
83333.3277460457
83333.3277417208
83333.3277392973
83333.3277390828
83333.3277415704
83333.3277468344
83333.327755032
83333.3277662753
83333.3277806406
83333.3277981709
83333.3278188795
83333.3278427091
83333.3278694903
83333.3278989622
83333.3279310162
83333.3279654181
83333.328001796
83333.3278752798
83333.3278725751
83333.3278719557
83333.3278728575
83333.3278758167
83333.3278812048
83333.3278892996
83333.3279002566
83333.3279141588
83333.3279310604
83333.3279509835
83333.3279738689
83333.3279994051
83333.3280274217
83333.3280579855
83333.3280909352
83333.328125927
83333.3281625989
83333.3280047646
83333.3280022263
83333.3280029173
83333.3280044291
83333.3280075955
83333.3280130225
83333.3280210196
83333.3280317199
83333.3280451932
83333.3280614893
83333.3280806198
83333.3281024043
83333.3281265377
83333.3281531802
83333.3281824873
83333.3282142802
83333.3282481811
83333.3282837879
83333.3283207389
83333.3281238908
83333.3281318809
83333.3281325219
83333.3281335252
83333.3281362836
83333.3281415269
83333.3281493927
83333.3281598692
83333.3281729587
83333.328188656
83333.3282068934
83333.328227477
83333.3256444119
83333.3256472949
83333.3256539899
83333.3256629279
83333.3258093322
83333.3258078206
83333.3258108319
83333.3258184694
83333.3258285684
83333.3259779792
83333.3259713644
83333.3259698515
83333.3259734691
83333.3259817739
83333.3259922731
83333.3261499703
83333.3261380757
83333.3261316541
83333.3261307085
83333.3261350104
83333.3261437895
83333.3261546863
83333.3263243627
83333.3263073673
83333.326295941
83333.3262900915
83333.326289689
83333.3262943642
83333.3263033343
83333.3263142768
83333.3264707703
83333.3264600809
83333.3264511876
83333.3264464145
83333.326446476
83333.3264517066
83333.3264623684
83333.3264785599
83333.3265001146
83333.3266246235
83333.3266139762
83333.326605282
83333.3266006264
83333.3266005982
83333.3266053703
83333.3266152267
83333.3266303943
83333.326650862
83333.3266762959
83333.3267745896
83333.3267648004
83333.3267565821
83333.3267522471
83333.3267523159
83333.3267568448
83333.3267660434
83333.3267801789
83333.3267993812
83333.3268235264
83333.3268521706
83333.3269208771
83333.3269123334
83333.3269050307
83333.3269012495
83333.3269015882
83333.326906048
83333.3269147956
83333.3269280506
83333.3269460065
83333.326968699
83333.3269959178
83333.3270271602
83333.327064761
83333.3270569188
83333.3270506351
83333.3270476615
83333.3270484313
83333.3270529601
83333.3270614253
83333.3270740084
83333.3270908785
83333.3271121517
83333.3271377898
83333.3271675188
83333.3272008129
83333.3272065997
83333.3271994164
83333.3271937841
83333.3271915716
83333.3271928915
83333.3271976129
83333.3272059171
83333.3272180006
83333.3272339987
83333.3272540208
83333.3272781194
83333.3273061932
83333.3273379249
83333.3273727889
83333.3273465848
83333.3273401133
83333.3273350649
83333.3273333371
83333.327335111
83333.3273400622
83333.3273482958
83333.327360004
83333.3273753116
83333.3273943042
83333.3274170393
83333.3274435069
83333.3274735512
83333.3275068314
83333.3275428424
83333.3274836228
83333.3274787275
83333.3274744445
83333.327473213
83333.3274752897
83333.3274804137
83333.3274886067
83333.3275000263
83333.3275147775
83333.3275329344
83333.3275545394
83333.3275795892
83333.3276080054
83333.3276395867
83333.3276740048
83333.3277107979
83333.3276184752
83333.3276140614
83333.3276113702
83333.327611014
83333.3276134895
83333.327618753
83333.3276269085
83333.3276380821
83333.3276523704
83333.3276698383
83333.3276905225
83333.3277144053
83333.3277413966
83333.327771336
83333.3278040493
83333.327839253
83333.3278765291
83333.3277471022
83333.3277464174
83333.3277453935
83333.3277464366
83333.3277495562
83333.327755051
83333.3277631921
83333.3277741515
83333.3277880368
83333.3278049177
83333.3278248357
83333.3278477662
83333.3278735734
83333.327902037
83333.3279331204
83333.327966674
83333.3280024027
83333.328039922
83333.3278760562
83333.3278752858
83333.3278770731
83333.3278794908
83333.3278833213
83333.3278891078
83333.3278972837
83333.327908074
83333.3279216031
83333.3279379574
83333.3279571902
83333.3279792756
83333.3280039388
83333.3280310397
83333.3280606848
83333.3280927903
83333.3281270758
83333.3281631885
83333.3282007902
83333.3279991656
83333.3280042687
83333.3280073955
83333.3280103349
83333.3280145061
83333.3280204803
83333.3280286969
83333.3280393526
83333.328052564
83333.328068412
83333.3280869429
83333.3281080114
83333.3281313484
83333.3281571413
83333.3281855723
83333.3282165088
83333.328249651
83333.3282846589
83333.3283211681
83333.3283588458
83333.3281289586
83333.3281355016
83333.3281385326
83333.3281425283
83333.3281484552
83333.3281566584
83333.3281672041
83333.3281801407
83333.3281954922
83333.3282132235
83333.3282331771
83333.3256460893
83333.325646411
83333.3256513565
83333.3256607806
83333.325672543
83333.325816257
83333.3258111206