/*--------------------------------*- C++ -*----------------------------------*\
  =========                 |
  \\      /  F ield         | OpenFOAM: The Open Source CFD Toolbox
   \\    /   O peration     | Website:  https://openfoam.org
    \\  /    A nd           | Version:  12
     \\/     M anipulation  |
\*---------------------------------------------------------------------------*/
/*   Windows 32 and 64 bit porting by blueCAPE: http://www.bluecape.com.pt   *\
|  Based on Windows porting (2.0.x v4) by Symscape: http://www.symscape.com   |
\*---------------------------------------------------------------------------*/
FoamFile
{
    format      ascii;
    class       surfaceScalarField;
    location    "200";
    object      phi;
}
// * * * * * * * * * * * * * * * * * * * * * * * * * * * * * * * * * * * * * //

dimensions      [0 3 -1 0 0 0 0];

internalField   nonuniform List<scalar> 
28973
(
1.93187058869791e-05
-1.48338654590793e-07
-1.14933612496728e-07
1.9587026296625e-05
-1.36009482448807e-07
-1.3231451450355e-07
2.19692918858733e-05
-2.49377298828844e-07
-1.31670233509881e-07
5.32751338439511e-06
-3.77591275768094e-08
-1.78643584033328e-07
1.985088011547e-05
-1.16699697093993e-07
-1.47156466141016e-07
2.22320872900748e-05
-2.42200482000722e-07
-1.5661382564363e-07
5.428643637069e-06
-3.40637063920598e-08
-1.99384383462374e-07
2.43319065969282e-05
-3.28712602170534e-07
-1.47428831017542e-07
7.11588285367134e-06
-6.19017642310161e-08
-2.16795856806893e-07
3.24336175009074e-06
-1.46504138421541e-08
-2.40782987927826e-07
2.01223872021388e-05
-1.13437761436561e-07
-1.58071554856616e-07
2.251792891794e-05
-2.31266216607982e-07
-1.71284737871056e-07
5.5287007719777e-06
-2.74619673510758e-08
-2.19755506476639e-07
2.46102168465611e-05
-3.33741789002782e-07
-1.86783386890362e-07
7.22851995508662e-06
-5.94925753735717e-08
-2.43825868828883e-07
3.31826332315037e-06
-1.5443223291367e-08
-2.58843719776635e-07
2.69652657971989e-05
-4.10332737228437e-07
-1.64578476289065e-07
8.26850035739026e-06
-7.29805618530542e-08
-2.5092496675332e-07
4.29714474477536e-06
-2.39724201270667e-08
-2.95766041711432e-07
2.69786618653835e-06
-6.00714450582252e-09
-3.0210564162137e-07
2.04100759132796e-05
-1.20161895227854e-07
-1.67529427130827e-07
2.28219385094121e-05
-2.36017773861627e-07
-1.81439389052263e-07
5.6330232904662e-06
-2.63853995872217e-08
-2.36010608595115e-07
2.49214362318894e-05
-3.40910269730341e-07
-2.01582422516333e-07
7.34937425172372e-06
-5.43139537949871e-08
-2.65291012132607e-07
3.39117432816883e-06
-1.38594109100923e-08
-2.78807682077503e-07
2.72739375730894e-05
-4.27137233977765e-07
-2.15284499922694e-07
8.38728383271601e-06
-7.48560606146512e-08
-2.90209162543639e-07
4.38072833727705e-06
-2.55378420487523e-08
-3.17316597476294e-07
2.76580268564223e-06
-8.67377342573741e-09
-3.18106995689872e-07
2.8889219409206e-05
-4.95632534227452e-07
-1.77796786517488e-07
9.53095116201126e-06
-8.21310254899128e-08
-2.84385878255104e-07
5.08028920842962e-06
-2.41311274794064e-08
-3.49258145691207e-07
3.48690065183539e-06
-1.14033517881757e-08
-3.6944770843213e-07
2.49444009368359e-06
-4.52327182929511e-09
-3.59523175305073e-07
2.07191219460938e-05
-1.31255960435091e-07
-1.77795043264022e-07
2.31449473168639e-05
-2.51884526988658e-07
-1.91298896830343e-07
5.74607927954693e-06
-2.97677101577153e-08
-2.508210566481e-07
2.52542148209596e-05
-3.59709330305953e-07
-2.09095139343754e-07
7.48001323910614e-06
-5.65545443596908e-08
-2.81912148016554e-07
3.46738400440755e-06
-1.46054415472878e-08
-2.97615676518205e-07
2.76162672404234e-05
-4.50870425731793e-07
-2.32377090845599e-07
8.52022668493504e-06
-7.60759354261206e-08
-3.12771351514818e-07
4.46691096055472e-06
-2.58575419222773e-08
-3.39476551593365e-07
2.83345268396598e-06
-8.89498503735245e-09
-3.37563073532091e-07
2.92206400776329e-05
-5.22457700464574e-07
-2.36110546399713e-07
9.66204241769408e-06
-8.82973701754736e-08
-3.32938954817487e-07
5.16949371145209e-06
-2.84810176255879e-08
-3.76472261328703e-07
3.56451793626841e-06
-1.57728398643232e-08
-3.87836082509231e-07
2.55862388930676e-06
-6.92816032557117e-09
-3.75363100029487e-07
2.98556605698159e-05
-5.81144648434493e-07
-1.84995374742724e-07
1.04114093105802e-05
-9.46612433570726e-08
-3.05170272447449e-07
5.83690325850926e-06
-2.13349928773435e-08
-3.97929133107567e-07
4.11524329393451e-06
-1.21925952572151e-08
-4.3847392113333e-07
3.12054907477684e-06
-8.00098962018428e-09
-4.37870235962516e-07
2.40159163798768e-06
-3.99367016624187e-09
-4.13434784511531e-07
2.10531780128829e-05
-1.44485703191424e-07
-1.89573576116489e-07
2.34902357896189e-05
-2.74285484989443e-07
-2.02272323708953e-07
5.86989996803187e-06
-3.54601710626214e-08
-2.66158683106016e-07
2.56077075692736e-05
-3.8773015733259e-07
-2.17652317557719e-07
7.62184017829692e-06
-6.50748775975368e-08
-2.97823842349217e-07
3.55042604421354e-06
-1.76507463276556e-08
-3.16213185261554e-07
2.79801497889353e-05
-4.8485168311261e-07
-2.38751596332942e-07
8.66758599094549e-06
-8.3902374916496e-08
-3.29112248194446e-07
4.56012894524173e-06
-2.95641059312723e-08
-3.601734955983e-07
2.90413638004554e-06
-1.01849055688328e-08
-3.58115008722592e-07
2.95853361777146e-05
-5.60425198692748e-07
-2.55155820191676e-07
9.80897506415379e-06
-9.6861943610868e-08
-3.58529042000277e-07
5.2653710166827e-06
-3.25050667573932e-08
-4.02003434123776e-07
3.64384883798442e-06
-1.8002820696424e-08
-4.09700871853772e-07
2.62426933364034e-06
-8.13415972691349e-09
-3.9507463244413e-07
3.01960354298015e-05
-6.16397870578382e-07
-2.46444349018901e-07
1.05516548185819e-05
-1.04841143410166e-07
-3.59819703593816e-07
5.93450628243869e-06
-2.85679437508013e-08
-4.30457330675449e-07
4.2016495484993e-06
-1.8560494902473e-08
-4.60092397067814e-07
3.19418403834323e-06
-1.29667504949592e-08
-4.55433501224192e-07
2.46280285651022e-06
-6.5110915096349e-09
-4.30063650535045e-07
3.01157164768003e-05
-6.64566426042226e-07
-1.86976776353443e-07
1.08942043317908e-05
-1.11634280618346e-07
-3.13818978641581e-07
6.27120191853512e-06
-1.98124389282904e-08
-4.2518035932414e-07
4.67736597644948e-06
-1.17813245409803e-08
-4.9924502690422e-07
3.63966323949933e-06
-1.03234105360587e-08
-5.17632228925168e-07
2.93359486297921e-06
-8.34429705932623e-09
-5.00075078184756e-07
2.3579475266192e-06
-4.13303096319356e-09
-4.63913878473081e-07
2.14161917718048e-05
-1.59647745644094e-07
-2.03370723698783e-07
2.38620202263062e-05
-3.0115061394811e-07
-2.15127859378699e-07
6.00593269021874e-06
-4.25371665153847e-08
-2.83071975272215e-07
2.59847276530185e-05
-4.23312558313232e-07
-2.2800102345893e-07
7.77619019339072e-06
-7.7468073227979e-08
-3.14619008190235e-07
3.64206977579861e-06
-2.21632740133611e-08
-3.35639905304656e-07
2.83667232964795e-05
-5.26716640517491e-07
-2.47596406519998e-07
8.82882472725532e-06
-9.77560263852598e-08
-3.4621745622969e-07
4.66215389158054e-06
-3.66229087727787e-08
-3.80878212957799e-07
2.98064621455126e-06
-1.30464473493736e-08
-3.79677093104951e-07
2.99703918607206e-05
-6.08825595835356e-07
-2.61096115833139e-07
9.97338303542683e-06
-1.11239045327783e-07
-3.75829312942722e-07
5.37209810424468e-06
-3.99602053435704e-08
-4.25444383122929e-07
3.72821108253484e-06
-2.19016758959022e-08
-4.32819632547253e-07
2.69324529487667e-06
-9.87322464713249e-09
-4.17218021261796e-07
3.05689060737214e-05
-6.65844424602684e-07
-2.67463007261823e-07
1.07076432119907e-05
-1.19790023578809e-07
-3.88222455024165e-07
6.03980724780802e-06
-3.67592886594119e-08
-4.59578534717625e-07
4.29131616744197e-06
-2.41404804139497e-08
-4.85533546574174e-07
3.27017125383476e-06
-1.61689100042507e-08
-4.77654262751185e-07
2.52654537616047e-06
-8.04879957216279e-09
-4.50768718117636e-07
3.04554783483494e-05
-7.06110899698008e-07
-2.50059786495544e-07
1.10389724458685e-05
-1.25424508912233e-07
-3.70639319621999e-07
6.3739315143082e-06
-2.97968060898519e-08
-4.61322393667743e-07
4.77273553372657e-06
-2.02646961708616e-08
-5.2412452606722e-07
3.72179022053184e-06
-1.73690877908594e-08
-5.37817804442927e-07
3.00338942739807e-06
-1.34140778836679e-08
-5.18325723990938e-07
2.41639187656241e-06
-6.56988446472355e-09
-4.81938458880993e-07
3.00158190011924e-05
-7.47552591864926e-07
-1.83998163835564e-07
1.11395466678016e-05
-1.32550733149519e-07
-3.14914563195351e-07
6.4354307052961e-06
-2.1194726635333e-08
-4.34003730541535e-07
4.95957463231111e-06
-1.2234828143026e-08
-5.31814985507439e-07
4.08737646861561e-06
-1.3338024943019e-08
-5.86944087861847e-07
3.39177174945359e-06
-1.28783176551671e-08
-5.8834457881414e-07
2.83964414885703e-06
-1.01968647664182e-08
-5.56529307623472e-07
2.34617028435927e-06
-4.75259215752256e-09
-5.10912016048567e-07
2.18113098187293e-05
-1.75923909040481e-07
-2.19198469976732e-07
2.42650491988701e-05
-3.32852998494444e-07
-2.29840938272156e-07
6.15554187387899e-06
-5.08486692547693e-08
-3.02135077233754e-07
2.63900362395979e-05
-4.66326198403591e-07
-2.40145447579028e-07
7.94452405633887e-06
-9.28337168432841e-08
-3.33171126106465e-07
3.74348768488069e-06
-2.77688249036811e-08
-3.56722268606574e-07
2.87791846383833e-05
-5.76374775225501e-07
-2.59412424048859e-07
9.00431873609337e-06
-1.16213739929298e-07
-3.64757175653899e-07
4.77434638343832e-06
-4.63410382923214e-08
-4.02636209962878e-07
3.06480866780507e-06
-1.71046604387569e-08
-4.02698155000368e-07
3.03783452377656e-05
-6.64316241732078e-07
-2.70369194887132e-07
1.01537831168101e-05
-1.31195760920931e-07
-3.94561677883385e-07
5.48975392024905e-06
-5.12869149183939e-08
-4.49211323544987e-07
3.81974296890299e-06
-2.82350772245168e-08
-4.57222981236658e-07
2.7676274658828e-06
-1.25950969718632e-08
-4.41464275577688e-07
3.09610018781366e-05
-7.26492475500549e-07
-2.74439677392208e-07
1.08824098650587e-05
-1.40391991833336e-07
-4.06715832960525e-07
6.15823097698627e-06
-4.84739629966996e-08
-4.85741396342718e-07
4.38798771821746e-06
-3.16153064587663e-08
-5.12403733651413e-07
3.35060891946894e-06
-2.03434366215512e-08
-5.02788136751615e-07
2.59393551401809e-06
-9.95447241611694e-09
-4.74654005338855e-07
3.08266599438253e-05
-7.64793592706171e-07
-2.72243184131888e-07
1.1198529973227e-05
-1.45530753701432e-07
-4.0128700772571e-07
6.48395500272515e-06
-4.17265660979381e-08
-4.93282109069337e-07
4.87138297220029e-06
-2.93460279480747e-08
-5.53021439018476e-07
3.8073820496763e-06
-2.37488596815771e-08
-5.6354684033911e-07
3.0764143643804e-06
-1.711739703419e-08
-5.41611406568868e-07
2.47794688763223e-06
-8.26450317702165e-09
-5.04059394272858e-07
3.03531793626852e-05
-7.93968957834225e-07
-2.49516441739873e-07
1.12858615574428e-05
-1.49354925525789e-07
-3.72453652123326e-07
6.54016781281782e-06
-3.32278122516726e-08
-4.71949580387601e-07
5.05970706059082e-06
-2.27695427337371e-08
-5.58951900194373e-07
4.177861123107e-06
-2.23570174989294e-08
-6.09622819934092e-07
3.46970634543811e-06
-2.01138067840847e-08
-6.09053732937176e-07
2.90606029885079e-06
-1.52381777843137e-08
-5.76074231264718e-07
2.40213103130165e-06
-7.52724241398353e-09
-5.30372172344943e-07
2.97777208954393e-05
-8.40071415436517e-07
-1.77056195970668e-07
1.12921955465542e-05
-1.56256455092515e-07
-3.11639309608088e-07
6.47375795858146e-06
-2.53856718142916e-08
-4.33595212433256e-07
5.02710516708629e-06
-1.42735069725643e-08
-5.41387013229723e-07
4.29599080666357e-06
-1.72569238568339e-08
-6.23610358100932e-07
3.78018363445887e-06
-1.87886799331267e-08
-6.6444143175401e-07
3.2730761851335e-06
-1.69337224269413e-08
-6.52318495996345e-07
2.80082535024348e-06
-1.2490834196424e-08
-6.08075353177725e-07
2.35949498437585e-06
-6.2809423520939e-09
-5.54073217195682e-07
2.22425025683838e-05
-1.95399285063405e-07
-2.35799297734666e-07
2.47051641003167e-05
-3.70898164656971e-07
-2.45152474831047e-07
6.32020681303413e-06
-6.04031336964531e-08
-3.23464379786039e-07
2.68294709397013e-05
-5.1645260512421e-07
-2.55849370529163e-07
8.12833583576148e-06
-1.10541619822965e-07
-3.53965170098873e-07
3.85575849622445e-06
-3.44517656105255e-08
-3.79954804915073e-07
2.92221370206491e-05
-6.36009926508161e-07
-2.7328349726752e-07
9.19572031135613e-06
-1.39027891639681e-07
-3.85359721335836e-07
4.8980208195543e-06
-5.8375529559938e-08
-4.26241314009042e-07
3.15795098301472e-06
-2.21878139743379e-08
-4.2767732833474e-07
3.08131922625991e-05
-7.27671959686656e-07
-2.83559922456936e-07
1.0349809309871e-05
-1.56380448268066e-07
-4.15277403115693e-07
5.61915369867416e-06
-6.61865278624048e-08
-4.74313251210168e-07
3.920104683988e-06
-3.6747140362301e-08
-4.83356918283357e-07
2.84904274618479e-06
-1.62052398660583e-08
-4.67908542439899e-07
3.13745548702296e-05
-7.93645317878908e-07
-2.84237258918752e-07
1.10741085112898e-05
-1.66499122625755e-07
-4.26773097112499e-07
6.28914232203029e-06
-6.43985275370362e-08
-5.12364576562473e-07
4.49330199488003e-06
-4.19659722724309e-08
-5.40796892716528e-07
3.4374331850758e-06
-2.63350999436026e-08
-5.30308239488484e-07
2.66652583173075e-06
-1.26608282278933e-08
-5.01393973569779e-07
3.1213904887822e-05
-8.34406198592137e-07
-2.79346101913676e-07
1.13770307141608e-05
-1.71267337639915e-07
-4.22073315698572e-07
6.60768666556041e-06
-5.7288415025774e-08
-5.216362056036e-07
4.9782278996063e-06
-4.08098600812489e-08
-5.83393400418826e-07
3.89884372197138e-06
-3.14065350297693e-08
-5.92803437530663e-07
3.15393923538552e-06
-2.15373517029881e-08
-5.68730809859822e-07
2.54335956404499e-06
-1.02762544261942e-08
-5.29790555233392e-07
3.0719621121246e-05
-8.58151984393334e-07
-2.73093023587658e-07
1.14457676908034e-05
-1.73105740616173e-07
-4.0458218789552e-07
6.65120174224217e-06
-4.82144472386237e-08
-5.05835801384559e-07
5.16235113844569e-06
-3.49544413054077e-08
-5.9031948765972e-07
4.27162542866591e-06
-3.19609745430161e-08
-6.38574986808546e-07
3.55183928911859e-06
-2.69251428681594e-08
-6.35872508329635e-07
2.97629862864236e-06
-1.92165113446467e-08
-6.00898382415723e-07
2.4614138525233e-06
-9.2305052155152e-09
-5.54111984498704e-07
3.01275372904458e-05
-9.02519539324571e-07
-2.41279156495159e-07
1.14392336605824e-05
-1.75851811188587e-07
-3.70065143580721e-07
6.57907650074238e-06
-3.85579124960521e-08
-4.72445799446229e-07
5.12856710237038e-06
-2.6461103465544e-08
-5.69722121946623e-07
4.39076354000405e-06
-2.81659145457168e-08
-6.47917646943622e-07
3.8658937546931e-06
-2.80596712226556e-08
-6.87388144019506e-07
3.34744824581099e-06
-2.42412277914108e-08
-6.74423408721153e-07
2.86418838873918e-06
-1.75910150474929e-08
-6.29373923522907e-07
2.4130971317088e-06
-8.84547057134888e-09
-5.75129005964311e-07
2.96141427594731e-05
-9.37243616162773e-07
-1.64276092156531e-07
1.14301358723369e-05
-1.8222455412753e-07
-3.06397794700179e-07
6.48089147302627e-06
-3.17664776483882e-08
-4.2969664476405e-07
5.00484811059251e-06
-1.80144097914845e-08
-5.40204318885799e-07
4.32649893930883e-06
-2.19883928304753e-08
-6.34105262039974e-07
3.95627625642589e-06
-2.55199888580821e-08
-7.04652128581746e-07
3.63742223474273e-06
-2.51107527467035e-08
-7.34572959927062e-07
3.22730596785333e-06
-2.10097454893226e-08
-7.10944855420115e-07
2.79811883320213e-06
-1.48279538618649e-08
-6.55815916436182e-07
2.39163101141068e-06
-7.36688652756892e-09
-5.938654587652e-07
2.27164079430704e-05
-2.19429660895624e-07
-2.54481124946415e-07
2.51881239984338e-05
-4.15798947656203e-07
-2.62576927761353e-07
6.50185176633868e-06
-7.04406337870618e-08
-3.47007987831746e-07
2.73090556910144e-05
-5.75017824993039e-07
-2.75476985963433e-07
8.3300654134647e-06
-1.30302160637109e-07
-3.76990082239398e-07
3.98010928690062e-06
-4.22769320285599e-08
-4.05539094146293e-07
2.97018796828588e-05
-7.05545175564962e-07
-2.90660233254866e-07
9.40450292064025e-06
-1.66359654634956e-07
-4.08821099092288e-07
5.03440732450564e-06
-7.26179522368e-08
-4.5218820549371e-07
3.26120099212924e-06
-2.82678252726946e-08
-4.54937589708206e-07
3.1279557674088e-05
-8.02156854092908e-07
-3.00234350277895e-07
1.05629648060218e-05
-1.87082099556886e-07
-4.38389890113903e-07
5.76158063056911e-06
-8.45828178517019e-08
-5.01581880966552e-07
4.03068497068774e-06
-4.73063932118372e-08
-5.11704531268962e-07
2.93878660350518e-06
-2.06504773249104e-08
-4.96770995682247e-07
3.18138611551285e-05
-8.69040419515781e-07
-2.9795079545427e-07
1.12819346879201e-05
-1.98513434832735e-07
-4.49262538709622e-07
6.43293695082377e-06
-8.46595450053279e-08
-5.4060159828737e-07
4.60876472995742e-06
-5.53252313437979e-08
-5.7119936427626e-07
3.53226011355795e-06
-3.41187870461781e-08
-5.60271646837554e-07
2.74570058808434e-06
-1.61392124996462e-08
-5.30944311618462e-07
3.16192999051436e-05
-9.09441360773502e-07
-2.896108245735e-07
1.15722799919519e-05
-2.02547306544871e-07
-4.4344670868318e-07
6.74440512579288e-06
-7.75367622218065e-08
-5.5035552881242e-07
5.09488717679827e-06
-5.55575523707881e-08
-6.15434266853643e-07
3.99787503329062e-06
-4.13084920940559e-08
-6.24856062977316e-07
3.23747357104925e-06
-2.74348292400747e-08
-5.99069422662371e-07
2.61383987334386e-06
-1.29585478708271e-08
-5.58915964969904e-07
3.10944970419008e-05
-9.30600522702099e-07
-2.7869308945296e-07
1.1624369529857e-05
-2.0213302938769e-07
-4.27093024682666e-07
6.77503921948551e-06
-6.72031287904795e-08
-5.3599893707036e-07
5.2730773687097e-06
-5.0055327832414e-08
-6.23119427303506e-07
4.37174957068076e-06
-4.34068806889843e-08
-6.7151820795812e-07
3.63959984588856e-06
-3.47702198126946e-08
-6.67331964376241e-07
3.05118576556078e-06
-2.38128914412974e-08
-6.30081784240328e-07
2.52461202001184e-06
-1.12293792033553e-08
-5.81759553846117e-07
3.04931475523659e-05
-9.60087420424512e-07
-2.63691969982043e-07
1.15986771178391e-05
-2.01877706344891e-07
-4.03771606128848e-07
6.68938428487366e-06
-5.5464028764749e-08
-5.07644393844338e-07
5.23152114461202e-06
-4.11477727560931e-08
-6.02598949291616e-07
4.4881264160115e-06
-4.0645126619543e-08
-6.78999548786179e-07
3.95572491775531e-06
-3.80090506223165e-08
-7.17323082335657e-07
3.42656877717125e-06
-3.13230780345189e-08
-7.02887353839002e-07
2.93176043238163e-06
-2.17240980285067e-08
-6.55977241146063e-07
2.47013660182368e-06
-1.05927702364802e-08
-6.00558884290773e-07
2.99570125086828e-05
-1.02115436395149e-06
-2.24245945591713e-07
1.1580676486442e-05
-2.02850710890238e-07
-3.64828407977928e-07
6.58666341399231e-06
-4.51753147012583e-08
-4.69223910959499e-07
5.10629369628331e-06
-3.11764905590252e-08
-5.69179533191029e-07
4.42231889811853e-06
-3.45065436056237e-08
-6.59203191851142e-07
4.04597085282246e-06
-3.67239842714002e-08
-7.28949340609254e-07
3.71925899058982e-06
-3.45620952169499e-08
-7.5890479883082e-07
3.2985827287256e-06
-2.8380194895819e-08
-7.34911527037746e-07
2.85878274695247e-06
-1.989699228903e-08
-6.78986831318189e-07
2.44301603202997e-06
-9.90425992641575e-09
-6.16609907122254e-07
3.00668575097418e-05
-8.50040588096391e-07
-1.32793625260422e-07
1.1596049712479e-05
-2.09157719388462e-07
-2.99795304797704e-07
6.49443075201088e-06
-4.07436864000861e-08
-4.24498647872141e-07
4.96553889942748e-06
-2.36503447781414e-08
-5.35445974709564e-07
4.28443292435258e-06
-2.77619162330597e-08
-6.32556998077385e-07
3.97293478317732e-06
-3.27003117082504e-08
-7.16125319423933e-07
3.8023532036067e-06
-3.40145994424058e-08
-7.78113715654181e-07
3.58301902471131e-06
-3.08825053718812e-08
-7.99074644995127e-07
3.22458673170142e-06
-2.45001389416422e-08
-7.65253901741811e-07
2.82009696131389e-06
-1.66635001015264e-08
-7.00100561230979e-07
2.43602365268897e-06
-8.05878697919385e-09
-6.30593494324146e-07
2.32381616006057e-05
-2.4575445219061e-07
-2.76002209244725e-07
2.57202920270123e-05
-4.67114857874162e-07
-2.84493803363103e-07
6.70207899593501e-06
-8.17276254824089e-08
-3.72984923259676e-07
2.78351333119648e-05
-6.43696368743538e-07
-2.98196420808725e-07
8.55170062555854e-06
-1.52801109024071e-07
-4.01857102393006e-07
4.11790436644486e-06
-5.13555778896744e-08
-4.33448299527816e-07
3.02256013912225e-05
-7.85971086366157e-07
-3.12779655359594e-07
9.6324996384137e-06
-1.98331623745591e-07
-4.35450849233567e-07
5.18484993240147e-06
-8.91062181286984e-08
-4.80605324234548e-07
3.37565210786439e-06
-3.5384846009456e-08
-4.84606080775659e-07
3.17839997489852e-05
-8.90555669829755e-07
-3.19449868009452e-07
1.07949949288457e-05
-2.24292619584792e-07
-4.64764582970049e-07
5.91835173596524e-06
-1.0660541029098e-07
-5.31607574103527e-07
4.1527298930286e-06
-5.9930061076217e-08
-5.42572647223226e-07
3.03798586909047e-06
-2.59347400478269e-08
-5.28202588325348e-07
3.22840528773338e-05
-9.56468336096977e-07
-3.15894710649057e-07
1.1506607122802e-05
-2.37221338428229e-07
-4.74774184025439e-07
6.59079709245914e-06
-1.094720216138e-07
-5.71364124829107e-07
4.73579972132505e-06
-7.17825181693067e-08
-6.04142531572881e-07
3.63647065348588e-06
-4.36727580197888e-08
-5.92893801557806e-07
2.83265744649286e-06
-2.03688164883109e-08
-5.63359490448636e-07
3.2047928519159e-05
-9.9311292089364e-07
-3.04570947966584e-07
1.1783135823476e-05
-2.40447268171244e-07
-4.66883844641091e-07
6.8942764449034e-06
-1.02969147661034e-07
-5.80826128013556e-07
5.22265925655052e-06
-7.40060497070735e-08
-6.4969436206007e-07
4.1060110943561e-06
-5.37300907977366e-08
-6.59725122748445e-07
3.32844001440514e-06
-3.48664655225286e-08
-6.32511795321434e-07
2.69055031703759e-06
-1.63045009852536e-08
-5.91350554458974e-07
3.14816881426474e-05
-1.00725521752619e-06
-2.89397138438099e-07
1.18185854695749e-05
-2.36933427580197e-07
-4.49448484881867e-07
6.91143507162838e-06
-9.11931455334396e-08
-5.66190089761329e-07
5.39368715926621e-06
-6.89381221085989e-08
-6.5758667911425e-07
4.48010636268722e-06
-5.75450961451849e-08
-7.07555640178783e-07
3.73434416804255e-06
-4.44983653114994e-08
-7.02537531488643e-07
3.13189054432776e-06
-2.96851398091191e-08
-6.63048206566974e-07
2.59275322384429e-06
-1.39215863245766e-08
-6.13135844462152e-07
3.08460720293857e-05
-1.01402869264654e-06
-2.69508156141366e-07
1.1776292733488e-05
-2.31349335225554e-07
-4.27102269598735e-07
6.81108637747416e-06
-7.68305184535952e-08
-5.39171144908764e-07
5.34167396698146e-06
-5.9290876931131e-08
-6.36918190507119e-07
4.59152389721712e-06
-5.56075802171503e-08
-7.14318340492669e-07
4.05153928942527e-06
-4.95556439678254e-08
-7.52548073872605e-07
3.51135425712858e-06
-3.93350873468055e-08
-7.36596097374943e-07
3.00409967678589e-06
-2.64143569366081e-08
-6.87236412681635e-07
2.53109799585435e-06
-1.26361088877648e-08
-6.30084983208977e-07
3.02846856586204e-05
-1.04300176796301e-06
-2.44772670003752e-07
1.17418386103673e-05
-2.27521884119197e-07
-3.99220182975999e-07
6.69581356246468e-06
-6.28082040066855e-08
-5.05581685745497e-07
5.2080378228249e-06
-4.74905564365306e-08
-6.03048564869265e-07
4.51984963523109e-06
-4.93366871389138e-08
-6.914398706531e-07
4.1392526645931e-06
-4.94956989775266e-08
-7.60795961348516e-07
3.80588011177333e-06
-4.47776927184076e-08
-7.90490259933985e-07
3.37493123038046e-06
-3.56337092524912e-08
-7.65326632295034e-07
2.92379801445743e-06
-2.41220337040086e-08
-7.07463604077599e-07
2.49786039287342e-06
-1.16743224081805e-08
-6.43729022817132e-07
3.00572580204869e-05
-8.36193897771042e-07
-1.75374673264612e-07
1.17543367767911e-05
-2.274118508266e-07
-3.57982708479586e-07
6.60150413159043e-06
-5.25379081929361e-08
-4.64543258738376e-07
5.06687981980513e-06
-3.69105070819352e-08
-5.64833820970387e-07
4.38005620816011e-06
-4.13212812003895e-08
-6.57990076152465e-07
4.06356553282481e-06
-4.55793287573058e-08
-7.40980023249223e-07
3.88804151558442e-06
-4.55031958457594e-08
-8.0369764070006e-07
3.66157082536862e-06
-4.04765416139673e-08
-8.25360875802697e-07
3.29303555802504e-06
-3.19089869213972e-08
-7.91348752777753e-07
2.87823926609215e-06
-2.175170987298e-08
-7.25282016578156e-07
2.48518276616148e-06
-1.07724959301777e-08
-6.5499668486437e-07
2.84890867790968e-05
-8.56482204293773e-07
-1.46356426828728e-07
1.18147210189366e-05
-2.1918626325196e-07
-2.89241182967556e-07
6.53077382378133e-06
-5.37086967570075e-08
-4.18339817692583e-07
4.93500687355524e-06
-3.1875259801106e-08
-5.29427893566032e-07
4.22834997759585e-06
-3.50534260289708e-08
-6.27087863062984e-07
3.92303507228892e-06
-4.05634811573198e-08
-7.14210377669319e-07
3.81463737269426e-06
-4.32170187153524e-08
-7.90553439462499e-07
3.74398871186114e-06
-4.1443146198082e-08
-8.45771926645128e-07
3.57737386762972e-06
-3.5570265612719e-08
-8.58913775983373e-07
3.24910761512159e-06
-2.71356107352575e-08
-8.15759455337766e-07
2.85837254416212e-06
-1.78480810296356e-08
-7.41017250660984e-07
2.48719466539865e-06
-8.1891293927492e-09
2.38106388124694e-05
-2.73619945402999e-07
-2.98862905173219e-07
2.6307511918809e-05
-5.24721989054602e-07
-3.0826954709148e-07
6.92233661573993e-06
-9.54746780969779e-08
-4.00790361437486e-07
2.84157593243682e-05
-7.23452966864913e-07
-3.24302968556795e-07
8.79427498757274e-06
-1.79326669523424e-07
-4.29474205913647e-07
4.27021986779232e-06
-6.18052786195195e-08
-4.63496560494664e-07
3.08011489048735e-05
-8.80504075487519e-07
-3.38748936390328e-07
9.88200738222112e-06
-2.35492165657223e-07
-4.65023026125063e-07
5.35101065847882e-06
-1.08060620842034e-07
-5.11315515792977e-07
3.50246336925646e-06
-4.35909263030151e-08
-5.1666926014963e-07
3.23345888719962e-05
-9.93784321319076e-07
-3.42792554162813e-07
1.10475245179412e-05
-2.6873140181914e-07
-4.94921021882555e-07
6.09089182767932e-06
-1.32522815343195e-07
-5.64577049568406e-07
4.28750694881974e-06
-7.47462507719871e-08
-5.76023116699268e-07
3.14766166732141e-06
-3.20749166902992e-08
-5.62207336638337e-07
3.27912807557281e-05
-1.05971610867497e-06
-3.38083148089888e-07
1.17502566305397e-05
-2.8372416040573e-07
-5.03677083202134e-07
6.76409723407311e-06
-1.39370045094525e-07
-6.05302942600175e-07
4.87574244697202e-06
-9.15119080742986e-08
-6.39970373101099e-07
3.7513368755403e-06
-5.50634884255797e-08
-6.28311188091884e-07
2.92848366774316e-06
-2.53634428904901e-08
-5.98665652649897e-07
3.25052548743491e-05
-1.0896594022989e-06
-3.24153713388989e-07
1.20098504759285e-05
-2.86210279305144e-07
-4.93632212605173e-07
7.05815792780657e-06
-1.34052278357712e-07
-6.1407888018347e-07
5.36274057911382e-06
-9.64591834188025e-08
-6.86770976926216e-07
4.22467341687267e-06
-6.88411074203071e-08
-6.97638431837673e-07
3.42813355803192e-06
-4.38613403573442e-08
-6.69095599511133e-07
2.7745606372811e-06
-2.03131226948765e-08
-6.27056964957715e-07
3.18884038263351e-05
-1.09408357781375e-06
-3.05763720527838e-07
1.20269591072051e-05
-2.79200104358234e-07
-4.74200302221224e-07
7.06050815271621e-06
-1.20928061050682e-07
-5.98001513696391e-07
5.52548028069245e-06
-9.22592860619754e-08
-6.94369236952199e-07
4.59825161766075e-06
-7.48768005164183e-08
-7.46694651311735e-07
3.83746908045792e-06
-5.64182215163695e-08
-7.41299286350795e-07
3.21962407461938e-06
-3.69127590259704e-08
-6.99637643624099e-07
2.66683425230501e-06
-1.72669970170364e-08
-6.48164693286391e-07
3.12029617341511e-05
-1.08155062419126e-06
-2.82606419214047e-07
1.19675835966246e-05
-2.67302885601179e-07
-4.50324367791479e-07
6.94441427139808e-06
-1.03528493859023e-07
-5.70444477313731e-07
5.46103912621956e-06
-8.16992551148631e-08
-6.72797301706442e-07
4.70302749468468e-06
-7.3786567593209e-08
-7.5285058728005e-07
4.15485402420416e-06
-6.34389620669605e-08
-7.91930511034306e-07
3.60284778957621e-06
-4.90134938979292e-08
-7.74703464413109e-07
3.0821098885061e-06
-3.22785658888021e-08
-7.22701989890544e-07
2.59686228533677e-06
-1.52991704965667e-08
-6.6360107320102e-07
3.05812245717333e-05
-1.05499102523028e-06
-2.5559037778124e-07
1.19186651837069e-05
-2.54049211966845e-07
-4.23644782068125e-07
6.81495923081681e-06
-8.48930773492844e-08
-5.38189193839642e-07
5.31574757650134e-06
-6.77658168330786e-08
-6.38408489139398e-07
4.62259223152963e-06
-6.7236354181005e-08
-7.28033723349906e-07
4.23818735914759e-06
-6.45074658274578e-08
-7.98302338405357e-07
3.89850595969935e-06
-5.64672545953592e-08
-8.28042314798567e-07
3.45699989002558e-06
-4.37533876844172e-08
-8.01326048089285e-07
2.99357274191678e-06
-2.88658724806559e-08
-7.4078179344073e-07
2.55655803441556e-06
-1.37178527633485e-08
-6.75064856051319e-07
3.0083697805838e-05
-8.6343532002898e-07
-2.06020662944705e-07
1.19192605977373e-05
-2.43954410433358e-07
-3.93276531866968e-07
6.71022902869061e-06
-6.88567216735028e-08
-5.01901280970984e-07
5.16712392266346e-06
-5.37663273453889e-08
-5.99553054233205e-07
4.4763440324612e-06
-5.77822395461209e-08
-6.90892502760766e-07
4.15705616195474e-06
-6.0699822011781e-08
-7.73727733657125e-07
3.97811670328082e-06
-5.85657153278356e-08
-8.37083937553136e-07
3.74530557893954e-06
-5.0878220128051e-08
-8.58981025741022e-07
3.36668468141393e-06
-3.9259577930541e-08
-8.23838586165848e-07
2.94072701174975e-06
-2.60218120595397e-08
-7.55604105573291e-07
2.53778527414689e-06
-1.25272421309098e-08
-6.83804354223943e-07
2.87335338975142e-05
-8.60993709711676e-07
-2.19661495853229e-07
1.19690229999676e-05
-2.1161538244846e-07
-3.45481268699185e-07
6.64073379085575e-06
-6.145347462207e-08
-4.59029919775178e-07
5.036723874729e-06
-4.39924807700332e-08
-5.59181660374662e-07
4.32394035756272e-06
-4.90142900697692e-08
-6.52733539903248e-07
4.01336443510846e-06
-5.46815740333717e-08
-7.39218654685571e-07
3.90122279550087e-06
-5.65052859010091e-08
-8.16564376109908e-07
3.82629525622066e-06
-5.31710670264858e-08
-8.73310044226955e-07
3.65289925878985e-06
-4.5265808161992e-08
-8.87529944229041e-07
3.31484073985244e-06
-3.45928784867553e-08
-8.44241065234264e-07
2.913729855959e-06
-2.31266360404927e-08
-7.68285493229506e-07
2.53365625861287e-06
-1.12411305018764e-08
-6.90217273910945e-07
2.8560196083993e-05
-8.74901779704492e-07
-1.48314209429648e-07
1.18365944777953e-05
-2.55258817409636e-07
-2.83690994311408e-07
6.60605873409662e-06
-7.02142175460133e-08
-4.10474542597083e-07
4.92474225242725e-06
-4.3818235781352e-08
-5.22492216355733e-07
4.1792828656053e-06
-4.43997259073576e-08
-6.20153551725129e-07
3.85966349543735e-06
-4.9530255158002e-08
-7.07928469339976e-07
3.76113798515574e-06
-5.28692392046199e-08
-7.88353348589294e-07
3.7541686990293e-06
-5.22502148388697e-08
-8.59110243947415e-07
3.73622338208722e-06
-4.73455704613757e-08