/*--------------------------------*- C++ -*----------------------------------*\
  =========                 |
  \\      /  F ield         | OpenFOAM: The Open Source CFD Toolbox
   \\    /   O peration     | Website:  https://openfoam.org
    \\  /    A nd           | Version:  12
     \\/     M anipulation  |
\*---------------------------------------------------------------------------*/
/*   Windows 32 and 64 bit porting by blueCAPE: http://www.bluecape.com.pt   *\
|  Based on Windows porting (2.0.x v4) by Symscape: http://www.symscape.com   |
\*---------------------------------------------------------------------------*/
FoamFile
{
    format      ascii;
    class       volVectorField;
    location    "200";
    object      U;
}
// * * * * * * * * * * * * * * * * * * * * * * * * * * * * * * * * * * * * * //

dimensions      [0 1 -1 0 0 0 0];

internalField   nonuniform List<vector> 
10140
(
(-2.34642476363218e-06 5.47891368445877e-05 2.35614176001345e-05)
(4.6811921765274e-06 7.70186949003368e-05 3.24491396185699e-05)
(9.20904655276618e-06 -0.000819530704362894 1.66181278975813e-05)
(1.94548498075601e-06 0.000429144908781839 5.21947233238855e-05)
(1.08459737721924e-05 9.66315758947002e-05 4.36744599269039e-05)
(2.44958588069154e-05 -0.00083342622054818 2.75257578198715e-05)
(4.3371373116899e-06 0.000448374227044297 6.23920148751431e-05)
(3.33858998041522e-05 -0.00103746119709718 1.30292816339903e-05)
(1.11106152331784e-05 -5.95204515105459e-05 4.67766176236117e-05)
(1.98351520651747e-06 0.000719442321770763 8.79127917630535e-05)
(1.20475705500965e-05 0.000116677507640958 5.06677589276419e-05)
(3.6660855170394e-05 -0.000825242596656747 4.10758102767148e-05)
(5.93752076746185e-06 0.000469363040250248 7.61767048882992e-05)
(4.82373623210994e-05 -0.00106559025890923 2.6846232211566e-05)
(1.68470788512732e-05 -6.43775201909099e-05 5.87541729291567e-05)
(2.63094150218701e-06 0.000744305204947318 9.85952707205431e-05)
(6.15373379365562e-05 -0.00113293975326772 1.08835926631693e-05)
(2.53856073438466e-05 -0.000245193779257418 4.2945388452693e-05)
(7.89303093649816e-06 0.000474684960120497 8.35039512951846e-05)
(1.55295478030353e-06 0.000835880253746687 0.000124109679319647)
(1.14899384664769e-05 0.000145758366254082 5.59836238615803e-05)
(3.88107712827224e-05 -0.000814897997042769 4.96301450104751e-05)
(6.05334763029439e-06 0.000491782758655122 8.67710750192752e-05)
(5.81818412079348e-05 -0.00106255119229315 4.30272909295661e-05)
(2.06687267387528e-05 -5.64919037700516e-05 7.28394648672753e-05)
(2.95042672874321e-06 0.000769891874021414 0.000110829826309751)
(7.34080352595027e-05 -0.00116590209820264 2.74395784985372e-05)
(3.11965497104329e-05 -0.000264051031386556 6.11579109001645e-05)
(9.59683790747558e-06 0.000484887058734522 9.47089436330114e-05)
(1.64699520034027e-06 0.000862576059506884 0.000133952840866761)
(9.00419835094857e-05 -0.00122545467991181 1.09742401895143e-05)
(4.24466048207411e-05 -0.000316265896619998 4.10505778503238e-05)
(1.65554874533716e-05 0.000357147887169999 8.12719972568755e-05)
(5.39550264212812e-06 0.00069403183775153 0.000119807288920191)
(1.09157951509378e-06 0.000906582886925326 0.00015901424603534)
(1.07238906467966e-05 0.000182657012198849 6.1934119528937e-05)
(3.78538956614999e-05 -0.000794524056040045 5.57892272383954e-05)
(5.52602907814504e-06 0.000519119127357559 9.539661873705e-05)
(6.04419107705628e-05 -0.0010554036426951 5.15621824229153e-05)
(2.10022949277446e-05 -4.14504465425095e-05 8.34811467029629e-05)
(2.7348931419251e-06 0.00079721364941405 0.000122094727186745)
(8.12177839153342e-05 -0.00116521337145009 4.53368525190499e-05)
(3.51519713468996e-05 -0.000263907297722252 7.39246539185706e-05)
(1.03415609723162e-05 0.000502268621862129 0.000107048826236605)
(1.58531938466219e-06 0.000890620085473819 0.000145747458449125)
(9.99570371493428e-05 -0.0012605376568539 2.87492799375504e-05)
(4.74083206503604e-05 -0.000341252015592465 6.17869648518911e-05)
(1.82686835622163e-05 0.000357573763665409 9.36756109578427e-05)
(5.52738046535738e-06 0.000711936027866483 0.000129746832999417)
(9.30083092823971e-07 0.00093371324471506 0.000168457893203058)
(0.000118196945794732 -0.00132254213614657 1.09708540004924e-05)
(6.07693689189213e-05 -0.000375865388766363 3.97891811608706e-05)
(2.69474189758914e-05 0.000297756916206511 8.00421055556044e-05)
(1.09418334459373e-05 0.000615543697816008 0.000117969718449293)
(3.45378418421978e-06 0.000806572343022586 0.000154288356635403)
(5.93199124194205e-07 0.000964304611876293 0.000191384131950162)
(1.00970451693129e-05 0.000226826328238328 6.87370128782669e-05)
(3.65264377225925e-05 -0.000767434000097294 6.20038302012797e-05)
(4.79832447030812e-06 0.000551649258014483 0.000103930323598727)
(5.99015170294589e-05 -0.0010374758584281 5.64684703901913e-05)
(1.97970397342714e-05 -2.02857068122574e-05 9.25293623193847e-05)
(2.23896134621511e-06 0.000828021312748811 0.000132903867596416)
(8.34193392913951e-05 -0.00116009866652763 5.36968593555463e-05)
(3.54748709975498e-05 -0.000252758155210124 8.28848179341146e-05)
(9.70260492464114e-06 0.000525348990524951 0.000118493722317215)
(1.27409486659915e-06 0.000920595081538794 0.000157890885350149)
(0.000106167234873021 -0.00126120757020132 4.73546956552253e-05)
(5.04053635550523e-05 -0.000345564272410623 7.52013316866887e-05)
(1.88066014698587e-05 0.000369222663450967 0.00010631088830657)
(5.22163003467839e-06 0.000735013315195287 0.000141619447996667)
(6.99870937955856e-07 0.000962873574652461 0.000180135227624077)
(0.000127171332283344 -0.00135879117463281 2.9174671505631e-05)
(6.48349262934235e-05 -0.000403823076037544 6.15503151961339e-05)
(2.7999390573119e-05 0.000293114383099001 9.33954728394791e-05)
(1.07843367867601e-05 0.000627096891395002 0.000128227527002242)
(2.93574397353363e-06 0.000827717423093994 0.000163665677492709)
(3.34330621587094e-07 0.000991406909950113 0.000201064744151602)
(0.000144750446439815 -0.00142526739045039 9.47364516057851e-06)
(7.90304343131591e-05 -0.00043527314285282 3.85175430236347e-05)
(3.83823095153492e-05 0.000246033317741197 7.8310316137688e-05)
(1.74237665373486e-05 0.000569942074572988 0.000117031500495406)
(6.88299945852241e-06 0.000747103118060779 0.000152357036782025)
(1.8491687990425e-06 0.000884949598490783 0.000186013278273311)
(1.297040523494e-07 0.00101808918561186 0.00022130498018738)
(9.54816073342893e-06 0.000278702980900282 7.65075238566023e-05)
(3.51832770361873e-05 -0.000734487629254932 6.88655257796618e-05)
(4.00532058352434e-06 0.000589622722684684 0.000113287484155139)
(5.84644350893666e-05 -0.00101377778196138 6.10303331661289e-05)
(1.80311011020748e-05 5.8955459744898e-06 0.000101597261772271)
(1.56782772284897e-06 0.000863064026220048 0.00014399945931813)
(8.31316199471952e-05 -0.00114320658610126 5.87882255849671e-05)
(3.38462646749248e-05 -0.000234472640504403 9.15704119555611e-05)
(8.31482016526181e-06 0.000552707463143251 0.000129678299626283)
(7.85743129883754e-07 0.00095346233695749 0.00017042950751908)
(0.000108374376079067 -0.00125787709117694 5.5758729156166e-05)
(5.03704204521026e-05 -0.000336739746755924 8.40577316053241e-05)
(1.76627407901483e-05 0.000389582075008672 0.000117839692982949)
(4.27237577731278e-06 0.000762431982050531 0.000153980191524392)
(3.39108003421671e-07 0.000994175306460228 0.00019309332472494)
(0.000132891580254967 -0.0013602033669367 4.87527098650031e-05)
(6.691822689231e-05 -0.000411038788107424 7.57444695983296e-05)
(2.79978003034158e-05 0.000301156254597761 0.000106588403066523)
(9.98631424273232e-06 0.000646466552566002 0.00014032024197972)
(2.19878947936e-06 0.000853453492867991 0.000175407186315195)
(2.82953969763233e-08 0.00102096912177736 0.000213143270642133)
(0.000153930097037282 -0.00146181523344565 2.82375863039264e-05)
(8.25578796324437e-05 -0.000464744795264614 5.94890524946561e-05)
(3.87477330789974e-05 0.000238640591983549 9.23016359175674e-05)
(1.67280275474318e-05 0.000577955508803255 0.000127675232862719)
(5.96080550985214e-06 0.000763682420330937 0.000161733288030834)
(1.09563904803109e-06 0.000907430801170339 0.000195517729242529)
(-1.69836462278117e-07 0.00104494276208335 0.000231606009514265)
(0.000167593601707588 -0.00153663199798173 4.56605254953646e-06)
(9.62582372455498e-05 -0.000496008679712228 3.58923854885375e-05)
(4.99660958933111e-05 0.000194659164327661 7.5610256277433e-05)
(2.46301883031997e-05 0.000527188944873971 0.000115218249725373)
(1.09602391256008e-05 0.00070910029921008 0.000151371813393907)
(3.75943045357549e-06 0.000835538994242869 0.000183644873585316)
(5.34748732890703e-07 0.000950192282562151 0.000215268027785957)
(-2.55050052612969e-07 0.00107063657823079 0.000248991990649874)
(9.09016590214825e-06 0.000338991932995593 8.46201095755454e-05)
(3.37397359132765e-05 -0.000695173236046608 7.61546321764139e-05)
(3.15865542396849e-06 0.000633441910632725 0.000123989881661571)
(5.63289322538424e-05 -0.000985187497047915 6.52080632702786e-05)
(1.59448939534115e-05 3.69894588306694e-05 0.000111527114247385)
(7.70429188191827e-07 0.000902968099853526 0.000156037802347751)
(8.16097503741432e-05 -0.0011203540127568 6.41236145009033e-05)
(3.12601158908896e-05 -0.000211246988373764 0.000100561974102254)
(6.45852314868139e-06 0.000584216247624958 0.00014123447837025)
(1.53294906468199e-07 0.000990019088019463 0.000183722109749267)
(0.000108483695610995 -0.00124230067973078 6.12188157991425e-05)
(4.8431677003869e-05 -0.000320009376969702 9.28877069504923e-05)
(1.5431843160159e-05 0.000414910283360242 0.000129225846567685)
(2.83325871936142e-06 0.000793192725984184 0.000166855943761241)
(-1.49445447638109e-07 0.00102819106626006 0.000207164931065405)
(0.000135553309050319 -0.00135866289105359 5.73153497530687e-05)
(6.65606333096788e-05 -0.000404186813054118 8.48970125281955e-05)
(2.63328323165382e-05 0.00031964220973386 0.000118402152827374)
(8.28356185905535e-06 0.000672062114360765 0.000152892032000103)
(1.08418594470254e-06 0.000882942346801758 0.000188568803255112)
(-3.6674028804072e-07 0.001052872112518 0.000227013577588939)
(0.000160474066936746 -0.00146310894219154 4.88687963004932e-05)
(8.41183938685617e-05 -0.000473787175463825 7.44823296816949e-05)
(3.8115252982964e-05 0.000244262903275026 0.000106098765016837)
(1.53077373063374e-05 0.000594830790498482 0.000140118162483575)
(4.56140508298395e-06 0.00078672291549354 0.000173576813187378)
(1.56770201670224e-07 0.000934306887417153 0.000207591340450483)
(-5.13720277397504e-07 0.00107447837212234 0.000244368219287959)
(0.000177787642471793 -0.00157226405383808 2.45744344076576e-05)
(9.96767037087927e-05 -0.000526108746785192 5.58347109735531e-05)
(4.98935082546176e-05 0.000185688460794017 8.99440342061369e-05)
(2.33581291315599e-05 0.000533198516818908 0.000126185660902889)
(9.44836370294052e-06 0.00072307433279403 0.000160870116339298)
(2.48115667624707e-06 0.000854441115420429 0.000193016011293906)
(-3.31543038093088e-07 0.000973185555624295 0.000225278705074062)
(-5.6151459647346e-07 0.00109708090041776 0.000260061472201407)
(0.000183961310991083 -0.0016624252686824 -3.83427378827848e-06)
(0.00011176343197174 -0.000560134760512817 3.08560319122995e-05)
(6.10796166626426e-05 0.00014108437767752 7.16033669295315e-05)
(3.20152092055131e-05 0.000482587088269351 0.000112177067284947)
(1.54371031291439e-05 0.000670903047794369 0.000149390436356304)
(6.0868926813106e-06 0.000801430120891887 0.000182417808315215)
(1.28094026458546e-06 0.00090643936546246 0.000212443183174601)
(-5.51269731852927e-07 0.00100959460508505 0.00024238858134301)
(-5.51562801731617e-07 0.00112247324128503 0.000274685847099986)
(8.74623195108056e-06 0.000407807032255598 9.13162152726423e-05)
(3.25350682728006e-05 -0.000649503886512368 8.18772374278364e-05)
(2.21521225851975e-06 0.000683672626338941 0.000136141885845637)
(5.3622768981336e-05 -0.000950069106053931 7.15132744935658e-05)
(1.35530216661719e-05 7.33201108924777e-05 0.000122738596196249)
(-1.61202642302703e-07 0.000948214883317851 0.000169426916948458)
(7.88326600545545e-05 -0.00109320317655447 6.88138871674053e-05)
(2.79369938388392e-05 -0.000183470750910503 0.000110474026655212)
(4.18478698236183e-06 0.00062030320157451 0.000153761021395435)
(-6.13334248421108e-07 0.00103098754831371 0.000198183092774929)
(0.000107107970960938 -0.00122059886350786 6.74070017927756e-05)
(4.51908607805542e-05 -0.000298321283605454 0.000102121241661398)
(1.23950462605547e-05 0.000444319221537867 0.000141032151076094)
(9.76598933712037e-07 0.000827573332790983 0.000180551968020564)
(-7.63514960187679e-07 0.00106561431086024 0.000222461370931935)
(0.000136316867839703 -0.0013447251918384 6.28507649418363e-05)
(6.441051190112e-05 -0.000389042478333108 9.38891994022511e-05)
(2.33331361733905e-05 0.000343550080326782 0.000130047686387619)
(5.82760180314555e-06 0.000701362586042029 0.000166019033098032)
(-3.96459718263431e-07 0.000915410617407967 0.000202919759626227)
(-8.64309819581958e-07 0.00108744712221919 0.000242486766426296)
(0.000164854500325612 -0.00146350289942157 5.74412457413422e-05)
(8.37530192816106e-05 -0.000468643807102467 8.51527977460605e-05)
(3.59319999125283e-05 0.000261089833728219 0.000118313623784252)
(1.28344366480311e-05 0.000619064307755185 0.000152968960998986)
(2.55745948997635e-06 0.000814834793033343 0.000186925972255731)
(-1.06198451821199e-06 0.000964734863671823 0.000221608514589672)
(-9.32014094720169e-07 0.00110648167518452 0.000259225620915004)
(0.000187179861902432 -0.00157144997833897 4.69283141659585e-05)
(0.000101394602085583 -0.000536044794853836 7.14063356034583e-05)
(4.88019477729838e-05 0.000189729692103496 0.00010429753187272)
(2.12908158058637e-05 0.000548325040957139 0.000139021437791456)
(7.32501118549236e-06 0.000744289511981143 0.000172903768494208)
(7.84264740320268e-07 0.000879187394588694 0.000205109485045872)
(-1.37547743831222e-06 0.00100044999864465 0.000237975515222581)
(-9.26276710615774e-07 0.00112629891260141 0.000273661029458092)
(0.000192611721489446 -0.001693823548254 1.4113030700579e-05)
(0.000115388347266787 -0.000590089249547849 5.04516577125711e-05)
(6.09243842749953e-05 0.000131231530715393 8.61442273761048e-05)
(3.03167560236808e-05 0.000487406047483643 0.000123373466243725)
(1.33323247907141e-05 0.000683351115243015 0.000159028909273339)
(4.15453769749182e-06 0.000818260789147077 0.000191773258053869)
(-1.85768462506981e-07 0.000926443097386058 0.000222245821125786)
(-1.46279549832671e-06 0.00103265953027218 0.00025310625407235)
(-8.73147292917379e-07 0.00114835987231297 0.000286589946878673)
(0.000199360625356828 -0.00179261442963175 -1.31864954123314e-05)
(0.000125443133823008 -0.000630165125911944 2.36664511114333e-05)
(7.14191232656691e-05 8.34673125134337e-05 6.59619908102015e-05)
(3.9157984607807e-05 0.000434304373518845 0.000107771112496675)
(2.00368364361366e-05 0.000629255165431478 0.000146099157661169)
(8.61162327438451e-06 0.000765360749668967 0.000180226668545512)
(2.23434676407625e-06 0.000874230689642669 0.000210947253140223)
(-7.21542682234591e-07 0.000969070603248531 0.000239214580856253)
(-1.43414800050063e-06 0.00106582632678515 0.000267685877498537)
(-7.80514534047602e-07 0.00117333572059767 0.000298627209870569)
(8.53311378351011e-06 0.000489320937595078 0.000100055474843191)
(3.11467097651217e-05 -0.000593367062738821 8.95620519126037e-05)
(1.16890667552916e-06 0.000740849014453243 0.000149805645633022)
(5.03699856466269e-05 -0.000907874792951307 8.08355647602856e-05)
(1.08559786765043e-05 0.000115337240497606 0.000135293647275834)
(-1.24887591555819e-06 0.000999331967682256 0.000184410127273533)
(7.51488394820258e-05 -0.00106007734092471 7.47498353330882e-05)
(2.39084176970267e-05 -0.000150818075679706 0.000121825766292103)
(1.47840604200412e-06 0.000661412742400413 0.000167693185461383)
(-1.52247544138953e-06 0.00107694414905937 0.000214113402495591)
(0.000103913049807259 -0.00119435778492568 7.41113493105663e-05)
(4.07730255463654e-05 -0.000272384571792108 0.00011226484808698)
(8.60695509777181e-06 0.000478042760467029 0.000153835221371594)
(-1.29564235326502e-06 0.000866156359015245 0.000195454772121003)
(-1.50717339418949e-06 0.00110711492667567 0.000239193032349211)
(0.000135264931489295 -0.0013248593964645 6.93525268577701e-05)
(6.06737921544039e-05 -0.000368997795615704 0.000103321043504455)
(1.91806006868173e-05 0.000371463659450832 0.000142099898609077)
(2.67008498683542e-06 0.00073420893526862 0.000179986256668481)
(-2.24258995286266e-06 0.000951209130076118 0.000218537755617234)
(-1.47109865389305e-06 0.00112525821238771 0.000259568726655284)
(0.000167276779105199 -0.00145194639610099 6.32800607969336e-05)
(8.16215139638772e-05 -0.000455203292523943 9.46604061497311e-05)
(3.2268816104419e-05 0.000283490691870023 0.000130249949565955)
(9.36136706368316e-06 0.000647233314273561 0.000166346674996674)
(-2.99534416741697e-08 0.00084615017862345 0.000201495374540465)
(-2.58103936341383e-06 0.000998016841053922 0.000237281975749665)
(-1.43922546288591e-06 0.00114115343658784 0.000276022050210669)
(0.000195861216704382 -0.00157388215774208 5.54674097304689e-05)
(0.00010168088946591 -0.000532291752743106 8.33216980198508e-05)
(4.62671764632241e-05 0.000205072570977512 0.000117040157495484)
(1.80861852984183e-05 0.000571280904118208 0.00015219411430245)
(4.41529592595683e-06 0.000771334920933149 0.000186466389731718)
(-1.39415545415026e-06 0.000908481747851827 0.000219255915287455)
(-2.65886404371983e-06 0.00103117107004984 0.00025291924667424)
(-1.36175653142249e-06 0.00115804114764688 0.000289551615599675)
(0.000207651283026776 -0.00168517818364492 3.71614968369822e-05)
(0.000118163988622955 -0.00059984003244937 6.70189182290089e-05)
(5.97521836657842e-05 0.000134248049183048 0.000100972920510786)
(2.77449619001798e-05 0.000501297303270735 0.000136587032341855)
(1.0502491449295e-05 0.000703240552571334 0.000171284305851126)
(1.65681895218657e-06 0.000841549040806259 0.000203944812746782)
(-2.04310901457135e-06 0.000951908292267483 0.000234894049271495)
(-2.56494477207278e-06 0.00105985777760301 0.000266586311963167)
(-1.2510708023028e-06 0.00117701582050524 0.000301094583516952)
(0.000201402477678411 -0.00181519796171504 4.00829079125621e-06)
(0.000129176837362678 -0.000658979573378686 4.26842400967072e-05)
(7.15752966416402e-05 7.32240800636559e-05 8.06399455490905e-05)
(3.72950103558584e-05 0.000438377975808549 0.000119119132954846)
(1.74561786205592e-05 0.000640746590460614 0.000155840703630106)
(6.03617008574926e-06 0.000780939283187999 0.000189602540689744)
(6.26360614939954e-08 0.000892479964982037 0.000220651159527859)
(-2.30399915076076e-06 0.000989522884886423 0.000249661634937378)
(-2.38624669013434e-06 0.00108864409341356 0.000279191537672844)
(-1.10801097964586e-06 0.00119848575690272 0.000311384247385463)
(0.000256782695873446 -0.00181546202121246 -2.55643124372766e-05)
(0.000139744714917993 -0.000705923074825353 1.40456001678504e-05)
(8.09459688801836e-05 2.07397287418878e-05 5.84843117234438e-05)
(4.58420387569558e-05 0.00038137412716177 0.00010184172745395)
(2.45034744279941e-05 0.000583111000767956 0.000141409770561633)
(1.12087552621936e-05 0.000724911019734679 0.000176707762428332)
(3.27635946812678e-06 0.000839055459356491 0.000208547874910263)
(-8.54702747534997e-07 0.000937628130245147 0.000237487675273329)
(-2.34407614314631e-06 0.0010271689555795 0.00026426259825331)
(-2.14504369834226e-06 0.00111975381006381 0.00029138261216315)
(-9.50327739897493e-07 0.00122283396310997 0.000321025152567939)
(8.250724505702e-06 0.000583938329079841 0.00011360887776931)
(2.94811601549222e-05 -0.000525808525851222 0.000103302943302577)
(-9.93082643478497e-08 0.000805659425435999 0.000165443594035671)
(4.67395524548439e-05 -0.000856919500306056 9.28021374601879e-05)
(7.96655422613693e-06 0.000163858648630255 0.000148647594060171)
(-2.51990742089562e-06 0.00105686394838229 0.000201092360845196)
(7.0640264252209e-05 -0.00101969351254479 8.41965155067278e-05)
(1.9157164728542e-05 -0.00011292783481519 0.000134897861329415)
(-1.69984198536479e-06 0.000707999975708302 0.000183272683790271)
(-2.59020165110921e-06 0.00112842720284509 0.000231682168099806)
(9.91275903732378e-05 -0.00116353726446501 8.02934038329549e-05)
(3.51748716321566e-05 -0.000241930724554711 0.000123922810893619)
(4.03579025304881e-06 0.000516481299971056 0.000168100104947379)
(-4.01040554741319e-06 0.000909470678980662 0.000211875167438049)
(-2.38931412735845e-06 0.00115327953630258 0.000257534235244461)
(0.000131902813422078 -0.00130059168220332 7.70706322320045e-05)
(5.53075892843478e-05 -0.00034496492113993 0.000113866498557328)
(1.3898423838958e-05 0.00040343015091898 0.000155157312026572)
(-1.21401939656709e-06 0.000771058562216648 0.000195177940763417)
(-4.47671328382192e-06 0.000990913950067235 0.000235627541212311)
(-2.19581743205786e-06 0.00116690224008996 0.000278349266857568)
(0.000167049655551779 -0.00143495396356781 7.01265145375464e-05)
(7.76062560493625e-05 -0.000437079781852816 0.00010399975482228)
(2.714382708836e-05 0.000309758809185898 0.000142531538830461)
(4.88508106546391e-06 0.000678838521014455 0.000180545118279069)
(-3.22846375657392e-06 0.000880715689904206 0.000217341530500676)
(-4.42143301681582e-06 0.00103445826400227 0.000254590431867861)
(-2.04401509381455e-06 0.00117894888988025 0.000294725230224526)
(0.000201653196184801 -0.00156584068482507 6.14746192186942e-05)
(0.000100132809629736 -0.000520633476836635 9.31746118012643e-05)
(4.21552378820237e-05 0.000225826896395722 0.000129315991864078)
(1.36858018136485e-05 0.000598173798125094 0.000165816772540705)
(6.90604397669925e-07 0.000801671892589451 0.00020123723872765)
(-4.06612568902072e-06 0.000940774768610387 0.000235084786941466)
(-4.20566949652989e-06 0.00106469669345805 0.000269839415669822)
(-1.87731745553619e-06 0.00119243926682265 0.000307616643552156)
(0.000226110478545504 -0.00168988488118777 4.78894903269164e-05)
(0.000120387821303515 -0.00059700548754223 7.94636622716085e-05)
(5.72342062964516e-05 0.000148276236170817 0.000114204592659272)
(2.39739132435126e-05 0.000523040220984838 0.000150111507405844)
(6.73835403144402e-06 0.00072925522585815 0.000185067102954356)
(-1.50445984710194e-06 0.000869949488221939 0.00021822717550828)
(-4.32133058213542e-06 0.000981639053314014 0.000249901698599323)
(-3.88973415473197e-06 0.00109044155437066 0.000282501533001732)
(-1.69318983197858e-06 0.00120820540345724 0.000318028644792113)
(0.000224286404974386 -0.00180336087196927 2.73662350910032e-05)
(0.000133958717618483 -0.000666690147295494 5.99958826084777e-05)
(7.08741717072939e-05 7.56657922072454e-05 9.59476767081568e-05)
(3.44987101698696e-05 0.000451342570155528 0.000132671049687148)
(1.40491921240467e-05 0.000659635144592402 0.000168306837642917)
(2.76757096615438e-06 0.000803133724708256 0.000201872390837269)
(-2.64806181447815e-06 0.000916696923604587 0.000233295920086954)
(-4.24924813431916e-06 0.00101513588990533 0.000263035002000802)
(-3.52239749198341e-06 0.00111545930763104 0.000293522642894436)
(-1.48989318623049e-06 0.00122636403622769 0.000326806155496021)
(0.000281066561248258 -0.00186657715008347 -1.06526122534176e-05)
(0.000144298267344243 -0.000732453337186882 3.20689977101246e-05)
(8.18602903640482e-05 1.06075697771621e-05 7.30990396928991e-05)
(4.41572801742949e-05 0.000384960922033283 0.00011328024511844)
(2.16586638643276e-05 0.000593937027785413 0.00015120481560563)
(8.09238009950181e-06 0.000739658049825455 0.000186086984452919)
(4.12317803379699e-07 0.000856207603441548 0.000218193144060052)
(-3.1715692048322e-06 0.000956523798456662 0.000247776142955848)
(-3.98794427936701e-06 0.00104763161896622 0.000275442028230605)
(-3.11569055291716e-06 0.00114202927351038 0.000303680329793782)
(-1.27950054620717e-06 0.00124693570226358 0.000334588636236656)
(0.000310692212118406 -0.00196888953973197 -2.79207274820614e-05)
(0.000161330596559793 -0.000775383857460148 1.06504440633648e-06)
(9.01420617939641e-05 -4.68961593295043e-05 4.89117043839326e-05)
(5.19505209043103e-05 0.000323694626506981 9.42409337393458e-05)
(2.86695324513851e-05 0.000532086805054096 0.000135223858870766)
(1.37378654630947e-05 0.00067955404327617 0.000171765911614578)
(4.36575337321063e-06 0.000799048003354639 0.000204824044080569)
(-9.5976868376666e-07 0.000902668441197674 0.000234902082590687)
(-3.31461227778941e-06 0.000995903176027661 0.000262351796759722)
(-3.62156005705885e-06 0.00108226844626607 0.000287788568346708)
(-2.69312980809764e-06 0.00117201479606968 0.000313730992226036)
(-1.06971076711751e-06 0.00127080107854273 0.000342059719787395)
(8.19091283377335e-06 0.000692329067286878 0.000131437279324725)
(2.79716524458046e-05 -0.000447449576648368 0.000121870917163658)
(-1.61347854431573e-06 0.00087870470144148 0.000182766505911529)
(4.27506605711801e-05 -0.000794822024284888 0.000108926295866004)
(4.56189203423154e-06 0.000219258532619022 0.000164123417134246)
(-3.99789325648422e-06 0.00112134735881825 0.0002194785772604)
(6.51162828914967e-05 -0.000970702496649075 9.68920020141886e-05)
(1.36279474467315e-05 -6.91815755743416e-05 0.000149694455057226)
(-5.39997147244532e-06 0.000760599438141072 0.000200588056250753)
(-3.83490171378026e-06 0.00118596978041758 0.000250935845208064)
(9.29649369103708e-05 -0.00112528105334942 8.83579479080677e-05)
(2.83497842600691e-05 -0.000206562473403224 0.00013749091853799)
(-1.38735838337852e-06 0.000560054639426328 0.000184100864294786)
(-7.2128807409084e-06 0.000958014048242383 0.000229988882447979)
(-3.42373942736971e-06 0.00120465245897948 0.000277572422917587)
(0.000126197341572671 -0.00127138186100719 8.5641370477693e-05)
(4.82656964427826e-05 -0.000316835860495969 0.000125918135331885)
(7.42219315570698e-06 0.000439796203299694 0.000169712022223916)
(-5.8806937637753e-06 0.000812401709809949 0.000211912648243379)
(-7.13192996640265e-06 0.00103507192268747 0.000254366926038947)
(-3.04918683073019e-06 0.00121293997680543 0.000298905895478922)
(0.000163778261370868 -0.00141377879141424 7.83027370244518e-05)
(7.15773121684726e-05 -0.000415293082753068 0.000114433899141175)
(2.04998572494424e-05 0.000339801649887087 0.000155813116338275)
(-6.55697838131949e-07 0.000714223007935458 0.000195964921962469)
(-7.09424770434282e-06 0.000919017155443805 0.000234665706182062)
(-6.61504779524313e-06 0.00107458132654348 0.000273619634051483)
(-2.7562421280268e-06 0.00122038778144955 0.000315356654919956)
(0.000203157492732018 -0.00155328375278698 6.86051853388176e-05)
(9.62834268413406e-05 -0.000504719839027261 0.000102889131225794)
(3.63151607826257e-05 0.000250194890012256 0.000141796119226243)
(7.99400366222031e-06 0.000628312794486214 0.000180207638223483)
(-3.92090427633717e-06 0.000835127095517564 0.000217266078690656)
(-7.28154603348713e-06 0.000976141175007741 0.000252551356815041)
(-6.04157676000411e-06 0.00110127001117454 0.00028867719661841)
(-2.4805992065469e-06 0.00122986843582822 0.000327815195827901)
(0.000237294453467226 -0.00168803840361217 5.44016640486542e-05)
(0.000120455906351767 -0.000587321150870151 8.93973686831557e-05)
(5.30542382632578e-05 0.000167301517508298 0.000126803845563163)
(1.88468065290794e-05 0.000548517431004891 0.000163987662135635)
(1.94997011680466e-06 0.000758492418078828 0.000200018209159491)
(-5.37471330251602e-06 0.000901381002175763 0.000234190776750438)
(-7.0385332481424e-06 0.00101427581178492 0.000266907337377747)
(-5.45349521547654e-06 0.0011237941590698 0.000300615659719819)
(-2.2070522998897e-06 0.00124202028241877 0.000337305875282941)
(0.000254465353437199 -0.00180921048682743 3.89162345852253e-05)
(0.000139871722646641 -0.000663891629206564 7.30293981240648e-05)
(6.90510844115724e-05 8.85658563977363e-05 0.000109634941943439)
(3.04567524652786e-05 0.000471917505467568 0.00014653876295419)
(9.58381921236914e-06 0.000684619321547352 0.000182302565470003)
(-1.32885446693918e-06 0.00083064599497219 0.00021628039205977)
(-5.95492047976929e-06 0.000945634264299256 0.000248367997813119)
(-6.57826257150446e-06 0.00104482076296401 0.000278955859172811)
(-4.86436708572006e-06 0.00114557933314016 0.000310422489706157)
(-1.9320889213004e-06 0.00125675350028092 0.000344762762913323)
(0.000303760633209883 -0.00190935151221119 1.62114468809428e-05)
(0.000151579895761009 -0.000736423831863636 5.00437273882415e-05)
(8.22762368608165e-05 1.30676738941121e-05 8.88635589668635e-05)
(4.15377871740653e-05 0.00039719496518519 0.000127158876156164)
(1.79020840250876e-05 0.000611996060081614 0.000163856633503679)
(4.17084992666839e-06 0.000760982032269755 0.000198444236805912)
(-3.12258276510551e-06 0.000879460419823423 0.000230846992528391)
(-6.00451225766225e-06 0.000981016304094918 0.000261082686347033)
(-5.97839438447474e-06 0.00107299594947242 0.000289616260469624)
(-4.26301783913069e-06 0.00116816787125967 0.000318867952465681)
(-1.6597553696618e-06 0.00127380034903659 0.000350896779153532)
(0.00035891144388241 -0.00200619007414977 -5.1070123895873e-06)
(0.000175786721712337 -0.000801054003471494 1.71217154746178e-05)
(9.26821200177141e-05 -5.65376116945447e-05 6.31663378018992e-05)
(5.08750283089319e-05 0.00032700524279916 0.000105706329236676)
(2.58398844284016e-05 0.000542415197164361 0.000145028806539292)
(1.0257784849073e-05 0.000693673910786742 0.000181110226539933)
(8.99491517580903e-07 0.000815431728732885 0.000214400411849785)
(-4.00720483847323e-06 0.000920559867222872 0.000245074770498378)
(-5.71669869589193e-06 0.00101493951994064 0.000273325788681633)
(-5.29511321073633e-06 0.00110233516237725 0.00029971145929016)
(-3.6669821865633e-06 0.00119299155990217 0.000326698129492911)
(-1.39575900375596e-06 0.00129326677999959 0.000356305411901509)
(0.000307511305498426 -0.00214334903038609 -3.66460355007126e-05)
(0.000178400883135907 -0.000861624999632965 -7.09632954080198e-06)
(9.97213904660917e-05 -0.0001169911776947 3.71949854375396e-05)
(5.74431556277526e-05 0.000261767747761317 8.47859010153968e-05)
(3.24120197837825e-05 0.000476542304104476 0.000127439287526872)