/*--------------------------------*- C++ -*----------------------------------*\
  =========                 |
  \\      /  F ield         | OpenFOAM: The Open Source CFD Toolbox
   \\    /   O peration     | Website:  https://openfoam.org
    \\  /    A nd           | Version:  12
     \\/     M anipulation  |
\*---------------------------------------------------------------------------*/
/*   Windows 32 and 64 bit porting by blueCAPE: http://www.bluecape.com.pt   *\
|  Based on Windows porting (2.0.x v4) by Symscape: http://www.symscape.com   |
\*---------------------------------------------------------------------------*/
FoamFile
{
    format      ascii;
    class       volScalarField;
    location    "200";
    object      k;
}
// * * * * * * * * * * * * * * * * * * * * * * * * * * * * * * * * * * * * * //

dimensions      [0 2 -2 0 0 0 0];

internalField   nonuniform List<scalar> 
10228
(
2.59047429833852e-07
2.68861265593695e-07
3.01666184878138e-06
3.19735030737026e-06
3.31729220391696e-06
2.85721980555068e-07
3.11315701565584e-06
1.05827126508676e-05
3.63969100088281e-05
1.2242755746014e-05
3.65139796665638e-05
3.40688381738156e-06
1.23878766776989e-05
2.70520096389592e-07
3.17693203917551e-06
1.05070380487891e-05
1.96614537843152e-05
8.30667507252471e-05
8.48958525954807e-05
2.41135386534204e-05
8.5014257382266e-05
8.29473756231239e-05
3.6606072654355e-05
3.35412865532648e-06
1.2627080413178e-05
2.50610799347139e-05
2.66847980802877e-07
3.12131214302741e-06
1.05243549297539e-05
1.99638642041649e-05
3.14717925868695e-05
0.000126530690318483
0.000156936251943444
0.00013216399736076
3.98811501598044e-05
0.000156648834141906
8.47515209954529e-05
0.000132353046691373
8.24852110258741e-05
0.000126311553357847
3.59129323124801e-05
3.1372148715031e-06
1.24623017171905e-05
2.57201692283178e-05
4.0484604587345e-05
2.1682962799439e-07
2.91914404355446e-06
1.02903342715127e-05
1.99948935411025e-05
3.09622302496079e-05
4.26671038335419e-05
0.000167700359798612
0.00022109723597081
0.000224312435700687
0.000178625590097655
5.58999081335519e-05
0.000155163725715357
0.000220403845502165
0.000223842497106788
0.000131747052499495
8.29367385031664e-05
0.000178588650248282
8.05927095371769e-05
0.000125174631181063
0.000166836758813595
3.37547604167129e-05
2.66266643405189e-06
1.15655294344357e-05
2.54047826377029e-05
4.12647575665649e-05
5.73359949516382e-05
1.69896500064115e-07
2.46280250514028e-06
9.55668272211232e-06
1.93941598250033e-05
3.05265298145409e-05
4.24591943336328e-05
5.57951542613478e-05
0.000205790113276121
0.000280571314874936
0.000304071936987023
0.000288945484639167
0.000223353154747542
7.4637559302499e-05
0.000217767077196148
0.000221528765467269
0.000151311010278645
0.000303216145812094
0.000279397657560369
0.000288342319806007
0.000177631095386712
0.000128889924412287
7.84684519517595e-05
0.000223354574758685
7.62123231995032e-05
0.000121925168200024
0.000164775954778621
0.000204700433242409
2.96870656231915e-05
2.16329269772838e-06
9.9825286774792e-06
2.37097999690622e-05
4.07928048710087e-05
5.85905625809016e-05
7.59151256234504e-05
5.2531368480502e-08
1.68997579249886e-06
8.20394047780144e-06
1.79460031545022e-05
2.93814546500011e-05
4.18634222332896e-05
5.49915684578539e-05
6.84468875568567e-05
0.00024206111404055
0.000335945762910073
0.000377487966289143
0.000382464331344766
0.000351109414135674
0.000266759845052612
9.33443704058323e-05
0.000275630617626843
0.000211973748973429
0.000299598275134459
0.000285473086548506
0.00021608455145284
0.000143749894316517
0.000376209488774987
0.000381554933191435
0.000334310427140436
0.000350399321866584
0.000222255015533654
0.000174022328288928
0.000122521073340402
7.07074429588249e-05
0.000266677113567239
6.84549084602436e-05
0.000115398701096034
0.000160069184226427
0.000201876303772607
0.000240556760446577
2.28618808885551e-05
7.01661408764144e-07
8.5477435898301e-06
2.08496646005946e-05
3.84165094880507e-05
5.80705874347625e-05
7.74013770797761e-05
9.51934826086355e-05
5.50527110471197e-09
5.3443075155277e-07
5.69106818005391e-06
1.54465832296489e-05
2.70410229144682e-05
4.01138332691393e-05
5.39762843754414e-05
6.77676654485462e-05
8.15670832506477e-05
0.000275971476396088
0.00038756466436778
0.000445889694076259
0.0004676699185897
0.000457555008182454
0.000410518434455525
0.000308185541330403
0.000112752685382473
0.000371414491931253
0.000329500673568214
0.000267994360135675
0.000291983750662983
0.000201676614554111
0.000377364019995703
0.000347178914099891
0.00027899314285689
0.000206066730628649
0.000131258739039311
0.000466388405761154
0.000444126144515851
0.000456555399685269
0.000385554220680393
0.000409739801220847
0.000218270275824661
0.000265517533070465
0.000166464412552452
0.000111919087091556
5.90613139358842e-05
0.000308221682404714
5.49733103169213e-05
0.000104403768571742
0.00015140120819874
0.000195829020262643
0.000237057177854405
0.000274368050969841
9.34713986936402e-06
6.87908101105757e-08
2.50058344197151e-06
1.8389800276407e-05
3.464844350041e-05
5.51757535055158e-05
7.69232091238584e-05
9.72031827828843e-05
0.000114892199476687
4.46192659370015e-08
2.11331737236609e-06
1.10193676938685e-05
2.31791383964433e-05
3.67882551955037e-05
5.16277376429734e-05
6.6612315298439e-05
8.07362814790698e-05
9.4247599458345e-05
0.000307860155202538
0.000435603740071477
0.0005096085157466
0.000546859534881963
0.000553469783690489
0.000529196615321024
0.000466867932955181
0.000347570633973864
0.000131719652724512
0.000461031638744401
0.000438187564757991
0.00036185471552045
0.000379860906580518
0.000320175378001906
0.000255146389068367
0.000368646017057785
0.00027908576965773
0.00018560641106243
0.000451957167845254
0.00040629515989479
0.000340153791508984
0.000267558107617711
0.000190023855075873
0.000111413064031288
0.000552094049703278
0.000545077655413911
0.000507419028064682
0.000528093710692641
0.000433342295088157
0.000466084742513129
0.000210235226655661
0.000261364233194245
0.00030713210626969
0.000154494656140557
9.67314107095721e-05
0.000347718467026848
2.98332312374107e-05
8.5635978599837e-05
0.000137298446376735
0.000185151743516826
0.000229851066096093
0.000270414448567472
0.000306149512396297
6.89864610209338e-07
2.05945048329265e-07
7.8674215362703e-06
3.13972009642448e-05
5.0612458820529e-05
7.35793079167576e-05
9.68741885824759e-05
0.00011736964108064
0.000134280244457292
1.81624128306472e-07
4.33714899222901e-06
1.66446321839094e-05
3.15034009382672e-05
4.72993725097818e-05
6.37239293690174e-05
7.94061834020414e-05
9.34370374326403e-05
0.000106522028884718
0.000337557971626143
0.000480253968197985
0.000568852320146824
0.000620651628943363
0.000642186673189811
0.000635164343402201
0.000597093931049826
0.00051996340872453
0.000384553642233872
0.000149996187197646
0.000538531570610616
0.000450367340966317
0.000546288009322746
0.000426814400403894
0.000500463337594498
0.000346411994235148
0.000426953828174797
0.000369062160994683
0.000304945040024599
0.000235736853072662
0.000442605393687088
0.000354332011235903
0.000259887579475619
0.000161564358987901
0.000523156530023514
0.000462503812311849
0.000398963787063307
0.000328293722446907
0.000250058222049921
0.000164854339648084
8.14025754722213e-05
0.00064027311261872
0.000633635104312979
0.000618397088029609
0.000566353380734467
0.000595928250759769
0.000477819001967402
0.000519215602449025
0.000253081308861243
0.000198325085276032
0.000302909088285374
0.000346740627936203
0.000138312667600129
0.000384829017190311
3.02451277203175e-06
4.98766458172707e-05
0.00011358128895905
0.000168158303794515
0.000217367579095482
0.000262249986677155
0.000301845934221662
0.000335804876425371
2.48344259000496e-06
3.52358349413206e-07
4.50252967283219e-06
2.62918567726856e-05
4.51361980666295e-05
6.81545964074876e-05
9.31560107060342e-05
0.000117243700451099
0.000137245611115592
0.000152870626256517
3.18707395540088e-07
6.86658232485963e-06
2.27711959502907e-05
4.05425120055662e-05
5.84082665925328e-05
7.60276623265967e-05
9.20081813532892e-05
0.000105698973308172
0.000118185179711492
0.00036510188883325
0.000521657352787427
0.000623854399161221
0.000689331909995113
0.000724772759404831
0.000732656414696127
0.000712601156791194
0.000661067176328472
0.000569659755945615
0.000418894052672827
0.000167044250570632
0.000610752118807094
0.000633211822558264
0.000526021597432559
0.000534926513486139
0.000433605310801337
0.000627384039729971
0.000408952229635086
0.000487465795965145
0.000558566519786926
0.000324315357446952
0.000470873731999656
0.000414905459709
0.000351676637735709
0.000282277118765154
0.000206571958676379
0.000427774145931421
0.000513360582068149
0.000333963293792493
0.000233900777270019
0.000119281785580361
0.000590709607946669
0.000515544077334465
0.000454928802887523
0.000386939127166082
0.000311529794332958
0.000224824083955652
0.000140671100748549
1.2082443739313e-05
0.000722340213761017
0.000730533458890055
0.000710945624666169
0.000686726854215485
0.000621137579756163
0.000659881984688165
0.000519086106275379
0.000568953646645301
0.000294361929829854
0.00024112634503198
0.000183875116038749
0.000342469730705857
0.000383956122162419
0.00012339441177689
0.000419239925469071
5.30544185309898e-06
6.8825721788247e-05
0.000139977651576692
0.000197724819486089
0.00024815847562624
0.00029286490720389
0.000331219428691953
0.000363301896219431
2.57382623645764e-06
4.27230228732304e-07
4.36840894200695e-06
2.080571072333e-05
3.92266555437258e-05
6.17937347166588e-05
8.69650926351393e-05
0.00011323096258746
0.000137314944341078
0.000156189427597214
0.000170029120155421
5.1617322140252e-07
9.64660266599234e-06
2.95079096357039e-05
5.01513833175151e-05
6.97596256295977e-05
8.81811833370217e-05
0.000104168144350045
0.000117364929741936
0.000129206535938644
0.000390501959298345
0.000559923548804766
0.000674837235917878
0.000753172618520974
0.000801692096501457
0.000823217522977948
0.00081835742444985
0.000785661114060425
0.000721036795281519
0.000615839098767872
0.000450307393681102
0.000182214565409158
0.000596555909098647
0.000714107601160706
0.000678173205809865
0.000722927812412662
0.000619942203558825
0.000506913446797824
0.000615437168959104
0.00051757393691194
0.000410730051106892
0.000704281427718703
0.000383756789529814
0.000467363668923516
0.000544168922231953
0.00061267692321688
0.000294117142001704
0.000511668504404419
0.000457750673506758
0.000395602919583475
0.000326012621082941
0.00024838994417915
0.000155186828867451
0.000407682625534861
0.000498248418084274
0.000580496728991431
0.000308687747921346
0.000197107154834714
1.85784887832193e-05
0.000654427091123245
0.000565198870760023
0.000507722436189334
0.000442611448939834
0.000370587724872743
0.000291310091579128
0.000201593316557646
0.000102986401782804
1.3546990847999e-05
0.000798873773557661
0.000820530218649762
0.000816047763446625
0.000783926878366842
0.00075032356781699
0.000671950197930171
0.000719849467737524
0.000557229360612532
0.000615154278265949
0.000281999642300771
0.000333620688935585
0.000226777028182493
0.000168680788325415
0.000379618998896666
0.000418391384740644
0.000106456350135709
0.000450606216476033
8.37322657322412e-06
8.71706977048161e-05
0.000165457411740967
0.000226083075908227
0.000277328869191677
0.000321518327394654
0.000358464824880611
0.000388652984112149
4.05516175138278e-06
3.28151979035534e-07
3.46093775127982e-06
1.5881480797277e-05
3.96739682457631e-05
3.35499469636579e-05
5.52072106569234e-05
7.97091331529232e-05
0.000106335761289452
0.000133049981542494
0.000156319341101165
0.000173271203397887
0.000184568804348416
7.17558052660539e-07
1.28740575991693e-05
3.67361339103338e-05
6.00179283578268e-05
8.10077453315725e-05
9.99215750905246e-05
0.000115738578390948
0.000128364690355249
0.000139516446928568
0.000413812286525188
0.000595140462719209
0.000721970096113956
0.000812425008763697
0.000873290604185914
0.000907546579344988
0.000916336188923479
0.000899283046988015
0.000854305189427843
0.000776967844983664
0.000658410211667038
0.000478486635563465
0.000194183224578589
0.000662513697143273
0.000575240678217589
0.000699094569579747
0.000789674479439489
0.00081167456661057
0.000741036828994935
0.000807914921667577
0.000708954058339222
0.000600225591941714
0.000481249085451196
0.000691743252554942
0.000597617030879707
0.000494766032048185
0.000382428469341411
0.000776896250088453
0.000349330662923074
0.000439234373232433
0.000522053695382955
0.000597069851228611
0.000662918115773853
0.000249801956638857
0.000549388518964445
0.000497595086525374
0.00043673192305775
0.000367215184253306
0.000287858436608189
0.000189053821780019
2.81696432849099e-05
0.000383867765261929
0.000478351893552682
0.000564943151680541
0.000643781046014188
0.000281640472520682
0.000153837456600808
2.15418241347069e-05
0.000714180621913766
0.000611292515689097
0.000557112188210771
0.000494979004888978
0.000425954157732215
0.000351111017057007
0.000270294486929274
0.000179081839242573
8.77606084862984e-05
1.32296587987955e-05
0.000904444427875102
0.000870206580731084
0.000913419701802109
0.000896838152765664
0.00085251904445631
0.000809391337658208
0.000718933313430036
0.000775776247404465
0.000592327602446981
0.000657713034489839
0.000267078131221125
0.000320702515904163
0.000370449123847522
0.000211106474679077
0.000152656535289935
0.00041390307101566
0.000449589315305503
9.04318649096173e-05
0.000478526940787482
1.17188097762409e-05
0.000105372568725537
0.000190029502097872
0.000253020739916075
0.000304671884959124
0.000348111861004822
0.000383578076356195
0.000411903515271556
3.3597218440086e-06
2.55789561567396e-07
2.77948261506956e-06
1.22599462433908e-05
3.52414460233748e-05
2.84885932115337e-05
4.87048756100182e-05
7.21587593226418e-05
9.81433322839904e-05
0.000125527235958462
0.00015182635259643
0.00017267706317514
0.000186106533155924
0.000193628729288563
9.9252204666274e-07
1.63915351687994e-05
4.42201595438145e-05
6.98347306705639e-05
9.18969727811843e-05
0.000111098033452891
0.000126633118507795
0.000138641356205447
0.000149068901319435
0.000435082607173613
0.000627389206755176
0.000765373089931965
0.000867276983382662
0.00093984822395659
0.000986103383683045
0.00100748341892125
0.00100426583179724
0.000975446369074771
0.000918530858675489
0.000828860012167491
0.000697352424678769
0.000503224744288171
0.000201331184041979
0.000639199078015951
0.000724114887199755
0.000773154709121784
0.000546862752343043
0.000677177136642677
0.000795872897541803
0.000860233932856825
0.000894568122300307
0.000903953510399053
0.000799489190499318
0.000888225671465952
0.000793201851172036
0.000688641859475023
0.000574720560413765
0.000449517179441519
0.000673278505723298
0.000763746023309171
0.000574652139400334
0.000467885471162686
0.000350926282613338
0.000845155864494907
0.000400928297698781
0.000298781669749571
0.00049123217209162
0.000573144181751536
0.000646240562593688
0.00070939232349846
0.000200440250974961
0.000584096089519144
0.00053445453250942
0.000475021859220031
0.000405861738307198
0.000325175231546017
0.000221528022362747
3.76455158641377e-05
3.27939846192797e-05
0.000454849637888454
0.000358319734528281
0.000544600261557588
0.000627618432301612
0.000703088598836773
0.000253463282571084
0.000135276358686331
2.34731999301031e-05
0.000769898175040805
0.000653707017686751
0.000602912893875534
0.000543880848051667
0.0004776948572683
0.000405959722805427
0.000329656159970574
0.000248371217330665
0.000160134710303907
7.93296951502957e-05
1.08290958961004e-05
0.00098271843380421
0.00100412811583421
0.000936566749328367
0.00100117435863831
0.000972898508552
0.000916699622824259
0.000864085367391705
0.000762195918970345
0.000827656363988991
0.000624460525616002
0.000696621977518823
0.00025053314834312
0.000304981089579283
0.000356955166895167
0.000404407879286711
0.000194509360516307
0.000136838066703419
0.000444735010651532
0.000477013118711288
8.0157163496971e-05
0.000502791610455689
1.57546020905229e-05
0.000123223658109297
0.000213470996982371
0.000278315461541389
0.00033006950503239
0.000372625100357125
0.000406598488982584
0.000433108341838308
2.69641669845182e-06
1.94958537811127e-07
2.14136863937735e-06
9.97676009386132e-06
3.02530867954961e-05
2.39118274257424e-05
4.24187500889218e-05
6.4506022452509e-05
8.94973833739524e-05
0.000116453119723236
0.000143868059113435
0.000168026334378201
0.00018044576774389
0.000186144822612269
0.000198455290057278
1.29130719518047e-06
2.01480565362736e-05
5.17114728744827e-05
7.93659671099321e-05
0.000102277369565081
0.000121620806254523
0.000136799567600308
0.000148153364220266
0.000157826238430866
0.000454366081337071
0.000656751060489214
0.000805140599911865
0.000917854826911521
0.00100155953338479
0.00105921794005697
0.00109239809737605
0.00110178891885353
0.00108709135213131
0.00104686317261008
0.000978353719564189
0.000876766583577544
0.000732799238288567
0.00052481960678273
0.000199062493011485
0.000608298390532427
0.00074925139352047
0.000698996521205287
0.000781453088403434
0.000842422118090249
0.000877204534108163
0.000511871898472435
0.000649085090018332
0.000773292231671781
0.000887306162341426
0.000925950784778503
0.000972033124310745
0.000993587344807474
0.000991144831811798
0.000853639864809862
0.000963847059823591
0.000872746810383204
0.000772072120594791
0.000662853544148751
0.000544746167554249
0.00041402375315014
0.000744468182883913
0.000649624509511467
0.000831388661749865
0.000547678547546841
0.000438485955678016
0.000318181603471853
0.000909022721775453
0.0004493785557657
0.000344904394783531
0.000243498002724263
0.000539853568130098
0.000620669234709004
0.000691745767023925
0.000752189178573849
0.000177729539783716
0.000568373592917743
0.000615865973063178
0.000510461562544991
0.000441878631362817
0.000360266888490365
0.000252482623679054
4.88125538132283e-05
4.37758737033486e-05
3.53325254552692e-05
0.000520396196048531
0.000428778732180342
0.000331453532116891
0.000606468090029949
0.000686239495198382
0.000758355480295451
0.000227817855349159
0.000121241572254797
2.0480858224189e-05
0.000821571972909986
0.000692464882399247
0.000645015211461539
0.000589174007070101
0.000525870494154736
0.00045680193497715
0.00038345518362636
0.000306597196671819
0.000226172225739449
0.000146203048957233
6.97978192372317e-05
8.78602982301656e-06
0.00105562458527639
0.00108874769062325
0.0010982370237814
0.000998111602871696
0.00108385937445966
0.00104422371090825
0.000976476465825335
0.000914517568653494
0.000801830214024018
0.000875551576295987
0.000653711119181799
0.000732055409872421
0.000287364675878323
0.000232769492824492
0.000340406580599175
0.000390428192348254
0.000434933276186079
0.000177414825783737
0.000122260280910116
0.000471799802237212
0.000500223502072878
7.04047392787291e-05
0.000524417530975751
2.01009163637997e-05
0.000140491355974083
0.000235545632106365
0.000301835421330279
0.00035348768126931
0.000395090757784975
0.000427583033168898
0.000452325110130854
2.06139573836861e-06
1.39178315720902e-07
7.88262065045689e-06
1.56588403629271e-06
2.48482864559773e-05
1.97273772009185e-05
3.63074974680597e-05
5.678563007552e-05
8.05684449278026e-05
0.000106737789501547
0.000134074636972211
0.000160541421234371
0.000176053129343882
0.00018764776680773
0.00019703525198321
0.000198367935208412
1.64145558678002e-06
2.39846253928677e-05
5.90321463947581e-05
8.84722810597156e-05
0.000112058476633481
0.000131437922947334
0.00014620130587086
0.000156868604408548
0.00016576390525931
0.000471718426878786
0.000683311430847042
0.00084136236437557
0.000964251666902606
0.00105854607873759
0.00112710014090774
0.00117148276086547
0.00119260059314024
0.00119063339070571
0.00116485547239047
0.00111354245543211
0.0010338135245846
0.000920808279368487
0.000765011868611248
0.000542766785751737
0.000208966984970828
0.000570275919445135
0.00066576380546691
0.000718753314168851
0.000852602835788496
0.000816732968381866
0.000754691744674634
0.000834597195418969
0.000907004549246963
0.000953341876539894
0.000975307308486803
0.000472756032393113
0.000616166177061167
0.000744883245283534
0.00086378933104151
0.000973616446538492
0.00104427071944603
0.000986931146925718
0.00107736338902035
0.00108707835160041
0.00107330956681735
0.000903577449116926
0.00103475985466215
0.00094760218461714
0.000850623096285173
0.000745399030378612
0.000632706114399823
0.000511808844071429
0.000377165526462048
0.000811222799734774
0.000719784009763807
0.000621696232077395
0.000894646851784823
0.000517614664028886
0.000407184837718862
0.000287489405756229
0.000968499638367231
0.000494732788809117
0.000388408964549906
0.000284419172376128
0.000216858500849392
0.000585104775701845
0.000664666525675491
0.000733655542913469
0.0007913947462795
0.000159443537919727
0.00059941997751439
0.00054308016788301
0.000644781656359347
0.000475232020703607
0.000393015524855199
0.000281787844647505
5.99257864450907e-05
5.68950025591427e-05
4.78940594321083e-05
3.0941469705375e-05
0.000581159228374099
0.000493052801213546
0.000400531344611517
0.000303714239140968
0.000664151637223455
0.000740797939263243
0.000809587678919332
0.00020570069005719
0.000106704643046709
1.65989127834359e-05
0.000869278458964088
0.000683581660324101
0.000727717567305392
0.000630770858357217
0.000570437862200397
0.000503986479252826
0.000433040869560642
0.000358873355440831
0.000282329805268169
0.000204944878179234
0.000130759154802611
5.93478621380989e-05
6.81090511266374e-06
0.00116761675447688
0.00112333171593576
0.00118874352020167
0.00118691990576164
0.00105494567210096
0.00116149599600269
0.00111081338803449
0.00103189029649662
0.00096077732619414
0.000837927062449668
0.000919587927403814
0.000680167434250383
0.000764327327196176
0.000321698767937915
0.000268226133863487
0.00021400299043029
0.000373155430981287
0.000420742276898265
0.000461741408094791
0.000160116851602846
0.000108100684063744
0.000495450744706765
0.000522289578499635
6.01818781324681e-05
0.000542422607369116
2.48149582203034e-05
0.000156878871860656
0.000256104160102345
0.000323534379023187
0.000374951538341532
0.00041556481388359
0.000446593765335231
0.000469613875728749
1.4977407998706e-06
9.40555858188351e-08
1.582503557015e-05
5.9413207824736e-06
1.07868275764838e-06
1.9481017182969e-05
3.03417889446366e-05
4.90178430695048e-05
7.13645134115272e-05
9.65577548480809e-05
0.000123414358643822
0.00015050003100453
0.000173679265620877
0.000184288329620099
0.000185884850399877
0.000194301100699775
0.000200001545967514
2.01328214599043e-06
2.7800597824723e-05
6.60584363400806e-05
9.70671578921579e-05
0.000121188417217841
0.00014051491769429
0.000154811133693544
0.000164767660821056
0.000172871608959221
0.000487200599680085
0.000707163233420234
0.000874135885312412
0.001006555275174
0.00111089179192016
0.00118986913394273
0.00124497800702826
0.00127719134180656
0.00128697046501749
0.00127409948428182
0.00123756545369208
0.0011754970951816
0.00108497697098322
0.000961121964165012
0.000793997896868143
0.000561239448767877
0.000204271125615197
0.000624915399257191
0.000683073631721221
0.000527808115924808
0.000719299025663032
0.00078400939391942
0.000821784915805099
0.000926937638208724
0.000949690965270267
0.000879692418973015
0.000806327528528826
0.000883614073148959
0.000966963150812133
0.00102442086658797
0.0010577081519468
0.00106783706874969
0.000432129704045932
0.000579963608744113
0.000711782726602013
0.000834367899940482
0.000948967203289867
0.0010548998684443
0.00115553952110075
0.00111139314754622
0.00104325278499363
0.00117670645887237
0.00117518638664549
0.00115045607709924
0.000949383302117959
0.00110095690699674
0.00101776579909896
0.000924412980319718
0.000822718094170205
0.000714096768267874
0.00059905041235853
0.000476549001391826
0.000341948253404989
0.000873578727589359
0.000785379240156145
0.000690512711227799
0.000590137562007719
0.000953533632950685
0.000484831444707388
0.000374300210478615
0.000259827599043164
0.00102363065020366
0.000536961159971026
0.00042922136539662
0.000323187076845395
0.000254060956109201
0.000194919213147477
0.000627003959866332
0.000705191477049551
0.000772048499003537
0.000827099563340338
0.000140518506236123
0.000627675596356926
0.000572937698068657
0.000505936898118742
0.000670933155396685
0.000423360498163056
0.000309205572784972
7.15655435964411e-05
6.99658379961007e-05
6.17333628929088e-05
4.22284546942126e-05
2.52028817844616e-05
0.000637621657865771
0.000552313601039112
0.000462965866692424
0.000370410053251927
0.000276250465929634
0.000717745391220981
0.00079132527142964
0.00085689311529193
0.000183916751452717
9.15429975677105e-05
1.29134221997085e-05
0.000913134088225203
0.000718601305283623
0.000668842887069231
0.000759949721231673
0.00061134796045678
0.000547587028349243
0.000478930448724235
0.000406821077909059
0.000332522433361358
0.000257368039602543
0.000183714135030025
0.000114189810510538
4.86476289521168e-05
5.04193382990404e-06
0.0012409311536969
0.00127311371460646
0.00118594027071623
0.00128294173699752
0.00127023744307205
0.00110714817274582
0.00123408184822704
0.00117267913836133
0.00108300807509255
0.00100295295669324
0.000870585481458118
0.000959894733064977
0.000703923996321174
0.000793297705887844
0.000301177096651946
0.000353452391869697
0.000247700828859137
0.000194362017265435
0.000403016968922512
0.000447482840845579
0.00048531512060158
0.000142499290316746
9.36562404029711e-05
0.000515782124656168
0.000540705486761077
4.96861734003285e-05
0.000560084296589033
2.96109571226262e-05
0.000172214657345444
0.000275088989908435
0.000343428905644288
0.000394513125023643
0.000434110534860614
0.000463694439127841
0.000485038189440996
1.02845845494746e-06
5.90053044197245e-08
2.4576733695334e-05
1.21701913270353e-05
4.20550134926435e-06
6.7807190059285e-07
1.44198254514654e-05
4.12665643129729e-05
6.19428770776542e-05
8.59177860337865e-05
0.000112090272650197
0.000139149111263924
0.000165029162739937
0.000179230989864746
0.000181864989131285
0.000191734988870269
0.000199547776931364
0.000204490961838703
2.40355392683018e-06
3.1513661380499e-05
7.27162519773203e-05
0.000105100819274175
0.000129634318423319
0.000148827396009542
0.000162614113677781
0.000171835467957116
0.000179148002581272
0.000500881873105356
0.000728406519351092
0.000903570574193595
0.00104486504096461
0.00115867683843177
0.00124759975193307
0.00131300963732163
0.00135584642391337
0.00137668894472245
0.00137563931042377
0.00135220516175247
0.00130521668263193
0.00123275629722852
0.00113192436812953
0.000997796088633519
0.000820710811371046
0.000575963528431679
0.00020892983420724
0.00067581450097192
0.000745743760043303
0.000579317356574403
0.000785933795548496
0.000643815593982477
0.000483678749311599
0.000844907039950609
0.000768933398398306
0.00089390681436248
0.000917775453312829
0.000996387687077699
0.00103023644230254
0.00104098782743816
0.000938162732746948
0.000853956842952747
0.000928576694334665
0.00102235128056506
0.00109050337225605
0.00113469166554133
0.00115603394916635
0.0011549808414806
0.000392753347895054
0.000541072189964694
0.000674817890207292
0.000799972964968847
0.000918155951342399
0.00102904450323791
0.00113118644151951
0.00122824942336844
0.00126035947165753
0.00117347135867158
0.00109498534279188
0.00127029431998945
0.00125796039625005
0.00122257553182597
0.000991144657080922
0.00116245020621551
0.00108324051788077
0.0009935058532528
0.000895151045327042
0.000789857858212479
0.00067875364372212
0.000562195635192639
0.00043910702672063
0.000309635873735
0.000846551501235185
0.000931577763299842
0.000754648974831309
0.000657206010913257
0.000555289717346635
0.0010081038752403
0.000449553922800471
0.000341134052045499
0.000232469467125014
0.00107448086773099
0.000467244903590444
0.000576060227248594
0.000359727837885427
0.000289481700972501
0.000228689351534825
0.000172140606139588
0.000665595999926772
0.000742316298409184
0.000807013452999296
0.000859403592656191
0.000121031748427102
0.00065323054601195
0.000600112519816791
0.000534045346343384
0.000451301073818219
0.00069441632053054
0.00033463780767943
8.28339991377332e-05
8.3700803507805e-05
7.61459989300228e-05
5.4476784686758e-05
3.45605987473968e-05
1.96679619926482e-05
0.000607230689412869
0.000689988052572185
0.000520309393081751
0.000430445674835703
0.000339025869227618
0.000248521767839694
0.000767315147527289
0.000837942671231419
0.000900347928436241
0.000161401671733268
7.61706713966481e-05
9.6461667049067e-06
0.000953275954680129
0.000750345213711607
0.000703410522877647
0.000648665390148249
0.000788968857187016
0.000587615550058735
0.000521287324384025
0.000451077834674521
0.000378392910257399
0.000304678661624096
0.000231692196540905
0.000161755747837401
9.69519206414077e-05
3.80206389051857e-05
3.52765328149561e-06
0.00130879671847402
0.00135158446374398
0.00137243485373139
0.00124351984803219
0.00137145138582284
0.00134819819421609
0.00115479932109813
0.00130161082817041
0.00122985080136981
0.00112990739044904
0.00104114498425954
0.000899915778719728
0.000996548886549244
0.00072508134242567
0.000819891207150259
0.000278943201485218
0.000331647784070611
0.000382530151065988
0.000225870867444707
0.000173871176754061
0.000429751347766904
0.000470965887458504
0.000505302603541707
0.000124376995197582
7.88299034359912e-05
0.000534963519374607
0.00055833375181956
3.91290106877748e-05
0.000575886271349011
3.43868903152289e-05
0.000186422024821242
0.000292507585666064
0.000361564967787187
0.000412233742626544
0.000450792802528209
0.000478950691026364
0.000498665517317835
6.47294720369903e-07
3.03762000645301e-08
3.36652796811123e-05
1.91076631628166e-05
8.8165469537697e-06
2.69519655296851e-06
3.61182852371404e-07
9.77062471349995e-06
5.24267671285148e-05
7.49008174132504e-05
0.000100117909257985
0.000126851926677792
0.000153592679552944
0.000176114724275508
0.000184879965525795
0.000187652392332832
0.000197913755822396
0.000205111215862643
0.00020952631372919
2.80035732137298e-06
3.50772921629471e-05
7.89609241219992e-05
0.000112541431169095
0.000137373103489673
0.000156360830470063
0.000169592688536592
0.000178081514958583
0.000184602069928964
0.000512828796278099