/*--------------------------------*- C++ -*----------------------------------*\
  =========                 |
  \\      /  F ield         | OpenFOAM: The Open Source CFD Toolbox
   \\    /   O peration     | Website:  https://openfoam.org
    \\  /    A nd           | Version:  12
     \\/     M anipulation  |
\*---------------------------------------------------------------------------*/
/*   Windows 32 and 64 bit porting by blueCAPE: http://www.bluecape.com.pt   *\
|  Based on Windows porting (2.0.x v4) by Symscape: http://www.symscape.com   |
\*---------------------------------------------------------------------------*/
FoamFile
{
    format      ascii;
    class       volScalarField;
    location    "200";
    object      nut;
}
// * * * * * * * * * * * * * * * * * * * * * * * * * * * * * * * * * * * * * //

dimensions      [0 2 -1 0 0 0 0];

internalField   nonuniform List<scalar> 
10228
(
8.83112979258057e-08
9.08117757207239e-08
1.01793607658112e-06
1.29202049198069e-06
1.35816498073157e-06
9.71188866143197e-08
1.04014790426696e-06
3.57928373565742e-06
4.34420399584144e-05
4.99265984449929e-06
4.35818624588679e-05
1.41689148993457e-06
5.10757543862332e-06
8.95055814901378e-08
1.05885944194694e-06
3.46237169271726e-06
6.45956021652342e-06
0.000109770250696019
0.000121478704257607
9.62139277403615e-06
0.000122944477262712
0.000109137715810938
4.40044564587402e-05
1.41009955379038e-06
5.33871198856358e-06
1.03610585835122e-05
8.97297232494173e-08
1.04077879568008e-06
3.45647142863828e-06
6.48445732298169e-06
1.04266732574027e-05
0.000159442443093776
0.000310007327142685
0.000187081678348126
1.6123235223559e-05
0.000311310851913841
0.000124729717403488
0.000191097978148241
0.000109217377962804
0.000159235458056874
4.35533673759635e-05
1.33061637852975e-06
5.39338012393374e-06
1.10321196384611e-05
1.68336323305995e-05
7.09496842415597e-08
9.78034075425147e-07
3.40620270453829e-06
6.50622423027488e-06
1.00227333813132e-05
1.39566006189603e-05
0.00020249639247714
0.000456875564487569
0.000488007132268377
0.000245447876061631
2.24045755060713e-05
0.000311906280516627
0.000457516743897315
0.00049153509433147
0.000195042386843073
0.00012419009067237
0.000250224311247832
0.00010808748144169
0.000159167007442868
0.000200991861748491
4.13743819105723e-05
1.12033282116077e-06
5.04265597708261e-06
1.12144795467014e-05
1.78194933379782e-05
2.38294363167971e-05
5.52019522085933e-08
8.21877980076795e-07
3.18285934481517e-06
6.3730401586378e-06
9.87167277367821e-06
1.36770433910393e-05
1.83455854656377e-05
0.000238119405861134
0.000569760692473769
0.00075378943045235
0.000633778170445285
0.000295736933084547
3.01305809251881e-05
0.000456323045017723
0.0004934237007828
0.000308468012297304
0.000755385354020171
0.000569402647074785
0.000638728932361917
0.000255651402059491
0.000195080270240223
0.000118910425631166
0.000302085599103001
0.000103796121677508
0.000157264865360856
0.000200063157569622
0.000236884581292389
3.66647227116286e-05
9.43284204406964e-07
4.30450643280258e-06
1.05656784193938e-05
1.81603699231988e-05
2.53455767363711e-05
3.16323303890475e-05
1.53935020648987e-08
5.49115689514655e-07
2.73336658879857e-06
5.93650567817168e-06
9.58968692952614e-06
1.34916949046947e-05
1.77326806421303e-05
2.2460271161551e-05
0.00027152533500571
0.000660531414486343
0.000963272769238723
0.00100783261014169
0.000754753847212074
0.000342630738958527
3.76776270449362e-05
0.000566403017901376
0.000449655837639817
0.000752995990980908
0.000642100812582291
0.000488598722568602
0.000297074577357951
0.000963123862244529
0.00101010114199467
0.000659753773982051
0.000760977257806697
0.000309067285097511
0.000256511427607771
0.000187936632984728
0.000107210063587919
0.000349446089276395
9.49671811044156e-05
0.000151168194868072
0.000197055378654305
0.000235544029244746
0.000269631417556355
2.83273827401312e-05
2.98730961349321e-07
3.89023388280953e-06
9.19893136965424e-06
1.7298585201663e-05
2.58976183999632e-05
3.35276080923681e-05
3.97410605362324e-05
1.38982434564121e-09
1.57775984357729e-07
1.8421833923436e-06
5.09372571908997e-06
8.86950728133919e-06
1.30323862696043e-05
1.73890468818916e-05
2.18737166292535e-05
2.68161877615066e-05
0.000301093595040732
0.000737700735083076
0.001129612857272
0.00131908567162644
0.00121898334314599
0.000858700326302169
0.000384884631000202
4.56334728795967e-05
0.000956947056788782
0.000655475373345564
0.000556712890275235
0.000741363698544193
0.000432725854254625
0.0010074434882766
0.000765999522605024
0.000637492033793477
0.00047143443246423
0.000272998601513948
0.00131850425748797
0.00112823702507219
0.00122188622235793
0.000736541541852094
0.000865865157156769
0.000311007137743811
0.000357578656506596
0.00024906538350261
0.00017161866894511
8.69371006832931e-05
0.000392778702773407
7.76286540241496e-05
0.000138741354893452
0.000188992942407679
0.000231516782794259
0.000267789040197989
0.000299413768460814
9.9482151258309e-06
2.78042118698037e-08
1.0327323482529e-06
8.56117849468152e-06
1.55543455486715e-05
2.49097325664978e-05
3.43438991029303e-05
4.22064225096047e-05
4.80806459340407e-05
1.11980819536536e-08
6.24448920402505e-07
3.51635698837097e-06
7.54564744766636e-06
1.19898062244843e-05
1.67546754235468e-05
2.14965412248276e-05
2.61108372325394e-05
3.09942499852744e-05
0.000328367468560824
0.000804458989728493
0.00126601643505081
0.00157074458794521
0.00162286508434455
0.00139628226028815
0.000949393152282713
0.000423819048823689
5.33565469220577e-05
0.00130987335039216
0.00111916329723992
0.000939087206303713
0.000731312562831148
0.000643267503915033
0.000534717354769507
0.000993550688749533
0.000713705305411219
0.000398571154380675
0.00121982827266507
0.000872432823735515
0.000762819062107394
0.00061867901245247
0.000435018686257732
0.000222595687599906
0.00162187635475894
0.00156787432843771
0.00126387054702669
0.00139990750130204
0.000803332859867719
0.000957612176169403
0.000304306012347953
0.000360616807921077
0.000402214435108779
0.00023230712444898
0.000144328430474768
0.000432562508123555
3.59780731935574e-05
0.000113170522180797
0.000173028756721095
0.000221645761018143
0.000262953887338171
0.000297491259222727
0.000326691208991818
2.84709382913343e-07
6.16082893105494e-08
3.27709066302999e-06
1.45212921786038e-05
2.28421551488249e-05
3.32518924758695e-05
4.33575274693659e-05
5.10940230200784e-05
5.62846177842827e-05
4.61462144971437e-08
1.26095772539817e-06
5.21917227812424e-06
1.01704589770368e-05
1.53827015632328e-05
2.07094450224165e-05
2.56807866080399e-05
3.02590252944201e-05
3.50435452347687e-05
0.000352960710920081
0.000863306675893327
0.00138082231802469
0.00177620348528256
0.00195804056359565
0.00187943769325848
0.00154750981233343
0.00102951534652849
0.000459045383650762
6.07958031197879e-05
0.00155434839547372
0.00128668564562397
0.00161209071204721
0.00109619414837742
0.00125271876943233
0.000901827637332239
0.000797636564380446
0.000717155289309531
0.000616911445951912
0.000491765383816999
0.001206290937269
0.000961249683777998
0.000660332377309737
0.000327550377013904
0.00139896826047599
0.000965761725408055
0.000871073012413247
0.00074577295352502
0.00058000759255121
0.000363395625015977
0.000114143283577155
0.00195369730087894
0.00187845331672871
0.0017718076662926
0.00137832745504403
0.00155201738840777
0.000862258840460209
0.00103870993481551
0.000354780291086093
0.000289473660987017
0.0004063828684698
0.000443238714511986
0.000206856905102274
0.000468658121301737
1.29143653537137e-06
5.68196755951023e-05
0.000141409006089868
0.000202772009138282
0.000251576763861548
0.000292114780820377
0.000324754442397334
0.000351424474872505
7.46044971070791e-07
7.74282103792031e-08
1.91921993670283e-06
1.22414823112145e-05
2.01994342910546e-05
3.07818089803992e-05
4.22001193245579e-05
5.26256204244778e-05
5.98667690585515e-05
6.41386272177653e-05
7.89952869216714e-08
1.96620619597607e-06
7.07483445537753e-06
1.30491220784641e-05
1.90125265227215e-05
2.4761602888192e-05
2.98101767544158e-05
3.42596787857979e-05
3.8879845493946e-05
0.000375195846197145
0.000915403931286618
0.00147941793601842
0.0019471078767432
0.00223444564246692
0.00229021294140913
0.00209741252192641
0.00167816504246377
0.00110034038199851
0.000490665830954493
6.77143677297936e-05
0.00175466135139515
0.00193721167331381
0.00152319760001625
0.00158721473795034
0.00124112705897521
0.00186865584107982
0.0010506872356139
0.00122578323725556
0.00136580660293797
0.000833200838499302
0.000856290303351946
0.00078206372211437
0.0006872327996489
0.000566551693508841
0.000403741600383214
0.00117509283376318
0.00138709682436384
0.000902912270562509
0.000563689406167082
0.000167504373698893
0.00155246454262285
0.00104832544923221
0.00096619330840523
0.00085655429045845
0.000713014009065802
0.000512273626074468
0.000266789447661387
4.00257340208881e-06
0.00222777557174795
0.00228505340878439
0.00209685950193539
0.00194182136765196
0.00147676055444189
0.00168357099179889
0.000914463449029778
0.00111039752313377
0.000401241545005494
0.000341324128665257
0.000269198153200196
0.000448471731244482
0.000480479038413296
0.00018000801352982
0.000500947220532743
2.18470058814965e-06
7.43639678975865e-05
0.000166331080090467
0.000230218136735197
0.000279491688987488
0.000318992411366886
0.0003495412590689
0.000373739541553305
5.13216162521943e-07
1.37723905602749e-07
1.92092996851382e-06
9.65637666326581e-06
1.73451583016154e-05
2.77797021933043e-05
3.93809295673248e-05
5.14550551203892e-05
6.17783669372703e-05
6.82152291668349e-05
7.13699234168947e-05
1.28485816263493e-07
2.73697604440512e-06
9.13824336665772e-06
1.61485379943162e-05
2.27516751509776e-05
2.87739626448022e-05
3.37895887709158e-05
3.80565631278657e-05
4.25045880112939e-05
0.000395195608366251
0.000961671117424912
0.00156516519339775
0.00209188501587361
0.00246449797443853
0.00263386344477104
0.00257425333248686
0.00228429102709048
0.00179176658341754
0.00116261839664743
0.000518474124904429
7.38670602496847e-05
0.00171720731700157
0.00220621555467496
0.0019221479783122
0.0022672499902899
0.00190215677527079
0.0014657924639768
0.00184439733574471
0.00154094275745672
0.00116381253469997
0.00208778974451949
0.000968587768358217
0.00117352986953713
0.00133587156885482
0.0014632844521933
0.000708216453122549
0.000908315289227609
0.000839632436549579
0.00074924262186327
0.000630781799750147
0.000465310219840042
0.000211620037985042
0.00112255849724451
0.00135914804534587
0.0015425560872764
0.000811740408070376
0.000387294011520631
5.62370097384923e-06
0.00168539808748814
0.00112126968620215
0.00105032189608732
0.000953693522084043
0.000829003003839591
0.00066691672646551
0.000437565777959808
0.000117499027385624
2.90791947230513e-06
0.00245639737516738
0.00262575066797274
0.00256898528269631
0.0022843685086231
0.00208606015117865
0.00156240909162258
0.00179796339818446
0.000960799034531543
0.00117329852293742
0.000388324584138682
0.000443898926626206
0.000323603418565403
0.000247173986455296
0.00048664660502643
0.000513597769831863
0.000152887150752065
0.000529061204743346
3.47274829980877e-06
9.01048870616124e-05
0.000189545602131113
0.00025592642498345
0.000305313387255837
0.000343477502366806
0.000371902152407688
0.000393796663870778
1.2739466070915e-06
1.11243795090771e-07
1.46484689026769e-06
7.23106125072146e-06
4.52074085879539e-05
1.48106441229919e-05
2.47354530804226e-05
3.59814279641792e-05
4.83133521381953e-05
6.06203406521949e-05
7.04335504986508e-05
7.57259208813437e-05
7.74879142276652e-05
1.7647846747941e-07
3.64750775839587e-06
1.13792521240399e-05
1.93579794687702e-05
2.64676174579217e-05
3.26462740815787e-05
3.75670826341875e-05
4.16306884352012e-05
4.5894434078102e-05
0.000413182522001309
0.00100277753057539
0.00164031554625268
0.0022162852122706
0.00265858932550922
0.00292181633748695
0.00297887257505982
0.00281815270856414
0.00244560009860842
0.00189053025028891
0.00121654302546149
0.000542066973248383
7.87185655894649e-05
0.00187986461511632
0.00164993193670157
0.00216294190876219
0.00243124555865457
0.00260179511466346
0.00206457063650926
0.00255108863393802
0.00223144808161609
0.00184187476210195
0.00137081611079618
0.00206506139473092
0.00180097375412484
0.00146835017388468
0.00104249897025254
0.00227630729446193
0.000820829247440114
0.00108040700712939
0.00127818881591026
0.00143100988468867
0.00154819460295976
0.000481838319448275
0.000954485542794884
0.000890768921081105
0.000804398398314167
0.00068766640888249
0.000518919167440861
0.000248333466452742
8.69080152430824e-06
0.00104884660540432
0.00131396183145832
0.00151762476222508
0.00167726431202106
0.000686617737771731
0.000177143334762689
4.26477515136653e-06
0.0018009810572597
0.00118501128457046
0.00112452273530401
0.00103926653785428
0.000928922584552573
0.000791943645518312
0.000614590876124099
0.000355282481275782
0.000111817867752663
4.20637974934516e-06
0.00291187348338493
0.00264957979397975
0.0029702486727698
0.00281317539027525
0.00244629685927906
0.0022100775562916
0.00163746392946687
0.00189731593359648
0.00100193853171214
0.00122742723035413
0.000371304020427588
0.000431121723183746
0.000482541516281205
0.00030418148141361
0.000225507267371393
0.000520359359732823
0.000541831002299559
0.000132671826857163
0.000552042724982111
4.84337369243844e-06
0.000105221571896635
0.000211364034797884
0.000279777962689758
0.000328883692358345
0.00036558042980445
0.000391983197547464
0.000411796956346836
1.12993300765626e-06
8.79323170236156e-08
1.18049507345939e-06
5.3663532885549e-06
4.28449208667922e-05
1.26879893841809e-05
2.18359015803559e-05
3.25315769051481e-05
4.44585991484171e-05
5.71956784598835e-05
6.92942223789318e-05
7.78677600161674e-05
8.13605081752387e-05
8.1297202582529e-05
2.45350001235063e-07
4.64420195533045e-06
1.37174986824694e-05
2.25616932728164e-05
3.00628622578426e-05
3.63241955959722e-05
4.11159759108191e-05
4.49663109241024e-05
4.90355928805024e-05
0.000429316990890589
0.00103929900962336
0.00170643990809929
0.00232422253214086
0.00282440689084403
0.00316519426194546
0.00332092368684497
0.00327686988270968
0.00302861860634572
0.00258521765441664
0.00197578813490562
0.00126195119079438
0.000560606385856814
8.16155281486065e-05
0.00180462120439869
0.00201852163271962
0.00238162662137483
0.00154013668629476
0.00209073394759404
0.00255653403804463
0.00262183155057053
0.0028835556450185
0.00294551994374508
0.00218717914452997
0.00279579244743086
0.00251609617597633
0.00217312537551792
0.0017502885228844
0.00122311200646997
0.00202494345592098
0.0022551989275378
0.00173642152350996
0.00136694009811462
0.000872585263469996
0.00243919955226041
0.000914767341932488
0.000557909140927433
0.0011760749303343
0.00136888496672229
0.00151400443597811
0.0016226183831029
0.000226088258889014
0.000995454909491233
0.000936168406333811
0.000853473841573745
0.000738442350601888
0.000566778925987698
0.000282258962018356
1.15617290611598e-05
6.59653749260016e-06
0.00125371823382066
0.000958409685669804
0.00147740753820848
0.00165457235003112
0.00179426524672986
0.000542253039917354
0.000168409853019416
7.19635602527021e-06
0.00190118411802892
0.00123923838107614
0.00118905759112037
0.00111451019809709
0.00101591335519337
0.000895614933914747
0.000749344631622684
0.00055984026927976
0.000321561297516129
0.00010792853148426
3.61712457064098e-06
0.00315408005183822
0.00331024109187421
0.00281473443955484
0.0032682915994311
0.00302403123388066
0.0025864058845072
0.0023176949020838
0.00170348558851148
0.00198287340984966
0.00103846081296822
0.00127225187352598
0.00035250210366041
0.000414003380392603
0.000469808386093074
0.000516654622324729
0.000284279936005517
0.00020654042812936
0.000548456466708707
0.00056291535292009
0.000121293272249303
0.000568001859054588
6.53852497897698e-06
0.000119562363382131
0.000231671118892207
0.000301593736498738
0.000350182978534389
0.000385425499539033
0.000409977378429586
0.000427918951374659
9.25978763818365e-07
6.73023053026197e-08
9.11416951187716e-07
4.38139426354152e-06
3.78823056426141e-05
1.07135158236035e-05
1.90921146716392e-05
2.91056913179534e-05
4.04898186415805e-05
5.29073568284095e-05
6.56777163821625e-05
7.67614117882438e-05
8.14031846483488e-05
6.9213346563319e-05
8.3325495659237e-05
3.18745986314307e-07
5.7167475760737e-06
1.606551393972e-05
2.5671398113321e-05
3.3483034957031e-05
3.97790925521984e-05
4.44226464500755e-05
4.80522338830166e-05
5.19157112757947e-05
0.000443737421403069
0.00107170720759439
0.00176471617119845
0.00241842263833482
0.00296741259060182
0.0033729018158413
0.00361138524016226
0.00366813640809105
0.00353491202225743
0.00321079705677241
0.00270589771505128
0.0020484483154191
0.00129864011416486
0.000573503649872281
6.87762088782212e-05
0.00168272090269706
0.00229968241841764
0.0019368046430334
0.00213807592418306
0.00256726240115837
0.00283095635310835
0.00137114543701243
0.00198272019776829
0.00248529141930777
0.00290037860433816
0.0027849739141058
0.00312261149193572
0.00328068845717226
0.00324366943547317
0.00229362407900926
0.0030072906001917
0.00276205394832973
0.00246090214576324
0.00208984110559648
0.00162355979954264
0.00101859398873757
0.00221773434694512
0.00196679819068155
0.00241944657364131
0.00165161381914636
0.00124016679608603
0.000682685604422914
0.00258005136225176
0.000995984478278492
0.000623956038964437
0.000266391181019672
0.00125931779357189
0.00144815190643814
0.00158679449462795
0.00168807555934361
0.000213424004317092
0.000976448457445633
0.00103179960258152
0.000897080433367908
0.000783721261006175
0.000609811486003295
0.000313089077333576
1.51303664676946e-05
8.75130503313483e-06
1.08163162194056e-05
0.00142453879941665
0.00118243792573577
0.000862207042700977
0.00161730027586564
0.00177314823929731
0.0018954429431811
0.000485634250025254
0.000159438001837808
6.80079914762798e-06
0.00198710795767688
0.00128297626665371
0.00124342266207511
0.00117984942627734
0.00109198116890395
0.000984072434009855
0.000856981559599861
0.000704306746114285
0.000517102685109719
0.000305660230062832
9.84079344654531e-05
2.97997568777414e-06
0.0033609244217099
0.00359940286132555
0.00365738731852556
0.00295719227362741
0.00352655933450379
0.00320653787509733
0.00270740102027202
0.00241160798842656
0.00176165486623389
0.00205545440801403
0.00107084957283976
0.00130760807072061
0.000394870685676501
0.000332609528820075
0.000452405348604032
0.000504120867672806
0.000545101896876935
0.000264566726171038
0.000189621452776416
0.000568826706383091
0.00056464428707825
0.000109667922177657
0.000580857930420027
8.35675500278203e-06
0.00013310171565518
0.000250289456152921
0.00032133289153562
0.000369313381152709
0.000403197183912273
0.000426071897705017
0.000442312585022614
7.08156060945004e-07
4.77000593150729e-08
3.46948403162388e-06
6.66698266619368e-07
3.17652950779981e-05
8.8572068190649e-06
1.6403843590633e-05
2.56682435408306e-05
3.64611406388935e-05
4.84244268446614e-05
6.10361237465858e-05
7.33682697696607e-05
8.04660162166183e-05
8.46665597383089e-05
8.61533002546614e-05
6.99003707655327e-05
4.05955847484372e-07
6.81323691040382e-06
1.83596021721495e-05
2.86369845183183e-05
3.66987339667824e-05
4.29969423679052e-05
4.74779840072836e-05
5.08791177994187e-05
5.45264987659266e-05
0.000456558023748491
0.00110039225967913
0.00181606541814112
0.00250087207237566
0.00309150110965202
0.0035515792680024
0.00385972505170009
0.0040023082364139
0.00397030645641352
0.00375884343617823
0.00336863080755681
0.00280981705644007
0.00210958742757705
0.00132768966171781
0.000564303346628146
8.4710347255399e-05
0.00149656621103715
0.00180495311820383
0.00217800027367075
0.00274903373186231
0.00247738513638561
0.00205098897501341
0.00224195501730984
0.00272640477872694
0.00306427623863144
0.00322765540850995
0.00113990282408805
0.00183465430448607
0.00238535813607973
0.00283189806833606
0.00319941258381732
0.00332701080588777
0.00292576946282616
0.00356638480229068
0.00362768928086645
0.00350231166611532
0.00238652421346224
0.0031903168767125
0.00297468664953099
0.0027095870054455
0.00238479419326663
0.00198189407124365
0.00146608260277332
0.000794429032848363
0.00238385844483072
0.0021637354073161
0.00189238285451349
0.00256126811645492
0.00155084145701207
0.00110638276315401
0.00060834299299215
0.00270149023638894
0.00106726869453131
0.000682550434794675
0.000303968005402477
0.000251547675262651
0.00133227848397541
0.00151774903991514
0.00165082658911125
0.00174573514151731
0.000200915468166307
0.00101216999992753
0.00093578338109162
0.00106401137297284
0.000824008377094759
0.000648321678374239
0.000341516596081745
1.86185718139579e-05
1.14773530171734e-05
1.4633682639652e-05
1.0206766144228e-05
0.00156812173652599
0.00136228874405221
0.00110652954926056
0.000792464745580176
0.00173762287086639
0.00187543743193132
0.00198185192686425
0.000451766205510441
0.000145021031810122
5.57209801921156e-06
0.00205953943995928
0.00128677511316519
0.00131490424481184
0.00123487816091401
0.00115805190089634
0.00106070228718194
0.000946692831514334
0.000814991041508628
0.000661029319799573
0.000482137824858899
0.000283885698023739
8.6133735717679e-05
2.30710520468615e-06
0.0038467849158484
0.00353888237822666
0.00399022223155739
0.0039597225542524
0.00308080087606492
0.00375069147474469
0.00336458427043014
0.00281145627491467
0.00249379729300992
0.0018128998548081
0.00211634588402724
0.00109950627807924
0.00133668209325436
0.000432706972857877
0.000374242747201513
0.000311666925661797
0.000486580133116497
0.000533549570828543
0.000566095543284418
0.000244557531162575
0.000172346882844296
0.0005829580704944
0.000589226745155701
9.63363239800584e-05
0.000572071284853859
1.03499081508868e-05
0.000145598151292062
0.000267160049611661
0.000339074169272273
0.000386445272208123
0.000419082150533479
0.000440426914060453
0.000455102022013776
5.12262679758166e-07
3.20670678767127e-08
7.11636079660596e-06
2.61865060681423e-06
4.59730097635436e-07
2.53927482308286e-05
1.37351000026501e-05
2.21920859654529e-05
3.23207710640185e-05
4.38038314970978e-05
5.61028584530258e-05
6.85932802204946e-05
7.94144823933688e-05
8.42471179206874e-05
7.12006170639977e-05
7.15833185119202e-05
7.1137153575823e-05
4.98041991465382e-07
7.90373384702519e-06
2.05578579147449e-05
3.14303304860393e-05
3.96954375518694e-05
4.59692575022744e-05
5.0274804721704e-05
5.34413972670183e-05
5.68645491669732e-05
0.000467879633964741
0.0011256833637324
0.00186123457589121
0.00257308825877933
0.0031995340480486
0.00370611786035209
0.00407334197937885
0.00428895301796082
0.00434433511112088
0.00423350037881496
0.00395338048058424
0.00350532592000338
0.00289908234111123
0.00216120294936882
0.00134610397890831
0.00058965447652182
7.06406477770934e-05
0.00160473199446947
0.00201231620816187
0.00124400762841117
0.00191082070756305
0.00234438787662769
0.00263493266785353
0.00297358403434082
0.00314806779774733
0.0026299634862997
0.00215032559746072
0.00233265345437745
0.00286386069472834
0.00326403408259857
0.00350717182885443
0.00357524829873437
0.00088946679995312
0.00165224639652217
0.002257053585804
0.00273940859951784
0.00313354972308926
0.00345895422494294
0.00381107522519872
0.00350294395037001
0.00304795564214928
0.00395690799872679
0.00393024660658802
0.00372675576261321
0.00246782843968628
0.00334867297128842
0.00315851317217322
0.0029241607670164
0.00263833957352103
0.00228920774415871
0.0018543729057793
0.00130181364692171
0.00070635652540873
0.00252691893049061
0.00233234381894033
0.00209501707196928
0.00180507307862342
0.00268328156168611
0.00144418689078376
0.00101148197883595
0.000562867996700262
0.00280571703588095
0.00113007647394129
0.000735011652666026
0.000338216222953779
0.000286634945109903
0.00023679275760688
0.0013964552893515
0.00157901122699424
0.00170723335972515
0.00179652408568308
0.000182600498344695
0.00104382036523804
0.000970111011891491
0.000859793350550284
0.0010925002970609
0.000682661330481284
0.000367117408278849
2.23586136622101e-05
1.41579453249876e-05
1.89344364305747e-05
1.39077501510219e-05
8.40305765979817e-06
0.00169023294106214
0.001509730960085
0.00129420023452165
0.00103601967035317
0.000737115176647902
0.00184108522647958
0.00196266014809533
0.00205436132400959
0.00041833706297673
0.00012801127860651
4.32415888878828e-06
0.00211996523015727
0.00132096246540767
0.00127899218453057
0.00134600113004668
0.00121433298198798
0.00112717700466122
0.00102347844565612
0.000905123278742213
0.000770988997355183
0.000618782801504538
0.000447328520682027
0.000257738351970745
7.28573524300102e-05
1.70222200184907e-06
0.00405959324605907
0.00427588998819027
0.0036927881720247
0.00433241410497748
0.00422307049102434
0.00318840915681504
0.00394533676315699
0.00350138245025972
0.00290078755523226
0.00256578116038771
0.00185797218281245
0.00216808054804252
0.00112476648093264
0.00135592373767467
0.000411174906660211
0.00046640229653341
0.000351948573897951
0.000289376140785954
0.000516441224754588
0.000556996232610935
0.000581937214055447
0.000223397154138618
0.000153655710867881
0.000579843593217579
0.000582799554419478
8.1822113821508e-05
0.000582795116878163
1.2373608108187e-05
0.000156985923192988
0.000282338807051071
0.000354967986267396
0.000401756664818338
0.000433243149987169
0.00045317482007423
0.000466393875105973
3.50769162983488e-07
2.01810259142513e-08
1.1135468769669e-05
5.48140400711947e-06
1.85669961477604e-06
2.89053531894173e-07
1.9188340549199e-05
1.86975056339317e-05
2.80688478997313e-05
3.89886628991418e-05
5.09473005289115e-05
6.3331715301611e-05
7.52588872675534e-05
8.19720518256861e-05
7.07999159851822e-05
7.21855772803134e-05
7.24780859391932e-05
7.18827539369995e-05
5.94749388662728e-07
8.96322584588025e-06
2.26370730891251e-05
3.40372211573757e-05
4.24648495621448e-05
4.8689833931273e-05
5.28096496267763e-05
5.57330890113291e-05
5.89291420538864e-05
0.000477800235989575
0.00114786252694103
0.00190084245047336
0.00263627965535675
0.00329370177824051
0.00384019159977014
0.00425787380757205
0.00453587499439515
0.00466639111349164
0.00464344834795607
0.00446283149692065
0.00412243881629906
0.00362373270298531
0.00297604886458081
0.00220465361504671
0.00137168329189824
0.00058146200004259
7.13880181721592e-05
0.00169883038542142
0.00216412253526007
0.00133473976754263
0.00248927393724923
0.00180958451425002
0.000972363975608654
0.00248751853455372
0.0020030990238858
0.00284758844810537
0.00304133877079473
0.0031660572098387
0.00341838031009206
0.00349808252413988
0.00276189683687066
0.00223713085315574
0.00241205208773806
0.00298320158362516
0.00343608849926701
0.00374684248261965
0.00389805127790241
0.00387852150411405
0.000789985048945575
0.00146357530995922
0.00210651604300822
0.002624481397263
0.00304622113513424
0.00339495805054163
0.00368399600558892
0.00402164041472162
0.00423976917460227
0.0036551139868322
0.00315433284320488
0.00429924611468798
0.00419378421696424
0.00392153474525964
0.00253904067071924
0.00348558574430185
0.00331730467705367
0.00310917813282041
0.00285581908086622
0.00254979335570315
0.00217793184292362
0.00172047595890555
0.00118610925808296
0.000652362218410276
0.00247685498846166
0.00264971046507127
0.00226650914982076
0.00201399439202499
0.0017100378963182
0.00278776403734904
0.00134704887277406
0.000937202883779385
0.00051962947831608
0.00289510400902676
0.000781677713647179
0.00118549316497835
0.000369887569710648
0.000319150741289082
0.000269810638122054
0.000215438959712089
0.00145301284555244
0.0016330016053046
0.00175692220503332
0.00184119350453153
0.000161670643116474
0.00107180833641794
0.00100052951379355
0.000891550664209363
0.000713205336318197
0.00111760750978618
0.000390076248779089
2.59464013353133e-05
1.70437781981915e-05
2.34575619549743e-05
1.79908725804036e-05
1.15044600807536e-05
6.53940096375443e-06
0.00163324975052673
0.00179466245488413
0.00144415811802946
0.00122375805367932
0.000969391934593546
0.000684304259969675
0.00192942578605084
0.00203584417778427
0.00211517451332893
0.000381293793011983
0.0001099984208842
3.22098009503799e-06
0.00217205947867879
0.00134609011365833
0.00131429552750721
0.0012605508368491
0.00136663509277402
0.00118432921569021
0.00108983874003778
0.000981356551483
0.000859775200898364
0.000724684458142543
0.000574988190117112
0.000409239349320527
0.000228472002870124
5.90694556020435e-05
1.18964638863775e-06
0.00424340424499994
0.00452197691351811
0.00465350490974989
0.00382630113574559
0.00463168505916695
0.00445246298929012
0.00328220311732004
0.00411441185859446
0.00361983112282679
0.00297788329633841
0.00262876742990656
0.00189749230933265
0.00221199289817054
0.00114691394611592
0.00137819894524673
0.000387568379790056
0.000444057828525646
0.000496128167135508
0.000327719791958959
0.000265336764250961
0.000541676671575117
0.000574471062810434
0.00057772681157183
0.000200618994962154
0.000133423178059368
0.000586981102064313
0.000590787301156928
6.64307920347367e-05
0.000588744987372833
1.43860981288616e-05
0.000167274891235931
0.000295949359200639
0.000369176490754988
0.00041540550443649
0.000445815240895253
0.000464427384816357
0.000476280713236735
2.20480329456551e-07
1.02721626400909e-08
1.52600162356577e-05
8.67032348576896e-06
3.97957370610735e-06
1.18833573666285e-06
1.52681628456445e-07
1.32699362728021e-05
2.3759522584143e-05
3.39932223693454e-05
4.55125954003256e-05
5.77258098684335e-05
6.994826187142e-05
8.03348351549659e-05
8.45633409595004e-05
7.18699644820703e-05
7.33248579136287e-05
7.34706151833207e-05
7.27584750984682e-05
6.92889967438097e-07
9.97887180555098e-06
2.45846553455035e-05
3.64493551304062e-05
4.50010604084498e-05
5.11551095554305e-05
5.50749362951833e-05
5.77592566049412e-05
6.07232089209304e-05
0.000486396482017483
0.00116716650476506
0.00193541020080845
0.00269143391805771
0.00337573994448793
0.00395664980735351
0.00441766838439188
0.00474921634410459
0.00494443506713125
0.00499777947790124
0.00490488726182489
0.00466264534843209
0.00426940719151445
0.00372651327917148
0.00304282257898419
0.00224430751458816
0.00138653276341372
0.000587306429512316
0.00141420377241305
0.00229506119466785
0.00178109908203142
0.00268728752736877