/*--------------------------------*- C++ -*----------------------------------*\
  =========                 |
  \\      /  F ield         | OpenFOAM: The Open Source CFD Toolbox
   \\    /   O peration     | Website:  https://openfoam.org
    \\  /    A nd           | Version:  12
     \\/     M anipulation  |
\*---------------------------------------------------------------------------*/
/*   Windows 32 and 64 bit porting by blueCAPE: http://www.bluecape.com.pt   *\
|  Based on Windows porting (2.0.x v4) by Symscape: http://www.symscape.com   |
\*---------------------------------------------------------------------------*/
FoamFile
{
    format      ascii;
    class       volScalarField;
    location    "200";
    object      omega;
}
// * * * * * * * * * * * * * * * * * * * * * * * * * * * * * * * * * * * * * //

dimensions      [0 0 -1 0 0 0 0];

internalField   nonuniform List<scalar> 
10228
(
2.93334415774853
2.96064319258036
2.96350813983652
2.47469008983647
2.44248103211299
2.94198163215907
2.99299455672107
2.95665653589876
0.837826907844788
2.45215098310825
0.837825131980657
2.4044775775588
2.42539279675091
3.02238242449047
3.00033405126374
3.03463607644713
3.04377591124882
0.756732814205548
0.698853787701352
2.50624199840298
0.691484963579167
0.760024845735415
0.831871942076547
2.3786467035682
2.36519228612206
2.41877600948943
2.97390843456781
2.99901588693287
3.04482624752959
3.07872551391626
3.01839252174946
0.793582234838586
0.506234008692354
0.706450778759992
2.47352033303656
0.503191049007378
0.679481383905413
0.692592606022774
0.755238887477835
0.793237604860171
0.824573034789038
2.35771550848452
2.31066630402846
2.33138962150574
2.40498329726222
3.05610419993074
2.9847058675185
3.02105751304886
3.07319465690437
3.08920022828655
3.05712723308697
0.828164678625293
0.483933160703817
0.459649912610964
0.727753659814938
2.49502197077574
0.497469064933067
0.481739408321267
0.455394741267116
0.675479082428869
0.667820903053889
0.713714224479973
0.745624825948544
0.786435789628033
0.830067234375708
0.815837212738823
2.37667448793753
2.29353925530468
2.2653554747599
2.31570880181079
2.40609950606438
3.07772629892005
2.99655492036684
3.0025463543276
3.04315669480242
3.09233607255872
3.10441322146061
3.04133952911207
0.864230752348396
0.492437120673874
0.403391086028559
0.455909493437045
0.755242682805831
2.47713641790772
0.477221300948521
0.448962555134303
0.490524152412958
0.401405910504319
0.490685561431316
0.451431437025661
0.6948176069278
0.660701998482839
0.659895476239833
0.739375115602676
0.734250200949634
0.775285489993317
0.823619684805177
0.864135741235708
0.809690171576723
2.29336258109869
2.31908787530369
2.2440395238172
2.24625407100867
2.31166815378968
2.39992200036377
3.41256773533604
3.07763158978861
3.00140512122358
3.02299098617712
3.06385963023852
3.10290312143972
3.10114243681814
3.04746487985544
0.891486291824148
0.50859922108522
0.391880657632908
0.379491919090607
0.465197249981049
0.778563668465546
2.47744822927689
0.48663338456088
0.471413314872215
0.397874993655917
0.444592314718368
0.442253615230239
0.483884873606367
0.390613817726665
0.377739334536312
0.506719992100464
0.460459650103751
0.719115306764133
0.678419397965472
0.651927574707364
0.659522442133806
0.763142360870177
0.720827002172235
0.763379500540743
0.812305582925684
0.857063982559473
0.892168882345837
0.807059413087496
2.34880711927163
2.19723128411419
2.26653116136666
2.22078910154788
2.2423138119467
2.30858631091537
2.39534328787845
3.96112726185701
3.38727566003355
3.08930598533613
3.03247251255776
3.04876269410822
3.07801138174501
3.10403926920519
3.09813218289182
3.0417106255399
0.916563756059819
0.525368412875628
0.394727885049997
0.354540973834595
0.375357883891655
0.478069498614663
0.800721869640571
2.47083288357145
0.388124389219196
0.502689631017613
0.481387021599555
0.39384684094507
0.466060931121163
0.3745758689068
0.453236462758095
0.437641771296663
0.437105812470081
0.480803704895921
0.353725369571217
0.393646135205885
0.373648046218438
0.523465682208345
0.473214331162493
0.701817576947248
0.742543013233698
0.66835627742186
0.652138183913733
0.679356839274422
0.78472096432002
0.708157458196036
0.752506479786939
0.801094507921627
0.845852373634049
0.885238535823338
0.916350815729936
0.939579588010098
2.47411472882944
2.42132770044612
2.14804542246507
2.22757321367142
2.21502793569627
2.23979254345338
2.30304245191035
2.38957271152932
3.98454539997751
3.38429181846274
3.13374544459249
3.07185547127727
3.06829439164568
3.08139288514158
3.09874572852234
3.09206023384252
3.04080916631707
0.937547670455402
0.541486571265111
0.402529147045511
0.348153060070285
0.341044852729717
0.379004038346668
0.491754055559224
0.820092053291486
2.46866898858589
0.351966576468154
0.391531392995685
0.385325998577625
0.519423466636418
0.497732865492606
0.47716122694082
0.371038962815029
0.39103782407352
0.465679487896801
0.370508847821522
0.465703660890643
0.445916742784668
0.432466759389654
0.436817684110449
0.500517621129937
0.340404524724289
0.347653919403761
0.401480222209787
0.377234717437736
0.539430560775907
0.486715555745688
0.690867804528527
0.72476997037655
0.763602893035466
0.665044847449298
0.670217298084475
0.803857154738726
0.829205918752564
0.756698625663564
0.793500739290675
0.835349806223772
0.874111687120615
0.908982836248703
0.937121979318288
2.42304838411072
3.34281394003908
2.40073356072367
2.16214924801986
2.21574796645809
2.21278557213407
2.23431072380504
2.29713054762819
2.38573609883853
3.93584024790839
3.43956732638239
3.18913254764056
3.09753974814673
3.07484171849469
3.07704669536246
3.09204638526071
3.08790638573115
3.03970469229328
0.956361320630315
0.556295904582263
0.411966342607054
0.349425971790967
0.327974141664629
0.337954456101699
0.385841773855697
0.505056491365417
0.837724669346501
2.46721285846169
0.346467736691997
0.350021267819394
0.338869274067717
0.389360225134994
0.399501747564047
0.384122175785047
0.535273641205789
0.514619590061188
0.494309259498436
0.479368537986373
0.366914299040603
0.368615997711721
0.393570856747065
0.49325041375557
0.3739588272328
0.478900540520418
0.458014174905965
0.440205991508773
0.431129221860734
0.453649764332841
0.713161326020528
0.327723804670595
0.337317461482856
0.349020438162776
0.410899005647665
0.383970086424828
0.554147988453651
0.49986582879969
0.713346584407162
0.685123076827796
0.7453785870107
0.782288677824478
0.668639354977027
0.821129517869906
2.34197553591902
0.877805888451253
0.803211139797324
0.829297418855469
0.86402088873004
0.89776349536525
0.929458984435865
0.955553470051279
3.32881084425849
4.55077481046686
2.34602068617911
2.14776741119003
2.23452782965404
2.2141192693024
2.20748216348818
2.22788253146304
2.29251742283539
2.383440882473
4.03451152542943
3.49230021699271
3.21861890817565
3.10691491441224
3.07209389150517
3.07038533288376
3.08646882946308
3.08522954838644
3.03975435627424
0.973096830718666
0.5698657553876
0.421689087290781
0.354028617637824
0.324363567244649
0.319907551585721
0.339752504260198
0.393922623580536
0.517712305451301
0.853725746212961
2.46689522727588
0.348074070430445
0.326867647599442
0.345340353363835
0.337022143693626
0.349364158702143
0.335740817510533
0.389223563181617
0.397676996347695
0.408964577111724
0.38924031573358
0.549899642862265
0.530526411054167
0.511728540773049
0.498237181177448
0.511643978426572
0.364034341492404
0.370097150430425
0.369873469085137
0.414946200356104
0.712111468771454
0.380497970632348
0.491778653005179
0.470846567586372
0.451739173425869
0.436919598173292
0.438874992801151
0.527273855775175
3.01866887263268
0.324242811045035
0.319700824532888
0.339052580304007
0.353650889652055
0.42060818721618
0.391953762509939
0.567640080996257
0.512387352089543
0.733627744918146
0.706443889492668
0.683047464675604
0.763637274874659
0.799111077624472
0.685493991946357
0.836894403812085
2.4284526135421
0.925525139850435
0.841560407715494
0.858858569051479
0.887892146364855
0.91809364977982
0.947583211132924
0.972072408259254
5.01509193282196
3.10207749963617
2.27411150516158
2.15460844671457
2.26153344129887
2.22442034427398
2.2083047198382
2.20057994928845
2.22270272182021
2.28965627624323
2.38236377475462
4.01735566160841
3.52454771597719
3.22905710121138
3.10562995456102
3.06613140204756
3.06461728700934
3.08284735444034
3.08396029740266
3.03982562786664
0.98812322564183
0.582240163668516
0.431160390458787
0.360044941670198
0.325296309762275
0.312551330104933
0.317900889598646
0.343940901024826
0.402416699783654
0.529700115311894
0.868524333329282
2.46679053956172
0.347398886082258
0.323679886875749
0.352820497413188
0.318856683430937
0.325915409086388
0.345828935033907
0.333679276711061
0.33588135211861
0.352917706985154
0.33733350284312
0.396202390806868
0.398254600121815
0.407351226659043
0.418699810756922
0.41529272682798
0.563315965802491
0.54517983534302
0.528003757447302
0.516838978569253
0.533815793395937
0.733327667573807
0.363172722433246
0.366588775807334
0.376321310958863
0.380278898096426
0.508934166218611
3.30360537831067
0.388292294848026
0.504070410281407
0.483396983420715
0.464102396305078
0.447028205152862
0.436801297701735
0.460715455165608
0.876487270356798
4.65865405731481
0.32522171763973
0.31249357703992
0.317653732367876
0.343170060087789
0.359684531336764
0.430073148916679
0.400369367065209
0.579964530131132
0.52429476918276
0.726195697669403
0.751569037283385
0.700786874217335
0.682437463361149
0.780071195351397
0.814628507591871
0.696306717811416
0.851709050741355
2.4111239428683
0.967435846683989
0.872916120873732
0.883390903939863
0.908341660627184
0.936068083583824
0.963868648137463
0.986938234295663
3.1831489081328
2.94984523647159
2.3626617732365
2.19628630523527
0.877598815879368
2.26525913964641
2.23190618249149
2.21528543092499
2.20096011937425
2.19480755322473
2.21938749352354
2.28813596957624
2.3819044064877
4.06598075623168
3.52954906525851
3.22834343679974
3.10042318490173
3.06063609466772
3.06073442993323
3.08085084801398
3.08341502819609
3.03994263642391
1.00152417996974
0.593492020486056
0.440140982485538
0.366570603939265
0.328478940243487
0.310610413016435
0.307611744320778
0.319103732120394
0.349323337823692
0.410978795427858
0.541214077831132
0.882707597358483
2.46680339160775
0.352426282092808
0.348645095850178
0.323214676615992
0.324802435783775
0.311967134551085
0.35893023754705
0.316694179465034
0.317710308467393
0.325877526687393
0.351067573295212
0.334974666767754
0.331829950053942
0.336953705490584
0.36683822263035
0.34129673615622
0.42558262149225
0.406545283706985
0.408432376253562
0.41723670648055
0.428187848288918
0.51843522309494
0.575586003488066
0.558612985645541
0.542929876505273
0.53400192231297
0.554726929875827
0.761290149412848
3.2413170644985
0.365990377700611
0.364053111818155
0.372254832513568
0.383828023645508
0.410185255968896
0.868434913494753
5.05110430682481
0.396550879330421
0.515853750633841
0.495421009038254
0.476277246365435
0.458546454586828
0.443353537898787
0.439795801450681
0.504054797747158
0.784853174632358
3.14514132987044
0.310605674675029
0.328431920679772
0.307522972798884
0.318799231596404
0.348493700272971
0.366227572129335
0.439052916215447
0.408880900469715
0.591181578209986
0.535846865887179
0.719297708959797
0.743879277378649
0.767704148448111
0.694014881175574
0.676947297838176
0.795417749818465
0.82975930391104
0.681620710680182
0.866829538969087
2.41955515316451
1.00143503681023
0.899062616208982
0.90436265059463
0.926381854856944
0.952216892985842
0.978557445207199
1.00025876569284
2.97338144938118
2.90893689857734
2.35450589973612
2.2845954383097
0.822534977551783
2.24531975468491
2.23049528918166
2.2181144041383
2.2075219229548
2.19469790967696
2.19103912828657
2.21756813268145
2.28743081047476
2.38173913908047
4.0453313293927
3.52946218240698
3.2236314044868
3.09527879074151
3.05682712421073
3.05851324799081
3.07990059101268
3.08322727295677
3.04001425419102
1.01342974167191
0.603665740990692
0.448520388148019
0.373147136898207
0.332759499703575
0.311545928014208
0.303374456604394
0.306471073842823
0.322076331113784
0.355301170524753
0.419508548272096
0.552598570979433
0.897643617667784
2.46682449539986
0.35420124536824
0.358735262214719
0.324633047927332
0.355074167903031
0.323894456978591
0.311309329622901
0.328104195965462
0.310230920580888
0.306890982802079
0.365534388209032
0.317700862337678
0.315251006199812
0.316890073271037
0.328357612416179
0.367519227236493
0.332492496891514
0.33866015719643
0.330940460953713
0.342286740880619
0.402168472588931
0.34648902083952
0.438284446022966
0.535538222680659
0.417687818540597
0.418694189566488
0.426841921487628
0.437189872175554
0.886557541554407
0.586762980372129
0.570895715870643
0.556574596761073
0.549618718341911
0.573724986297524
0.784839640798863
3.25604549847162
4.9713936525135
0.362800528554425
0.373869066523323
0.368618845831784
0.379323655620021
0.391853211289796
0.467426208638156
0.803256794427195
3.26181748758348
0.404957188385841
0.527507078274221
0.507051044775257
0.487999884595301
0.470212203458408
0.453274847741731
0.439925964714944
0.443646573781119
0.49799124316531
0.735020610948136
2.99384101504179
0.311570542805809
0.303339874034883
0.332737162045201
0.306329569495139
0.321722374310104
0.354429916942028
0.372821015662942
0.447433147724106
0.417402522963754
0.601332778105622
0.547550364841021
0.710728094220044
0.736663283497991
0.759788836175544
0.782743174670625
0.684217687851638
0.662524368438488
0.810884796965548
0.847397599366958
0.660854159596072
0.885193600057157
2.40950399993545
1.03062246867323
0.921439832479487
0.922815787795891
0.942562960695064
0.966788914596422
0.991758351497478
1.01212704052246
2.9119638633319
2.89675869102122
2.34949397922304
2.27707425850259
0.79860732556532
2.23193093840036
2.22179422334675
2.21626834930114
2.21036760293226
2.20107612067863
2.19051555136757
2.18894273129998
2.21669174889646
2.68943537417276
2.38168748337086
4.05121084068223
3.52439149501707
3.21878733967125
3.09161062282575
3.05460271735625
3.0574052461084
3.07950062709683
3.08317329389817
3.04004769562796
1.02395258867372
0.612808289274636
0.45624367989164
0.379526230180966
0.337519472875748
0.31403758481264
0.302487279736173
0.300367488085569
0.30752995980847
0.32604464066079
0.361563452351578
0.428014989188616
0.564281997988198
0.915111188742404
2.89435105915704
0.361496900381667
0.325806462457548
0.360901923546882
0.365493610196288
0.32814024686769
0.309861553727243
0.373316998076985
0.327370998060607
0.311147507959918
0.305927702340054
0.332480954341652
0.311288524627884
0.302859402158497
0.305562836019144
0.372179500826742
0.320503465731629
0.315977467026294
0.313735400622902
0.317178919666987
0.335525779652654
0.406465930221397
0.33568862019448
0.330295458166123
0.343627617492132
0.331602061691339
0.35357014642053
0.466073403936527
0.352327374204712
0.451190320297389
0.552770344776148
0.914061801116011
0.42868731855116
0.428594011408372
0.435939101985677
0.445589757170781
0.832753280739952
0.582082534499154
0.59688525903897
0.569025411276184
0.563821161104541
0.590784032048256
0.806424247786997
3.22613162856628
5.00221093169546
3.26659509009907
0.365308544956188
0.362622614555885
0.384424524159034
0.374987934572227
0.387017554420795
0.400094069316964
0.46911406132766
0.760430831152366
3.01153699434461
0.413451101001317
0.539733197251848
0.518741720844215
0.499363727224975
0.481574691148351
0.464195438455474
0.447448581980459
0.435317705478955
0.43738358405828
0.47831884745745
0.709270239400612
2.94835620943578
0.314087570210617
0.302480086994846
0.300279114060073
0.337520022547392
0.307341879620513
0.325654569377744
0.360669312936591
0.379214852928965
0.455157380365991
0.425964970510799
0.610460269828783
0.559843141277795
0.727743755872898
0.699828094673765
0.752437126681975
0.774473380065783
0.797893529040997
0.670586314278393
0.644759752232647
0.829426250460656
0.885909082090041
0.641981154386028
0.902832695417513
2.40534948758315
1.05551874581426
0.941092907894816
0.939323142078098
0.957148317144633
0.979894636047204
1.00354666776199
1.02263676288507
2.91093425878155
2.91778076839671
2.27198643331627
2.34871472552772
0.78224636021682
2.22726843844899
2.21335306371686
2.21229123002479
2.20970719829482
2.20421379160452
2.19664403212877
2.18815874680418
2.18791904485415
2.21631500544867
2.28703080904378
2.83786670994635
4.04343377968761
3.52029816492115
3.21532818855446
3.08944124347738
3.05346982091834
3.05691325263735
3.07934949066984
3.08316282186678
3.04006141987784
1.03320586287329
0.620970771864837
0.463288577587016
0.385566170118663
0.342405207435536
0.317351818967477
0.303514562610999
0.297978197253699
0.299884506089548
0.309897310746954
0.330562332011604
0.367929122721748
0.436487375366126
0.576197804855581
0.961835135295413
2.46684132153064
0.381056257477525
0.368853793903209
0.330006071559157
0.31014637103449
0.329675413154952
0.367964798382059
0.37226313149691
0.3326742075586
0.311114861160714
0.302172067661044
0.414733626764482
0.335848653097494
0.312273127467445
0.305021335583963
0.304311001170359
0.313876563790534
0.337323620150299
0.302088374851856
0.29966137324219
0.306457468420518
0.378616501781084
0.324343911482682
0.318555295485171
0.313930903335328
0.312563252830461
0.319243154101973
0.349099595823089
0.474763019561044
0.340298225968018
0.332658053905319
0.328525610235053
0.349298398725672
0.333763752373597
0.368032521184697
0.472577820518989
0.358505696345517
0.463550361164093
0.569055332397155
0.935687859646724
0.862097018479544
0.439176030191481
0.437929135974058
0.444417086417565
0.453330363500421
0.793585179752054
0.592212748409166
0.580348164817257
0.605991319959141
0.576732025928125
0.60620450921947
0.825107323862107
3.21860275019408
4.9571536637421
3.27286443279374
3.03146650644804
0.370608489658204
0.361929732860399
0.361970762442966
0.38325268200873
0.382218517239189
0.395000081927752
0.408500588739889
0.455325536855447
0.735787366251943
2.97893409739132
0.422074198773913
0.531236307984415
0.55343768960874
0.510796026945964
0.492584021285122
0.475144143029812
0.457424895536546
0.440340245674997
0.427106327679645
0.425075295096817
0.460604939639042
0.689019948381476
2.95214327410365
0.303530553441241
0.317425558658624
0.297914113855685
0.29974824990882
0.342425789442267
0.309675163586138
0.330148778794735
0.367030533500985
0.385266809330168
0.462202619867474
0.43451684072261
0.61861168763728
0.571809356206235
0.743456399172881
0.71671698615193
0.686640040408116
0.766894095308133
0.788572046351567
0.815659853839908
0.654720592090066
0.627227381660309
0.849890875147468
0.886398288593676
0.624705984680562
0.948173106621987
2.3976017814397
1.07747846018982
0.95861698062496
0.954169937856259
0.970257796657943
0.991607047340452
1.01400198552337
1.03188703414403
2.92377496751797
2.93308967880842
2.22375396954262
2.26884822549948
2.34633921772024
0.767188214756434
2.20906938710183
2.20879835928053
2.20800776287713
2.2043221231567
2.19978735570407
2.1940929274813
2.18699738872036
2.18747340168471
2.61071965475801
2.71433491404033
2.81149210945499
4.04239437736319
3.51740055558508
3.21329374947673
3.08832762465776
3.0529558229327
3.05671497276932
3.07929855820425
3.08314657264292
3.04005943055333
1.0412947354678
0.628207945683332
0.469653796805194
0.391185678042583
0.347204241379363
0.321055395100061
0.305640433170336
0.297786274752387
0.296241066146814
0.300956506501712
0.313039804736727
0.335346019744853
0.374248414954419
0.444716200505699
0.589848859604497
0.951810714773923
2.89169383411905
0.389420415004433
0.339446469173534
0.424280449629492
0.376434598398498
0.334419658852351
0.311880802811763
0.311724043277023
0.30167424156171
0.334488453378006
0.374979272665033
0.378802119745122
0.337643221470959
0.313851154940271
0.301584354449004
0.298674939339934
0.485830054667254
0.351015205701089
0.315359250253894
0.30457957242572
0.30284095902404
0.304976533322495
0.303205644816547
0.317274031012921
0.342279516987318
0.297380292706073
0.299010852060936
0.308701763780876
0.384703931136578
0.328774089448676
0.322229398333864
0.316129328710925
0.31183176814205
0.311940569871829
0.323047435869852
0.366065452239406
0.484101499886508
0.345709043946159
0.336733904228996
0.329597653626149
0.326932781279841
0.355361005183335
0.335712398306197
0.370051289405446
0.46161373637579
0.364837450503008
0.475154710635026
0.583965388629899
0.955563497288426
0.886357230489771
0.823163745029226
0.448996802581132
0.446603206483803
0.452222008552967
0.460388797418129
0.769540650271753
0.60132530199656
0.590589830489154
0.588440115051986
0.614126291042355
0.620161827336232
0.842252548672686
3.20080415886425
4.94180733080082
3.26037498497836
3.03632537510818
2.99925132074685
0.377238925106436
0.365835778454206
0.357723522483785
0.357531873044126
0.374772457115736
0.38984908514714
0.403190166263673
0.417109252047002
0.439637717356513
0.71511665662759
2.98634313211537
0.430730690879049
0.543998277090977
0.522945249516685
0.564598130170454
0.503443429046905
0.485803938587109
0.467943854369309
0.449464827017144
0.431293357625142
0.415926297525991
0.410691754574294
0.443045474751462
0.667710633581555
2.96197195455537
0.305678692046687
0.29774239237275
0.321150365379881
0.296126294927247
0.300785280703175
0.347241561008365
0.312795059664197
0.33491889418545
0.373349669519604
0.390895752208925
0.468567554192493
0.442739424018002
0.625840126154444
0.585060710898315
0.732479272867774
0.757827297371331
0.703798359276657
0.671658750916857
0.780373350547345
0.803385758549912
0.833964745473965
0.637874241801329
0.609520074938837
0.889519399178093
0.927772649551301
0.607246269739708
0.961031210400691
2.39307377959013
1.09700700446711
0.974322278901871
0.967492616039983
0.981970330727506
1.00200207406273
1.02321315878029
1.03997546994112
2.93200931974705
2.92380103322977
2.20706772240039
2.22026898787758
2.26504132159882
2.34583502975879
0.751488927064477
2.20706254197263
2.20681936426209
2.20366074763948
2.20012191983731
2.19714736291666
2.19281959555475
2.18648900293336
2.56871758392126
2.65613985638319
2.75321532495737
2.84478474514104
4.04128860432204
3.51588389296065
3.21226386870012
3.08782020683262
3.05274408740355
3.05664209534203
3.07925000122194
3.08318578792908
3.04005787862063
1.04830813251479
0.634576442958064
0.475352691102085
0.396340744367355
0.351785594581285
0.324879558615706
0.308372135169112
0.298916179477774
0.295022194076729
0.296253819864131
0.302992654480792
0.316612748131382
0.340189632699164
0.380344685062476
0.452586330035513
0.598323837739017
0.99054371289868
2.92667928815989
0.397811639567698
0.344594055046741
0.43403019124917
0.315728126096475
0.355780892747806
0.497425615761668
0.339658590765914
0.383871885128603
0.313917137484258
0.301766926501583
0.314709312257962
0.301381458131203
0.297588127282425
0.339680584815009
0.381719666396866
0.384973732140857
0.342702714485257
0.317367661656175
0.302839436353353
0.296567147723215
0.297788948767071
0.497165545625551
0.3696920727501
0.320347852297206
0.304811825225021
0.301408174460039
0.303109637267458
0.307054198702552
0.305410055775328
0.29727077577891
0.321049182843296
0.347136905717073
0.295469085998498
0.299958302852465
0.31175945420446
0.39036186718512
0.333502111694097
0.326542365967683
0.319539701751205
0.313448093166857
0.309773282782229
0.311650544036755
0.326767504237762
0.37020790768494
0.474637961851229
0.341784846177436
0.351577191387507
0.332956509304622
0.326319682674221
0.324723632465808
0.361617361345595
0.333732451647932
0.363991679869607
0.447375441205449
0.371137224908269
0.597746226395986
0.485924545384547
0.972532919034915
0.907037532807398
0.847592048729274
0.799022639032586
0.458079914409643
0.454571689334452
0.459333629393109
0.466764406099106
0.748631576481735
0.609465819416086
0.599794920133281
0.599007288965435
0.632778599425496
0.621341852528704
0.857877937266941
3.19250435030447
4.91093010801365
3.24611735337975
3.02802348486956
3.00410436515963
3.00760912225152
0.371792917290839
0.384466756238421
0.360285613179052
0.351740831074848
0.349730441454279
0.363174369030973
0.397690936378451
0.411594698835646
0.42566129780906
0.423300024000642
0.692470589889979
2.99479239867607
0.438881146689401
0.557425692454095
0.535199662599315
0.514588837820828
0.577307623197025
0.496158958399318
0.478316016152951
0.459647244411691
0.440106797523379
0.42042941338224
0.402951226691656
0.395259517702708
0.424349239396832
0.643659883397849
2.96529566700496
0.308430835929947
0.298892384811501
0.29492498242688
0.324992676717245
0.2961020380927
0.302798293317434
0.351836641371858
0.316354043519371
0.339753640332644
0.379433066379186
0.39605823338147
0.474265837228204
0.450520834571149
0.632202045219862
0.594900474984384
0.719726417403609
0.746857194640039
0.771030907748294
0.689219488681335
0.655284906503232
0.793372449504331
0.819825258307074
0.874639351022887
0.619966196227058
0.590826156163926
0.911381162857256
0.9450672868665
0.58901918055281
0.978159107424079
2.39028609475708
1.11446507867284
0.988370397071069
0.979382427759052
0.992364661093625
1.01116507731535
1.03127142516747
1.04699918232879
2.93583886583162
2.95713776434728
2.20611034491874
2.20380049189387
2.2154500971396
2.26804300318133
2.36559470856337
0.736297787166147
2.20655810498079
2.20340444925853
2.1997846613087
2.19749063663045
2.19580409067606
2.19225848831062
2.18628974953034
2.61099881828446
2.69913589270808
2.79174490850333
2.87975130657461
4.0415613632379
3.51515610646832
3.21179707473268
3.0876110363668
3.05266369820651
3.05660239668989
3.07930793832664
3.08316840323303
3.04005788247027
1.05434314440553
0.640135485158908
0.480408395738044
0.40101204720386
0.356069111064016
0.328652473856571
0.311396937131555
0.300830478594626
0.295307438698114
0.294162602205675
0.297386387440662
0.305607794271464
0.3203761873127
0.344926187079563
0.386071537276799
0.459431334111835
0.609047062924402
1.00511887239129
0.443564692217465
0.350414795495516
0.405926128234199
0.318347594423
0.361823927608235
0.508725569800846
0.302648005186775
0.321602425474729
0.375712837791236
0.51011123368724
0.345194323066878
0.317259742089396
0.390965467601177
0.301878772075692
0.296645807496136
0.302862626121221
0.318424171977034
0.295756056573851
0.29629142127011
0.344922543765896
0.38805909056559
0.347645749032073
0.390701567175344
0.321240639648734
0.305154687827049
0.296587241108187
0.294414172550674
0.29856759535764
0.488679313708596
0.375346311174212
0.325340009551304
0.305496230138635
0.300111150776949
0.301061675740304
0.30491898396626
0.309996942002531
0.298473556747531
0.308210407651975
0.294326459822487
0.324933739672967
0.351766434263205
0.29535317989461
0.3019096369681
0.315277170352469
0.395548209056502
0.33830747347844
0.331190015777047
0.323669721225951
0.316488100422307
0.310598867127649
0.30761911834251
0.310869938701634
0.326493859733295
0.365768277329641
0.461279783795696
0.337573945269998
0.347381121669802
0.35768103603433
0.32885847957511
0.322474339378937
0.320823114527446
0.36785107234157
0.328163666140611
0.354280811263514
0.43195244266976
0.377185651021067
0.610448026759232
0.988519482297538
0.495831274556495
0.925074798062701
0.868105126717088
0.823220839150828
0.777795299476727
0.466396566939684
0.46182082987713
0.465753646633379
0.4724714680653
0.725351505930375
0.616686509287483
0.608013184058692
0.608489069456024
0.644132896305287
0.872095691837592
0.62769349063946
3.1868734284807
4.89532847186856
3.23124748330002
3.01425699106073
2.99546181130858
3.01213344477139
3.01563607774666
0.365664442835992
0.378630101278085
0.391938997116685
0.353647764244358
0.343997459727541
0.33987297241293
0.350235095174364
0.4056949295614
0.419950546559899
0.433887964690119
0.405785491040972
0.666213638064768
2.9947625174394
0.446538693683595
0.568692838032409
0.548648656042248
0.52610784979947
0.506380902162405
0.58715301801217
0.488321081686034
0.469827866880276
0.450174434885662
0.429403854327657
0.408166055637376
0.388821940868099
0.378885939072393
0.40438536921599
0.618144146802048
2.96780581388503
0.311473485550339
0.300825717611318
0.295228382799382
0.294026468062928
0.328780777903085
0.297210172408772
0.305399208974758
0.356131428545891
0.320109016329974
0.344481591812723
0.385133543495966
0.400735494176616
0.479320858267654
0.45739312753428
0.637755000437385
0.603999181517908
0.705347659261055
0.73416184950238
0.759969586275026
0.783295112989959
0.673080221991734
0.637355279330172
0.807096074415702
0.839409827607537
0.896009453764967
0.600550066796858
0.57102513407446
0.927006642786937
0.959043902619375
0.571737653179743
0.990750999438037
2.38919053843879
1.13001462347058
1.00087698265859
0.989927143119631
1.00152772406769
1.0191856013663
1.03827514016049
1.05303674870001
2.9510659589547
2.91143612923146
2.20623425346863
2.20312084357587
2.19825999168993
2.21803832303274
2.29446168428478
2.39560718893061
0.726147439079592
2.20370316187432
2.19980729744495
2.19720843720386
2.19611674667654
2.19520613584776
2.19203835150045
2.573787237731
2.65314166862483
2.73812835437482
2.82689503512119
4.04174786257808
3.51485085449415
3.21161791127631
3.08753132328139
3.05263844675118
3.05662068956516
3.07929230522201
3.08316912669374
3.04005785227368
1.05946980419384
0.644936126406891
0.484849693899016
0.405196601929864
0.360007875107987
0.332263386426577
0.314509877216185
0.30318229306782
0.296525136956651
0.293726401606132
0.294549722648524
0.299225231972811
0.308536751355408
0.324155122714816
0.349430082614913
0.391298347921271
0.465738637152392
0.616894416639419
0.452662463477707
0.519579435854293
0.368364021993152
0.322149765781952
0.35642680727734
0.413598734207505
0.30326283454225
0.324905574514858
0.38272123580699
0.522452845314404
0.304080592714915
0.295936754348007
0.327550353447476
0.382474371128361
0.502272105107455
0.350719793552667
0.321260792764631
0.303675960455682
0.397603762286467
0.2951875503751
0.294711450492028
0.295987817779814
0.305358081824214
0.322458791642759
0.293181886848527
0.296797217509582
0.350016875233369
0.393927922586353
0.352346505416604
0.325206262585713
0.395946404360024