/*--------------------------------*- C++ -*----------------------------------*\
  =========                 |
  \\      /  F ield         | OpenFOAM: The Open Source CFD Toolbox
   \\    /   O peration     | Website:  https://openfoam.org
    \\  /    A nd           | Version:  12
     \\/     M anipulation  |
\*---------------------------------------------------------------------------*/
/*   Windows 32 and 64 bit porting by blueCAPE: http://www.bluecape.com.pt   *\
|  Based on Windows porting (2.0.x v4) by Symscape: http://www.symscape.com   |
\*---------------------------------------------------------------------------*/
FoamFile
{
    format      ascii;
    class       volScalarField;
    location    "200";
    object      omega;
}
// * * * * * * * * * * * * * * * * * * * * * * * * * * * * * * * * * * * * * //

dimensions      [0 0 -1 0 0 0 0];

internalField   nonuniform List<scalar> 
10152
(
2.98920939508233
3.01834233139217
2.94176072034452
1.01996483977889
3.04305780549853
2.97025986261128
1.02992483548991
2.88861997160062
1.00520282735121
0.624355427936694
3.06402576999523
2.99454161546983
1.03835968779953
2.91645960689265
1.01495793253569
0.630312439585378
2.83453969073528
0.98514619469194
0.61888749394357
0.475957534338447
3.08178069933798
3.01515531271504
1.04553650351365
2.94027545950525
1.02326100048836
0.635384542283467
2.86174996020206
0.994632587032357
0.624733884990309
0.480282264592108
2.78758657803837
0.965928976788614
0.610150400250004
0.473706914580053
0.403776386496316
3.09678194909051
3.03261106254645
1.05163563575453
2.96052455418756
1.03033651406018
0.639721504892585
2.88509615469598
1.00275521284078
0.629745123610534
0.483992992894309
2.8142655962375
0.975179670196781
0.615853711605193
0.477965066750362
0.407226473661399
2.74375993309513
0.950031375226936
0.600588298999052
0.469439593017804
0.402829180216098
0.363790956360927
3.10943194857501
3.04736183581692
1.05681200313649
2.97768167648728
1.03635360577457
0.643425048430738
2.90497894152616
1.00969386539591
0.634038689012815
0.487184454418536
2.83720454184726
0.98313224045495
0.620776059616513
0.481643278728645
0.410205107941334
2.76991406597791
0.959105289875418
0.606166909865457
0.473613716581833
0.406233649989285
0.36669081475701
2.69524573617137
0.935731557755623
0.591535257015318
0.464019739662787
0.400518397921256
0.363385342235372
0.339965284903015
3.12007600004507
3.05980064363082
1.0611888615891
2.9921860465313
1.04145840215144
0.646576800870056
2.92184241091582
1.01560070400786
0.63770749258588
0.489922350416254
2.85676690722749
0.989940854924111
0.625005614962741
0.484813577254348
0.41278124930534
2.79245440683411
0.966920640000632
0.610999689845915
0.477242495665489
0.409192532623168
0.369207838988145
2.72072518669484
0.944666674194111
0.59702029899235
0.468118861025692
0.403865848174733
0.36624902393539
0.342480585597133
2.63876259601288
0.920099385105877
0.582708456080552
0.458123618747102
0.397126973461941
0.361965764117437
0.339755929286898
0.325177128418115
3.12901892987411
3.07026808692066
1.0648799906708
3.00442589132592
1.04577627908601
0.649250885728231
2.93610744219854
1.02061433455109
0.640831513124636
0.492261948167206
2.87337498767107
0.995744060010179
0.628624662703561
0.487535663339473
0.415001931712867
2.81170749733861
0.973621730848971
0.615161910352178
0.480379586490208
0.411757300444291
0.371396336368191
2.74276330912458
0.95236493780898
0.601777825199384
0.471694886436719
0.406793868553544
0.368752350178595
0.344675090916058
2.66321672491305
0.928973304820855
0.588130873730834
0.462165324477228
0.400424612134992
0.364785491625641
0.342239400588697
0.327404352855881
0.901130463811542
0.573149301508041
0.451881596233947
0.393003439464649
0.359612074774448
0.338725831095914
0.325026537595929
0.31583604868706
3.1365277885929
3.07905758559835
1.06798506740594
3.01472442401718
1.04941778519944
0.651511614618691
2.94815275622556
1.02485702244245
0.643482235461006
0.494252878874241
2.88743674539121
1.00067342593337
0.631708957427104
0.489862701865592
0.416907264553496
2.82807037314067
0.979338800446892
0.618728438235426
0.48307734945317
0.413970200814338
0.373291956242443
2.76162606386017
0.958970777316285
0.60588001185262
0.474793748459891
0.409339908503822
0.37093414987255
0.346593203352454
2.68439409714135
0.936570037724605
0.592829556629893
0.465695015874714
0.403319035483331
0.367267354285414
0.344423038364519
0.329357463269454
2.60064467080746
0.910179943281342
0.578564024034477
0.455885806604417
0.396263697752216
0.36239575247768
0.341172109401921
0.327223981766225
0.317837410347516
0.562046843597677
0.445085017160624
0.388369576142298
0.356537965017098
0.336907835629617
0.324164925940099
0.315704833457025
0.309967437891498
3.14284452647397
3.08643963623019
1.07059282525507
3.02337104177389
1.05248093450963
0.653416938074301
2.95828775060869
1.02843598730991
0.645723408643727
0.495940307231659
2.89931282055452
1.00484723081611
0.634327387075406
0.491843377091779
0.418534104625939
2.84193411880605
0.98419838984991
0.621770965948127
0.485385764249369
0.415869671624584
0.374925118488332
2.77769897099986
0.964609080007854
0.609398273532111
0.477462838867325
0.411540328536097
0.372825767445139
0.348262509808665
2.70251365073647
0.943074274011926
0.596880424144232
0.468757067470761
0.405842195144698
0.369437809401817
0.346336607457113
0.331073486812654
2.61974852751588
0.917868845810163
0.583226488003896
0.459379500315516
0.399128340061177
0.364854815918722
0.343339226890834
0.329167529144832
0.319601269614786
2.1947957044284
0.886242506942468
0.567563056447434
0.449081079825498
0.391606106788779
0.359296879075806
0.339326124979062
0.326328895766655
0.317677480981685
0.311786586288471
0.437505690601579
0.383297847131508
0.352976745579869
0.334476622812617
0.322640494893319
0.314930225593379
0.309850762373932
0.306405031156579
3.14818168261767
3.09264944113189
1.07278225959912
3.03063588297125
1.05505330506183
0.655018957915924
2.96680363514464
1.03144691284422
0.647612352268267
0.497365442872256
2.90931171227439
1.00836945560344
0.636542158338442
0.493522347134154
0.419916869030737
2.85364298465195
0.988315190696075
0.624355865959393
0.487351851968093
0.417491890916906
0.376324555697855
2.79132042257796
0.969403020223341
0.612401850232807
0.479749266561271
0.413430981999883
0.374456229788591
0.34970673403042
2.7181618410896
0.948623027804704
0.600354414591331
0.471396968254878
0.40802655369694
0.371322956203242
0.348003698127549
0.332573991324015
2.63460943510068
0.924084142018036
0.587234726308928
0.462409246240976
0.401628417101342
0.367011131725378
0.34524533165427
0.330880001270256
0.321158964143023
2.57830706697533
0.895162688931558
0.57226156889601
0.452551731137859
0.394447758922124
0.361736773162473
0.341476887876611
0.32825864784631
0.319432447293015
0.313397544310973
2.19479887016824
0.840121653202253
0.554503878482406
0.441542327524868
0.386529359310039
0.355722512798007
0.3368788813838
0.324781591019083
0.316871680472083
0.311641863751385
0.308074835300432
0.377812998269055
0.349100779739287
0.331661575764432
0.320630121406654
0.31359224000624
0.309138360807349
0.306305322355577
0.304413861407623
3.15272619727778
3.09789565945123
1.07462315585124
3.0367452408445
1.05721301936243
0.656364331153448
2.97395223810421
1.03397634645121
0.64920065525838
0.498565736053172
2.9177102888405
1.01133392476399
0.638409479916509
0.494940470148643
0.421087578619232
2.86349873937772
0.991791058867305
0.626543601407053
0.489019285140646
0.418870932052849
0.377517714893515
2.80281912096149
0.973464999120473
0.614955334108062
0.481698302152505
0.415046786772234
0.375853681490008
0.350948814136579
2.73148464763851
0.95333967118983
0.603320386922678
0.473660279856077
0.409905669863084
0.372949563614606
0.349446693317634
0.333877602487725
2.64922815909211
0.929646977407355
0.59066580150684
0.465021186549838
0.403795073091934
0.368887409356724
0.346909112008138
0.332379096206916
0.322527361863354
2.19480171766642
0.89953625639368
0.576203324318226
0.455554931128318
0.396927010206972
0.363878916621172
0.343374093745629
0.329965791061084
0.320987103423966
0.314827235160621
2.194803888611
0.864858085357432
0.559362515892138
0.445006093988048
0.389355162960534
0.358149025295057
0.339017829497452
0.326699126317929
0.318614542196419
0.313244370746154
0.309560038884189
2.19512089319289
0.809585233020216
0.53815003294277
0.433170737511606
0.381071283443542
0.351848936362004
0.334059714627792
0.322761656844313
0.315514403471551
0.310899868530696
0.307947570956981
0.305960455489876
0.345043443948208
0.328664455940767
0.318360377963705
0.31188404418384
0.307940059670612
0.305647840392946
0.304332719548933
0.303504099985782
3.15663998166248
3.10236276133719
1.07617722370006
3.04190663285959
1.05902858262771
0.657494538670137
2.9799645937956
1.0360997061098
0.650534527842055
0.499575004359773
2.92476199127526
1.01382452352485
0.639980096980467
0.496134930212191
0.422075742970148
2.87177922521995
0.994717493457315
0.628389122360385
0.490428250096023
0.420038604070249
0.378530712783175
2.81249831766129
0.976895497701232
0.617117807437758
0.483352448853895
0.416421107915858
0.377045334281987
0.352011287873362
2.74272664196432
0.957335285806316
0.605842530439312
0.475591073759523
0.41151309796071
0.374344706724436
0.350688018945648
0.335002892698677
2.66218047291802
0.93432160896623
0.593591791308055
0.467260940121469
0.405660701518657
0.370508429304848
0.348350847814192
0.333682149709792
0.323721090159835
2.5750722747317
0.906526185681259
0.579626183691826
0.45814060012817
0.399075888778775
0.365744982861132
0.345033317816444
0.331463306626412
0.322354512811967
0.316088815653505
2.19480747205142
0.850309380231832
0.563081668102932
0.447982588557844
0.391816164904796
0.360278801547572
0.340907043561368
0.328400748289058
0.320165203369813
0.314671374821141
0.310884203549643
2.19512619639575
0.815804388855616
0.543818799656062
0.436610425467229
0.383882396733336
0.354267492363981
0.336193147116812
0.324672831844133
0.317247989367922
0.312491496834211
0.30942468387677
0.307341308655697
2.1948496692132
0.789177245793566
0.521957393029732
0.42391177797371
0.375334781384984
0.34782235744514
0.331074101467314
0.320495552576279
0.31380172244715
0.309685016622945
0.307261731775842
0.305852145411462
0.304949002671474
0.325664373447596
0.316038963038723
0.310033773222711
0.306467655590204
0.304565819877731
0.30372613760496
0.303441279194509
0.303335147372062
3.16006318194704
3.10621106520105
1.07749826416997
3.04630064612198
1.06056078015103
0.65844625451831
2.98504502842994
1.03788464610456
0.651655024253275
0.500423539334095
2.93069270393405
1.01591583600296
0.641299370084775
0.497139333067528
0.422908286745236
2.87873246216034
0.997176569471116
0.629942066481456
0.491615428258471
0.421024271472271
0.379387960836748
2.82063131132066
0.979784585229248
0.618943020575665
0.484751047011481
0.41758529321273
0.378057139534479
0.35291601918901
2.75218783237284
0.960709944569777
0.607979301979292
0.477230882025434
0.412881330660711
0.375535037375619
0.351749996758865
0.335968675372509
2.67314585342287
0.938245381976357
0.596078741716649
0.469172344593049
0.407257925526949
0.371900116227878
0.349592000496068
0.334807250575732
0.324755297409288
2.58729700698486
0.911500608851727
0.582527360185334
0.460356110008624
0.400926915441461
0.367358798674668
0.346473026172834
0.33276651885351
0.323548037806064
0.317193728865748
2.1948071299934
0.87504431872453
0.566723869085127
0.450549972930736
0.393947758604786
0.362134500767747
0.34256124440364
0.329896489051099
0.321532118480285
0.315932262917277
0.312057584931501
2.19513173342592
0.818328400394194
0.546383554527253
0.439546389615772
0.386324309835195
0.356386539417423
0.338076787385119
0.326371045151385
0.318795551334637
0.313915495489262
0.31074646287607
0.308577533104591
2.19485276903839
0.793375289733906
0.526205533616885
0.427371772954718
0.378101412300782
0.350231750363756
0.333207822203166
0.322407849453836
0.315533250568533
0.311269663908431
0.308728961620196
0.307225224891041
0.306243022962656
2.19192800044391
0.769747695628212
0.5081858671437
0.414666974444546
0.369455332597411
0.343838446340352
0.328114468181808
0.318194695290732
0.311961726107459
0.308212263799168
0.306165369661001
0.305218203408892
0.304859323085536
0.304696387144709
0.313864578818914
0.308250119977955
0.304954095054056
0.303287693102052
0.302745071130173
0.302881196881991
0.303289244165787
0.303663480678681
3.1631177101287
3.10958308817548
1.07863311478044
3.05008575171099
1.06186279119645
0.659251609013354
2.98936881266937
1.0393906934465
0.652598457720423
0.501138250938535
2.93570187424464
1.01767395366113
0.642407722168053
0.497983784377181
0.423609535665014
2.88457736230545
0.999241681502355
0.631246946546284
0.492613991746978
0.421854748779301
0.380112006670776
2.8274570493912
0.982212679861779
0.620479569707066
0.485930110383401
0.418568377639831
0.378913429140521
0.353683817373417
2.76012923407608
0.96355269922326
0.60978360397925
0.478618237485676
0.414041107032259
0.376546160001469
0.3526543823864
0.336793604119278
2.68233998991901
0.941549089143574
0.598185688893238
0.470796462284145
0.408618492291606
0.373088418223575
0.350654404834284
0.335773003627769
0.325645833706557
2.59801970529648
0.915609168531766
0.584978106908373
0.46224634311144
0.402512457172459
0.368745520650424
0.347713656058549
0.333892609756589
0.324582351106058
0.318154374919228
2.19480278064444
0.88234302915401
0.5696775255499
0.452744701985625
0.395783546195383
0.363740147496241
0.343998087999192
0.331199969787172
0.322726694940573
0.317037226104399
0.313089095801266
2.1951268519276
0.823744004835385
0.551172067588589
0.442126554961978
0.38843960954466
0.358232108428575
0.339726458357068
0.327865605155569
0.320162697453907
0.315176707432551
0.311919411374756
0.309677178131001
2.19485591281545
0.796790345290521
0.529564919874301
0.430205437382256
0.380518124684493
0.352338670107788
0.335087987234188
0.324106152256796
0.317081032484278
0.31269248123806
0.310048564518421
0.308459339510787
0.307405604240227
2.19192860642939
0.773515419485991
0.511765630812036
0.417878071270903
0.37219771894234
0.346212412126414
0.330248275652412
0.32011511346287
0.313700035913463
0.309798395851793
0.307627512755403
0.306582245796027
0.306145843700723
0.305918196968429
2.18619166013384
0.748426771256719
0.495563887785284
0.40643384222705
0.363976794543548
0.340105320605972
0.325425441169756
0.316071403418783
0.3102068614358
0.306714618990704
0.304890318177822
0.304224605763355
0.304272687184079
0.304623865404066
0.304956185648787
0.306741633423814
0.303609429764342
0.302052494957051
0.301631567521882
0.301988498104141
0.302770676261056
0.303632621545096
0.304312218841879
3.16590509495065
3.11260221415551
1.07962274690254
3.05340412254279
1.06298115977931
0.659938591499713
2.99309124081744
1.04067000803523
0.653396661227702
0.501742837340758
2.93996324738676
1.01915709635704
0.643340897145547
0.498695034018976
0.42420124802132
2.88950998313885
1.00097794170451
0.63234345104302
0.493453700248319
0.422554270777269
0.380723407465441
2.83318549642338
0.984252061108363
0.621771170867391
0.486922279375998
0.41939692887973
0.379636693470495
0.354334147568788
2.76676988679207
0.965942509827689
0.611303277638696
0.479788472429645
0.415021010880418
0.37740218091156
0.353421927802922
0.337495761248241
2.69003905542289
0.944330757860964
0.599965622086581
0.472171243525338
0.409772542417213
0.374098471360909
0.351559540231542
0.336597978562137
0.326408852580055
2.60701338965581
0.91891220068895
0.58704957443178
0.463852647649544
0.403863833423157
0.369930498591207
0.348776440008344
0.334859739096259
0.325473118258159
0.318984242245004
2.58260502367957
0.888877354682478
0.572158863979021
0.454612754065825
0.397356227327009
0.36512067915622
0.34523736210472
0.332327429346758
0.323762732908899
0.317998197307583
0.313988928139263
2.19512450376666
0.829708786436041
0.554450134977002
0.444312304175213
0.390260387053701
0.359829182373878
0.341160111684144
0.329169430771332
0.321359204692927
0.316283402811593
0.312951197202151
0.310647179943998
2.19485307998173
0.799947314268775
0.532901530688191
0.432847618436411
0.382619982501473
0.354173924968279
0.336733910021885
0.325600992175987
0.318450047606179
0.313955529085111
0.311222535606474
0.309558793701091
0.308443198406821
2.19192771322412
0.776744450778515
0.514875488246043
0.420663149472466
0.374585034000273
0.348302474782071
0.332124400985405
0.321816649059574
0.315252722759282
0.311224445156099
0.308947546962672
0.307814911998728
0.307306564880263
0.307019028221537
2.18619186705456
0.752045330678901
0.498835249127908
0.409414832184538
0.366648936503168
0.342471611673384
0.327537449231979
0.318001463101602
0.311960344695068
0.308312373520495
0.306356923115029
0.305585157725844
0.305550891182105
0.305838408226611
0.306118066649666
2.18721696261348
0.725195960671247
0.483893222793004
0.39975308544279
0.359650111513221
0.337137110005472
0.323262385058457
0.314398754530188
0.30875943112934
0.305405930826694
0.303675791716083
0.303117007716582
0.303368932127873
0.304079386288258
0.304898891211422
0.305548955375826
0.30264867008331
0.301072541172012
0.300630583701118
0.301016071009785
0.301955030582897
0.303150468539704
0.304294453336965
0.305151993525232
3.16848351826101
3.11536820392422
1.0805021130656
3.05637914990661
1.06395676346743
0.660531650881331
2.99635645366544
1.04176858694832
0.654077383124049
0.502258056742241
2.94362949199658
1.02041634457348
0.644130244262047
0.499296644897691
0.42470269176557
2.89370326196648
1.00244235483727
0.633266674690242
0.49416101080723
0.423144519053012
0.381240726927849
2.83801590354154
0.985966404889857
0.62285679616514
0.487756875582166
0.420094982984202
0.380247450333103
0.354884935969998
2.77232653039951
0.967951445169555
0.612581218259035
0.480773680309531
0.415847258362513
0.378125428760421
0.354072062781904
0.338092284395529
2.6963625498531
0.946676642660982
0.601465953492165
0.473331497860069
0.410748177422329
0.374954053123581
0.352327986973499
0.337300209765714
0.327060276630226
2.61433201721448
0.921645797879426
0.58880031142501
0.465212959674667
0.405010722578723
0.370938405634375
0.349682477769026
0.335686238892867
0.326236399011025
0.319697439298381
2.59293458433998
0.89270171530698
0.574217132187628
0.456198762512244
0.398697047595697
0.366301084276573
0.346299806950269
0.333296490006902
0.324655482111529
0.318828479689932
0.314768655561832
2.19511912672285
0.857500518557786
0.557320617725941
0.446168498957688
0.391819387843549
0.361202810742546
0.342397398048769
0.330298202445396
0.322397985230241
0.317246664441146
0.313851549858425
0.311495972871108
2.19485103008124
0.803034443990341
0.53597620576016
0.435049231801441
0.384426556264393
0.355762373665414
0.338164575363322
0.326905688336794
0.319649452331172
0.315065496397363
0.312256642509837
0.310529281545648
0.309361241673131
2.19193030732367
0.779508430461822
0.517595014134118
0.423115555597665
0.376672810206311
0.350127331136733
0.333766970862172
0.323313467784027
0.31662609525377
0.31249190963678
0.310124722128603
0.308916013775247
0.308344190527874
0.308004250871924
2.18619074015547
0.755140223158203
0.501682785742679
0.412027793447468
0.368989947010223
0.344550421503742
0.329406925298617
0.319707008618871
0.313522266143664
0.309747463414328
0.307682751547043
0.306819643470594
0.306710803468261
0.306937597309471
0.307167132766779
2.18721690518297
0.728713182936003
0.487018608675042
0.402583839150771
0.362243858889505
0.339490145635938
0.325385728796356
0.316319982026268
0.310531307243325
0.307025031593474
0.305158149630077
0.304484533581676
0.304644989325414
0.305286217721105
0.306053696831829
0.30666116809407
2.21610714181855
0.703024835739681
0.474678802526167
0.395713589103789
0.357448199785086
0.335684602451103
0.322166862332287
0.313466364446497
0.307910721600974
0.304515028134789
0.302737951705351
0.302140657165399
0.302404721949804
0.303253865315736
0.304391329928071
0.30550489399768
0.306342999658815
0.300567941962574
0.29995701642177
0.300213938180394
0.301103818594789
0.302401581474053
0.303843862929364
0.305145466773794
0.306088116411394
3.17085121543133
3.11791857387085
1.08129658012405
3.05911158252691
1.06482453799679
0.661052227772125
2.9992851078646
1.04272717764589
0.654664865114478
0.502702153303
2.94684246790397
1.02149732583073
0.644803140365417
0.499809254214747
0.425130843376582
2.897305911171
1.00368502239664
0.634047416948376
0.494759239030588
0.423644700747591
0.381680450676366
2.84211898575988
0.987411693047427
0.62377089081076
0.48845998268848
0.420684056897307
0.38076420064623
0.355352462937369
2.77700825403059
0.96963731183745
0.613655559297112
0.48160271047444
0.416543605933835
0.378736298021829
0.354622688494922
0.338599119086831
2.70168314964027
0.948671857957133
0.602728909501436
0.474308763529514
0.411571226100449
0.375677249013356
0.352979060462501
0.337896809751793
0.327615402479504
2.61985374162451
0.924004958842212
0.590281328695599
0.466361771832471
0.405980815535701
0.371792660632491
0.350452096012274
0.336390002305464
0.326888077973666
0.320308151953855
2.59974667875904
0.895503104012976
0.575945797718962
0.4575425107892
0.399835479930434
0.367305668525057
0.347206155858548
0.334125160642061
0.325420781914029
0.319542098008793
0.315440717455879
2.19512448062885
0.863872577994172
0.55947728586094
0.447737206853012
0.393148428407837
0.362377798762057
0.343458783107128
0.331269130617
0.323293797329904
0.318079395705928
0.314631856340172
0.312233571389272
2.19484595929606
0.807931308455736
0.540342981755141
0.436935852782573
0.385972449606761
0.35712881761029
0.339399766308483
0.328035877253966
0.320691671328501
0.316032616765714
0.31315977937864
0.311378776008864
0.31016678967262
2.19192739202626
0.78192407143256
0.520006538491025
0.425242017322491
0.378464594084567
0.351707334041208
0.335195242340915
0.324620046954111
0.317829804601499
0.313606918264261
0.311163255858607
0.309889355742244
0.309262915371595
0.308878212158433
2.18619392223197
0.757783458337645
0.504132126268055
0.414291892898382
0.371026912088176
0.346365877999287
0.331047104305686
0.321207262046486
0.314902701791037
0.311022798430619
0.308866531510819
0.307925145189108
0.307750636553982
0.307923050006276
0.308108102313854
2.18721736716211
0.731714757142948
0.489724102402304
0.405055058705425
0.36451532205248
0.341555344589147
0.327258954767878
0.318029023743561
0.312104611271421
0.30847462535004
0.306496579662202
0.305727009710997
0.305807917783493
0.306385151861762
0.307101306229609
0.307666840915504
2.21610686072358
0.706448945103473
0.477734119189526
0.398469367116443
0.359990152290305
0.338026467533386
0.324307971932176
0.315415177256899
0.309685046554853
0.306160188867901
0.304246970588633
0.303527436649453
0.30368985924188
0.304459668645878
0.305538924481056
0.306610185478562
0.307413990901824
2.28699365889622
0.690253465756468
0.472751614033114
0.396990525960575
0.35905722952121
0.336905625164937
0.322936840056433
0.313849271902271
0.307975472660205
0.304345982566639
0.302310772693369
0.301514352045407
0.301630471002793
0.302412723643092
0.303633494744058
0.305029285396436
0.306310284435386
0.307241500827213
0.299835218721551
0.299799362297136
0.300471108920053
0.301654382369233
0.303152456028034
0.304721995163099
0.306091129398158
0.307051546647096
3.12018220874384
1.08202231311097
3.06162409251239
1.06560695657266
0.661519521105809
3.00197272520339
1.04358061581819
0.655180320880148
0.503091333056927
2.94972239777808
1.02244063219681
0.645383551330812
0.500250983221373
0.425500712330091
2.90045475312579
1.00475102984446
0.6347126439604
0.495268811667215
0.424071734313263
0.382057176035207
2.84562845246958
0.988637012290599
0.624543684644675
0.48905459832785
0.421183224424171
0.381203420491403
0.355751324038671
2.78098822080141
0.971057324858924
0.614560056780142
0.48230123766897
0.417131340090097
0.379253184799833
0.355090064320468
0.339030844683651
2.70616430725614
0.950303009894828
0.603789679758932
0.475131375279805
0.412265126083363
0.376288266527975
0.353530578965051
0.338403705308756
0.328088607672258
2.62455562584269
0.925966894682235
0.591537635575534
0.467330076971971
0.406799557291272
0.372515071013017
0.351104430628643
0.336988052269927
0.327443432875053
0.320830167918804
2.59676108673611
0.897754079654082
0.577437444230462
0.458679459579055
0.400798916367628
0.368157533030961
0.347976463051946
0.334831128442272
0.326074394439839
0.320153195240151
0.316017853017724
2.19512674179105
0.866697437480655
0.56122487841232
0.449065243576273
0.394277309418813
0.363378205174647
0.344364723016094
0.332099929459994
0.3240621951435
0.318795417020245
0.315304478145938
0.312871056536228
2.19485106355819
0.810574760726832
0.542797206420333
0.438501704059044
0.38728927507334
0.358297943831835
0.340459805157427
0.329008582978591
0.321591114019941
0.316869334751791
0.313942944749839
0.31211711216887
0.310868621076253
2.19192327368715
0.784219109363597
0.522437139375243
0.427208947019796
0.380000000893653
0.353066699177497
0.336428784008932
0.325752253005449
0.318876317225736
0.314579271311913
0.312071220183979
0.310742085057586
0.310069337213173
0.309646920437804
2.18619190833793
0.760044805014611
0.506244787802018
0.416247039772724
0.372784004778962
0.347937473970304
0.332474281945539
0.322517224066638
0.316112583430724
0.31214507886627
0.309911962039653
0.308903934765677
0.308672699225417
0.308797870099707
0.308944578680087
2.18721820985511
0.734287166764537
0.492050061528084
0.407191322585325
0.366488203197755
0.343356854919613
0.328901231780739
0.319535195183901
0.313494677971778
0.309761496740143
0.307691277452988
0.30684101465895
0.306853199106838
0.307373306927864
0.308042679029115
0.308570384585427
2.21610741556064
0.709375791251884
0.480374713004284
0.400865194788353
0.362209339897799
0.340077910207743
0.326191497431712
0.317141157588215
0.311270988702176
0.307627672383034
0.30560447784745
0.304785572006379
0.304862655653416
0.305562642102707
0.306586751765624
0.307614557741466
0.308383225978981
2.28698123859102
0.693606221202194
0.475779690781032
0.399733871664041
0.361590248786888
0.33925484916464
0.325104906996514
0.315837424777784
0.309790926657865
0.30600316054909
0.303852436063176
0.302932312038342
0.302937799151372
0.303629353692923
0.30478098114552
0.306127775592055
0.307374480960057
0.308278080558178
2.38167808075944
0.715404056021153
0.491796919626079
0.410105558778133
0.367900733841694
0.342807706837794
0.326845608764615
0.31639380025935
0.309557663720548
0.305232103272415
0.302707925093834
0.301476357659154
0.301267404804512
0.30181051190754
0.302897823137409
0.304329647500189
0.305862099402188
0.307218413297902
0.308173489827465
0.300000178595437
0.300276064457229
0.301166056065139
0.302494227648072
0.304079781118546
0.305690773106486
0.307062562919406
0.307992298852746
3.06379581947254
1.06631021313212
0.661952780867914
3.00442912354529
1.04434802685313
0.65564235221822
0.50344046198057
2.9523627092182
1.02328047191813
0.645892320988841
0.500637894252269
0.425825658166917
2.90327444191113
1.00568086343941
0.63528601399358
0.495707661332541
0.424440559609777
0.382383905109018
2.84868122304093
0.989686825609056
0.625201726767324
0.489560880417362
0.421609289883583
0.381579697851808
0.356094507010489
2.78441359403882
0.972260173923958
0.615324405996738
0.482891898175185
0.417629343990138
0.379692497393489
0.355488773967099
0.339400639517137
2.71001425420207
0.951678490461248
0.604682286181873
0.475824561925578
0.412850895593607
0.376805352428004
0.353998739568115
0.338835473118709
0.328493162619153
2.6289921010557
0.927486598138605
0.592576126502805
0.468145106673909
0.407490051204937
0.373125623461111
0.351657168838363
0.337496254853234
0.327916831089545
0.321276613025987
2.57760256311234
0.899901487543869
0.578680359174823
0.459640527842313
0.40161243191664
0.368878213722751
0.348629660911102
0.335431278471628
0.326631524987417
0.320675556217765
0.316512639675484
2.1951316293707
0.868471125060594
0.562702118492078
0.450197738787319
0.395233489786206
0.364226879312934
0.345135038024131
0.33280807689337
0.324718768090206
0.319408760245819
0.315882122994628
0.313419986199342
2.19485311275583
0.812335420352483
0.544514116016378
0.439820822399871
0.388408098973089
0.35929370394957
0.341364955016185
0.329841324863294
0.322363095215759
0.317589214527415
0.314618308157186
0.312755292469874
0.311476704406031
2.19192929954482
0.786039747869347
0.524268820297483
0.428776358222369
0.381304700926072
0.354229849090095
0.337487724382848
0.326727058333334
0.319779934767223
0.315421113487172
0.312859178961057
0.311483658217157
0.310772051826692
0.31031817877956
2.18619160196075
0.762002153691701
0.508109936272829
0.417968082242374
0.374304241917825
0.349289959508219
0.333707249911371
0.323652684698047
0.317164713976935
0.313124217638445
0.310826721670308
0.309762354934968
0.309482769152902
0.309567607882772
0.309681799088751
2.18722070558694
0.73648896253951
0.494045699045562
0.409029876615747
0.368190870100294
0.34491703278496
0.330329899723508
0.32085111103137
0.314713154791503
0.31089372787475
0.308746569173105
0.307828326014867
0.307781615067608
0.308251898342451
0.30888017079933
0.309374934719719
2.21610851709353
0.711896205400786
0.482648666911328
0.402935360143212
0.364135147606022
0.341865461315048
0.327840217346373
0.31866025425107
0.312674554401938
0.308929671573941
0.306814621065942
0.305913138534365
0.30591808684033
0.30655715837745
0.30753125840575
0.308518653547806
0.309255058311601
2.28699400985074
0.696524309363721
0.478410516156814
0.402115751932845
0.363795185380938
0.341307484759279
0.327007159786181
0.317591422775889
0.311405074181054
0.307491235521681
0.305233477877213
0.304213459193496
0.304128863975621
0.304743788709511
0.305833714224867
0.307132766051589
0.308342546824712
0.309216566476723
2.38166506997839
0.718825801237238
0.494894102505115
0.412902311720323
0.370478979780133
0.345198078039679
0.329059913600478
0.318434777858727
0.311429125339253
0.306941746663748
0.304269659978526
0.302932549543945