/*--------------------------------*- C++ -*----------------------------------*\
  =========                 |
  \\      /  F ield         | OpenFOAM: The Open Source CFD Toolbox
   \\    /   O peration     | Website:  https://openfoam.org
    \\  /    A nd           | Version:  12
     \\/     M anipulation  |
\*---------------------------------------------------------------------------*/
/*   Windows 32 and 64 bit porting by blueCAPE: http://www.bluecape.com.pt   *\
|  Based on Windows porting (2.0.x v4) by Symscape: http://www.symscape.com   |
\*---------------------------------------------------------------------------*/
FoamFile
{
    format      ascii;
    class       volScalarField;
    location    "200";
    object      p;
}
// * * * * * * * * * * * * * * * * * * * * * * * * * * * * * * * * * * * * * //

dimensions      [0 2 -2 0 0 0 0];

internalField   nonuniform List<scalar> 
10152
(
83333.3319199711
83333.3318739137
83333.3319201927
83333.3319196408
83333.331826553
83333.3318741115
83333.3318735732
83333.331920589
83333.3319199517
83333.3319210229
83333.3317779941
83333.3318267448
83333.3318262113
83333.3318745032
83333.3318738636
83333.3318748414
83333.3319211602
83333.3319203892
83333.3319213856
83333.3319260124
83333.3317282871
83333.3317781923
83333.3317776623
83333.3318271447
83333.3318264829
83333.3318273878
83333.3318751091
83333.3318743038
83333.3318752063
83333.3318795342
83333.331921924
83333.3319209938
83333.3319218822
83333.3319263118
83333.3319348846
83333.3316774609
83333.3317284961
83333.3317279714
83333.3317786104
83333.3317779288
83333.3317787731
83333.3318277868
83333.3318269253
83333.3318277342
83333.3318318516
83333.3318759496
83333.3318749474
83333.3318757336
83333.3318798832
83333.3318879819
83333.3319228981
83333.3319217931
83333.3319225524
83333.331926857
83333.3319350946
83333.331947286
83333.3316255297
83333.3316776823
83333.3316771645
83333.3317289369
83333.3317282419
83333.3317290413
83333.3317792925
83333.3317783807
83333.3317791082
83333.3317830584
83333.3318286988
83333.3318276021
83333.3318282631
83333.3318321985
83333.331839961
83333.3318770405
83333.3318758254
83333.3318764599
83333.3318804937
83333.3318882593
83333.3318998744
83333.3319240764
83333.3319228003
83333.3319233949
83333.3319275723
83333.3319355562
83333.3319473861
83333.3319626765
83333.331572499
83333.3316257636
83333.3316252536
83333.3316781473
83333.3316774426
83333.3316782132
83333.3317296603
83333.3317287107
83333.3317293761
83333.3317331917
83333.3317802732
83333.3317790917
83333.3317796402
83333.3317833983
83333.3317909009
83333.3318299
83333.331828549
83333.3318290239
83333.3318328234
83333.3318402481
83333.3318514435
83333.3318783803
83333.3318769575
83333.3318773924
83333.3318812879
83333.3318888349
83333.3319000516
83333.331914709
83333.331925384
83333.3319240196
83333.3319244333
83333.3319284345
83333.3319362756
83333.3319477146
83333.3319626965
83333.3319805434
83333.3315183679
83333.3315727449
83333.3315722428
83333.3316262525
83333.3316255406
83333.3316262955
83333.3316789113
83333.3316779324
83333.3316785533
83333.3316822683
83333.3317307055
83333.3317294578
83333.33172992
83333.3317335357
83333.33174083
83333.3317815768
83333.3317801033
83333.3317804304
83333.3317840298
83333.3317911874
83333.3318020613
83333.3318313955
83333.3318297883
83333.3318300277
83333.3318336617
83333.3318408705
83333.3318516422
83333.3318658292
83333.331879919
83333.3318783547
83333.3318785662
83333.3318822596
83333.3318896553
83333.3319005196
83333.3319148051
83333.3319320005
83333.3319254128
83333.3319257002
83333.3319294756
83333.3319371103
83333.3319483365
83333.3319628977
83333.3319805318
83333.3320004642
83333.3314631293
83333.3315186264
83333.3315181313
83333.3315732576
83333.3315725394
83333.3315732895
83333.3316270559
83333.3316260526
83333.3316266436
83333.3316302912
83333.3316800165
83333.3316787175
83333.3316791148
83333.3316826239
83333.3316897611
83333.3317320993
83333.3317305311
83333.3317307425
83333.3317341797
83333.3317411243
83333.331751748
83333.3317832138
83333.3317814393
83333.3317814972
83333.3317848998
83333.3317918367
83333.3318022688
83333.3318160989
83333.3318331874
83333.3318313359
83333.331831311
83333.3318347156
83333.3318417469
83333.331852179
83333.3318659533
83333.3318826588
83333.3318815072
83333.3318799884
83333.3318800256
83333.3318834538
83333.33189062
83333.3319012719
83333.3319151584
83333.3319320575
83333.3319513432
83333.3319271873
83333.3319307449
83333.3319381054
83333.3319490725
83333.3319633569
83333.3319806327
83333.3320004457
83333.3320220673
83333.3314067701
83333.3314634014
83333.3314629121
83333.331519164
83333.3315184382
83333.3315191911
83333.3315741007
83333.3315730743
83333.3315736471
83333.3315772567
83333.3316282186
83333.3316268764
83333.3316272257
83333.3316306619
83333.3316376936
83333.3316814898
83333.3316798491
83333.3316799731
83333.3316832857
83333.3316900694
83333.3317005117
83333.331733851
83333.3317319537
83333.3317318688
83333.3317350827
83333.3317418029
83333.3317519705
83333.3317655313
83333.3317852014
83333.3317831156
83333.3317828748
83333.3317860209
83333.3317927518
83333.3318028506
83333.331816239
83333.3318325775
83333.3318353255
83333.331833211
83333.3318329154
83333.3318360309
83333.3318428098
83333.3318530087
83333.3318663916
83333.331882746
83333.331901547
83333.3318833526
83333.3318817553
83333.3318817699
83333.3318849357
83333.3318917921
83333.3319021627
83333.3319157753
83333.3319323157
83333.3319513888
83333.3319723886
83333.3319322492
83333.3319393139
83333.3319499561
83333.3319639324
83333.3319809129
83333.3320004655
83333.3320220366
83333.3320450192
83333.3313492698
83333.331407056
83333.3314065691
83333.3314639661
83333.3314632297
83333.3314639905
83333.3315200488
83333.3315189973
83333.3315195592
83333.3315231564
83333.3315753215
83333.3315739382
83333.3315742514
83333.3315776444
83333.3315846183
83333.3316297679
83333.3316280652
83333.331628122
83333.3316313456
83333.331638019
83333.3316483465
83333.3316833389
83333.3316813523
83333.331681158
83333.3316842252
83333.3316907816
83333.3317007535
83333.3317141281
83333.3317359675
83333.331733737
83333.3317333315
83333.3317362658
83333.3317427549
83333.3317525961
83333.3317656924
83333.3317817634
83333.3317876264
83333.331785159
83333.3317845983
83333.3317874364
83333.3317938931
83333.3318037329
83333.3318167368
83333.331832685
83333.3318511305
83333.3318379679
83333.3318354191
83333.3318348735
83333.331837668
83333.3318441225
83333.3318540181
83333.3318671059
83333.3318830996
83333.3319016232
83333.3319221604
83333.3318869172
83333.3318838394
83333.3318837236
83333.3318867189
83333.3318932425
83333.3319032535
83333.3319165335
83333.3319327735
83333.3319515674
83333.3319724231
83333.3319948177
83333.3319407454
83333.3319510317
83333.331964639
83333.3319812892
83333.3320005728
83333.3320219933
83333.3320449681
83333.3320690083
83333.3312906019
83333.3313495699
83333.3313490805
83333.331407649
83333.3314068987
83333.3314076705
83333.3314648941
83333.3314638131
83333.3314643703
83333.3314679764
83333.331521329
83333.3315199015
83333.3315201872
83333.3315235617
83333.3315305211
83333.3315769467
83333.3315751843
83333.3315751873
83333.3315783524
83333.3315849623
83333.3315952373
83333.3316317089
83333.3316296456
83333.3316293657
83333.3316323245
83333.3316387681
83333.3316486098
83333.3316618773
83333.3316855608
83333.3316832327
83333.3316827023
83333.3316854696
83333.3316917726
83333.3317014247
83333.3317143134
83333.331730211
83333.3317384689
83333.3317358956
83333.3317351588
83333.3317377711
83333.3317439665
83333.3317535258
83333.3317662456
83333.3317818963
83333.3318000922
83333.3317906305
83333.3317876093
83333.331786695
83333.3317891973
83333.3317953209
83333.3318048378
83333.3318175195
83333.331833107
83333.3318512324
83333.3318714356
83333.3318411336
83333.3318380111
83333.3318371549
83333.3318396681
83333.3318457515
83333.3318552757
83333.3318680073
83333.331883672
83333.3319019011
83333.3319222316
83333.3319441918
83333.3318900441
83333.3318870878
83333.3318860107
83333.331888745
83333.3318949864
83333.3319046084
83333.3319174833
83333.3319333625
83333.3319518669
83333.3319725243
83333.3319948354
83333.3320183152
83333.3319523039
83333.3319655078
83333.3319817636
83333.332000732
83333.3320219388
83333.3320448508
83333.3320689211
83333.3320937336
83333.3312307347
83333.3312909166
83333.3312904201
83333.3313501922
83333.3313494237
83333.3313502078
83333.3314086225
83333.331407508
83333.3314080633
83333.3314116961
83333.3314662355
83333.33146476
83333.331465023
83333.3314684
83333.331475384
83333.3315230293
83333.3315212064
83333.3315211641
83333.3315242956
83333.3315308844
83333.3315411638
83333.3315789761
83333.3315768402
83333.3315764905
83333.331579373
83333.33158575
83333.3315955227
83333.3316087569
83333.3316340291
83333.3316316197
83333.3316309905
83333.3316336313
83333.3316398007
83333.3316493278
83333.3316620879
83333.3316779007
83333.3316881378
83333.3316854919
83333.3316846291
83333.3316870616
83333.3316930522
83333.3317024018
83333.3317149203
83333.3317303732
83333.3317484169
83333.3317413775
83333.3317384341
83333.3317373684
83333.3317396423
83333.331745496
83333.3317547149
83333.3317670886
83333.3317823789
83333.3318002276
83333.3318202019
83333.3317936267
83333.331790479
83333.3317891666
83333.3317913355
83333.3317970923
83333.3318062322
83333.3318185371
83333.3318337632
83333.3318515747
83333.3318715372
83333.3318931978
83333.3318438761
83333.3318410719
83333.3318397527
83333.331841991
83333.331847738
83333.3318568414
83333.3318691551
83333.3318844303
83333.3319023313
83333.3319224281
83333.331944246
83333.3319673535
83333.3318929404
83333.3318902137
83333.3318889634
83333.3318910971
83333.3318969724
83333.3319062365
83333.3319186752
83333.3319341202
83333.3319522667
83333.3319726798
83333.3319948524
83333.3320183055
83333.3320426235
83333.3319665366
83333.3319823583
83333.3320009321
83333.3320218596
83333.3320446354
83333.3320687167
83333.3320936072
83333.3321189408
83333.3311696353
83333.331231064
83333.3312305562
83333.3312915693
83333.3312907774
83333.331291574
83333.3313512138
83333.3313500607
83333.3313506146
83333.3313542894
83333.3314100291
83333.3314085
83333.3314087421
83333.3314121384
83333.3314191804
83333.3314680146
83333.3314661267
83333.3314660431
83333.3314691606
83333.3314757698
83333.3314861016
83333.3315251451
83333.3315229384
83333.3315225284
83333.3315253601
83333.3315317104
83333.3315414712
83333.3315547405
83333.3315813897
83333.3315789047
83333.3315781948
83333.3315807435
83333.3315868268
83333.3315962883
83333.3316089927
83333.3316248023
83333.3316366967
83333.3316339783
83333.3316330158
83333.3316353097
83333.3316411487
83333.3316503539
83333.331662747
83333.3316780956
83333.331696077
83333.3316910235
83333.3316881161
83333.3316869481
83333.3316890403
83333.3316946785
83333.3317036704
83333.3317158216
83333.3317309082
83333.3317485841
83333.3317684407
83333.3317444757
83333.3317413259
83333.3317399516
83333.3317419032
83333.3317473941
83333.3317562293
83333.331768208
83333.3317831091
83333.3318006196
83333.3318203346
83333.3318418108
83333.3317963132
83333.3317935021
83333.3317919813
83333.3317938455
83333.3317992392
83333.3318079677
83333.3318198484
83333.3318346604
83333.3318521059
83333.3318717907
83333.3318932765
83333.3319161326
83333.3318467561
83333.3318440356
83333.3318427569
83333.3318446159
83333.3318500392
83333.3318587497
83333.3318705964
83333.3318854205
83333.3319029267
83333.3319227251
83333.3319443615
83333.3319673765
83333.3319913746
83333.3318957221
83333.331893248
83333.3318920551
83333.3318938919
83333.3318992643
83333.3319080877
83333.3319201106
83333.3319350861
83333.3319527929
83333.3319728748
83333.3319948582
83333.3320182509
83333.33204258
83333.3320674967
83333.3319830677
83333.3320011985
83333.3320217608
83333.3320443161
83333.3320683428
83333.3320933134
83333.3321187753
83333.3321444131
83333.3311072743
83333.3311699789
83333.3311694544
83333.3312317486
83333.3312309276
83333.3312317353
83333.3312926418
83333.3312914441
83333.3312919956
83333.3312957254
83333.3313526895
83333.3313511004
83333.3313513215
83333.331354751
83333.3313618809
83333.3314118938
83333.3314099321
83333.3314098079
83333.3314129275
83333.3314195878
83333.3314300205
83333.3314702235
83333.3314679384
83333.3314674712
83333.3314702713
83333.3314766267
83333.3314864311
83333.3314997983
83333.3315276481
83333.3315250915
83333.3315243129
83333.3315267961
83333.3315328339
83333.3315422835
83333.3315550016
83333.3315708827
83333.3315841488
83333.3315813592
83333.3315803164
83333.3315825084
83333.3315882446
83333.3315973649
83333.3316097033
83333.331625028
83333.3316430363
83333.3316396596
83333.3316367011
83333.3316354452
83333.3316373961
83333.331642871
83333.331651701
83333.3316637065
83333.3316786733
83333.3316962765
83333.331716112
83333.3316942193
83333.3316910659
83333.3316896481
83333.3316914246
83333.3316966983
83333.3317052971
83333.3317170356
83333.3317317098
83333.3317490264
83333.3317685985
83333.331789997
83333.331747485
83333.3317444701
83333.331742879
83333.331744548
83333.3317496859
83333.331758115
83333.3317696622
83333.3317841279
83333.3318012423
83333.3318206437
83333.3318419129
83333.3318646323
83333.3317992674
83333.3317964644
83333.331795078
83333.3317966845
83333.3318017546
83333.3318100701
83333.3318214925
83333.3318358439
83333.3318528637
83333.3318722056
83333.3318934539
83333.3319161801
83333.3319399865
83333.3318496573
83333.3318471093
83333.3318458966
83333.3318475935
83333.3318526316
83333.3318609559
83333.3318723567
83333.3318866782
83333.3319037212
83333.331923145
83333.3319445278
83333.3319674135
83333.3319913659
83333.3320160317
83333.3318983761
83333.3318962286
83333.3318952141
83333.3318969452
83333.3319019301
83333.3319102208
83333.3319217392
83333.3319362564
83333.3319534802
83333.3319731414
83333.3319948474
83333.332018113
83333.3320424462
83333.3320674182
83333.3320927256
83333.3320015258
83333.3320216612
83333.332043902
83333.3320677835
83333.3320927818
83333.3321183939
83333.3321442097
83333.332169967
83333.331043627
83333.3311076305
83333.331107087
83333.3311706972
83333.331169839
83333.3311706553
83333.3312328764
83333.3312316258
83333.3312321718
83333.3312359673
83333.331294191
83333.3312925342
83333.3312927323
83333.3312962063
83333.3313034511
83333.331354645
83333.3313526019
83333.3313524357
83333.3313555703
83333.3313623097
83333.3313728871
83333.3314142106
83333.3314118306
83333.3314113037
83333.3314140868
83333.3314204784
83333.3314303714
83333.3314438943
83333.3314728268
83333.3314701862
83333.3314693399
83333.3314717759
83333.3314778019
83333.3314872874
83333.3315000871
83333.3315161063
83333.3315304826
83333.3315276386
83333.3315265299
83333.3315286487
83333.3315343237
83333.3315434127
83333.3315557601
83333.3315711376
83333.3315892555
83333.3315871943
83333.3315841793
83333.3315828528
83333.3315847017
83333.3315900631
83333.3315987913
83333.3316107212
83333.3316256496
83333.3316432671
83333.3316631731
83333.3316429819
83333.3316397612
83333.3316382683
83333.3316399057
83333.3316450117
83333.3316534373
83333.3316650122
83333.3316795466
83333.3316967645
83333.3317162947
83333.3317377157
83333.3316975633
83333.3316943395
83333.3316927
83333.3316942088
83333.3316991331
83333.3317073245
83333.3317186216
83333.3317328406
83333.3317497329
83333.3317689611
83333.3317901251
83333.3318128115
83333.3317506281
83333.3317476523
83333.3317461203
83333.3317475493
83333.3317523677
83333.331760392
83333.3317714849
83333.3317854801
83333.3318021429
83333.3318211611
83333.3318421519
83333.3318647049
83333.3318884265
83333.3318023108
83333.3317996319
83333.3317983159
83333.3317998416
83333.3318045955
83333.3318125301
83333.3318234866
83333.3318373409
83333.3318538827
83333.3318728114
83333.3318937524
83333.3319162868
83333.3319400027
83333.3319645396
83333.3318524605
83333.3318502139
83333.3318491777
83333.3318508141
83333.3318555567
83333.3318634378
83333.3318743897
83333.3318882221
83333.331904744
83333.3319237156
83333.3319447636
83333.3319674513
83333.3319913295
83333.3320159911
83333.3320411243
83333.3319008594
83333.3318991501
83333.3318984164
83333.3319001805
83333.3319049046
83333.3319127013
83333.3319236207
83333.3319375819
83333.3319543238
83333.3319735108
83333.3319948367
83333.332017885
83333.332042166
83333.3320672052
83333.3320926127
83333.3321181323
83333.3320215606
83333.3320434131
83333.3320670475
83333.3320919846
83333.3321177083
83333.3321437443
83333.3321697276
83333.33219545
83333.3309786823
83333.3310439965
83333.3310434306
83333.3311083856
83333.3311074819
83333.3311083076
83333.3311718871
83333.3311705703
83333.331171106
83333.3311749767
83333.3312345067
83333.3312327698
83333.3312329394
83333.3312364669
83333.3312438517
83333.3312962415
83333.3312941094
83333.3312938978
83333.3312970573
83333.3313039007
83333.3313146638
83333.3313570753
83333.3313545922
83333.3313540031
83333.331356781
83333.3313632354
83333.3313732595
83333.3313869911
83333.3314169538
83333.331414187
83333.3314132626
83333.3314156636
83333.3314217071
83333.3314312716
83333.3314442088
83333.331460434
83333.3314757505
83333.3314728393
83333.3314716588
83333.3314737198
83333.331479367
83333.3314884715
83333.3315008843
83333.3315163899
83333.3315346938
83333.3315335293
83333.3315305411
83333.3315291713
83333.331530949
83333.3315362399
83333.3315449198
83333.3315568382
83333.3315718029
83333.3315895164
83333.3316095796
83333.3315905923
83333.331587342
83333.3315857947
83333.3315873349
83333.3315923245
83333.3316006368
83333.331612118
83333.3316265926
83333.3316437996
83333.3316633806
83333.3316849181
83333.3316465731
83333.3316431827
83333.3316414652
83333.3316428337
83333.3316475898
83333.3316556035
83333.3316667252
83333.3316807849
83333.3316975518
83333.3317167081
83333.3317378686
83333.3317606226
83333.3317009139
83333.3316977757
83333.331696092
83333.3316973704
83333.3317019795
83333.3317097696
83333.3317206108
83333.3317343472
83333.3317507637
83333.3317695741
83333.3317904218
83333.3318129113
83333.3318366501
83333.3317538362
83333.3317509897
83333.3317495334
83333.3317508863
83333.3317554135
83333.3317630553
83333.3317736881
83333.3317871874
83333.3318033578
83333.3318219296
83333.3318425656
83333.3318648782
83333.3318884711
83333.3319129804
83333.3318052678
83333.3318028784
83333.3318017396
83333.3318032408
83333.3318077629
83333.3318153066
83333.3318258186
83333.3318391615
83333.3318551829
83333.3318736372
83333.3318941955
83333.3319164682
83333.3319400415
83333.3319645259
83333.3319895987
83333.3318550763
83333.33185328
83333.3318525375
83333.3318542383
83333.3318587742
83333.3318662402
83333.3318766752
83333.3318900052
83333.3319060113
83333.3319244636
83333.3319450902
83333.3319674953
83333.3319912388
83333.3320158819
83333.3320410518
83333.3320664788
83333.3319030805
83333.3319019639
83333.3319016349
83333.3319035568
83333.3319081255
83333.3319155049
83333.3319258255
83333.331939125
83333.3319552774
83333.3319739807
83333.3319948623
83333.3320175864
83333.3320417225
83333.3320667847
83333.3320923228
83333.3321179862
83333.3321435666
83333.3320428559
83333.3320661589
83333.332090928
83333.3321166792
83333.3321429114
83333.3321691836
83333.3321951774
83333.3322207376
83333.3309123668
83333.3309790942
83333.3309784612
83333.331044797
83333.3310438338
83333.3310446684
83333.3311096466
83333.3311082477
83333.3311087686
83333.3311127263
83333.3311736112
83333.3311717738
83333.3311719054
83333.331175493
83333.3311830429
83333.3312366622
83333.3312344259
83333.3312341597
83333.3312373507
83333.3312443204
83333.3312553083
83333.3312987821
83333.3312961954
83333.331295541
83333.3312983224
83333.3313048626
83333.3313150585
83333.3313290477
83333.3313599617
83333.3313570624
83333.3313560568
83333.3313584339
83333.3313645201
83333.3313742018
83333.3313873298
83333.3314038243
83333.3314200974
83333.3314169807
83333.3314156938
83333.331417704
83333.3314233509
83333.3314325128
83333.3314450464
83333.3314607444
83333.3314793105
83333.3314787931
83333.3314758484
83333.3314744176
83333.3314761323
83333.3314813843
83333.331490062
83333.3315020264
83333.3315170961
83333.3315349832
83333.3315552857
83333.3315367892
83333.3315337494
83333.331532224
83333.3315337052
83333.3315386229
83333.3315468756
83333.3315583266
83333.3315728148
83333.3315900925
83333.3316098107
83333.331631554
83333.3315944658
83333.3315908802
83333.3315891298
83333.3315904036
83333.3315950449
83333.3316029408
83333.331613956
83333.3316279356
83333.3316446651
83333.3316638427
83333.3316850949
83333.3317080116
83333.3316501341
83333.3316468351
83333.3316450205
83333.3316461608
83333.3316506016
83333.3316582142
83333.3316688747
83333.3316824381
83333.3316987054
83333.3317174116
83333.3317382204
83333.3317607487
83333.3317846036
83333.331704288
83333.3317012802
83333.3316996995
83333.3317008842
83333.3317052171
83333.3317126281
83333.3317230116
83333.3317362484
83333.3317521566
83333.3317704904
83333.3317909414
83333.3318131473
83333.3318367238
83333.3318613046
83333.3317569567
83333.3317544034
83333.3317531263
83333.3317544807
83333.3317588044
83333.3317660804
83333.3317762636
83333.3317892543
83333.3318049013
83333.3318229781
83333.3318431901
83333.3318651859
83333.3318885809
83333.3319129973
83333.3319381047
83333.3318080176
83333.331806095
83333.3318052599
83333.3318068578
83333.3318112188
83333.3318184072
83333.3318284489
83333.3318412917
83333.3318567708
83333.3318747002
83333.3318948065
83333.3319167399
83333.3319401047
83333.3319644974
83333.3319895556
83333.3320149946
83333.3318573915
83333.3318562206
83333.3318559145
83333.3318578121
83333.3318622413
83333.3318693504
83333.3318792625
83333.3318920101
83333.3319074767
83333.3319254062
83333.3319455353
83333.3319675656
83333.3319910883
83333.3320156629
83333.3320408718
83333.3320663757
83333.3320919476
83333.3319049054
83333.331904521
83333.3319047938
83333.3319070156
83333.3319115372
83333.3319185763
83333.3319283456
83333.3319409609
83333.3319564071
83333.3319745095
83333.331994927
83333.3320172539
83333.3320411335
83333.3320661293
83333.3320917668
83333.3321176235
83333.3321433896
83333.3321689041
83333.3320651322
83333.3320896406
83333.3321153102
83333.332141661
83333.3321682127
83333.332194561
83333.332220435
83333.33224573
83333.330912848
83333.3309121374
83333.3309799706
83333.3309788939
83333.3309797003
83333.3310461444
83333.3310446384
83333.3310451313
83333.3310491932
83333.3311114822
83333.3311095207
83333.3311095998
83333.3311132528
83333.331120995
83333.3311758933
83333.3311735239
83333.3311731854
83333.3311764102
83333.3311835273
83333.3311947799
83333.3312393217
83333.3312366184
83333.3312358863
83333.3312386736
83333.3312453198
83333.3312557224
83333.3312700208
83333.3313017786
83333.3312987776
83333.3312976948
83333.3313000562
83333.3313062062
83333.3313160389
83333.3313294091
83333.3313462335
83333.3313633098
83333.3313599985
83333.3313586052
83333.3313605758
83333.3313662465
83333.3313755031
83333.3313882084
83333.3314041602
83333.3314230591
83333.3314236257
83333.3314202023
83333.3314185922
83333.3314202366
83333.3314254738
83333.3314341897
83333.3314462531
83333.3314614918
83333.3314796234
83333.3315002447
83333.3314819245
83333.3314791269
83333.3314776012
83333.3314790203
83333.331483893
83333.3314921309
83333.3315036085
83333.3315181776
83333.3315356022
83333.3315555391
83333.3315775733
83333.3315411694
83333.3315372883
83333.3315356741
83333.3315369125
83333.3315414862
83333.3315493182
83333.3315602896
83333.3315742615
83333.3315910345
83333.3316103205
83333.3316317538
83333.3316549237
83333.3315982766
83333.3315947771
83333.3315928417
83333.3315938924
83333.3315982203
83333.3316057157
83333.3316162633
83333.3316297313
83333.3316459369
83333.3316646329
83333.3316854997
83333.331708163
83333.3317322284
83333.3316536889
83333.3316505214
83333.3316488177
83333.3316498548
83333.331654028
83333.3316612646
83333.3316714673
83333.3316845238
83333.3317002654
83333.3317184657
83333.3317388396
83333.3317610446
83333.3317847056
83333.3318094536
83333.3317075731
83333.3317048571
83333.3317034505
83333.3317046738
83333.331708819
83333.3317158808
83333.3317258168
83333.3317385453
83333.3317539227
83333.3317717402
83333.3317917301
83333.3318135709
83333.3318369014
83333.3318613527
83333.3318865885
83333.331759856
83333.3317577869
83333.33175682
83333.3317582955
83333.3317624943
83333.331769451
83333.3317791875
83333.3317916701
83333.3318067738
83333.3318243171
83333.3318440491
83333.3318656564
83333.3318887804
83333.3319130448
83333.3319380942
83333.3319636327
83333.3318104313
83333.3318091722
83333.3318087977
83333.3318106254
83333.3318149253
83333.3318218105
83333.3318313888
83333.3318436929
83333.3318586318
83333.3318760067
83333.3318956022
83333.331917121
83333.3319401998
83333.3319644425
83333.3319894611
83333.3320149227
83333.3320405811
83333.3318592634
83333.3318588617
83333.3318592005
83333.3318614572
83333.3318658959
83333.3318727243
83333.3318821499
83333.331894289
83333.331909126
83333.3319265
83333.3319461193
83333.3319676905
83333.3319908954
83333.3320153186
83333.3320405275
83333.3320661277
83333.3320918154
83333.3321174062
83333.3319062406
83333.3319065622
83333.3319076679
83333.3319104181
83333.3319150474
83333.3319218486
83333.3319311289
83333.3319430907
83333.3319577937
83333.3319751683
83333.3319949955
83333.3320168966
83333.3320404395
83333.3320652547
83333.3320909071
83333.3321169391
83333.3321429591
83333.3321686988
83333.3321940426
83333.3320881455
83333.3321136346
83333.3321399942
83333.3321667554
83333.3321934636
83333.3322197534
83333.3322454007
83333.3322703483
83333.330913831
83333.3309126535
83333.3309134029
83333.3309814345
83333.3309797645
83333.3309801842
83333.3309843362
83333.331048113
83333.3310459966
83333.3310459939
83333.3310497185
83333.3310576837
83333.3311139194
83333.3311113825
83333.331110947
83333.3311142025
83333.331121488
83333.3311330473
83333.3311787066
83333.3311758447
83333.3311750078
83333.3311777954
83333.3311845645
83333.331195209
83333.3312098683
83333.3312424251
83333.3312393234
83333.3312381516
83333.3312404953
83333.3312467251
83333.3312567428
83333.331270402
83333.3312876161
83333.3313051921
83333.3313018284
83333.3313003624
83333.3313023057
83333.3313080201
83333.3313174043
83333.3313303289
83333.331346593
83333.331365892
83333.3313672501
83333.3313634121
83333.3313616456
83333.331363234
83333.3313684803
83333.3313772701
83333.3313894811
83333.3314049488
83333.3314233934
83333.3314444086
83333.331427558
83333.3314238551
83333.3314219605
83333.3314232699
83333.3314281143
83333.3314363755
83333.3314479308
83333.3314626434
83333.331480286
83333.3315005195
83333.3315229258
83333.3314868414
83333.3314826664
83333.3314811871
83333.3314823796
83333.3314869054
83333.3314947151
83333.331505698
83333.3315197282
83333.3315366199
83333.3315560958
83333.3315777955
83333.3316013049
83333.3315453397
83333.3315415611
83333.3315395068
83333.3315405583
83333.3315448255
83333.3315522577
83333.3315627541
83333.3315761979
83333.3315924218
83333.3316111946
83333.3316322098
83333.3316550995
83333.3316794656
83333.3316020437
83333.3315986921
83333.331596849
83333.3315977683
83333.3316018328
83333.3316089555
83333.3316190442
83333.3316319963
83333.3316476574
83333.3316658184
83333.3316862135
83333.3317085159
83333.3317323574
83333.331757365
83333.3316571471
83333.3316542743
83333.3316527386
83333.3316538401
83333.3316578368
83333.3316647358
83333.3316744946
83333.3316870407
83333.331702241
83333.3317199027
83333.3317397804
83333.3317615763
83333.3317849475
83333.331809532
83333.3318349879
83333.3317106278
83333.3317084149
83333.3317073153
83333.331708678
83333.3317127349
83333.3317195017
83333.3317290068
83333.3317412272
83333.3317560583
83333.33177333
83333.3317928124
83333.3318142207
83333.331837226
83333.3318614726
83333.3318866112
83333.3319123367
83333.3317623899
83333.3317610179
83333.3317605354
83333.331762263
83333.331766437
83333.3317731328
83333.3317824446
83333.3317944103
83333.3318089628
83333.3318259455
83333.3318451518
83333.331866309
83333.3318890902
83333.3319131354
83333.3319380804
83333.3319635953
83333.3319894193
83333.3318123658
83333.3318119263
83333.3318122269
83333.3318144573
83333.3318188146
83333.3318254729
83333.331834623
83333.3318463782
83333.3318607289
83333.3318775433
83333.331896591
83333.3319176294
83333.3319403426
83333.3319643597
83333.33198929
83333.3320147647
83333.3320404819
83333.3320662336
83333.3318606218
83333.3318609442
83333.3318621509
83333.3318650064
83333.3318696266
83333.3318762866
83333.3318852912
83333.3318968457
83333.3319110152
83333.3319277347
83333.3319468033
83333.3319678954
83333.3319906927
83333.3320148643
83333.3320399944
83333.3320656637
83333.3320915036
83333.332117247
83333.3321427503
83333.3319070423
83333.3319078578
83333.3319099117
83333.3319134399
83333.3319184627
83333.3319252063
83333.3319341009
83333.331945466
83333.3319594461
83333.331976045
83333.3319951456
83333.3320164864
83333.3320396567
83333.3320642053
83333.3320897574
83333.3321158865
83333.3321421556
83333.3321682064
83333.3321938118
83333.3322188992
83333.3321116843
83333.3321379494
83333.3321648107
83333.3321918167
83333.3322185423
83333.3322446617
83333.3322699961
83333.3322945315
83333.3309154368
83333.3309136398
83333.3309139727
83333.3309181752
83333.3309835656
83333.3309812376
83333.3309811023
83333.3309848842
83333.3309930766
83333.3310507334
83333.3310479921
83333.3310474201
83333.3310506993
83333.3310581759
83333.3310700855
83333.3311169349
83333.3311138597
83333.3311128816
83333.3311156562
83333.3311225607
83333.3311334828
83333.3311485579
83333.3311819817
83333.3311787071
83333.3311774059
83333.3311797163
83333.3311860351
83333.3311962694
83333.3312102648
83333.3312279289
83333.3312458677
83333.3312424888
83333.3312409514
83333.3312428638
83333.3312486332
83333.3312581741
83333.3312713633
83333.331287997
83333.3313077621
83333.3313090041
83333.3313053169
83333.3313035316
83333.3313050952
83333.3313103717
83333.3313192662