/*--------------------------------*- C++ -*----------------------------------*\
  =========                 |
  \\      /  F ield         | OpenFOAM: The Open Source CFD Toolbox
   \\    /   O peration     | Website:  https://openfoam.org
    \\  /    A nd           | Version:  12
     \\/     M anipulation  |
\*---------------------------------------------------------------------------*/
/*   Windows 32 and 64 bit porting by blueCAPE: http://www.bluecape.com.pt   *\
|  Based on Windows porting (2.0.x v4) by Symscape: http://www.symscape.com   |
\*---------------------------------------------------------------------------*/
FoamFile
{
    format      ascii;
    class       surfaceScalarField;
    location    "200";
    object      phi;
}
// * * * * * * * * * * * * * * * * * * * * * * * * * * * * * * * * * * * * * //

dimensions      [0 3 -1 0 0 0 0];

internalField   nonuniform List<scalar> 
29005
(
8.68853656710048e-06
-5.49398438990905e-08
-1.53842140726755e-07
8.88137036422106e-06
-4.86921054639691e-08
-1.44139181303821e-07
1.08407562894155e-05
-9.79938135793013e-08
-1.85114659219601e-07
2.15922221336064e-06
8.40032280037533e-11
-2.17871656594319e-07
9.0625360321558e-06
-4.7176463272933e-08
-1.33988699479853e-07
1.1063949878775e-05
-9.69747809142398e-08
-1.74911328752266e-07
2.21969613042618e-06
1.6060387481544e-09
-2.06217622004771e-07
1.22120570120495e-05
-1.27834483762179e-07
-2.13070273994556e-07
2.8894448209796e-06
1.06938131714097e-08
-2.67594367773265e-07
1.49212168197092e-06
9.04903727752301e-09
-2.73669394998915e-07
9.23711491561944e-06
-4.88959712537322e-08
-1.25681633500271e-07
1.12781114855482e-05
-9.97223786091211e-08
-1.61613225245387e-07
2.27803212501181e-06
2.87228903595693e-09
-1.95197696992064e-07
1.24567436358852e-05
-1.38528753592669e-07
-2.03124941654743e-07
2.95897277187078e-06
1.11024609377337e-08
-2.53933605438737e-07
1.53702200569086e-06
8.84231544693068e-09
-2.59960116984344e-07
1.37286580871303e-05
-1.56827393887267e-07
-2.40539438519076e-07
3.36371564726484e-06
3.00999280607726e-08
-3.10900808156861e-07
1.93265954736021e-06
2.27979545380141e-08
-3.34808212742382e-07
1.36052736811916e-06
1.09396972930305e-08
-3.2381040918487e-07
9.40832665328577e-06
-5.23199198871168e-08
-1.18889092793524e-07
1.1485554015312e-05
-1.05782587419156e-07
-1.50550528532262e-07
2.3344928134942e-06
3.11238200519806e-09
-1.85254849116668e-07
1.26942549310374e-05
-1.5046754963294e-07
-1.86766529108511e-07
3.02902162495697e-06
1.11599598616157e-08
-2.39949177792989e-07
1.58007775499881e-06
9.26324338006187e-09
-2.47516233574797e-07
1.40012790002972e-05
-1.80052086880496e-07
-2.3109147409616e-07
3.44022321389471e-06
2.78461456854969e-08
-2.96374965184922e-07
1.98382571773564e-06
2.18681972568203e-08
-3.18125137770819e-07
1.39871836151608e-06
1.05553009409648e-08
-3.08706093838644e-07
1.48901938293988e-05
-1.91507612127094e-07
-2.57999764976847e-07
3.85361856706699e-06
5.23078320722645e-08
-3.50916088742662e-07
2.2744199385277e-06
4.42063947629086e-08
-3.93192394560742e-07
1.69861378737521e-06
2.74477144620044e-08
-3.95974957720316e-07
1.33212633322793e-06
1.14939306805077e-08
-3.68553640692875e-07
9.57785180419782e-06
-5.63713494820189e-08
-1.13151441677368e-07
1.1688949473982e-05
-1.13636885150181e-07
-1.4207368405904e-07
2.38943907460594e-06
2.63325602061144e-09
-1.76466895489962e-07
1.29253073981358e-05
-1.63612795492503e-07
-1.73213752677718e-07
3.09890488815211e-06
1.01723104165547e-08
-2.27491939929296e-07
1.62160503987295e-06
9.34757046335689e-09
-2.36129232366658e-07
1.42660609283373e-05
-2.02789389426517e-07
-2.12458341176063e-07
3.5193334441678e-06
2.52482228733157e-08
-2.79963347101583e-07
2.03441698068875e-06
2.16130331997022e-08
-3.02889924566346e-07
1.43562521813363e-06
1.05050027865821e-08
-2.94927959046059e-07
1.5186809341994e-05
-2.26765347616483e-07
-2.49897087857874e-07
3.93946483794497e-06
4.6807111273717e-08
-3.35899702912554e-07
2.33208073770211e-06
4.22531224932478e-08
-3.74420233376889e-07
1.74213811760596e-06
2.6051740918419e-08
-3.77145417651051e-07
1.3650042990451e-06
1.08994604911826e-08
-3.52483243218261e-07
1.5544809191764e-05
-2.32218294644127e-07
-2.66461806859517e-07
4.18588058724662e-06
7.19049929446799e-08
-3.73894679316151e-07
2.5832001358749e-06
6.89301723645229e-08
-4.44217221406119e-07
1.98791803683086e-06
4.65069635674446e-08
-4.63908969818291e-07
1.61033861537276e-06
2.6433569486388e-08
-4.48216881460426e-07
1.3282473410738e-06
1.19974342245933e-08
-4.08291135681046e-07
9.74674072121951e-06
-6.0571188285981e-08
-1.08315794885117e-07
1.18899874125277e-05
-1.22140765211943e-07
-1.3525733321691e-07
2.4431720291628e-06
1.89044984877075e-09
-1.68774386372433e-07
1.31522733790497e-05
-1.77409135912979e-07
-1.63191502235925e-07
3.16792772560058e-06
8.41161757531343e-09
-2.16872483873125e-07
1.66192756663128e-06
9.02782596739789e-09
-2.25816525762976e-07
1.45238324628985e-05
-2.24744074470008e-07
-1.96637005164857e-07
3.59955833011108e-06
2.20120537152681e-08
-2.65280038754068e-07
2.08443292466658e-06
2.10129150977703e-08
-2.89172916184181e-07
1.47144344644556e-06
1.0365677357968e-08
-2.82312834160871e-07
1.5474669140386e-05
-2.60482528714865e-07
-2.30161712835661e-07
4.02883283151745e-06
4.09717226284073e-08
-3.17548186206862e-07
2.38997724225398e-06
4.04879913739345e-08
-3.56733764725271e-07
1.78495680602216e-06
2.50801129414498e-08
-3.60283163376856e-07
1.3971985565163e-06
1.06130004043212e-08
-3.37734833326608e-07
1.58577554027352e-05
-2.79741893066163e-07
-2.59962279347841e-07
4.27943190831976e-06
6.26433975630406e-08
-3.59281295494677e-07
2.64781348245147e-06
6.54538994110896e-08
-4.237141210705e-07
2.03771881267448e-06
4.421873084636e-08
-4.42386715186937e-07
1.64730441461417e-06
2.50745363413338e-08
-4.28285328995855e-07
1.35614501139494e-06
1.12615939016625e-08
-3.91642243127707e-07
1.5812086065522e-05
-2.71317026200725e-07
-2.72103880825425e-07
4.3579721959507e-06
8.62588497357056e-08
-3.82665552392893e-07
2.75215942678759e-06
9.18132017294731e-08
-4.70739679910817e-07
2.23157507762635e-06
6.72701534167581e-08
-5.22960373264743e-07
1.86261994098619e-06
4.43668840778808e-08
-5.24522921753823e-07
1.57380689876242e-06
2.55587004309232e-08
-4.92479069108671e-07
1.3330303946734e-06
1.21089205805697e-08
-4.43062780273416e-07
9.91585188483251e-06
-6.47773584222266e-08
-1.04332729238792e-07
1.20898396564118e-05
-1.30783169307771e-07
-1.29635328066834e-07
2.49598099297474e-06
1.05587202270008e-09
-1.62177786968932e-07
1.33766865655763e-05
-1.91277927255854e-07
-1.55275164548377e-07
3.23606573533307e-06
6.33447653384008e-09
-2.0783666047498e-07
1.70127912788983e-06
8.52363542580182e-09
-2.1664932099887e-07
1.47772366198032e-05
-2.45716392947425e-07
-1.85089340564877e-07
3.67937879202555e-06
1.83741764509865e-08
-2.52973568806803e-07
2.13364045033489e-06
1.99540760834616e-08
-2.7700508655876e-07
1.50646173800722e-06
1.00320813147824e-08
-2.70866699964509e-07
1.57546471371494e-05
-2.91896216249704e-07
-2.12815800654841e-07
4.12019060168457e-06
3.49293743785419e-08
-3.00909411035824e-07
2.44803198162276e-06
3.85026750733081e-08
-3.40825161352987e-07
1.82717180035946e-06
2.41417071465372e-08
-3.45163419600837e-07
1.42881047520701e-06
1.02996813641047e-08
-3.24224256654724e-07
1.6162275985873e-05
-3.24690409616677e-07
-2.40308221965247e-07
4.37696750009847e-06
5.34227684908171e-08
-3.4014770750468e-07
2.71296336661844e-06
6.18980605177942e-08
-4.04107910791736e-07
2.08695112994296e-06
4.22351384585071e-08
-4.23120223333631e-07
1.6839885058246e-06
2.40623172012309e-08
-4.10416324545637e-07
1.38391605801508e-06
1.07719258116374e-08
-3.76277675117127e-07
1.61332557802076e-05
-3.31810480566912e-07
-2.69085049627343e-07
4.45707916548235e-06
7.27060731352206e-08
-3.69126902490061e-07
2.82180885575064e-06
8.64459103903801e-08
-4.49920513255513e-07
2.28733753661666e-06
6.39645144788777e-08
-4.99221200683175e-07
1.90484551958106e-06
4.17595926427197e-08
-5.01296707772142e-07
1.60482668034435e-06
2.39485551595624e-08
-4.71991809110607e-07
1.35624062078673e-06
1.13006174399904e-08
-4.26152824668092e-07
1.58737810199077e-05
-2.75138099195545e-07
4.43791499849826e-06
9.56573508908006e-08
-3.85594925312719e-07
2.80644788091106e-06
1.10071731974073e-07
-4.78259766485419e-07
2.34758663015671e-06
8.64804314618804e-08
-5.5216174754278e-07
2.06883861091928e-06
6.15659167779858e-08
-5.88296439882645e-07
1.80733280112165e-06
4.11633224790447e-08
-5.75028597024442e-07
1.56427251735326e-06
2.47005565226142e-08
-5.29839444323535e-07
1.34595105584066e-06
1.19318329434584e-08
-4.72923791010624e-07
1.008601771175e-05
-6.90277724431366e-08
-1.01133438234208e-07
1.22895797456949e-05
-1.39442506451879e-07
-1.25063860000534e-07
2.54814861801211e-06
1.77176111035467e-10
-1.56676189942352e-07
1.35997203064679e-05
-2.04949518313858e-07
-1.48866482583628e-07
3.30356050193767e-06
4.16673160768907e-09
-2.00238783580312e-07
1.73985896510315e-06
7.94679493234183e-09
-2.08704248483166e-07
1.50277832448569e-05
-2.65656444918045e-07
-1.76156671102128e-07
3.75843489801876e-06
1.4634977006939e-08
-2.42631324272234e-07
2.18205480161087e-06
1.86571221552958e-08
-2.66383449811404e-07
1.54089713435993e-06
9.58345919566743e-09
-2.60667987764062e-07
1.60295808592741e-05
-3.204244538455e-07
-2.0022675263992e-07
4.21153259773407e-06
2.90293350097423e-08
-2.87084527699018e-07
2.50556423182321e-06
3.62523891246047e-08
-3.26802697866454e-07
1.86886348226241e-06
2.29701107195036e-08
-3.31634413777987e-07
1.46006349566305e-06
9.85823380311915e-09
-3.11977926951574e-07
1.64582596479254e-05
-3.65969113844779e-07
-2.2190675886555e-07
4.47709202208302e-06
4.44750644657386e-08
-3.22487170659592e-07
2.77874279550764e-06
5.82414163275334e-08
-3.86426806167203e-07
2.13592543059823e-06
4.02576415282372e-08
-4.05914392936351e-07
1.72045976864799e-06
2.30557835804885e-08
-3.94390230197704e-07
1.41160305786136e-06
1.02817088933025e-08
-3.62192864885669e-07
1.64518063364666e-05
-3.95438550684306e-07
-2.47793480390718e-07
4.5604782240089e-06
5.97568400684073e-08
-3.5003953561219e-07
2.89214228602437e-06
8.11152149560816e-08
-4.29696721015969e-07
2.342615281772e-06
6.07231679370834e-08
-4.77873480600516e-07
1.94689509163373e-06
3.95835372730294e-08
-4.80690481781434e-07
1.6361104939137e-06
2.26181650053526e-08
-4.53545984076812e-07
1.37979309838841e-06
1.06671120099737e-08
-4.10497162549081e-07
1.61925196671474e-05
-3.69670849879063e-07
-2.80860229211679e-07
4.53749579764982e-06
7.79919793783563e-08
-3.73943956293122e-07
2.87949671881989e-06
1.0239804019476e-07
-4.58126596160701e-07
2.40754075049512e-06
8.19119596926479e-08
-5.2782038951763e-07
2.11606012228944e-06
5.81470463995533e-08
-5.6282940185007e-07
1.84264413822196e-06
3.84206233793023e-08
-5.51079493556985e-07
1.58990767083843e-06
2.28979544269604e-08
-5.09223881725436e-07
1.36481720990642e-06
1.09913249143027e-08
-4.56010137045797e-07
4.4874700434788e-06
-3.86859784980188e-07
2.8087012416195e-06
1.2360446638117e-07
-4.78374535326231e-07
2.36763534698123e-06
1.02298148134691e-07
-5.58906777080328e-07
2.16089681318029e-06
7.74067345089784e-08
-6.195135056882e-07
1.99660817848362e-06
5.6000527122968e-08
-6.42747494168178e-07
1.7938308147684e-06
3.86452216422642e-08
-6.17137121387326e-07
1.57211865048822e-06
2.39665583423218e-08
-5.6134617904967e-07
1.36821402993322e-06
1.17125183156578e-08
-4.98107520173662e-07
1.02580717267528e-05
-7.34239867988664e-08
-9.86275632757619e-08
1.24902805729725e-05
-1.48240902912087e-07
-1.21476078410639e-07
2.59999803065038e-06
-7.22142604235155e-10
-1.52258756152284e-07
1.38225489976973e-05
-2.18546446649655e-07
-1.43717039467491e-07
3.37072641041823e-06
1.96089580276815e-09
-1.94010363627689e-07
1.77787953366746e-06
7.34054205416475e-09
-2.02036593999454e-07
1.52767153167082e-05
-2.84815585168456e-07
-1.69060513204322e-07
3.83685410988628e-06
1.08999657776273e-08
-2.3401811733908e-07
2.22982941266875e-06
1.7261482738662e-08
-2.57326711488539e-07
1.57493103814132e-06
9.07698877989899e-09
-2.51814831879265e-07
1.630110725198e-05
-3.46475599546381e-07
-1.90709383858668e-07
4.30220352955049e-06
2.34043498200067e-08
-2.75593751344282e-07
2.56236107047713e-06
3.38656668226625e-08
-3.14635697449157e-07
1.91014394568086e-06
2.1647275961337e-08
-3.19727050445291e-07
1.49114252798609e-06
9.33533637879393e-09
-3.01082221531126e-07
1.67481047346515e-05
-4.01844315646159e-07
-2.08416085534744e-07
4.57744236725456e-06
3.63352007336462e-08
-3.07878485673248e-07
2.8442333865431e-06
5.45758616760218e-08
-3.70897645626344e-07
2.18455206992479e-06
3.81386345135742e-08
-3.90596641776242e-07
1.75681460198223e-06
2.19249608321333e-08
-3.80055498672014e-07
1.43936238003579e-06
9.70633942416049e-09
-3.49443355922614e-07
1.6761776017553e-05
-4.48265700996124e-07
-2.27663946713691e-07
4.66701434262522e-06
4.80553200380136e-08
-3.32023588831106e-07
2.9633682542864e-06
7.58794509046316e-08
-4.11349477695372e-07
2.39781742175386e-06
5.75032910074506e-08
-4.58873793641725e-07
1.98891156873237e-06
3.74985295214303e-08
-4.62372780472888e-07
1.66764920249439e-06
2.13397501834654e-08
-4.36986478272846e-07
1.4037053325373e-06
1.00399092214694e-08
-3.96144904638286e-07
1.65343869980033e-05
-4.7919706778856e-07
-2.58095869306774e-07
4.64522906010407e-06
5.89483722955783e-08
-3.54714058716026e-07
2.95334100283399e-06
9.54604904425233e-08
-4.38226914912302e-07
2.46700406034201e-06
7.74417969067757e-08
-5.05877339184936e-07
2.16309077493711e-06
5.48477113473032e-08
-5.40167448084699e-07
1.87842070983378e-06
3.5935552241093e-08
-5.29783916775396e-07
1.61630643965776e-06
2.13250243129226e-08
-4.90602451370146e-07
1.38441897451097e-06
1.02495097807331e-08
-4.40348356453983e-07
1.61797428815389e-05
-4.63382886038143e-07
-2.97282916761299e-07
4.582687519643e-06
8.0855677324872e-08
-3.78929669335471e-07
2.8828061446878e-06
1.13582954993163e-07
-4.59230379940741e-07
2.43047768348247e-06
9.61161317267801e-08
-5.35171004994319e-07
2.21166672764959e-06
7.28971468182986e-08
-5.93338737190666e-07
2.03628013509334e-06
5.23232713416326e-08
-6.16403471660344e-07
1.82303093481568e-06
3.56502350873727e-08
-5.93031903684462e-07
1.59281654556326e-06
2.19814122059621e-08
-5.40911510422986e-07
1.38303833490867e-06
1.0593003880639e-08
-4.81427286416978e-07
2.80091045411215e-06
-4.77052322419953e-07
2.34833022191742e-06
1.14575756403301e-07
-5.57016840969855e-07
2.16944016793477e-06
9.08350419826086e-08
-6.26135980981282e-07
2.08086675646403e-06
6.98357970305854e-08
-6.7587111354941e-07
1.98000553870926e-06
5.22676353384518e-08
-6.88519334314206e-07
1.80496858440844e-06
3.72158837734008e-08
-6.52399335519479e-07
1.59309513256123e-06
2.35783869745801e-08
-5.87749844183956e-07
1.39925387868001e-06
1.17259627633836e-08
-5.19029712140069e-07
1.04329191929786e-05
-7.78902926132564e-08
-9.69557421244726e-08
1.26929407694254e-05
-1.57341661296644e-07
-1.18728872032271e-07
2.65193129880491e-06
-1.64142994177662e-09
-1.48916127830004e-07
1.40463289756793e-05
-2.32339088729446e-07
-1.39670809793905e-07
3.43792897771651e-06
-2.86096704463522e-10
-1.89110283905082e-07
1.81558262264518e-06
6.72232546552089e-09
-1.9668383927254e-07
1.55252320394002e-05
-3.03662396426155e-07
-1.63388854517645e-07
3.91495399840148e-06
7.15330131725739e-09
-2.27007929126451e-07
2.27718627341489e-06
1.58252327172856e-08
-2.4985064644927e-07
1.60874565312318e-06
8.5413116477505e-09
-2.44391946816873e-07
1.65706278747598e-05
-3.71035261701112e-07
-1.83296731913121e-07
4.39220295861592e-06
1.79569694008208e-08
-2.66115757847483e-07
2.6184992239697e-06
3.14272884728255e-08
-3.04320685911218e-07
1.95115932809308e-06
2.02537139395651e-08
-3.09517828290947e-07
1.52220466980281e-06
8.76993569898543e-09
-2.91646703830107e-07
1.70336189576066e-05
-4.3343075455204e-07
-1.98558549316323e-07
4.6770773613447e-06
2.8917168625054e-08
-2.95854184295481e-07
2.90904408037765e-06
5.09509820135871e-08
-3.57487849463015e-07
2.23283254301302e-06
3.59179934613562e-08
-3.7718690372093e-07
1.79317433194868e-06
2.07011789521771e-08
-3.67451847188594e-07
1.46733909921201e-06
9.0788239841554e-09
-3.38137501296854e-07
1.70632295372209e-05
-4.90163730992614e-07
-2.1312821769912e-07
4.77390276297554e-06
3.82062798627072e-08
-3.17173475640701e-07
3.03441171109746e-06
7.09048602515204e-08
-3.95250298616955e-07
2.4527922421542e-06
5.42695326494698e-08
-4.42002916292055e-07
2.03095028566743e-06
3.53487849080348e-08
-4.46058523058212e-07
1.69950114950936e-06
1.99934208825464e-08
-4.22193913220204e-07
1.42808927252738e-06
9.35482212884922e-09
-3.83182109749215e-07
1.68651746448417e-05
-5.47750325797799e-07
-2.31293764143447e-07
4.75723823398536e-06
4.4589059072059e-08
-3.36200884440214e-07
3.0282239985448e-06
8.90007989759908e-08
-4.20026834090089e-07
2.52642422081164e-06
7.30776475063682e-08
-4.86342853453795e-07
2.21019339805464e-06
5.16334339313014e-08
-5.20110704735875e-07
1.91463117625376e-06
3.36164527134711e-08
-5.1085962971889e-07
1.64341283297322e-06
1.98257850414399e-08
-4.7387846712627e-07
1.40476960283653e-06
9.51360113617705e-09
-4.26009137612183e-07
1.65708536926618e-05
-6.05381745164573e-07
-2.64904772439142e-07
4.68963455827666e-06
5.30074613906626e-08
-3.59092366143228e-07
2.95920000603973e-06
1.04245542613116e-07
-4.3989128883343e-07
2.4927994250647e-06
9.05907726721422e-08
-5.13696346701853e-07
2.26222415991438e-06
6.85177318781832e-08
-5.70103998307554e-07
2.07631750020256e-06
4.87642637360779e-08
-5.93032750524465e-07
1.85328416336708e-06
3.28334025172481e-08
-5.71545235807419e-07
1.61471057768437e-06
2.01937307666367e-08
-5.22440518738221e-07
1.39894712943106e-06
9.74835055764987e-09
-4.66005416201178e-07
1.61985603427369e-05
-8.37010904538494e-07
-3.2431132923602e-07
4.61241793220286e-06
6.46718917914749e-08
-3.84550833927907e-07
2.87367135022028e-06
1.21669292861363e-07
-4.59773942070863e-07
2.41268272757332e-06
1.06651052644713e-07
-5.34115858986001e-07
2.22279797029019e-06
8.4925340796865e-08
-6.00556267589442e-07
2.12365798876581e-06
6.50075358272676e-08
-6.48812977744918e-07
2.01305198493954e-06
4.81275264605871e-08
-6.619270320844e-07
1.82859194661175e-06
3.38560029660521e-08
-6.28529589511814e-07
1.60917999563217e-06
2.13975934269581e-08
-5.67800804801905e-07
1.41025224368904e-06
1.03543468493736e-08
-5.02780015387524e-07
2.32300363954748e-06
-5.53608024687815e-07
2.14437811715103e-06
1.01542327687076e-07
-6.23151200011244e-07
2.08728159902241e-06
8.1813713485533e-08
-6.82827792090459e-07
2.06467567044287e-06
6.51535339189021e-08
-7.23614053636987e-07
1.99389403806572e-06
5.05032746713576e-08
-7.27122907781265e-07
1.83162140844183e-06
3.67239265473853e-08
-6.8196236824232e-07
1.62439755671893e-06
2.41767736794022e-08
-6.09810660326782e-07
1.4370372250377e-06
1.20468966623257e-08
-5.36121721130698e-07
1.06114606000583e-05
-8.24088352723288e-08
-9.61299522182016e-08
1.28985228851832e-05
-1.66758692867883e-07
-1.16706552880811e-07
2.70431326506623e-06
-2.65182888043984e-09
-1.46681853105374e-07
1.42720978497214e-05
-2.46471001506417e-07
-1.36632391346052e-07
3.50562467671949e-06
-2.56219569621489e-09
-1.85499911841265e-07
1.85324968783324e-06
6.09674331363038e-09
-1.92679316957291e-07
1.57743622163751e-05
-3.22570521996542e-07
-1.58895577156368e-07
3.99316011715776e-06
3.36596883239202e-09
-2.21525484768866e-07
2.3243983230732e-06
1.43691704515076e-08
-2.43968878801831e-07
1.64254419499049e-06
7.99030443390336e-09
-2.38472219612046e-07
1.68391844319157e-05
-3.94826164960218e-07
-1.77390250396891e-07
4.48184703767984e-06
1.25741531588282e-08
-2.58451279435184e-07
2.67420047574861e-06
2.8970361868908e-08
-2.95853417631991e-07
1.99209106989778e-06
1.88362725460493e-08
-3.01075856801584e-07
1.5534060747946e-06
8.1823702030237e-09
-2.83775542618855e-07
1.73162207016435e-05
-4.62522318867002e-07
-1.91104617183436e-07
4.77588081101964e-06
2.18845993524037e-08
-2.86023093431451e-07
2.97316926981565e-06
4.73632561545035e-08
-3.46175855279795e-07
2.28087261888445e-06
3.36481205424804e-08
-3.65754320241933e-07
1.82967331707834e-06
1.94248474211223e-08
-3.56671123032188e-07
1.49566086808438e-06
8.42678044027821e-09
-3.28395214457597e-07
1.73579547987777e-05
-5.25279767041805e-07
-2.02865835487852e-07
4.8798459750167e-06
2.95049830853927e-08
-3.05085995790026e-07
3.10475394780424e-06
6.61436276658759e-08
-3.81387730852354e-07
2.50747001798697e-06
5.10223434825044e-08
-4.27269283054729e-07
2.0730883678932e-06
3.31380991962984e-08
-4.31760879248901e-07
1.73176199946946e-06
1.85937554346112e-08
-4.09227055454966e-07
1.45304930754859e-06
8.63893352856854e-09
-3.71736213114955e-07
1.71779187840062e-05
-5.87589887833332e-07
-2.15304276737348e-07
4.86963167794283e-06
3.39520347403396e-08
-3.21264592304913e-07
3.10292081658796e-06
8.30981956957208e-08
-4.04061798051052e-07
2.5856260764754e-06
6.88165734889192e-08
-4.6899827437026e-07
2.25740460350816e-06
4.84321837040562e-08
-5.02296264583318e-07
1.9513036751511e-06
3.12897052160731e-08
-4.94026559214399e-07
1.67124361400997e-06
1.83016347942715e-08
-4.58971018589452e-07
1.42594787067876e-06
8.73573436491634e-09
-4.1309600080218e-07
1.69241013176126e-05
-6.70067650663923e-07
-2.3091877077009e-07
4.8075450805586e-06
3.4337123692716e-08
-3.38945496417948e-07
3.03699464459967e-06
9.7061883498459e-08
-4.22055005718765e-07
2.5550028243904e-06
8.53839601938374e-08
-4.94535341417749e-07
2.3128210203174e-06
6.4273777077368e-08
-5.4957933673026e-07
2.11687092127804e-06
4.53361700492355e-08
-5.72383068880207e-07
1.88446440602118e-06
3.02301022574449e-08
-5.52443952413507e-07
1.63772407399747e-06
1.85028831718508e-08
-5.05880848399363e-07
1.41595382914605e-06
8.89892694905061e-09
-4.51914611602166e-07
1.66187206722156e-05
-7.59850456968352e-07
-2.65665380691273e-07
4.72603116827567e-06
3.7470345276594e-08
-3.62971023586938e-07
2.94992788722195e-06
1.09456527293026e-07
-4.40558078032734e-07
2.47728765988882e-06
9.95770884809814e-08
-5.1348051056657e-07
2.27588645297477e-06
7.95803518500137e-08
-5.77845973374432e-07
2.16683973063624e-06
6.0349386653777e-08
-6.24870144927984e-07
2.04705895783285e-06
4.41529545465764e-08
-6.38358768473289e-07
1.85379059581865e-06
3.06809265519947e-08
-6.07230656395991e-07
1.626835218057e-06
1.94054584425952e-08
-5.49752816122435e-07
1.42266456084857e-06
9.38683297304284e-09
-4.87804628995866e-07
1.53343473683271e-05
-7.76557898880703e-07
-2.66522419369274e-07
4.62590285624665e-06
-6.15969186587455e-09
-3.9128447339128e-07
2.8610934487382e-06
1.19642805780307e-07
-4.60276721533425e-07
2.38763120286646e-06
1.14469376218086e-07
-5.32218006143266e-07
2.19945752459561e-06
9.41227182713487e-08
-5.98390919387044e-07
2.13251968090329e-06
7.55788176583547e-08
-6.56364729412596e-07
2.10058194765702e-06
5.97159504440655e-08
-6.96307298335006e-07
2.02084745357339e-06
4.57455713181704e-08
-7.00769665821272e-07
1.85000726106526e-06
3.31041730033878e-08
-6.58621698292854e-07
1.63613306763674e-06
2.12827230642134e-08
-5.90464601742446e-07
1.44433338645085e-06
1.03860940717033e-08
-5.20462203623145e-07
2.11367192785229e-06
-6.18424235012733e-07
2.06145321774843e-06
9.14603282623621e-08
-6.79280474562516e-07
2.07229963603751e-06
7.64141993373777e-08
-7.31135926189376e-07
2.08131288356523e-06
6.31462571644941e-08
-7.64136967684486e-07
2.02491879885916e-06
5.04603144591968e-08
-7.59653474265082e-07
1.86917003465631e-06
3.78377885224642e-08
-7.06587484302442e-07
1.6633899689408e-06
2.52032592505743e-08
-6.27826080671915e-07
1.4791901883536e-06
1.25140707850851e-08
-5.49748197206794e-07
1.07945001644004e-05
-8.70359997401457e-08
-9.59977553325336e-08
1.31081545874337e-05
-1.76398607042422e-07
-1.15635302769884e-07
2.7574894927301e-06
-3.72404833348703e-09
-1.45578703807617e-07
1.45009571460227e-05
-2.61040475965352e-07
-1.34566211002004e-07
3.57432180486352e-06
-4.8829618176708e-09
-1.83169533378877e-07
1.89117366651264e-06
5.45255341161285e-09
-1.90057377032273e-07
1.60252974839751e-05
-3.41889364506599e-07
-1.55510007753743e-07
4.07199147813767e-06
-4.97175130427318e-10
-2.17524721184531e-07
2.37179423369943e-06
1.29029517623716e-08
-2.39701513242164e-07
1.67656230753482e-06
7.42695046809581e-09
-2.34123984143006e-07
1.71076959077813e-05
-4.18369466049671e-07
-1.7270355607808e-07
4.57162153387627e-06
7.17498023804436e-09
-2.52478657775885e-07
2.72977318618643e-06
2.65039770760612e-08
-2.89231950240577e-07
2.03315737637758e-06
1.74201748029147e-08
-2.94464428149686e-07
1.58491708699937e-06
7.58071992849066e-09
-2.77563768000184e-07
1.75967393706114e-05
-4.90106575710889e-07
-1.8523245217676e-07
4.87417522759508e-06
1.50164936726894e-08
-2.78118175838594e-07
3.03681802561536e-06
4.38055220812309e-08
-3.3693409782875e-07
2.3288557206117e-06
3.13625707916153e-08
-3.56362010909987e-07
1.86646245882587e-06
1.81242421076936e-08
-3.4780608147764e-07
1.52445841274834e-06
7.76487221343818e-09
-3.20337752120159e-07
1.76478412388972e-05
-5.56744564654989e-07
-1.95655289496084e-07
4.98461626637786e-06
2.13341219050908e-08
-2.95320174386228e-07
3.17432252957013e-06
6.15022672453192e-08
-3.69730800470103e-07
2.56191636573025e-06
4.77699065386797e-08
-4.14742685065714e-07
2.11544004886862e-06
3.08924718023515e-08
-4.19572947666734e-07
1.76454393610898e-06
1.71677400075936e-08
-3.98193283673589e-07
1.47868348965877e-06
7.91196113314291e-09
-3.61941161128551e-07
1.74784370427986e-05
-6.19766012857833e-07
-2.0602209741531e-07
4.98060478985316e-06
2.50197639664397e-08
-3.09349001622455e-07
3.17681484266522e-06
7.75098519804462e-08
-3.90344049402812e-07
2.64450670186534e-06
6.46123635283268e-08
-4.53857444016791e-07
2.30477057715378e-06
4.52227530161353e-08
-4.86719543832404e-07
1.98850717895834e-06
2.89380898570662e-08
-4.79308112883745e-07
1.6998601222107e-06
1.67640999861836e-08
-4.45968313045185e-07
1.44802524508692e-06
7.93264188024915e-09
-4.01746121929079e-07
1.72385500260431e-05
-6.8801588749095e-07
-2.14014985567373e-07
4.92598108631735e-06
2.40581859781659e-08
-3.2383946245494e-07
3.11463673270618e-06
9.06918142986424e-08
-4.06497811805028e-07
2.61690112476195e-06
8.03586288883033e-08
-4.77500321972875e-07
2.36350010373031e-06
6.01088850349075e-08
-5.31353594357814e-07
2.15797375773535e-06
4.19591233635685e-08
-5.54068084215294e-07
1.91655260075424e-06
2.76647638068211e-08
-5.35477717090155e-07
1.6618366052819e-06
1.68314650267428e-08
-4.91178892270307e-07
1.4341155676291e-06
8.00693498068168e-09
-4.39264576771767e-07
1.68887385964296e-05
-7.16607813578042e-07
-2.23463178155326e-07
4.85037126478484e-06
2.03093102184318e-08
-3.41222444994249e-07
3.03032646012634e-06
1.00608753386892e-07
-4.22888559727103e-07
2.54173650372357e-06
9.39141839582508e-08
-4.95032120991747e-07
2.32888098468446e-06
7.45283342457129e-08
-5.57783116516829e-07
2.21049861679926e-06
5.58692936752917e-08
-6.03770688438355e-07
2.08209070660265e-06
4.03633462855665e-08
-6.17547699005469e-07
1.88038615612407e-06
2.77508199120249e-08
-5.88287158188385e-07
1.64598657765849e-06
1.74587843252706e-08
-5.33591994139332e-07
1.43649839955467e-06
8.42113352161587e-09
-4.74169605307438e-07
1.55502229448066e-05
-7.33407250519805e-07
-2.42295140056786e-07
4.7565163758065e-06
5.69196008577199e-09
-3.64489739610377e-07
2.93974234497058e-06
1.09282122636157e-07
-4.41440342947948e-07
2.45285269279112e-06
1.05679632153322e-07
-5.11879912073523e-07
2.25472959204892e-06
8.7435600055132e-08
-5.76606476195482e-07
2.17809113868099e-06
6.98912631521902e-08
-6.32958272366674e-07
2.13749744863613e-06
5.45273460849832e-08
-6.72159530259471e-07
2.04934481065471e-06
4.12418983886007e-08
-6.77416854359403e-07
1.87045624454131e-06
2.95318892182588e-08
-6.37805940112933e-07
1.64976288544418e-06
1.90258954451425e-08
-5.73021441799047e-07
1.45336619754763e-06
9.29907047363481e-09
-5.06136425255051e-07
1.57173095445085e-05
-7.30469128029079e-07
-2.61993401394906e-07
4.59496879418786e-06
-7.24179170214213e-09
-3.71396209443324e-07
2.84252591702259e-06
1.02387618738661e-07
-4.59581874805024e-07
2.36212093390111e-06
1.15637367845154e-07
-5.30221440589085e-07
2.16976895149572e-06
1.00913054777849e-07
-5.95103529538115e-07
2.10853260105102e-06
8.37387246425131e-08
-6.5362846826464e-07
2.11060430764636e-06
6.94609420633636e-08
-7.044138581938e-07
2.11091145346014e-06
5.68981237927624e-08
-7.37058278882527e-07
2.04610188413578e-06
4.49986376071342e-08
-7.33847039193617e-07
1.88254413429423e-06
3.33332954921832e-08
-6.84046483936896e-07
1.67089914428203e-06
2.16776203122356e-08
-6.09265360448156e-07
1.48281009015178e-06
1.08471016697936e-08
-5.34929257194506e-07
2.02921291058206e-06
-6.73733279386704e-07
2.04680276103725e-06
8.55078864799428e-08
-7.27344080472817e-07
2.09050036124389e-06
7.42240341670706e-08
-7.72300855003638e-07
2.11512387949159e-06
6.33926672367836e-08
-7.98315404096746e-07
2.06717686626954e-06
5.1983840317629e-08
-7.8664037758046e-07
1.91435636694033e-06
3.9625964361606e-08
-7.26740444242005e-07
1.70746403545389e-06
2.65059619518289e-08
-6.42160893551285e-07
1.5235537618198e-06
1.32931157444557e-08
-5.6030729592707e-07
1.09827147740676e-05
-9.1683456590333e-08
-9.65292739779971e-08
1.33229665461262e-05
-1.86294153995388e-07
-1.15544985078715e-07
2.81187298861915e-06
-4.79237479762497e-09
-1.45586249007883e-07
1.47341588890626e-05
-2.7613795430826e-07
-1.334577207103e-07
3.64444984461262e-06
-7.31172293574978e-09
-1.82169017705142e-07
1.92965533615017e-06
4.7911112972032e-09
-1.88850973347781e-07
1.62794453248231e-05
-3.61970897743857e-07
-1.53208650272052e-07
4.15200742630918e-06
-4.45957800870307e-09
-2.15001799699731e-07
2.41972802281975e-06
1.14173223835362e-08
-2.37067426495805e-07
1.71105144269999e-06
6.85403750590186e-09
-2.31400032361665e-07
1.73776070528739e-05
-4.42607540096639e-07
-1.69187755843951e-07
4.66212570304594e-06
1.63840473773628e-09
-2.48146525531553e-07
2.78559130753997e-06
2.40220254067658e-08
-2.84460504624898e-07
2.0746312269125e-06
1.60273749031232e-08
-2.89774594947855e-07
1.6169496126389e-06
6.94085055287705e-09
-2.73096974257827e-07
1.78761067694355e-05
-5.17140862946731e-07
-1.80589142473633e-07
4.97248869071883e-06
8.13923014878047e-09
-2.71983297650162e-07
3.1003249043123e-06