/*--------------------------------*- C++ -*----------------------------------*\
  =========                 |
  \\      /  F ield         | OpenFOAM: The Open Source CFD Toolbox
   \\    /   O peration     | Website:  https://openfoam.org
    \\  /    A nd           | Version:  12
     \\/     M anipulation  |
\*---------------------------------------------------------------------------*/
/*   Windows 32 and 64 bit porting by blueCAPE: http://www.bluecape.com.pt   *\
|  Based on Windows porting (2.0.x v4) by Symscape: http://www.symscape.com   |
\*---------------------------------------------------------------------------*/
FoamFile
{
    format      ascii;
    class       volVectorField;
    location    "200";
    object      U;
}
// * * * * * * * * * * * * * * * * * * * * * * * * * * * * * * * * * * * * * //

dimensions      [0 1 -1 0 0 0 0];

internalField   nonuniform List<vector> 
10152
(
(6.41448067374279e-06 0.000668032816408136 3.66559048701038e-05)
(7.09870681134537e-06 0.000699447964659411 3.45229365018658e-05)
(1.99545375715854e-05 0.000558848441984967 3.28433005865811e-05)
(5.81807894917311e-06 0.000408217123074218 6.971448648342e-05)
(7.17009918163533e-06 0.0007298203674897 3.22370628664285e-05)
(2.13649960316045e-05 0.000579784427240612 3.09057787494058e-05)
(6.01972614958472e-06 0.000428974950885439 6.60257690691721e-05)
(3.56322360296289e-05 0.000501851216755032 3.21660171506503e-05)
(1.85005997003598e-05 0.000299488128252125 6.69145476077077e-05)
(4.61054807432532e-06 0.000498615584136143 0.000105492288812248)
(6.91205187938142e-06 0.000758397371436515 3.01603840399999e-05)
(2.15011706540703e-05 0.000605907666993883 2.90791173234867e-05)
(6.02532494650963e-06 0.000450295157227778 6.25063282389349e-05)
(3.62179278346737e-05 0.00051698912143476 3.00506022726989e-05)
(1.90212194994661e-05 0.000312710168609804 6.34715601848899e-05)
(4.65061880443832e-06 0.000518981552154642 0.00010039606340542)
(5.31007928842963e-05 0.000485150059351565 3.22426506060627e-05)
(3.30427183500533e-05 0.000247003636234391 6.54638137974852e-05)
(1.39732395748132e-05 0.000445333272111525 0.000102901716067448)
(4.02827552894131e-06 0.000553241450482396 0.000139457375471327)
(6.61550080269154e-06 0.000785188351176609 2.83041166948448e-05)
(2.08781050341653e-05 0.000631857402445765 2.71220276067095e-05)
(5.91605037849295e-06 0.000470757524260196 5.92398639372468e-05)
(3.57833388480586e-05 0.000540999670046701 2.78465889474848e-05)
(1.90527742329474e-05 0.000329818155030994 5.98750047064141e-05)
(4.61250867561649e-06 0.000539181820011688 9.55282507283393e-05)
(5.24148180715372e-05 0.00049852254352014 3.03799185478732e-05)
(3.33750326355934e-05 0.000255926835332613 6.22104552845405e-05)
(1.41295029862958e-05 0.000461449580591514 9.78733223851135e-05)
(3.97429554101403e-06 0.000572068092229368 0.000133038124645951)
(7.09816166519626e-05 0.000463838474697329 3.1344741400564e-05)
(4.82867613512245e-05 0.000223149101096244 6.5024330096144e-05)
(2.52007866120818e-05 0.000411192260217238 0.00010121743904834)
(1.14477375443092e-05 0.000521825685507613 0.000136672859008938)
(3.48561030097583e-06 0.000593257262624561 0.0001697935931028)
(6.35545416199857e-06 0.000810172155621579 2.66226783784774e-05)
(2.01860215820541e-05 0.000656205861573878 2.53883082652109e-05)
(5.78791004266597e-06 0.000490021600329005 5.61589527478235e-05)
(3.48166769839145e-05 0.000565883898175567 2.59648090502312e-05)
(1.87919507442541e-05 0.000347964509725713 5.66295151990179e-05)
(4.5268962155403e-06 0.000558610369316811 9.0902386193834e-05)
(5.10969764371642e-05 0.000521908450854265 2.82245479845965e-05)
(3.31926252431777e-05 0.000270753425608264 5.85351903036695e-05)
(1.40551269375419e-05 0.000479308270572509 9.29964935747221e-05)
(3.89931657193675e-06 0.000590603315427111 0.000126937102379243)
(6.92629004974274e-05 0.000476643717168997 3.02654474268883e-05)
(4.83172556531159e-05 0.000230276522767662 6.19326813958079e-05)
(2.5263894822868e-05 0.000424617517660251 9.6306093783807e-05)
(1.13946592135933e-05 0.000538184180706656 0.000130300186040622)
(3.40814660162102e-06 0.000610071297304341 0.00016240645494725)
(8.9419767797877e-05 0.000435084531703705 3.04134764658663e-05)
(6.37304058522794e-05 0.000199885154162471 6.43836321653733e-05)
(3.71710363106009e-05 0.000389939995467247 0.000100330635740484)
(2.03250564077363e-05 0.000497593233471169 0.00013452594056355)
(9.77968077470602e-06 0.00057077445574773 0.000166603081546537)
(3.00479823857327e-06 0.000627110345944375 0.000196339913051259)
(6.13966508047239e-06 0.000833508225607842 2.51232323919683e-05)
(1.96088645180712e-05 0.000678637138858773 2.38920758203447e-05)
(5.67234489753622e-06 0.000508043518251454 5.32861575122482e-05)
(3.38925740519467e-05 0.000589416296729342 2.43683167887801e-05)
(1.84787942152435e-05 0.000365328454164254 5.36834826932678e-05)
(4.42779780281897e-06 0.000577132194948166 8.65351568111852e-05)
(4.95899799956623e-05 0.000546771416342321 2.63745273512131e-05)
(3.27364373248878e-05 0.000287882212049145 5.52981990851098e-05)
(1.38378254708065e-05 0.000497570250137742 8.84710631863701e-05)
(3.80893416364003e-06 0.000608558300980366 0.000121158304645077)
(6.68988156307708e-05 0.000499992137774274 2.84993434012022e-05)
(4.78619701248896e-05 0.000244116824710255 5.82503580273223e-05)
(2.50302231703941e-05 0.000441001691386989 9.14469082333282e-05)
(1.12406050372269e-05 0.00055534482541189 0.000124262627681798)
(3.32211260481116e-06 0.000626734858580313 0.000155383919584431)
(8.63282599598927e-05 0.000447165123712593 2.91765960405547e-05)
(6.35142101764078e-05 0.000206161420030183 6.14689731673754e-05)
(3.70916294355355e-05 0.000402054939089234 9.55502202946839e-05)
(2.02231850471649e-05 0.000512293260358918 0.000128269419011098)
(9.62181049669894e-06 0.000585953648516288 0.000159279478737456)
(2.91416377262515e-06 0.000641771865388305 0.000188291150912146)
(0.000109874347478973 0.00040240652829893 3.16201339738539e-05)
(7.8979629242931e-05 0.000175673224364404 6.35892991480142e-05)
(4.92837363168638e-05 0.000368755429227461 9.9084367100915e-05)
(3.0122993211254e-05 0.000480058536313907 0.000133153045661903)
(1.71227042059077e-05 0.000551783306708587 0.000163926057049033)
(8.59513089029327e-06 0.000609166886514195 0.000192541585434228)
(2.63137744823642e-06 0.000658512619146967 0.000219221279349479)
(5.96120199261699e-06 0.000855367603416802 2.38085326070323e-05)
(1.91544465125499e-05 0.000699249408673473 2.25432839868823e-05)
(5.57224713581997e-06 0.000524928981960693 5.06892673740895e-05)
(3.3168421849335e-05 0.000611010741810397 2.29134796147226e-05)
(1.82017190418539e-05 0.00038152019747952 5.09602333066419e-05)
(4.33013561453769e-06 0.00059478010144669 8.24808936176978e-05)
(4.83605563141335e-05 0.000570504850447015 2.47830616685344e-05)
(3.2269341778302e-05 0.000304520671501088 5.24430117029352e-05)
(1.35783562777003e-05 0.000515191424790878 8.42587003483498e-05)
(3.70876001992906e-06 0.000625906021163167 0.000115735992540157)
(6.47021691097779e-05 0.000525318471953814 2.67674894620524e-05)
(4.71898410718694e-05 0.000261075498357721 5.50310186364042e-05)
(2.46287662816186e-05 0.000458645835151367 8.70096424388334e-05)
(1.10142188854376e-05 0.000572633960247001 0.00011862851745283)
(3.22869391491777e-06 0.000643064769904661 0.000148746263499914)
(8.24410102858721e-05 0.000470801236882982 2.83373874490697e-05)
(6.27507326396772e-05 0.000219582547619025 5.78494514669322e-05)
(3.66795681460209e-05 0.000417721433555867 9.07438701612877e-05)
(1.99310815214409e-05 0.000528528897640572 0.000122330210977034)
(9.41185411029959e-06 0.000601684440116388 0.000152373212212618)
(2.81878357102836e-06 0.000656505705250749 0.000180632336864615)
(0.000104234699853208 0.000409371596631839 2.90944423114354e-05)
(7.84856239681852e-05 0.000181056248338482 6.07750225395527e-05)
(4.90861255309618e-05 0.000380275471641474 9.44832516416075e-05)
(2.99043470459161e-05 0.000493923878408056 0.0001270340155021)
(1.68894308288457e-05 0.000565836202706461 0.000156726962059023)
(8.3716970987577e-06 0.000622641370855118 0.000184584388285696)
(2.52786498023639e-06 0.000671018126914397 0.00021076718695473)
(0.000131823745792952 0.000371073859030586 3.19980874118705e-05)
(9.37211905245661e-05 0.000154564999924976 6.3014782958193e-05)
(6.08942185932986e-05 0.000346849677863759 9.75649040872398e-05)
(4.00112991778517e-05 0.000461671127096346 0.000131301165134427)
(2.53602879480948e-05 0.000536794133409328 0.000162040103149453)
(1.49414345309018e-05 0.000593322437240871 0.000189351068143146)
(7.76011302178446e-06 0.000643120593474069 0.000214892151878961)
(2.38638782858276e-06 0.000689260808352945 0.000238776278597995)
(5.77812646044418e-06 0.000875977084358762 2.25914531087879e-05)
(1.8765985565606e-05 0.000718213562454344 2.13461419302044e-05)
(5.48567532210895e-06 0.000540796445441049 4.84130956469502e-05)
(3.26027790571674e-05 0.000630706459360237 2.16225053871611e-05)
(1.79709446228441e-05 0.000396560328534241 4.84908281223659e-05)
(4.23816441828168e-06 0.000611656944373031 7.88186567298298e-05)
(4.74752069218572e-05 0.000592242656379021 2.33399730553757e-05)
(3.18716757717198e-05 0.000320021488293925 4.98182917659325e-05)
(1.33221052125833e-05 0.000531977658876461 8.03528449639872e-05)
(3.60711878570715e-06 0.000642698443178619 0.000110735374542445)
(6.32135326308185e-05 0.000549647495736846 2.52093919249286e-05)
(4.65848270748494e-05 0.000277778437636625 5.22389558087204e-05)
(2.41935051301359e-05 0.000475857855477798 8.29212203248659e-05)
(1.07541746655246e-05 0.000589490993627444 0.000113368623918178)
(3.12857555529546e-06 0.000659066795510465 0.00014254548247447)
(7.92913837526914e-05 0.000497228603133171 2.69575688012858e-05)
(6.1832705530223e-05 0.000236730645873326 5.46912819263531e-05)
(3.60919377513168e-05 0.000435232507369352 8.63886717371589e-05)
(1.95265579771337e-05 0.000545445717758998 0.0001168411373593)
(9.16107000582528e-06 0.000617568905622644 0.000145915811531596)
(2.71859715233783e-06 0.00067115904949416 0.000173402271133604)
(9.66673603972221e-05 0.000433674861428754 2.74495504280604e-05)
(7.72429262848959e-05 0.000194288429806255 5.71855450349999e-05)
(4.84993011988366e-05 0.000395679595025887 8.97884920327094e-05)
(2.94459906058189e-05 0.0005097381951648 0.000121203801532538)
(1.65282507098868e-05 0.000580957578017653 0.000149964669302105)
(8.11440043034214e-06 0.000636705534885776 0.000177086258814432)
(2.42015292297749e-06 0.000683817849482576 0.000202718090615004)
(0.000123949594362714 0.000364642337447019 2.99652359359255e-05)
(9.28848016771449e-05 0.000155383459915775 6.03016453160689e-05)
(6.06064626765668e-05 0.000357940636333595 9.31490450249401e-05)
(3.96842000213512e-05 0.00047525882836657 0.000125401593732111)
(2.50136217955737e-05 0.000550338027021948 0.00015500046164366)
(1.45965685324641e-05 0.000605987311157051 0.000181519857981313)
(7.47458383218567e-06 0.000654709454695075 0.000206540429501486)
(2.26504180869577e-06 0.00069963331614276 0.000230121468094288)
(0.000107382790005892 0.000135735004164652 6.22970836795249e-05)
(7.15166506232089e-05 0.00032613455270922 9.61260083446576e-05)
(4.93543786318394e-05 0.000442033898620897 0.00012911124833784)
(3.37245820570249e-05 0.000520351929085395 0.000159678885102231)
(2.20782323275845e-05 0.000580044236262093 0.000186971659134211)
(1.34788348381904e-05 0.000629219480649485 0.000211289903646539)
(7.21897303023305e-06 0.000675341489927704 0.000234094493758135)
(2.26113320188828e-06 0.000720124924919777 0.000255426536393474)
(5.57328317389464e-06 0.000895621517700003 2.13859671085593e-05)
(1.8375498836862e-05 0.000735795666680598 2.03010352388645e-05)
(5.40772506111674e-06 0.000555789783777145 4.64801669435874e-05)
(3.20843420196685e-05 0.000648676207408707 2.04995058112951e-05)
(1.7770019471764e-05 0.00041055048076445 4.63136500227515e-05)
(4.15304252420867e-06 0.000627873002351294 7.56130281703297e-05)
(4.68070097097649e-05 0.000611943600149467 2.20786116189355e-05)
(3.15402702559072e-05 0.000334334812705485 4.74391200467824e-05)
(1.30806538565797e-05 0.000547976405706666 7.68126043212945e-05)
(3.50840461333361e-06 0.000659025660407014 0.000106240369615011)
(6.23322060207864e-05 0.000571811402599516 2.37958891249172e-05)
(4.61118380963873e-05 0.000293354638073988 4.96862483322737e-05)
(2.37744524243372e-05 0.000492261800145505 7.91312426407088e-05)
(1.04865082016268e-05 0.000605825982838139 0.00010851534639882)
(3.02656297037757e-06 0.000674788781543193 0.000136859248895582)
(7.77464449600093e-05 0.000522702636446134 2.53712841546828e-05)
(6.11317530637691e-05 0.000253825875362875 5.19996270338765e-05)
(3.5492145310807e-05 0.00045247805215959 8.2410590478003e-05)
(1.90841665641881e-05 0.00056207555845062 0.000111735218658439)
(8.88304774359979e-06 0.000633253314425318 0.000139892571955949)
(2.61281284813505e-06 0.000685738360992644 0.000166670344478538)
(9.2093193463847e-05 0.000462807879462819 2.67426874042853e-05)
(7.59970138239761e-05 0.000211953648811264 5.40988589601287e-05)
(4.77282619367127e-05 0.000413342441265256 8.55513796861747e-05)
(2.88526244398176e-05 0.000526620184243325 0.000115846344636103)
(1.60884231593321e-05 0.00059661275715695 0.000143689429380649)
(7.82899467532379e-06 0.000651056619776834 0.000170069316522791)
(2.30894854734726e-06 0.000696777199800701 0.000195129452660404)
(0.000107274615034471 0.000386982254112379 2.55952562089877e-05)
(9.06041672948341e-05 0.00016793842156315 5.63831104246189e-05)
(5.98306823134165e-05 0.000373308049344695 8.85580102525959e-05)
(3.90738515781472e-05 0.000491019308635911 0.000119746059767594)
(2.44824594056991e-05 0.000565228901610035 0.000148391073448915)
(1.41574305191918e-05 0.000619637155502693 0.00017419077799235)
(7.16401372018952e-06 0.000667018929736452 0.000198675015983749)
(2.1401966922082e-06 0.000710514769319589 0.000221884189700138)
(0.000137405075779782 0.000320811988094397 2.93896253342748e-05)
(0.000106136492882272 0.000134330431144984 6.00691544004257e-05)
(7.11947041593232e-05 0.000335062912361344 9.18138581307241e-05)
(4.89502399446399e-05 0.000455570369762364 0.000123461563497184)
(3.32384754738245e-05 0.000533820914703535 0.000152887461627448)
(2.15836388301117e-05 0.000592411669667893 0.000179323253217155)
(1.30136434262201e-05 0.000640213746203646 0.000203071193032274)
(6.86212821112023e-06 0.000684990966792943 0.000225544053535876)
(2.11508821448177e-06 0.000728395421759563 0.000246736223970575)
(8.08635287385143e-05 0.000306398825202179 9.47566888635454e-05)
(5.7698648712012e-05 0.000422269025509095 0.000126936591841801)
(4.15255963240415e-05 0.00050221639619187 0.000156972156359509)
(2.93207960259918e-05 0.000564942547458295 0.000184207486652579)
(1.9851230512544e-05 0.000617050677014685 0.000208555535403633)
(1.25678369326972e-05 0.000662628449168284 0.000230224886621776)
(6.93777793997709e-06 0.000707084170041985 0.000250551499306743)
(2.2317984467567e-06 0.000751349083139199 0.000269552160263432)
(5.40144893682998e-06 0.0009146126353646 2.05279276931848e-05)
(1.79499093211942e-05 0.000752306261259046 1.92796806349673e-05)
(5.34239819344028e-06 0.000570092800767847 4.49065752748918e-05)
(3.15253367141815e-05 0.000665221973492994 1.95417454417707e-05)
(1.7586437566864e-05 0.000423640690137173 4.44536421878316e-05)
(4.07420131778666e-06 0.000643554141679401 7.29098106947312e-05)
(4.61506513546899e-05 0.000629835491497544 2.09740562795722e-05)
(3.1245144296577e-05 0.000347550406243152 4.53361308034138e-05)
(1.2853624691807e-05 0.000563286937894495 7.36999032190127e-05)
(3.41408238619223e-06 0.00067498800555882 0.000102326428259417)
(6.16409279222877e-05 0.000591712841010861 2.25536927554183e-05)
(4.57252610158112e-05 0.000307683628045458 4.7375288339198e-05)
(2.3380462394276e-05 0.000507854723681057 7.56863312420471e-05)
(1.02212399837171e-05 0.000621688465079288 0.000104141902428564)
(2.92579173795095e-06 0.000690305818843302 0.000131776696544642)
(7.71396867918202e-05 0.000545563282188605 2.38970787244549e-05)
(6.06665591865472e-05 0.000269761551028721 4.95480432850344e-05)
(3.49318552267333e-05 0.000468932112712841 7.87267999017887e-05)
(1.8637887353032e-05 0.000578205145224068 0.000107020311648395)
(8.59452831249846e-06 0.000648684642984222 0.000134360862591213)
(2.50491674483077e-06 0.000700281028339787 0.000160527031322686)
(9.11636570271754e-05 0.000490444130316141 2.55937866681499e-05)
(7.53056889108097e-05 0.000229781974812615 5.15431472884684e-05)
(4.69930146501777e-05 0.000430876098925918 8.17115252707942e-05)
(2.82199126030151e-05 0.000543326069412307 0.000110876692286972)
(1.56111005186837e-05 0.000612166623937285 0.000137842262797392)
(7.52183260419379e-06 0.000665428489859521 0.000163536024959943)
(2.19318480962419e-06 0.000709893815308507 0.00018808471510813)
(0.000100356146648101 0.00042290676231379 2.3887898224634e-05)
(8.88732262992539e-05 0.000186485162327015 5.3241359429354e-05)
(5.88790835188381e-05 0.000391354584465913 8.44421767112808e-05)
(3.83030266693348e-05 0.000508102780422198 0.000114558783990044)
(2.38410752500864e-05 0.000580921186762273 0.000142286012315848)
(1.36592208346195e-05 0.000633859913021655 0.000167379981618198)
(6.83390925553502e-06 0.000679784110668241 0.000191318405384009)
(2.01341925307572e-06 0.000721777212522668 0.000214131982800567)
(0.00011011414515426 0.000337128076003539 2.07460879578512e-05)
(0.000102142536670013 0.00013976454803441 5.54453076969908e-05)
(7.01503188646738e-05 0.000350104053876122 8.71824884316334e-05)
(4.82126899018267e-05 0.000471489184694034 0.000117995409756015)
(3.25335316347237e-05 0.000548790872931314 0.000146494014339739)
(2.09437670931484e-05 0.000605960612662478 0.000172180098772691)
(1.2480255485023e-05 0.000652246407469068 0.000195392404149053)
(6.48901819938501e-06 0.000695508594189008 0.000217499027546093)
(1.96851251887344e-06 0.00073737486625102 0.000238475301977597)
(0.000119855717870853 0.000303010797677567 2.95503122170586e-05)
(0.000116631503017039 0.000109153767901701 5.97938537891063e-05)
(8.04655275946311e-05 0.000314265157411026 9.07434649521911e-05)
(5.72711303105998e-05 0.000434811378571753 0.000121413185922701)
(4.09307629629534e-05 0.000515838717725916 0.000150472162667635)
(2.86461112043529e-05 0.000577364959851999 0.000176827833101882)
(1.91852520275352e-05 0.000627887696762694 0.00020053165102555)
(1.19670381747763e-05 0.000671822381398366 0.000221809807230622)
(6.49805620702359e-06 0.000714770541893849 0.000241964542318026)
(2.05707741334269e-06 0.0007575396764833 0.000260963545831766)
(6.48275545370932e-05 0.000402090953181917 0.00012480503351769)
(4.83840052297879e-05 0.000483238977092689 0.000154250332656182)
(3.60154201988449e-05 0.000547829351431489 0.000181121268035664)
(2.62854893910757e-05 0.000602823306398972 0.000205510292873616)
(1.84438214651779e-05 0.000651109639798567 0.000227272243890422)
(1.21057701998466e-05 0.000695058274651661 0.000246544107557488)
(6.87563187385326e-06 0.000738846048489088 0.000264598901815028)
(2.27190031879747e-06 0.000782894445614457 0.000281457290620209)
(5.27406476252059e-06 0.000933235654387451 2.01497809422257e-05)
(1.75203957169066e-05 0.000768050368230172 1.82334984401568e-05)
(5.28994212275158e-06 0.000583902012680743 4.37285216580791e-05)
(3.09431519821354e-05 0.000680655117285176 1.87120714817583e-05)
(1.74300802958726e-05 0.000436019399695159 4.29260326355555e-05)
(4.00300597228472e-06 0.000658845800927977 7.07469711223623e-05)
(4.5441677388445e-05 0.000646207920292 1.99832308430645e-05)
(3.09767279593838e-05 0.00035983204351311 4.35283319427194e-05)
(1.2639587522052e-05 0.000578036491092488 7.10638523088619e-05)
(3.32475223687284e-06 0.00069069631591454 9.90564635651445e-05)
(6.09220016513897e-05 0.000609682091236278 2.14344014758713e-05)
(4.53730190136967e-05 0.000320860606306143 4.53205688503498e-05)
(2.3008381169954e-05 0.000522726094252768 7.26451968259924e-05)
(9.96190740010989e-06 0.000637168317648397 0.000100321848195671)
(2.82740045426056e-06 0.000705705354833863 0.000127382141841971)
(7.66940438212547e-05 0.000565834887339877 2.26054269958608e-05)
(6.03078024302558e-05 0.000284336851960416 4.73181205129268e-05)
(3.44078920023553e-05 0.000484542856530858 7.53692735256213e-05)
(1.81980620291717e-05 0.000593846950793202 0.000102760514351534)
(8.30361806044154e-06 0.000663906567689082 0.000129405034616969)
(2.39716128001236e-06 0.000714847288854054 0.000155068856927889)
(9.14231734317789e-05 0.000514433198323041 2.39488913127146e-05)
(7.5007428209089e-05 0.000246310870881415 4.92227604977537e-05)
(4.63377715926394e-05 0.000447610306623699 7.81603564416504e-05)
(2.75881565427584e-05 0.0005595460671654 0.000106284220209765)
(1.51211559640045e-05 0.000627484453018833 0.000132464108311853)
(7.20493192902411e-06 0.000679781723497917 0.0001575623416881)
(2.07538973876672e-06 0.00072319259465414 0.000181685880357489)
(0.0001024578177716 0.000455017241722499 2.42311555871863e-05)
(8.84481595370871e-05 0.000205543176782089 5.08949417843195e-05)
(5.80667783581422e-05 0.000409412615544878 8.07645203703255e-05)
(3.75012566612057e-05 0.000525092988114816 0.000109755218862145)
(2.31533241598574e-05 0.000596588246653222 0.000136599415256802)
(1.3128597396783e-05 0.000648174417270853 0.000161037241548542)
(6.48761970510388e-06 0.00069277751370402 0.000184485177891573)
(1.88343615675388e-06 0.000733408342547964 0.000206958115852458)
(0.000101911451913811 0.00038200479548431 1.76415999593592e-05)
(9.97394972232164e-05 0.000159634652792151 5.18422173058013e-05)
(6.90213656930974e-05 0.000368646202898625 8.31093151025947e-05)
(4.72907113821597e-05 0.000488958768316996 0.000112987704589545)
(3.16926999595318e-05 0.000564728657876727 0.000140595231214947)
(2.02159649282593e-05 0.000620280936331631 0.000165568366863351)
(1.19040331547044e-05 0.000664963691873498 0.000188256773709588)
(6.10570713988336e-06 0.000706658201437898 0.000209987127209995)
(1.82155852727299e-06 0.000746939815958616 0.000230718950001287)
(0.000114443588706609 0.000311567916207751 1.73480641370798e-05)
(0.000111408582704995 0.000111400454067328 5.34315438134252e-05)
(7.91740707435957e-05 0.000325529647839514 8.56933074883637e-05)
(5.64209835721479e-05 0.000450770942468464 0.000116067510734481)
(4.00880180024373e-05 0.000531083408293917 0.000144320830689698)
(2.7799475993245e-05 0.00059108122737485 0.000169927311435077)
(1.84093395380388e-05 0.000639913005889671 0.000193055549627158)
(1.13225345334789e-05 0.000682164543368112 0.000213957873807313)
(6.05375307752979e-06 0.000723477008831034 0.000233897678511415)
(1.88335732440909e-06 0.000764628990305563 0.000252813880681759)
(0.000131240192480194 0.00019735523213373 2.39919731615072e-05)
(0.000120982322372072 7.88584937990548e-05 6.06078257658578e-05)
(8.80737960604907e-05 0.000290656364034096 8.95359242710234e-05)
(6.43625904886524e-05 0.000414559604388384 0.000119577168735826)
(4.77283445052317e-05 0.000496413138078069 0.000147911408572907)
(3.51857285382936e-05 0.000560523545265808 0.000174057231866676)
(2.53892381143703e-05 0.000613810359500781 0.000197767687054633)
(1.75821289279839e-05 0.000660248452759634 0.000219057163533384)
(1.13544099956184e-05 0.000702396297622052 0.000238083661780781)
(6.3511043040039e-06 0.000744549329378269 0.000256108662042362)
(2.06682583537077e-06 0.000787016378445499 0.000273080602114506)
(5.40982302656562e-05 0.000463233536889936 0.000151538841099291)
(4.18245181266539e-05 0.000529461923636607 0.000178007143890616)
(3.22010633973065e-05 0.000586380058061152 0.000202161779772451)
(2.43431060471978e-05 0.000637393992425051 0.000224050853639197)
(1.77097253079842e-05 0.000683885666818769 0.00024347715754977)
(1.20086615151073e-05 0.000727201414102365 0.000260538505121736)
(6.99881962942906e-06 0.000770715131316968 0.000276498423654326)
(2.36605622777036e-06 0.000814556613712876 0.00029136817928421)
(5.16417625381057e-06 0.000951773831271647 2.00136863735369e-05)
(1.71581903285554e-05 0.000783349852060522 1.76181442234113e-05)
(5.24887639928027e-06 0.000597410189809562 4.29807115889227e-05)
(3.03805436335473e-05 0.000695296669281123 1.80599301656527e-05)
(1.72982350121036e-05 0.000447889306105916 4.17636356131042e-05)
(3.9397459083956e-06 0.000673906079026933 6.91636424077875e-05)
(4.47105774191244e-05 0.000661404976890651 1.91588958868972e-05)
(3.0736678613227e-05 0.000371376114378885 4.20371605646399e-05)
(1.2441468357563e-05 0.00059237420060874 6.89467426601472e-05)
(3.24062059249131e-06 0.000706274791619104 9.64852490596909e-05)
(6.01825704547438e-05 0.000625977733589415 2.04387038766546e-05)
(4.5044147767404e-05 0.000333059493213662 4.35310150296544e-05)
(2.26578095842359e-05 0.000537006274610559 7.0056092507963e-05)
(9.70993507972515e-06 0.000652374826644773 9.71200742007228e-05)
(2.73181196232055e-06 0.00072108393714508 0.00012375104336124)
(7.62084243806578e-05 0.000583866970695304 2.14550315858774e-05)
(5.99749411725523e-05 0.000297665151131949 4.53118766252482e-05)
(3.39096992610804e-05 0.000499393529917159 7.23896527933781e-05)
(1.776745561031e-05 0.000609082120170303 9.90268737550528e-05)
(8.01401731578654e-06 0.000678997228129304 0.000125108918957429)
(2.29059413925059e-06 0.000729510579821885 0.00015038882704934)
(9.17082379793106e-05 0.000535040581823924 2.26556025898319e-05)
(7.48073042974995e-05 0.000261284366856719 4.7088098955491e-05)
(4.57311204212028e-05 0.000463443466399525 7.49085468097034e-05)
(2.69669596002183e-05 0.000575258047147074 0.000102123039655055)
(1.46286983982566e-05 0.000642581751974874 0.000127633332264701)
(6.88470307527442e-06 0.000694152296090707 0.000152242749045995)
(1.957302484616e-06 0.000736719031333965 0.000176037803345161)
(0.000105240299508527 0.00048004024878931 2.3844727687227e-05)
(8.86151213501925e-05 0.000222917420278968 4.87572872276372e-05)
(5.73986258682621e-05 0.000426621528882239 7.73688137291495e-05)
(3.6714024811414e-05 0.000541595517200913 0.000105309496750199)
(2.24517133199495e-05 0.000612028030133384 0.000131359480955324)
(1.25845320027555e-05 0.000662479985866675 0.000155225136721627)
(6.13447262875764e-06 0.000705961770712628 0.000178265310313994)
(1.75175807680267e-06 0.000745419842931458 0.000200473658249623)
(0.000111472301730626 0.000421476106091776 2.00509109326859e-05)
(0.000100171385303567 0.000180693171748455 4.98315620961218e-05)
(6.82350374660659e-05 0.000387468768446556 7.96102989649301e-05)
(4.63617815657849e-05 0.000506415397726057 0.000108366831228406)
(3.08006684736131e-05 0.000580692057988978 0.000135095075293807)
(1.94454464010396e-05 0.000634744382957378 0.000159406771969115)
(1.13034040367519e-05 0.000677960672764014 0.000181623456386787)
(5.71272464553583e-06 0.000718229837063629 0.000203031194765666)
(1.67245803104774e-06 0.000757067962464756 0.000223567256895086)
(0.000118323306640884 0.000340967703620562 1.35001544574458e-05)
(0.000108989191493011 0.000131109048752256 4.94953874304795e-05)
(7.79063320292123e-05 0.000344477380340838 8.14514446621084e-05)
(5.53933875888092e-05 0.000468691986385323 0.000111196484316186)
(3.9082995188877e-05 0.000547428014871514 0.000138641095309029)
(2.68418870378797e-05 0.000605685651916266 0.000163544705291783)
(1.75673429855058e-05 0.000652777224124249 0.000186135085199986)
(1.06523543202444e-05 0.000693330476681979 0.000206669122852464)
(5.61108453174135e-06 0.000732988163296431 0.000226381846294258)
(1.71358714238732e-06 0.000772492582095695 0.000245186151941715)
(0.000157511618717222 0.000183315313567779 1.71759066561712e-05)
(0.000120846169049748 7.96840206633495e-05 5.02171541552334e-05)
(8.67988716241527e-05 0.000300192516639003 8.37957459288121e-05)
(6.34947776562272e-05 0.00042850956377966 0.000114005452271738)
(4.67811596085436e-05 0.000511891356740568 0.000141961757888924)
(3.4166078452364e-05 0.000574589269619788 0.00016742915458399)
(2.43620680604749e-05 0.000626067180191116 0.000190549564629072)
(1.6645112347543e-05 0.00067065293989852 0.000211416536922795)
(1.05842637459467e-05 0.000711005927811683 0.000230207403458028)
(5.82760738630084e-06 0.000751435826494617 0.000248147344244826)
(1.86614941678243e-06 0.000792222316753139 0.000265160257963715)
(0.000168517813486954 0.000152544131393755 2.65248369856122e-05)
(0.000129321626502352 3.65818120543035e-05 5.48628629925584e-05)
(9.35849197550902e-05 0.000259798716496539 8.78724822957504e-05)
(7.01133161937105e-05 0.000391769683208402 0.000117497775126316)
(5.33894274076264e-05 0.000476700104370427 0.000145522121435826)
(4.08836688337963e-05 0.000541987495923487 0.000171125974268631)
(3.10938782635139e-05 0.000597719788081 0.000194747870377187)
(2.3191380733753e-05 0.000646758286293343 0.000216122055208283)
(1.66305717345151e-05 0.000691229041790273 0.000235217897253343)
(1.11023035057789e-05 0.00073264110715025 0.000252163137834277)
(6.3859528851767e-06 0.000774428673750754 0.000268209446391558)
(2.12890436003874e-06 0.000816619440548666 0.000283302605488858)
(4.65579885100357e-05 0.000509779237124108 0.000174886403151168)
(3.72821903530231e-05 0.000568435775254601 0.000198772762489632)
(2.97546758470013e-05 0.000621349440180698 0.000220532625993002)
(2.33153119455932e-05 0.000670417450810882 0.000240153278779351)
(1.75456381182571e-05 0.000716153384425389 0.000257425903603206)
(1.22294763565975e-05 0.000759256742021233 0.000272433689856041)
(7.27900892929065e-06 0.000802566248033209 0.000286446463950781)
(2.50004476219025e-06 0.000846037360573096 0.000299458276443908)
(5.07104743339283e-06 0.000970503385750903 2.00884893035257e-05)
(1.68554479625223e-05 0.000798513147595484 1.74981314743601e-05)
(5.22256055689969e-06 0.000610819804357939 4.26722254510453e-05)
(2.98527211656864e-05 0.000709450114013219 1.76546794807005e-05)
(1.7193266286486e-05 0.000459454883760306 4.102603738447e-05)
(3.88454151201082e-06 0.000688901639660653 6.81952025896575e-05)
(4.39613327883926e-05 0.000675781625838282 1.85538294832982e-05)
(3.05284197827753e-05 0.000382384406590531 4.09091571891585e-05)
(1.22598119591162e-05 0.000606460843686488 6.73914622816195e-05)