/*--------------------------------*- C++ -*----------------------------------*\
  =========                 |
  \\      /  F ield         | OpenFOAM: The Open Source CFD Toolbox
   \\    /   O peration     | Website:  https://openfoam.org
    \\  /    A nd           | Version:  12
     \\/     M anipulation  |
\*---------------------------------------------------------------------------*/
/*   Windows 32 and 64 bit porting by blueCAPE: http://www.bluecape.com.pt   *\
|  Based on Windows porting (2.0.x v4) by Symscape: http://www.symscape.com   |
\*---------------------------------------------------------------------------*/
FoamFile
{
    format      ascii;
    class       volScalarField;
    location    "500";
    object      k;
}
// * * * * * * * * * * * * * * * * * * * * * * * * * * * * * * * * * * * * * //

dimensions      [0 2 -2 0 0 0 0];

internalField   nonuniform List<scalar> 
10140
(
2.18119513821264e-05
2.19644437911787e-05
2.24353085156048e-05
0.000119108759643398
2.2083462054175e-05
2.25970225818843e-05
0.000119405534610379
2.32724432926368e-05
0.000119408651444163
0.000192852427142701
2.21420486324635e-05
2.27196739681726e-05
0.000119561488985288
2.34436215737322e-05
0.000119710965391036
0.000193146506266163
2.35556246777714e-05
0.000119674313879472
0.000192729928484908
0.000249364430652683
2.21548385937395e-05
2.27813826126548e-05
0.000119562296575553
2.35712580752296e-05
0.000119869080732402
0.000193231387900464
2.37319306641235e-05
0.000119980711578195
0.000193028956430735
0.000249635354983962
2.29448811656127e-05
0.000118916554416141
0.000191866459513503
0.000249016788729274
0.000296900318640585
2.21273551547081e-05
2.27968099377327e-05
0.000119408574439479
2.36366172923755e-05
0.000119872256940957
0.000193096439345914
2.386279050321e-05
0.000120141088645613
0.000193115642733479
0.000249639992915584
2.3120770183099e-05
0.000119224426279503
0.000192167933534264
0.00024929339209951
0.000297139931258921
2.1674801826339e-05
0.000116519428247901
0.000189706816987297
0.000247428856929031
0.000296314998335285
0.000338871976100512
2.20596206453463e-05
2.27710159487774e-05
0.000119100015879816
2.36536968876681e-05
0.000119720756205486
0.000192734999293765
2.39311154103729e-05
0.000120146751897881
0.000192981990396383
0.000249369315002915
2.32524504003193e-05
0.000119386685743583
0.000192256434013966
0.000249299743388858
0.000297062598892708
2.1847016579009e-05
0.000116826198085396
0.000190007885561274
0.000247707792734015
0.000296561319862402
0.000339074944580664
2.01087894565691e-05
0.000112615258943307
0.000185835901686189
0.000244194802307735
0.000294139459995945
0.000338015408545077
0.000376910609637335
2.1950417527851e-05
2.27052354074053e-05
0.000118635088711239
2.3626300500821e-05
0.00011941397707593
0.000192142468014361
2.3950211517944e-05
0.000119997527298658
0.000192621793846058
0.000248814250994869
2.33218534184813e-05
0.000119395307135226
0.000192125079739251
0.000249030021643254
0.000296660111569351
2.19773109645872e-05
0.000116989822619915
0.000190097857228945
0.000247716014897607
0.000296486042789216
0.000338914869659303
2.02760841185005e-05
0.000112918984805125
0.000186134281180082
0.000244472597156822
0.000294388513848671
0.000338226234176022
0.000377072742436706
1.84176106485185e-05
0.000107644656813781
0.00018029085666468
0.00023907858182093
0.000290010248978753
0.000335290438813711
0.000375823472812678
0.000411943861751671
2.18003520379818e-05
2.25971918369987e-05
0.00011801088088527
2.35588725519498e-05
0.000118951029361772
0.000191314491673822
2.39231905074476e-05
0.000119692349168369
0.000192030544764903
0.000247967911104868
2.33436628288143e-05
0.000119249864990644
0.000191767871503226
0.000248475935633565
0.00029592238056692
2.20466530566368e-05
0.000117002200515018
0.000189970003528485
0.000247448889236947
0.000296084791779909
0.000338383779543297
2.04037506450848e-05
0.000113083525020613
0.000186225543681164
0.000244482528503765
0.000294315635391006
0.000338068863762455
0.000376829026077422
1.85794198414164e-05
0.000107944059557103
0.000180584880155419
0.000239352907956233
0.000290258087243222
0.000335504704541081
0.000375994646442103
0.000412062056060148
1.66200028475061e-05
0.000101900399581188
0.000173341214092929
0.000232152824674269
0.000283806108891324
0.000330374641952555
0.00037263261623604
0.000410700538817869
0.000444572927519375
2.16091929042173e-05
2.24466881686598e-05
0.00011722447788733
2.344944266674e-05
0.000118328872688658
0.000190246203194848
2.38550737497344e-05
0.000119231188561212
0.000191204027362357
0.000246823960007537
2.33198536620081e-05
0.000118949026683026
0.000191180351849662
0.000247630766992747
0.000294841254333206
2.20709886175515e-05
0.000116863118806017
0.000189618350469061
0.000246898627273273
0.000295348484496207
0.000337471039367817
2.04723836486499e-05
0.000113100590495351
0.000186102824184245
0.000244219954371943
0.000293917816907246
0.000337539739590237
0.00037617147930783
1.87039631621534e-05
0.000108109256808556
0.000180677509762146
0.000239364652812427
0.000290187688627578
0.000335350632830004
0.000375754343086765
0.000411733667019643
1.67763411567718e-05
0.000102194781170424
0.000173629655374914
0.000232422214471923
0.000284050373603979
0.000330588070819979
0.000372808128725893
0.000410828824819632
0.000444645389189356
1.47098184808687e-05
9.54673190312261e-05
0.000165198526018029
0.000223624278216013
0.00027566119550431
0.000323220731580492
0.000367058154299264
0.000407155927723454
0.00044323084461997
0.000475190854890679
2.13758610279965e-05
2.2254314949164e-05
0.000116272264012662
2.32958542414645e-05
0.000117544179416123
0.000188932483107908
2.37458237057787e-05
0.000118611365955782
0.000190137431651054
0.000245375981380583
2.32548818068968e-05
0.000118492848917651
0.000190358521834848
0.000246488305961041
0.000293409197678506
2.20515670123974e-05
0.00011657107257359
0.000189038457606429
0.00024605869322886
0.000294269228198073
0.000336167867162464
2.04989015622607e-05
0.000112970329583065
0.00018576015575384
0.000243677222004592
0.000293186632988532
0.000336629357769388
0.000375089089912174
1.87715341689335e-05
0.000108131749958841
0.00018056169452328
0.000239108919395589
0.000289795946148202
0.000334826225617788
0.000375099484771735
0.000410950610273375
1.68977886957559e-05
0.000102360732018242
0.000173723870852952
0.000232436202849696
0.000283982844224106
0.000330437609156587
0.000372572153182112
0.000410504423249198
0.000444230940886029
1.48615965279935e-05
9.57569254765719e-05
0.000165480476727345
0.000223887666089848
0.000275900605596027
0.000323430960085484
0.00036723348670538
0.000407289435249068
0.000443314321692202
0.000475218492789447
1.27060135201201e-05
8.83441498559989e-05
0.000155959563764256
0.000213649792488086
0.000265771941412528
0.000314007729428212
0.000359098517898478
0.000401054550705242
0.000439421984222816
0.000473780222392445
0.000504034488986826
2.11009272647162e-05
2.20198105672486e-05
0.000115150297122139
2.30978136265358e-05
0.000116593605139591
0.000187367683703715
2.35928202128623e-05
0.000117828928987418
0.000188825467325802
0.000243617348631434
2.31502148101095e-05
0.000117879559545145
0.000189297671358112
0.000245042193141634
0.0002916186941427
2.19927667791541e-05
0.000116126034439046
0.00018822646921141
0.000244922973733866
0.000292839577065652
0.000334465988904521
2.04841080231885e-05
0.000112691154475586
0.000185193133398536
0.000242847916275238
0.000292114474169321
0.000335329230273125
0.000373572747751673
1.87999094504439e-05
0.000108012088994498
0.00018023152320567
0.000238578051199314
0.000289074619914674
0.000333922747272115
0.000374020360171909
0.000409701899532962
1.69641713148698e-05
0.000102389327986389
0.000173616581770521
0.000232189680395679
0.000283600065673279
0.00032992112567768
0.000371923342443121
0.000409724620739101
0.000443321928621841
1.49803348973047e-05
9.59244370231399e-05
0.00016557662045653
0.000223904459461116
0.000275836691788158
0.000323284755019118
0.000367002397175637
0.000406970287270118
0.000442904323819773
0.000474715690920521
1.28526890641023e-05
8.86313416671664e-05
0.000156234423921504
0.000213906253936378
0.000266005632193838
0.000314213633774994
0.0003592713058532
0.00040118862331842
0.000439511493280997
0.00047381967154652
0.000504027224436199
1.064817039555e-05
8.05196810176248e-05
0.000145661741032394
0.000202314800396308
0.000254270574991805
0.000302934721752836
0.000348961064237313
0.000392420654762588
0.000432894940854622
0.000469760774161105
0.000502567545108088
0.000531224349151226
2.07834034684866e-05
2.17431208030801e-05
0.000113854307256412
2.28558767056005e-05
0.000115473453493521
0.000185546207458487
2.33948788851006e-05
0.000116880415534473
0.000187262507360456
0.000241541308333611
2.30036105091343e-05
0.000117105116851331
0.000187992484061255
0.000243285768113914
0.000289462160583048
2.18964063776258e-05
0.000115526790470312
0.000187177945322521
0.000243485277257775
0.000291052049269833
0.000332357129804721
2.04321931083685e-05
0.000112263211915471
0.000184397997112264
0.000241726063201398
0.000290694023659768
0.000333631203715569
0.000371613818382807
1.87896310740606e-05
0.0001077487345918
0.000179682656767839
0.000237765699552634
0.000288016268572622
0.000332632006133353
0.000372508218355701
0.000407978484043175
1.69940068962973e-05
0.000102281590466273
0.000173301974172111
0.000231674997622194
0.000282893789398919
0.00032903012315977
0.000370852860461969
0.00040847986080776
0.000441908262862722
1.50454017223693e-05
9.59601239637625e-05
0.000165479365112018
0.000223669381159412
0.000275465754833346
0.000322779576270662
0.000366363380906392
0.0004061976798545
0.000441998983523299
0.000473678207744977
1.29696931140162e-05
8.88027576326192e-05
0.000156333092202479
0.000213926438273494
0.000265946220044077
0.000314072717639289
0.000359046005500979
0.000400875581322766
0.000439107548768248
0.000473321725868736
0.000503429628643031
1.07889115677083e-05
8.08132521706006e-05
0.000145929268449249
0.000202563447022085
0.00025449775515643
0.00030313563124913
0.000349130318730191
0.000392552970176817
0.000432985733169341
0.000469806925995274
0.000502572799382556
0.000531225223195545
8.59504443016446e-06
7.20104014044796e-05
0.000134325178262239
0.000189670098912091
0.000241232015070418
0.000290124302044112
0.000336853814372659
0.000381482909169495
0.000423687560258551
0.000462873436124258
0.000498365197861589
0.000529705784432837
2.04197652764754e-05
2.14248193302346e-05
0.000112380325987664
2.25705638922185e-05
0.000114179839934963
0.000183462421137643
2.31522079451632e-05
0.000115762273983833
0.000185443113352658
0.000239141238802385
2.28130681926623e-05
0.000116165469215908
0.000186437347563152
0.000241212271793395
0.000286932062267997
2.17606278666045e-05
0.000114769564484429
0.000185887493282315
0.000241738953583567
0.000288899065121615
0.00032983304500821
2.0345280482382e-05
0.000111685337379552
0.000183370548449372
0.000240305518605563
0.000288917894277251
0.000331527065093557
0.000369203556174239
1.87447940619242e-05
0.000107341976553537
0.000178911459297471
0.000236666024426524
0.000286613738834765
0.000330946000838726
0.000370554541021162
0.000405771565512
1.69880829143228e-05
0.000102036175080818
0.000172775818053228
0.000230885873251829
0.000281856627795336
0.000327756579795054
0.000369352306963194
0.000406761485591932
0.000439981426441682
1.50766245370867e-05
9.5865600356264e-05
0.000165183010212115
0.000223174831726877
0.000274779545175601
0.000321906934275368
0.00036530788125621
0.000404963031703867
0.000440589750413911
0.000472098866703712
1.30333310763997e-05
8.8847130222941e-05
0.000156247419678346
0.000213704893282413
0.000265589857255632
0.000313582169783239
0.000358420648754976
0.000400114481305304
0.000438210367574441
0.00047228826884367
0.000502257185885358
1.09038198684154e-05
8.09942104578245e-05
0.000146031411991448
0.00020258760457199
0.000254443722239977
0.000303001198952888
0.000348912118811477
0.000392247247520567
0.000432589023090505
0.000469315760860691
0.000501980427900823
0.000530505869158221
8.72438347556514e-06
7.23091172321339e-05
0.000134585337243118
0.000189910038983756
0.000241451848135877
0.00029031961052103
0.000337019044815292
0.00038161263353639
0.000423777394511678
0.000462921481018923
0.000498377928864739
0.000529717926946152
0.000556922065952628
6.6089421943806e-06
6.28596414099366e-05
0.000121966048514081
0.000175752545939965
0.000226709291408177
0.000275645359466406
0.000322899597234632
0.000368463861505659
0.000412047568523061
0.000453163041502856
0.00049115721742
0.000525335813056095
2.00088706682461e-05
0.000110721281426633
2.10614722630298e-05
2.2242378029502e-05
0.000112708416713796
0.000181110073213706
2.28650471880654e-05
0.00011447076293562
0.000183361583322701
0.000236410792940176
2.25786878933764e-05
0.000115057171689742
0.000184626615051168
0.000238815081642462
0.000284021154406064
2.15832076138403e-05
0.000113849934346639
0.000184349570049512
0.00023967727765609
0.000286373092068167
0.000326885634718272
2.02219255411754e-05
0.000110954160667266
0.000182105379988423
0.000238579828808335
0.000286778551962069
0.000329008559097867
0.000366333127031517
1.86675498201398e-05
0.000106790732622839
0.000177913788833243
0.000235272952343004
0.000284859737637808
0.000328856634730156
0.000368150622892602
0.000403072012245789
1.69503704072704e-05
0.000101653531284915
0.000172034626531595
0.000229816587809578
0.000280481601984
0.000326092641700205
0.000367413329122515
0.000404560820731251
0.000437532599949692
1.50749332324267e-05
9.56399395557192e-05
0.000164683488356916
0.000222414622308392
0.000273770717564749
0.000320658865317398
0.000363827688189166
0.000403258054388762
0.000438668527025154
0.000469970211437925
1.30653453691077e-05
8.87672807417216e-05
0.000155971839459903
0.000213234100750569
0.000264928347830439
0.000312733496574185
0.000357386692750706
0.000398897035262027
0.00043681244343473
0.000470713745305018
0.000500509161386115
1.09661331704669e-05
8.10500696825075e-05
0.000145959029663849
0.000202381589619367
0.000254104521294235
0.000302528465802591
0.000348304197826935
0.000391502055633292
0.000431704890965345
0.000468291341782264
0.000500812390229804
0.00052918378178061
8.83393620928776e-06
7.25104628516842e-05
0.000134692218702553
0.000189938731684675
0.000241404006548606
0.000290192859213283
0.00033680941838493
0.000381315874549419
0.000423389483852853
0.000462438615890411
0.000497792937803903
0.000529005123263588
0.000555992346342621
6.72502165636124e-06
6.31522082149125e-05
0.000122219317385636
0.000175982848897246
0.000226920881937695
0.000275834398737747
0.000323060391462834
0.000368590697883972
0.000412135792729128
0.000453210847303217
0.000491172547507519
0.000525354411696383
0.000555353197054641
0.000580824647692076
4.74583568326708e-06
5.31086170138414e-05
0.000108593570409302
0.000160589270718795
0.000210746965234631
0.000259550423751264
0.000307165809273988
0.000353493282565237
0.000398214556041851
0.000440894740652096
0.000480992544264776
0.000517833356716032
1.95479061652174e-05
0.000108869350452125
2.06477238964624e-05
0.000178483246323338
0.00011105234574426
2.18686883499059e-05
2.25337864706559e-05
0.000113001321377162
0.000181011893341017
0.00023334383043536
2.23008649114175e-05
0.00011377635862419
0.000182554814098139
0.000236087810858359
0.000280722776096221
2.13639401081478e-05
0.000112764332743368
0.000182558461323728
0.000237293594274737
0.000283466879297658
0.000323507133048002
2.00597985093393e-05
0.00011006522424416
0.000180597031089367
0.000236542268372624
0.000284268507800123
0.000326067564701142
0.000362993874958733
1.85569853852541e-05
0.000106092024654159
0.000176684544212976
0.000233580144741175
0.000282746827940746
0.000326355706680816
0.000365287645485567
0.000399870478114947
1.68830772574445e-05
0.000101132722550316
0.00017107436538516
0.000228461174895131
0.000278761507293271
0.000324030355317592
0.000365027329257792
0.00040186877780342
0.000434552299118709
1.50444121834206e-05
9.52839509318392e-05
0.000163977491400349
0.000221383145663612
0.00027243242276812
0.000319027669114132
0.00036191461281443
0.000401074252712377
0.000436226631829457
0.000467283343377944
1.30677003928161e-05
8.8563209616593e-05
0.000155502531289557
0.00021250798957795
0.000263954428932818
0.000311518782850502
0.000355935993371389
0.000397215163819551
0.000434906064101678
0.000468591141697474
0.000498178777637416
1.09982933138537e-05
8.09866035924814e-05
0.000145706683692324
0.000201937963102201
0.000253472051060331
0.000301708980416853
0.000347298003923103
0.000390309088938778
0.000430326132276721
0.000466729184848516
0.000499069569216961
0.00052726206342499
8.8931401594651e-06
7.25822187426711e-05
0.000134634970067888
0.000189750157256341
0.000241084422102352
0.00028974098738591
0.000336222577294649
0.000380590867102109
0.000422523379780269
0.000461428713257116
0.000496634783896741
0.000527688194547202
0.000554503137679793
6.8234820883107e-06
6.3368440402647e-05
0.000122331886945799
0.000176016548458241
0.000226879944498645
0.000275716460380785
0.00032286086147049
0.000368304734343043
0.000411758691325347
0.000452738225346492
0.000490596827780749
0.000524650086032469
0.000554440062079983
0.000579824959135007
4.84712213539381e-06
5.33882987672511e-05
0.000108840643270246
0.000160809208771384
0.000210949357977335
0.000259732468371138
0.000307321634469309
0.000353617025722242
0.000398301086467539
0.000440941854260044
0.000481008293617677
0.000517853841532705
0.000550823480826258
0.000579206979999624
0.000603100274447117
3.0598082082567e-06
4.27810296283876e-05
9.42070917632009e-05
0.00014419343314829
0.000193379996874754
0.000241886892453568
0.000289704393019065
0.00033664043925129
0.000382327848865597
0.000426324744627283
0.000468151756023923
0.000507250444309188
1.90220177382956e-05
0.000106815353936822
2.0180640981073e-05
0.000175575353958031
0.000109202388288371
2.14424305337672e-05
0.000229935033789637
0.000178387713416892
0.00011134691763027
2.21562640778956e-05
2.19802996061244e-05
0.000112318256120568
0.00018021592197355
0.000233024387797494
0.000277031075552241
2.11028707393074e-05
0.000111508775421412
0.000180508361937122
0.000234581520312539
0.000280173736085817
0.000319690706223272
1.98583108608404e-05
0.000109014527999757
0.000178839786216265
0.000234186180158872
0.000281380521716628
0.00032269636754593
0.000359177728562657
1.84107470556757e-05
0.000105241347589318
0.000175218154595714
0.000231580959788691
0.000280267582885549
0.000323435132265341
0.000361956963699436
0.000396157762314377
1.67856649316421e-05
0.000100471100368421
0.000169890011390154
0.000226813303105186
0.00027668900202056
0.000321561609094589
0.000362185559595001
0.000398676024455671
0.000431030542813001
1.49874419288808e-05
9.47968520626687e-05
0.000163061111758356
0.000220074566768396
0.000270757563653544
0.000317005497542904
0.000359560194450112
0.000398402650314525
0.000433254597331355
0.000464028154178956
1.30444656556681e-05
8.82362635545672e-05
0.000154836428942286
0.000211521081972524
0.000262661326375976
0.000309930459890703
0.000354060492874732
0.000395060542142173
0.00043248273515465
0.000465911699973664
0.000495256291270242
1.10037971355158e-05
8.08057837549293e-05
0.000145270954356539
0.00020125080463679
0.000252539163357466
0.000300534913255397
0.00034588543860765
0.000388660347492096
0.000428445246580961
0.000464622669453423
0.00049674564838485
0.000524729574575144
8.92432831688866e-06
7.25372705735976e-05
0.000134408191523183
0.000189336922491465
0.000240485110511332
0.000288955636698321
0.000335249960033013
0.000379429269764011
0.000421171833104297
0.000459887553943225
0.000494905360651885
0.000525772176450417
0.000552405438374667
6.87477685736976e-06
6.34591425361809e-05
0.000122291345594449
0.000175847188350284
0.00022658228230114
0.000275288361053837
0.00032229858652352
0.000367604014575763
0.00041091543814194
0.000451748421537649
0.000489454617383901
0.000523344173400346
0.000552958293111168
0.000578204978533008
4.93351581990574e-06
5.36031945200798e-05
0.000108959797129727
0.00016084823206944
0.000210915917243044
0.000259624348023495
0.000307133725242344
0.000353343709902332
0.00039793698378554
0.000440481876269513
0.000480444254892327
0.000517160007809336
0.000549925044506414
0.000578224684452853
0.000602023579064816
3.14336532694099e-06
4.30469143951568e-05
9.44408473628466e-05
0.000144402194018085
0.000193572210089511
0.000242061100580945
0.000289854836386889
0.000336760822857085
0.000382412690378558
0.000426371296844184
0.000468167510951495
0.000507270835706115
0.000543042851092773
0.000574526096566566
0.000601436923706141
0.000623746437848293
1.64189913089714e-06
3.19175827984105e-05
7.88002359622674e-05
0.00012655188991016
0.00017462501111484
0.000222692137688613
0.000270562765636311
0.000317957067495515
0.00036445975994997
0.000409601548035598
0.000452905664071606
0.000493881148897902
1.84119497042799e-05
0.000104550360903902
1.9638881427319e-05
0.000172380744531262
0.000107149408862761
2.09553982658235e-05
0.000226179764065463
0.000175482317923072
0.000109497718006359
2.17227454245684e-05
0.000272941360376525
0.000229619331885278
0.00017760331944531
0.000110675481808422
2.16136270650786e-05
2.08000518549836e-05
0.000110078316513556
0.000178193481636415
0.000231534976146509
0.000276487787123772
0.000315430765525769
1.9617562667708e-05
0.000107798038921559
0.000176827615255515
0.000231505100615989
0.00027810788719855
0.000318888091324448
0.000354877632639629
1.82278032482687e-05
0.00010423439558248
0.000173508917952099
0.00022926875750216
0.000277414781775219
0.000320087234659511
0.000358150492324166
0.000391925437076054
1.66557570331565e-05
9.96641646093335e-05
0.000168476169485667
0.000224866507458349
0.000274256737449555
0.000318678384445288
0.000358879426768815
0.000394973402356631
0.000426957625922617
1.49035914797263e-05
9.41763392664056e-05
0.000161929425530879
0.000218482549518146
0.00026873888763921
0.00031458434370101
0.000356755789407915
0.00039523399549497
0.000429742520050265
0.000460193988422621
1.29981810982497e-05
8.77860133312673e-05
0.000153969658018441
0.000210267673532645
0.000261042083706694
0.000307960774225725
0.000351751857018688
0.000392424337915406
0.000429533104296119
0.000462665366341475
0.000491730489514138
1.09872001922561e-05
8.05100328233357e-05
0.000144649100848269
0.000200314786414854
0.000251299158055461
0.000298998824461648
0.000344058545848613
0.000386547631083379
0.000426053908305931
0.000461963233610474
0.000493831041882649
0.000521573488306161
8.93211936405754e-06
7.23811178714227e-05
0.000134009030317082
0.000188693279977552
0.000239599070159243
0.000287829101630453
0.000333883553936116
0.000377823122955936
0.000419327408068067
0.000457808711189724
0.000492598709376885
0.000523246592744457
0.000549672234008275
6.90157350670955e-06
6.3436480566724e-05
0.00012209195606526
0.000175467333056109
0.000226020043988799
0.000274541832741829
0.000321365090480316
0.000366480222478176
0.000409598708491433
0.000450237098253878
0.000487747986605756
0.000521442680839384
0.000550867069711651
0.00057594267228037
4.97532848983062e-06
5.36976617810479e-05
0.000108935984314342
0.000160699588461057
0.000210642305558485
0.000259222759534846
0.000306599402267303
0.000352671244398845
0.000397121188684926
0.000439517567465505
0.000479324220750594
0.00051587166974998
0.000548456843794967
0.000576612961729491
0.000600281339018279
3.21463665509023e-06
4.32570903600852e-05
9.45648764218169e-05
0.00014444697493784
0.00019354675718189
0.000241963622295926
0.000289679875221937
0.000336501948756312
0.000382063783244586
0.00042592652971475
0.000467618025147127
0.000506590447399951
0.00054215859032988
0.000573559556091524
0.000600378120284084
0.000622579948695756
1.70311227352022e-06
3.21721673799679e-05
7.9018170426722e-05
0.000126748600763703
0.000174806029950849
0.000222857431874506
0.000270707168084199
0.000318073747202058
0.000364542847977462
0.000409647746728277
0.000452921662233938
0.00049390111343002
0.00053206710212918
0.000566485778069408
0.00059661459406665
0.000622040124503652
0.000642733296042218
6.38390112945381e-07
2.07824699478717e-05
6.23747167879278e-05
0.000107628863313438
0.000154461231909857
0.000201979403810175
0.00024977562543137
0.000297487987714224
0.000344661217026852
0.000390799972541668
0.000435410209228189
0.000478008614906212
0.000102075936877029
1.90118314338766e-05
0.00016889705263021
0.00010488395401398
2.03841001771461e-05
0.000222075125020494
0.000172289988792625
0.000107444013139962
2.1224427839002e-05
0.000268450466192765
0.000225867952336003
0.000174710049108042
0.000108837440457903
2.11894869360524e-05
0.000310723157563588
0.000272404279939514
0.00022814833206683
0.000175606956653503
0.000108465135428718
2.0452153573883e-05
1.93369742296956e-05
0.000106410535692774
0.000174554406427037
0.000228492914592146
0.000274444685061691
0.000314637047982799
0.000350088015933189
1.80082541764678e-05
0.000103067074582973
0.000171550729841896
0.000226636969858353
0.000274181685562167
0.000316305119799796
0.000353861156615566
0.000387166147671621
1.64921851042764e-05
9.87073966561677e-05
0.000166827058810179
0.000222614146703772
0.000271457510087485
0.000315373038881035
0.000355100865082923
0.000390752429450057
0.000422324533263324
1.4790627459188e-05
9.34179805613697e-05
0.000160577266646218
0.000216600804108538
0.000266369115327614
0.000311756260443369
0.000353492877861423
0.000391559193781357
0.000425680673991997
0.000455770363043116
1.29284124228736e-05
8.72105740373515e-05
0.000152897879901415
0.000208741503485092
0.000259089558469675
0.000305601815106886
0.000349001555400221
0.000389297414335263
0.000426047373214733
0.000458841519167085
0.0004875896774021
1.09511059397586e-05
8.00997124642472e-05
0.000143837298921627
0.000199124358088518
0.000249745215887959
0.00029709305488312
0.000341809104983996
0.000383962244011017
0.000423142919468371
0.000458740956217083
0.000490314603843214
0.000517780624166555
8.92139756637892e-06
7.211840519254e-05
0.000133435150979631
0.000187814079163707
0.000238419663743685
0.000286354097157004
0.000332115502500588
0.000375764321888434
0.000416981899442665
0.000455183799631641
0.000489705446784536
0.000520098846663821
0.000546285295613406
6.90917596154242e-06
6.33076445041428e-05
0.000121731389127242
0.000174871395104303
0.000225186355250465
0.000273469501854677
0.000320052475057154
0.000364925458890264
0.000407801086508918
0.000448197860032565
0.000485471108539299
0.000518935564577601
0.000548141271707668
0.000573014114432196
4.99622463137958e-06
5.36856612269867e-05
0.000108764331012735
0.000160355637369749
0.000210120808388404
0.000258519614755618
0.000305710385557956
0.000351591405785795
0.000395846364304823
0.000438044424674838
0.0004776500235871
0.000513994837721536
0.000546381583488689
0.000574357668665952
0.000597861060580276
3.24647194909815e-06
4.33477570057929e-05
9.45590363259697e-05
0.000144320086841271
0.000193299150562297
0.00024159099194851
0.0002891767350194
0.000335861587622632
0.000381279894992131
0.000424992852367241
0.000466526197996199
0.000505326573441757
0.000540710494437412
0.000571962720478264
0.000598644594322634
0.00062071455570948
1.75623069732319e-06
3.23785176934386e-05
7.91419072717698e-05
0.000126799400583506
0.000174788842625806
0.000222771337821552
0.000270546354666792
0.000317830985179951
0.000364211260225956
0.000409220745427035
0.000452389728452141
0.000493237698305326
0.00053119975730593
0.000565534387618372
0.000595572171835422
0.000620892145908578
0.000641469696529023
6.72288106016254e-07
2.10258770068075e-05
6.25795182157897e-05
0.00010780991540581
0.000154629811552323
0.000202135137829397
0.000249913162299986
0.00029760048579382
0.000344742374880556
0.000390845941265564
0.000435426792401872
0.000478028400693379
0.000518202596287475
0.000555145891062904
0.000588331512205328
0.000617085640316659
0.000640987009690641
0.000660027466909891
1.38064414933102e-07
1.02212389563959e-05
4.5039247509857e-05
8.73956148649931e-05
0.000132815558522587
0.000179712103248483
0.000227345715983824
0.000275260581092898
0.000322972466433542
0.000369969070020746
0.000415741423890996
0.000459794365056348
0.000165132525562141
0.000102410364102558
1.9722968961215e-05
0.000217621619935718
0.000168808321190495
0.000105175813307634
2.06367459331448e-05
0.000263557435704224
0.000221767279982323
0.000171530326555602
0.000106794179390164
2.06991567888922e-05
0.00030556589511617
0.000267920001771754
0.000224416793105332
0.00017274155983251
0.000106658178271977
2.00500293324742e-05
0.000344805314313526
0.000309939104724239
0.000270386081025488
0.000225143851940763
0.000172013403623169
0.000104843953657801
1.9012911023243e-05
1.77512145455612e-05
0.00010173393289648
0.00016933703444022
0.000223679340444274
0.000270562309214421
0.000312083028067796
0.000349083356369338
0.000381874304055558
1.62948952292263e-05
9.75966456218446e-05
0.000164936537802998
0.000220049567333414
0.000268284532838226
0.000311638655058091
0.000350842792507175
0.000386005760369938
0.000417123589139237
1.46472603371328e-05
9.25171780352197e-05
0.000158998781563538
0.000214422704177982
0.000263641060458471
0.000308513632168704
0.000349763434164755
0.000387369776835367
0.000421060049845857
0.000450747640107015
1.28329307499278e-05
8.65055887170916e-05
0.000151615842341596
0.000206936383747834
0.000256796520199056
0.00030284570097777
0.000345801143308361
0.000385670758448778
0.00042201587246957
0.000454429690821146
0.000482822433357522
1.08953948388821e-05
7.9573249127334e-05
0.000142832273258855
0.000197673401526973
0.000247870377448811
0.000294809789334674
0.000339128688858893
0.000380895176473319
0.000419702613505448
0.000454945320445004
0.000486184674286552
0.00051333787210794
8.89465690253747e-06
7.17508660442392e-05
0.000132683698361315
0.000186693974308423
0.000236940280713037
0.000284523053083993
0.000329937692108603
0.000373244290983714
0.000414126254198467
0.000452003065819639
0.0004862145781965
0.000516315852230045
0.000542229002570368
6.90264953407243e-06
6.30800191991574e-05
0.000121208649597247
0.000174054509278648