/*--------------------------------*- C++ -*----------------------------------*\
  =========                 |
  \\      /  F ield         | OpenFOAM: The Open Source CFD Toolbox
   \\    /   O peration     | Website:  https://openfoam.org
    \\  /    A nd           | Version:  12
     \\/     M anipulation  |
\*---------------------------------------------------------------------------*/
/*   Windows 32 and 64 bit porting by blueCAPE: http://www.bluecape.com.pt   *\
|  Based on Windows porting (2.0.x v4) by Symscape: http://www.symscape.com   |
\*---------------------------------------------------------------------------*/
FoamFile
{
    format      ascii;
    class       volScalarField;
    location    "500";
    object      nut;
}
// * * * * * * * * * * * * * * * * * * * * * * * * * * * * * * * * * * * * * //

dimensions      [0 2 -1 0 0 0 0];

internalField   nonuniform List<scalar> 
10140
(
8.84206122192926e-06
8.90387812758477e-06
9.41995796155996e-06
0.000190203285719337
8.95212533086242e-06
9.48785692688109e-06
0.000190684672061909
1.01759946400115e-05
0.000195292600995685
0.00057101729907534
8.97587493171889e-06
9.53935462364436e-06
0.000190976822510213
1.02508426155058e-05
0.000195795566735651
0.000571985529033663
1.06292763180873e-05
0.000201774724031488
0.000577835698760376
0.0010272623313674
8.98105963545756e-06
9.56526440073411e-06
0.000191070055079541
1.03066519289451e-05
0.00019609792077968
0.000572507287898527
1.07088319039101e-05
0.000202302887405258
0.000578829197300442
0.00102864619583729
1.04904423191153e-05
0.000205688575199371
0.000585975989949754
0.0010322340622442
0.00149131384760279
8.96991824632039e-06
9.57174213765177e-06
0.00019096963911235
1.03352307478318e-05
0.000196199530209591
0.000572583208043147
1.07678805460863e-05
0.000202619388813067
0.00057936459476531
0.00102930591745015
1.0570857635817e-05
0.000206235677150353
0.000586999044612258
0.00103364242639941
0.00149297055954327
9.91441024029637e-06
0.000204683326427303
0.000590117002097364
0.00103661092615857
0.00149284429998732
0.00193226796810717
8.94245959714233e-06
9.56091212288238e-06
0.000190676526281922
1.03426995261147e-05
0.000196104363686276
0.000572209969534988
1.07987117697387e-05
0.000202730938361296
0.000579449930025082
0.0010292414276963
1.06310604259435e-05
0.000206564580213314
0.000587552919345037
0.00103431388087828
0.0014936199031926
9.99318214278216e-06
0.000205238829550795
0.00059116213759046
0.0010380428261573
0.00149452446679795
0.00193403957785515
9.17403047318522e-06
0.000199549479094635
0.00058670556349457
0.00103586788446815
0.00149106449219281
0.00193013511071673
0.00233788156878938
8.89819044324062e-06
9.53329256673908e-06
0.000190189174468722
1.03307209275161e-05
0.000195812104225119
0.000571381231137237
1.080732974132e-05
0.000202640655653639
0.000579082238764494
0.00102844038288244
1.06627914163972e-05
0.000206685235151604
0.000587651400075828
0.00103425588869922
0.00149325759552101
1.00527775841404e-05
0.000205574980966623
0.000591732072520117
0.00103872927571533
0.00149518291294449
0.00193452543201539
9.25034280019829e-06
0.000200105461721994
0.000587759812614209
0.00103731299457037
0.00149276032886755
0.00193193090902269
0.00233962527037603
8.39129794314945e-06
0.000192220130138877
0.000576133680341968
0.00102667900421754
0.00148252036382512
0.00192186507170864
0.00233295343795238
0.00270528564705355
8.83735813947363e-06
9.48792770715614e-06
0.000189502663494962
1.03012378635036e-05
0.0001953228107898
0.000570088640422206
1.07951377319041e-05
0.000202346908499958
0.000578254715999548
0.00102688752627645
1.06727641295417e-05
0.000206600561687362
0.000587291820043186
0.00103345789328009
0.00149186144087909
1.00844946840286e-05
0.000205702695478178
0.000591843345754939
0.00103868185283832
0.00149482485480508
0.00193371624572151
9.30857285722723e-06
0.000200444744135398
0.000588339174460212
0.00103801117408615
0.0014934286872883
0.00193242524752737
0.00233981663044765
8.46500184335493e-06
0.000192773500614835
0.000577186061576875
0.00102812391433113
0.00148421739923223
0.00192367137288948
0.00233472432858224
0.00270688648365967
7.57134240124127e-06
0.000183773765321711
0.000560614045793442
0.00100882593487262
0.00146472897777777
0.00190484087993292
0.00231928023513481
0.00269862187877162
0.00303593174968658
8.75987650058537e-06
9.42473617681773e-06
0.000188612561533621
1.02533886070024e-05
0.000194631216275621
0.000568319469255562
1.07644009067003e-05
0.000201851715668902
0.00057695979013843
0.0010245643873189
1.0661879980708e-05
0.000206308183726958
0.000586466912240244
0.00103190499241256
0.00148940599470316
1.00956282693294e-05
0.000205625695087098
0.000591493613459203
0.00103789130792621
0.00149343100430232
0.00193158025923269
9.33989097739725e-06
0.000200578429277124
0.000588461112567037
0.00103797495479766
0.00149307851148651
0.00193162077200919
0.00233844163199302
8.52173075045328e-06
0.000193114486487202
0.000577769210250552
0.00102882718800482
0.00148489113078673
0.00192417303382017
0.00233492558042134
0.00270668225037078
7.64254592758659e-06
0.000184324621242419
0.000561658698295189
0.00101025890241529
0.00146641277250438
0.00190663876660453
0.00232105996904774
0.00270025361061751
0.00303730295526672
6.70212859351367e-06
0.000174346174589785
0.000541639322839465
0.000983751276386769
0.00143724296929181
0.00187732167848931
0.00229464615552254
0.00268098124257017
0.00302818908189503
0.00333270335756681
8.66528455544183e-06
9.34396734578203e-06
0.000187512783360868
1.01862319585433e-05
0.000193731576119106
0.000566058581150881
1.0715102153183e-05
0.000201150590559276
0.00057518489749815
0.00102144764756818
1.06321750630839e-05
0.000205810247464429
0.000585169586188547
0.00102957906908697
0.00148586122623492
1.00867468262177e-05
0.000205340800691035
0.000590675446950212
0.00103634307757875
0.00149097673750543
0.00192808160733305
9.35199266221295e-06
0.000200511248169618
0.000588123730717524
0.00103719558051996
0.00149169255533229
0.00192948944063889
0.00233545873068011
8.55251481405585e-06
0.000193254279403659
0.000577900598183933
0.00102880109459297
0.00148455017515532
0.00192337674588338
0.0023335570428967
0.00270465397817204
7.69786541137774e-06
0.00018466797513255
0.000562243167361175
0.00101096134243531
0.0014670849849034
0.00190714168864426
0.00232126865989535
0.00270006108050605
0.00303662861752701
6.77126557733635e-06
0.000174897792199178
0.000542674937370815
0.000985164229764046
0.00143890107166314
0.00187909466188328
0.00229641157756099
0.00268262216681609
0.00302959487000181
0.00333378452839412
5.78916225204247e-06
0.000163757769571278
0.00051957588842032
0.000952546313013884
0.00140067715783321
0.00183884196179118
0.00225766991015784
0.00265004697198062
0.0030075922711949
0.00332414170768826
0.00359860719695789
8.55382468349991e-06
9.24550309112639e-06
0.000186196296059771
1.0099641617803e-05
0.000192618509859312
0.00056328799162637
1.06460610327345e-05
0.000200236026651619
0.000572914163430468
0.00101750903066533
1.05843205695045e-05
0.000205104484503394
0.000583388486270376
0.00102645701630869
0.00148119112064056
1.00598508270655e-05
0.000204849975741857
0.000589382136994337
0.00103401943776847
0.00148743235776399
0.00192317799531918
9.34525544423546e-06
0.00020023951023491
0.000587319445937529
0.00103565879293755
0.00148924704642904
0.00192599630694641
0.00233082117841831
8.565456742868e-06
0.000193198547649378
0.000577578804721287
0.00102803698427592
0.00148317792963114
0.00192125718153041
0.00233058207108233
0.00270075168219867
7.72809152399834e-06
0.000184814705366612
0.000562384421170252
0.00101094476342646
0.00146675308663485
0.00190635534639405
0.00231991074071119
0.00269804121769822
0.00303388637936874
6.82535907519341e-06
0.000175246316735188
0.000543261381761993
0.000985862394030279
0.00143956545459025
0.00187959107477897
0.00229662032643214
0.00268243849821602
0.00302893401795246
0.0033325865695133
5.85597547246683e-06
0.000164320839307685
0.000520606484898271
0.000953934774351193
0.00140229929921532
0.00184057615574082
0.00225940196809821
0.0026516704493732
0.0030090085890074
0.00332526071212536
0.00359937288478823
4.85084068285746e-06
0.000151817497024889
0.000494223844996171
0.000915467405172556
0.00135544865769739
0.00178944325431424
0.00220791698238487
0.00260443829393538
0.00297138306292205
0.00330110131557234
0.00358928794637783
0.00383639259701301
8.42511674997507e-06
9.12927378467992e-06
0.000184654743439605
9.99385205149328e-06
0.000191285020925721
0.000559987421914741
1.05567452859958e-05
0.000199102166552531
0.000570129652188072
0.00101271587481633
1.05172927365851e-05
0.000204183119919073
0.000581107008849022
0.00102251049388761
0.00147535332279608
1.00157734804178e-05
0.000204152507676869
0.000587602726062843
0.00103089773978381
0.00148276204328428
0.00191681988181064
9.32156201968179e-06
0.000199765386129026
0.000586041914435241
0.00103334734737896
0.00148571289813204
0.00192109977440914
0.00232447524377434
8.56079419353174e-06
0.000192943431472848
0.000576796268928177
0.00102652084531599
0.00148075123653555
0.00191778059082565
0.00232595539021904
0.00269491868984539
7.74170494675049e-06
0.000184771716400523
0.000562081485590366
0.00101020051150577
0.00146540042559856
0.00190425532000112
0.00231695306903012
0.0026941497702754
0.00302901978086627
6.85501220467928e-06
0.00017540175888633
0.000543414341960699
0.00098585596869381
0.00143924247208456
0.00187881499857019
0.00229527549044946
0.00268043238059146
0.00302620185453408
0.00332908961223978
5.90926196864738e-06
0.000164682805306516
0.000521199747847068
0.000954628011332405
0.0014029511313254
0.00184105893498143
0.00225960211251747
0.00265148766457546
0.00300835860935069
0.00332407805067479
0.00359760750568791
4.91494264525958e-06
0.000152431161729036
0.000495262920002493
0.000916830815925252
0.00135702629917448
0.00179112611231737
0.00220960002349958
0.00260602303708391
0.00297278071798265
0.0033022323033158
0.00359009500154947
0.00383687025298449
3.91600871392693e-06
0.000138439456753889
0.000465188463323025
0.00087219360557493
0.00130140450284881
0.00172894009199028
0.00214515350695531
0.00254375036258383
0.00291795635667092
0.0032602541908087
0.00356402726787532
0.0038263271102702
8.27771509175934e-06
8.99568309844769e-06
0.00018288023533388
9.86903781195149e-06
0.000189723204984694
0.000556134171114026
1.04472522165605e-05
0.0001977423476341
0.000566811114975476
0.00100703116603448
1.04301843052668e-05
0.000203038206992599
0.000578306770959758
0.00101770674403361
0.00146829909904443
9.95366629729255e-06
0.000203241204446652
0.000585321346727235
0.00102694989500184
0.00147692351948542
0.00190895055428159
9.28190953303237e-06
0.000199088316565628
0.000584281233280411
0.00103023907795423
0.00148105474924422
0.00191475080903851
0.00231635850113488
8.54034821167995e-06
0.000192491248970992
0.000575547067477608
0.00102423599650944
0.00147724172402792
0.00191290623176232
0.0023196238709795
0.00268708977131322
7.73902575521183e-06
0.000184535200593922
0.000561327053916383
0.00100871489493556
0.00146300426317247
0.0019008087911181
0.0023123520876409
0.00268833179845668
0.00302196295699195
6.86925155651478e-06
0.000175372898498273
0.000543133453793277
0.000985136220065345
0.00143791529125917
0.00187674204493041
0.00229234527667926
0.0026765638071468
0.00302134836652436
0.00332323412265934
5.93826275200861e-06
0.00016485098074019
0.000521368230679604
0.000954633782975405
0.00140263763430422
0.00184029323863163
0.00225827147336102
0.00264949926989964
0.00300564350332756
0.0033205928489482
0.00359332786650475
4.96727496616453e-06
0.000152826166618811
0.000495876675014685
0.00091752203167958
0.00135766247242714
0.00179158917010868
0.00220978379071545
0.0026058322885435
0.00297213396280181
0.0033010631101041
0.00358834655429838
0.00383447991100794
3.97493045281427e-06
0.000139101844469027
0.0004662675621341
0.000873536576047131
0.00130293048138054
0.00173055935724483
0.00214677304763482
0.00254527938316391
0.00291931265748777
0.00326136642907088
0.00356485049078889
0.00382683493705137
0.0040486833352797
3.0151275281791e-06
0.000123592913755611
0.000431998157997217
0.000822027821876804
0.00123787852619959
0.00165669552989968
0.00206880274947156
0.00246769451790499
0.00284691738736315
0.00319967047772332
0.00351893599890607
0.00379897492654585
8.11112689198686e-06
0.000180855830815944
8.84318223544954e-06
9.72559505807804e-06
0.000187924484184711
0.000551698272460645
1.03176413185948e-05
0.000196148656271206
0.000562935202567535
0.00100041329635464
1.0323026887109e-05
0.000201663582840082
0.000574967213800278
0.00101200858742349
0.00145997331287887
9.87251668195752e-06
0.000202106824063607
0.000582518723531927
0.00102214301712506
0.00146986807905985
0.00189950510219586
9.22562590101044e-06
0.000198202384250888
0.000582021390402275
0.00102630627355344
0.00147523065105108
0.00190689260639182
0.00230639896479241
8.50514421103258e-06
0.000191841646370308
0.000573821951474082
0.00102116097473968
0.00147261471431945
0.00190658580219666
0.00231152542296892
0.00267718930589484
7.72182753118759e-06
0.000184107733075646
0.000560115748641984
0.00100647191001399
0.00145953700284194
0.00189597590840939
0.00230605566579478
0.00268052277059793
0.0030126390776514
6.86849796076895e-06
0.000175156596125572
0.000542412057947118
0.000983689969262104
0.00143556160161024
0.00187334002113953
0.00228778743540089
0.00267077988388487
0.00301430965003005
0.00331494538000077
5.952855119381e-06
0.000164838371636114
0.000521112941752124
0.000953943215067628
0.00140134174462889
0.00183825460192246
0.0022553786324445
0.00264566697751446
0.00300081810633211
0.00331475259885202
0.00358647416831693
4.99567181228397e-06
0.000153015485741544
0.000496068687421484
0.000917543912336811
0.00135735987261944
0.00179083437243651
0.00220846826473678
0.00260386460744341
0.00296944232007159
0.00329759878257996
0.00358408074305004
0.00382939631497304
4.02483689105882e-06
0.000139570325089323
0.000466928172859302
0.000874234158366377
0.00130354949988425
0.00173099724648897
0.00214693343505853
0.00254507312769974
0.00291866114804239
0.00326020421971603
0.00356311785459627
0.00382447149585751
0.00404567027932207
3.06808153366328e-06
0.000124280064483298
0.000433135439363305
0.000823360719486212
0.00123934649711551
0.00165823846996667
0.00207034392515529
0.0024691522440741
0.00284821484350131
0.00320074098173296
0.00351974408490522
0.00379948850342227
0.00403787270235725
0.00423699852121003
2.17082197675485e-06
0.000107199585009163
0.000393998561382178
0.000763922408428171
0.00116372749953355
0.00157161074501882
0.00197782908116528
0.00237551160076079
0.00275803398397087
0.00311894147563521
0.0034517431747806
0.00374994340403376
7.92425768370793e-06
0.000178564196502156
8.66935289547783e-06
0.000546647928323778
0.000185872730386166
9.56231303602521e-06
1.01681795280902e-05
0.000194311844839673
0.000558473788386389
0.000992812989932234
1.0195975868279e-05
0.000200051038481036
0.00057106497282653
0.00100537395864707
0.00145031448949938
9.77220919091138e-06
0.000200742762124973
0.000579174123417344
0.00101643988664522
0.00146154057377131
0.00188840903182826
9.15167626450735e-06
0.000197098216545718
0.000579243130276804
0.00102151617719863
0.00146819213607303
0.00189746009504912
0.00229451457572493
8.45477328227019e-06
0.000190989870547915
0.000571605716856096
0.00101726850084692
0.00146682879080588
0.00189876291390474
0.00230158829641966
0.00266513026067672
7.69115365749597e-06
0.000183489285199319
0.000558438938600728
0.00100345088008904
0.00145496478689552
0.00188970937658058
0.00229800249786119
0.00267064746608154
0.0030009594658142
6.85457456655707e-06
0.0001747561688245
0.000541245607126831
0.000981502055192894
0.00143215465280153
0.00186857007384737
0.00228155101940068
0.00266301725312945
0.00300500973663703
0.00330413443370907
5.95394216505942e-06
0.000164644210973892
0.000520428906390489
0.000952544025909874
0.00139904171881104
0.00183491139358293
0.00225088225530004
0.00263993955674029
0.00299382086755941
0.00330648476290298
0.00357696052709758
5.01032716521932e-06
0.000153023334047419
0.000495843900676497
0.000916887523665093
0.00135610102310391
0.00178883718850676
0.00220562234303216
0.00260008225997268
0.00296466269820415
0.00329179207192766
0.00357724482792263
0.00382154792467708
4.05181528738708e-06
0.000139795790318784
0.000467158550769321
0.000874278881879132
0.00130326005195048
0.0017302542009048
0.0021456343408063
0.00254312911874963
0.00291599907020347
0.00325677045818487
0.00355887723020753
0.00381940660074518
0.00403979756875575
3.11300199449803e-06
0.000124804934113804
0.000433873930761323
0.000824078344705949
0.00123994827498552
0.00165864589486541
0.00207047423505444
0.00246892398063313
0.00284755238792847
0.00319957966648355
0.00351802290953799
0.0037971490678215
0.0040349230460573
0.00423344002488459
2.21714994424172e-06
0.000107894327267161
0.000395208158359665
0.00076524681264266
0.00116512986036769
0.00157306329732561
0.00197927537253568
0.00237688203922543
0.00275925695040124
0.0031199533204563
0.00345251265637964
0.00375043626915573
0.00400851726187765
0.00422549265638936
0.00440405153432834
1.39894912131386e-06
8.89609611120057e-05
0.00035024567192996
0.000696327786968298
0.00107725990258457
0.00147208070667405
0.00187075555257131
0.00226591136964134
0.00265050499056655
0.00301793006895169
0.00336201026492609
0.00367664513151002
7.71107902206525e-06
0.000175985290730384
8.47327383156048e-06
0.000540942642407051
0.000183546430365882
9.37576868120643e-06
0.000984176714658892
0.00055339234297594
0.000192215447814996
9.99790531474846e-06
1.00494288385871e-05
0.000198190264763748
0.000566571924953092
0.000997754335039365
0.00143925344789899
9.65278101945225e-06
0.000199140977679118
0.000575263565241895
0.00100979822029306
0.00145187931794473
0.00187558085141092
9.05973991814491e-06
0.000195767802133945
0.000575925464276534
0.00101583161841397
0.00145988429266919
0.001886379574613
0.00228061318383879
8.38816973189207e-06
0.00018992665538604
0.000568879155038328
0.0010125261073368
0.00145983602992613
0.00188937290438338
0.00228973069662523
0.00265081340274223
7.64679513560353e-06
0.000182676143418088
0.000556282321312045
0.000999625147495384
0.00144924699030499
0.00188195363686823
0.0022881215094633
0.00265861911968319
0.00298682109633963
6.82860062403168e-06
0.000174171934944665
0.000539626205915546
0.000978552712040537
0.00142766152924253
0.00186238602569713
0.00227357587981779
0.00265320159875753
0.00299336009744462
0.00329069812950874
5.94334035754958e-06
0.000164273187261644
0.00051931308128235
0.00095042225710352
0.00139571179630726
0.00183022591580142
0.00224473265623868
0.00263225508412636
0.00298457718037513
0.0032957012984834
0.00356468396802847
5.01284580568984e-06
0.000152854054152691
0.000495201594828307
0.000915542383600855
0.00135386502103965
0.00178556662698937
0.00220120555763672
0.00259443530919477
0.00295773553917455
0.00328357311753224
0.00356775526623516
0.00381082844202357
4.06602797379781e-06
0.000139830548021772
0.000466972410310423
0.000873662342580201
0.00130204392893381
0.00172830550697133
0.00214284482779529
0.00253941015952281
0.00291128413001732
0.00325102014549871
0.00355208108710205
0.00381157957189219
0.00403097580924409
3.13640654842503e-06
0.00012507884588999
0.000434162117130222
0.000824155427812503
0.00123967477651034
0.00165791546379887
0.00206919293568916
0.00246700693913222
0.00284492623805186
0.00319618676417702
0.00351382104542972
0.00379211681066888
0.00402907979732727
0.00422681508458533
2.25666936482453e-06
0.000108429238827129
0.000396027969346459
0.000765994782599933
0.00116571368231008
0.0015734341650522
0.00197936883321721
0.0023766254560901
0.00275857865641613
0.00311878915443771
0.00345080010832239
0.00374811590407561
0.00400561558455373
0.00422199762847619
0.00439991701376148
1.43715158168544e-06
8.96644803391361e-05
0.000351451383787926
0.000697631121714049
0.00107858130529048
0.00147342533648689
0.00187208962354839
0.00226717724470222
0.00265163764931857
0.00301886857432385
0.00336272459011743
0.00367709939559894
0.00395579295687957
0.00419429116947326
0.00439190115295098
0.0045517004558596
7.40892676172646e-07
6.82875133021108e-05
0.000299106866362055
0.000616909078065005
0.000976056776584213
0.00135588457491139
0.00174562137686661
0.00213716437730141
0.00252291775808025
0.00289586995263022
0.00324970160395894
0.00357860946308169
7.4637821365368e-06
0.000173094600696331
8.24581165287319e-06
0.000534540128248548
0.000180925990100903
9.16284159671508e-06
0.00097444205432082
0.000547649188230398
0.000189834979352644
9.80220981318533e-06
0.00142671316354798
0.000989094537402191
0.000561452049383559
0.000196063983435212
9.88180848771908e-06
9.51427853488663e-06
0.000197290845482136
0.000570758686062097
0.00100216947941282
0.00144081509565004
0.00186093080103833
8.94988761778918e-06
0.000194203492314381
0.000572044148451232
0.00100921031216827
0.00145024545559333
0.00187356938329615
0.00226459254494948
8.30479679143129e-06
0.000188642777368755
0.000565620917644331
0.00100689689060118
0.00145158198499522
0.00187834275146645
0.00227586070454842
0.00263412868839643
7.58763186228213e-06
0.000181659020972359
0.000553627203255269
0.000994962855318325
0.00144233646913905
0.0018726448734566
0.00227633162145799
0.00264433917262324
0.00297010860273839
6.79041296987704e-06
0.000173400807812025
0.000537540416894459
0.000974816105998567
0.00142204268137104
0.00185473348738177
0.00226379208538387
0.00264124704514402
0.00297925867035893
0.00327451839023265
5.92223714106327e-06
0.000163726310046648
0.000517758299964412
0.000947559285812943
0.0013913201613923
0.00182415322040368
0.00223687110981356
0.00262254063736725
0.00297299952559287
0.00328229958480983
0.00354952614818934
5.00527203180024e-06
0.000152514938821161
0.000494141565848525
0.000913496439408242
0.00135062738536291
0.00178098642254061
0.00219516959930109
0.0025868633953672
0.00294858792516685
0.00327285546495007
0.00355551013378396
0.00379711770622627
4.06958251915253e-06
0.000139689378951118
0.000466377101434154
0.000872377673285607
0.00129988160957901
0.00172512099739876
0.00213852550721555
0.00253386758783046
0.00290445841011745
0.00324288574438595
0.00354264858722979
0.00380088801653032
0.0040190795379894
3.14863085549496e-06
0.000125154883193865
0.000434024634739599
0.000823585055658435
0.00123850673809923
0.00165602177280773
0.00206646936231786
0.00246336473431021
0.00284029491919737
0.0031905182033156
0.00350709335524039
0.00378433739149263
0.00402028452605117
0.00421704880148937
2.27579778342255e-06
0.000108705311411208
0.000396377431035816
0.000766111639018929
0.00116545790731354
0.00157271646308837
0.00197810662611284
0.00237473890580586
0.00275599518126886
0.00311544805542399
0.00344665255547481
0.00374313345083634
0.00399981793010448
0.00421540680266051
0.0043925464996136
1.46973751239274e-06
9.0198392305929e-05
0.000352306017819425
0.00069839800377138
0.00107914026326112
0.00147375073236684
0.00187213791727976
0.0022668856880097
0.00265093901790327
0.00301769940116055
0.00336102065654937
0.00367479791660991
0.00395292359127233
0.00419084725873134
0.00438783284670373
0.004546984868097
7.68514699805887e-07
6.90048556654238e-05
0.00030027268909967
0.000618150964804417
0.00097727137338639
0.0013570969562695
0.00174682225885993
0.0021383069060616
0.00252394339753979
0.00289672057458346
0.00325034729045593
0.00357901293011458
0.00387684171223147
0.00413819876732721
0.0043590087054732
0.00453896468208444
0.0046816065468444
2.79139222631939e-07
4.49704474298456e-05
0.000237899212109291
0.000522257143992241
0.000856734429258178
0.00122004960321329
0.00159989493567376
0.00198710881768252
0.00237342112097529
0.0027513222236
0.00311412386783711
0.00345590118124024
0.000169877683664399
7.98254263734247e-06
0.000527398523698797
0.000177986103978749
8.91304566916292e-06
0.000963542613609289
0.000541201779895421
0.000187148974298755
9.57733109174808e-06
0.00141260803156988
0.000979331857780149
0.000555661891239978
0.000193646136741844
9.68787592178905e-06
0.00184435770643183
0.00142827049332431
0.000993497447754
0.000565622529611539
0.000195173705654649
9.35516024999269e-06
8.82189628717138e-06
0.000192394164088573
0.000567570210934396
0.00100160347365456
0.00143920636049957
0.00185893910999874
0.0022463399165355
8.20474645988507e-06
0.000187130760122713
0.00056180680894361
0.00100033872867
0.00144200535187818
0.00186559109013847
0.00225987631430352
0.00261495293137728
7.51309531053406e-06
0.000180427910505209
0.000550451765764662
0.000989427468072457
0.00143417948456896
0.00186171097430933
0.00226254164544716
0.00262769743746512
0.00295069248048726
6.73895989631514e-06
0.000172433673432544
0.00053497026207079
0.000970261234896264
0.00141525192681551
0.00184554984396757
0.00225211976227535
0.00262705603040852
0.00296259018461704
0.0032554621628216
5.89046346692772e-06
0.00016300106432951
0.000515752634565772
0.000943930263849632
0.00138582865391087
0.00181664034462581
0.00222722923926794
0.00261071178615713
0.00295898706971198
0.00326616212708114
0.0035313527828146
4.98881679450604e-06
0.00015200883981128
0.000492657765956853
0.000910732651991551
0.00134635761952475
0.00177505299927284
0.00218745738817064
0.00257729537563897
0.00293713400979865
0.00325953775767162
0.00354039174260505
0.00378028105797183
4.06468780676856e-06
0.000139385126466719
0.000465377275615053
0.000870416042168892
0.00129675030316571
0.00172066622051628
0.00213262965277321
0.0025264427851017
0.00289545089561103
0.00323228284449596
0.00353047961744281
0.00378721330343182
0.00400397234280812
3.15209928743694e-06
0.000125050741165955
0.00043348126012145
0.000822366460117817
0.00123642676436423
0.00165293664171966
0.00206226540284321
0.00245795019023722
0.00283360219808741
0.00318250843968744
0.00349776137979117
0.00377371228862007
0.00400842076271943
0.00420400836729766
2.28535663772296e-06
0.000108784880869564
0.000396292917889943
0.000765591204055543
0.00116434184532865
0.0015708839154468
0.00197545858282732
0.00237118705456087
0.00275146627560053
0.0031098869788777
0.00344002605170466
0.00373543660522712
0.00399108019777017
0.00420567141775747
0.00438185666187978
1.48429562927998e-06
9.04515237956577e-05
0.000352687611525964
0.000698545398169536
0.00107889897942555
0.00147304311813679
0.00187089551212168
0.00226503330460992
0.00264840535734416
0.00301442151255509
0.00335694412387356
0.00366988602303005
0.00394719054471324
0.00418431043877925
0.00438050024344792
0.00453887807697424
7.92484433839028e-07
6.9537129930645e-05
0.00030108559686411
0.00061889588252885
0.000977784179177632
0.00135736308336367
0.00174681517128276
0.00213797305838439
0.0025232199378023
0.00289554489689788
0.00324865366131257
0.00357673473597241
0.00387400308382626
0.00413479457786398
0.00435499650939959
0.00453431924753617
0.00467631748308168
2.93961260924368e-07
4.56612995294706e-05
0.000239007634620144
0.000523360074538319
0.000857804484043908
0.001221104007512
0.00160093826148356
0.0019881074760176
0.00237432215860286
0.00275206999801978
0.00311468818350253
0.00345624356674105
0.00377116881362571
0.0040541300752046
0.00429985518856599
0.00450454537100988
0.00466834774177146
0.00479524215101149
5.79693496967412e-08
2.05310215944752e-05
0.00016357282541334
0.000408108125239336
0.000714986891972744
0.00106082165066343
0.00143043817994764
0.00181312676192523
0.00219980234110759
0.00258242049280718
0.00295387402268889
0.00330791906851257
0.000519496708442726
0.000174719954732188
8.62397571467326e-06
0.000951413436827948
0.000534009595441584
0.000184132105166217
9.31213963196545e-06
0.00139684600103553
0.000968399787700331
0.000549158483720426
0.000190912868072995
9.46367887463563e-06
0.00182575162366955
0.00141415983902094
0.000983718678380875
0.000559810589268881
0.000192762823204923
9.1712164824257e-06
0.00222573146363354
0.00184238833039968
0.0014266894105855
0.000992954403588153
0.000562466413492102
0.000190320810075138
8.6740742467323e-06
8.08765353540275e-06
0.000185379307051006
0.000557407280112532
0.000992802912818435
0.00143103709460127
0.00185102761390795
0.00224166502572065
0.00259315098858543
7.42319775354787e-06
0.000178975378802153
0.000546732005589738
0.000982977161507943
0.00142471542002193
0.00184907136330789
0.0022466503061174
0.00260857140055498
0.00292842957461643
6.67362057373204e-06
0.000171260480437248
0.000531893640409134
0.000964852014087749
0.0014072364602842
0.0018347642282323
0.00223846900529682
0.00261051919206139
0.0029432256610946
0.00323338131246098
5.846974162723e-06
0.00016208866574474
0.000513278427270019
0.000939505202388721
0.00137919219270704
0.00180762615368847
0.00221572882246568
0.00259667253445854
0.00294242559517353
0.0032471563816924
0.00351001309235068
4.96344943279313e-06
0.000151333954944166
0.000490740974181828
0.0009072272627004
0.00134101932691107
0.00176771504871085
0.00217800242103344
0.00256564881377131
0.00292327477767926
0.00324350381411981
0.00352226643717432
0.00376016723718757
4.05250261525028e-06
0.000138924112023767
0.00046397103131372
0.000867762794328578
0.00129262143413239
0.00171489914280206
0.00212510205333415
0.00251706671893278
0.0028841779462606
0.00321911209600407
0.00351545799361651
0.00377042162643179
0.00398550335218119
3.14911771044651e-06
0.000124786143199605
0.000432545928064026
0.000820496268237927
0.00123341412320935
0.00164862704885907
0.00205653613524285
0.0024507066844724
0.00282477922856914
0.00317207543599313
0.0034857273581726
0.00376012526594804
0.00399335482936502
0.00418754416233298
2.28796980887979e-06
0.000108701464797626
0.000395807980687236
0.000764441730998534
0.00116235069043212
0.00156791087437926
0.00197138817101619
0.00236592447411273
0.00274493768042148
0.00310204249157489
0.00343084437534591
0.00372492980944761
0.0039792935595223
0.00419266831846999
0.00436770225882562
1.49093572963935e-06
9.05047195915874e-05
0.000352636260021641
0.000698067960570971
0.00107783324530318
0.00147127778100587
0.00186833261558179
0.0022615859617324
0.00264399801030175
0.00300899340583588
0.00335045236993393
0.00366231233251695