/*--------------------------------*- C++ -*----------------------------------*\
  =========                 |
  \\      /  F ield         | OpenFOAM: The Open Source CFD Toolbox
   \\    /   O peration     | Website:  https://openfoam.org
    \\  /    A nd           | Version:  12
     \\/     M anipulation  |
\*---------------------------------------------------------------------------*/
/*   Windows 32 and 64 bit porting by blueCAPE: http://www.bluecape.com.pt   *\
|  Based on Windows porting (2.0.x v4) by Symscape: http://www.symscape.com   |
\*---------------------------------------------------------------------------*/
FoamFile
{
    format      ascii;
    class       volScalarField;
    location    "500";
    object      omega;
}
// * * * * * * * * * * * * * * * * * * * * * * * * * * * * * * * * * * * * * //

dimensions      [0 0 -1 0 0 0 0];

internalField   nonuniform List<scalar> 
10140
(
2.46684012185195
2.46684012027653
2.38167819932494
0.626218202240489
2.46684013438042
2.38167826054187
0.626193669995731
2.28699445272215
0.611434590124598
0.337734824242613
2.46684014660432
2.38167830681746
0.626052352394199
2.28699458698845
0.611407946496876
0.337677260109137
2.21610803716599
0.593108549417698
0.333537593641876
0.242746592606731
2.46684016062775
2.38167829536488
0.625751097029727
2.28699467467533
0.611271553802333
0.337517778349596
2.21610824383735
0.593074637327575
0.333481720222457
0.242683398815048
2.18721770423383
0.578138840724999
0.327430582147154
0.241240623456934
0.199086409019696
2.46684022608401
2.38167823682361
0.625275174601074
2.28699463699289
0.61097117211699
0.337237342334641
2.21610839766264
0.592939744559456
0.333323168999836
0.242532359605981
2.18721800819257
0.578097969889973
0.327373503071373
0.241179527593403
0.199025981697738
2.18619174524809
0.569266829310032
0.321473227026252
0.238690188078514
0.198490223218725
0.175375249030531
2.46684040399754
2.381678197238
0.624618133139905
2.28699449577394
0.610495115738542
0.336825657634719
2.21610835816873
0.592641423499763
0.333043426872154
0.242284568316557
2.1872183459305
0.577963006147014
0.327215519971001
0.241029099577748
0.198887681034338
2.1861921725092
0.569220738303241
0.321414166231508
0.238629646573444
0.198431893522486
0.175319547988102
2.19192529557702
0.564347546554606
0.316744740887239
0.23573933121125
0.197268100431641
0.175125257640414
0.161218863551121
2.46684060853353
2.38167823429883
0.623774139840692
2.28699436047023
0.609839608988848
0.336277178079396
2.21610814985818
0.592169063565219
0.332632881742373
0.241933567697438
2.18721838472963
0.57766732610411
0.32693715987822
0.240781826204015
0.198666400532082
2.18619289849398
0.569085897854996
0.321256639714222
0.238479862548415
0.198294162020179
0.175192770304509
2.19192786218321
0.564297365166391
0.316684259769655
0.235678718416208
0.19721083696805
0.175071599401617
0.1611680072066
2.19484646753061
0.560007199745462
0.312932332922573
0.232865950154633
0.195619740581832
0.174460966979134
0.161093430626946
0.152273702483262
2.46684039437156
2.38167833213517
0.622739958947371
2.2869943267126
0.608997120616821
0.335587272063754
2.21610794614919
0.591520523123754
0.332086430861125
0.241475239264044
2.187218095095
0.577200100603304
0.326529103519821
0.24043160079307
0.198357818265311
2.18619313583986
0.568792743542003
0.320980213583655
0.238233573216633
0.198073233013321
0.174991434390644
2.19193113251976
0.564163083988007
0.316527526578562
0.235529765581767
0.197073779214333
0.174945377160142
0.161050665754661
2.19485124577986
0.559952790258126
0.312871173053036
0.232805505853786
0.195563053898553
0.174408534258703
0.161044557526166
0.152227313020916
2.19511969829569
0.554488282932023
0.309198842579119
0.230121784788951
0.193760151671133
0.173439495882821
0.160667352996426
0.152188990257803
0.146437062547691
2.46683762068715
2.38167814435724
0.621509389057495
2.28699443330622
0.607964513365065
0.334752218578839
2.21610788714548
0.590687020747386
0.331399225094146
0.240906245681086
2.18721779875631
0.576559904382905
0.325986595082359
0.239974386027337
0.197958955034264
2.18619267951884
0.568329355708762
0.320575482396379
0.237884858836129
0.197765068252472
0.174712408534282
2.19192961654408
0.563872151671346
0.316253394166372
0.235285016505577
0.196853557697125
0.1747443103126
0.160864173029294
2.19485497839257
0.559819507977309
0.312715711665899
0.232657783156587
0.195426912189738
0.174282991672643
0.160927759855609
0.15211747406377
2.19512467647932
0.554428271609034
0.309137303315936
0.230062030551036
0.193704241350046
0.173387888996253
0.160619774455394
0.152144533092831
0.146394810046306
2.19479800717415
0.54757335086846
0.304997290728449
0.22731790401062
0.191798604268101
0.172171202881218
0.159962856763716
0.151868249303053
0.14636828567607
0.142584203845137
2.46683890081514
2.38167730318641
0.620076465874308
2.28699428172024
0.606737330954542
0.333768428567553
2.21610800963992
0.589664517643211
0.330567496605151
0.240223747114954
2.18721773004287
0.575738333622725
0.325304879692624
0.239406873509606
0.197467429998148
2.18619217794586
0.567695617146189
0.320037778076737
0.237429764864872
0.197366746774612
0.174353547009588
2.19192874745157
0.563411432597038
0.3158521686027
0.234938546385277
0.196546286927886
0.174465509206375
0.160606173418849
2.19485549888589
0.559530946960206
0.312444207690216
0.232415109832468
0.19520791617426
0.17408249649187
0.160741510867939
0.151942027922966
2.19512654388323
0.554296065383129
0.308983516275182
0.229916014681412
0.193569457220507
0.173263272007592
0.160503676122913
0.152035235874094
0.146290836594896
2.19480337290798
0.547502196983262
0.304934805961512
0.227259231837387
0.191743971166225
0.17212063162445
0.159916232043829
0.15182512106521
0.146327921954772
0.14254625298725
2.19479312669761
0.539480661511733
0.300167054014811
0.224293338359677
0.189745324199951
0.170763848091842
0.159057139523719
0.151338657369343
0.146104240402319
0.142527083396192
0.140063769508635
2.46684121378116
2.38167791954801
0.618434950420143
2.28699339051997
0.605308416230354
0.332632128660745
2.21610792389026
0.588450195290895
0.329587710304039
0.239425244680273
2.18721784342113
0.574729313357328
0.324479614893154
0.238726209912664
0.196881205996283
2.18619213716208
0.56688332043243
0.319362358301704
0.23686496093578
0.196875895254738
0.173913173777247
2.19192596129878
0.562781812357526
0.315319260548091
0.234486413798914
0.196149104253564
0.174106891619526
0.160275164483094
2.19485195183521
0.559072986358684
0.312046636289989
0.23207146712465
0.194902185462377
0.1738042936064
0.160483668355954
0.151699211087569
2.19513074634149
0.554010719998076
0.308715133696711
0.229675931658921
0.193352288300915
0.173063813261121
0.160317953581742
0.151860030177245
0.146123444713207
2.1948053915215
0.547369204729649
0.304782607443042
0.227115326456239
0.191611080210779
0.171997387813269
0.159801075063106
0.15171653983522
0.146224487293115
0.142446619470668
2.19479899199238
0.539379801372651
0.300100802532325
0.224235723120445
0.189692480301948
0.170714823613764
0.159011681376735
0.151296562290858
0.146065217256818
0.142490984186222
0.140031955723824
2.19511855608449
0.530371548705116
0.294728274459366
0.220996181025335
0.187591446970596
0.169289929156724
0.158049902700773
0.150673815415926
0.145688028668008
0.142304258262264
0.140018731463231
0.13846975660542
2.46683863087691
2.38169226993365
0.61657938017525
2.28699370251188
0.603672221351619
0.331339955501245
2.21610716667906
0.587037386675725
0.328456004071654
0.238508464555686
2.18721785969832
0.5735298632803
0.323507514448337
0.237929849686859
0.196198535029196
2.18619225169542
0.565884748538909
0.318545059476975
0.236187613825632
0.196290463859704
0.173389859401277
2.19192803365224
0.561975295574787
0.314649844269186
0.233925275769591
0.19565962173799
0.173666775749938
0.159869983291112
2.19484672207836
0.558447280476416
0.311518410307563
0.231622865368549
0.194506856699631
0.1734463304742
0.160152778476384
0.151388049509791
2.19512458989159
0.553556531588203
0.308321797844111
0.229335656618176
0.193048797077678
0.172786768509369
0.16006058362555
0.151617354504388
0.145891507759101
2.19480305404842
0.54708758095151
0.304517846391301
0.226878355725491
0.191396349243619
0.171799552652232
0.159616299843228
0.151541849291072
0.146057336810188
0.142284607180127
2.19480760589549
0.539235152494122
0.29994851848691
0.22409403006613
0.189561998351882
0.170593516411497
0.158897888930082
0.151188929399357
0.145962501745436
0.142391880892403
0.139934561468169
2.19512461210797
0.530162279509851
0.294650099079727
0.220938741917898
0.187540768599141
0.169243041662171
0.158006116499418
0.150632962406992
0.145650074541377
0.142269496159776
0.139988718729072
0.138452746162666
2.19484813698115
0.520158075544143
0.288754319706686
0.217463299088354
0.185362824965147
0.167804716535975
0.157030167435787
0.149968689845021
0.145200101876072
0.141974646464435
0.139832038422839
0.138437140674946
2.46683596259598
2.38167786656821
0.614502304103525
2.287007540379
0.601823271666611
0.329888776246455
2.21610500687094
0.585419741238426
0.327169154685122
0.237471536997295
2.18721621066109
0.572136007978746
0.322384860294373
0.237015499020246
0.195417992461299
2.18619222472061
0.56469634096542
0.317581947628745
0.235395080870167
0.195608683394975
0.17278239306326
2.19192833220119
0.560983885474445
0.313839531384312
0.23325218752403
0.195075769092726
0.173143713285612
0.159389643698655
2.19485126335814
0.557646007947682
0.310854610173878
0.231065911794814
0.194019525831744
0.17300691238474
0.15974768394873
0.15100781888418
2.19511905654044
0.552936105157269
0.307798843557905
0.228891111265467
0.192656053635921
0.172430063100803
0.159730133199574
0.151306280655329
0.145594579650188
2.19479872196384
0.546638626476302
0.304129692359156
0.226542103702241
0.191095780708319
0.171524336626297
0.159359885691131
0.151299599367876
0.145825537794818
0.142060068378789
2.19480538680966
0.538954210790937
0.299687266089607
0.22386060193296
0.189350300291478
0.170397936155222
0.158714597860785
0.151015131746181
0.145795856058543
0.142230104781822
0.139774939706214
2.19513112172946
0.529976065288906
0.294491391407196
0.220798626711057
0.187413092287289
0.169124263535544
0.157894233941553
0.150526666372612
0.14554829240695
0.142171096161167
0.13989184720732
0.13835145351401
2.19485185442383
0.519828601181738
0.288644006516608
0.217403648789527
0.185314451988293
0.167760562101285
0.156988669662403
0.14992956610603
0.14516341489656
0.141940959743921
0.13980331858306
0.138421942848235
0.137556341119514
2.19192791436318
0.508602309791269
0.282330019830472
0.213803646619524
0.183143407539507
0.166382630055807
0.156080417679796
0.1493150221116
0.14473464188039
0.141628034717281
0.139575490310902
0.138283569440072
2.46684226923058
0.612207419175297
2.38166213273328
2.2869940498939
0.599753763873656
0.328277397726716
2.21611184979431
0.583591879300701
0.325724137496453
0.236313125586816
2.18721583701112
0.570540154396552
0.32110807472111
0.235981279813515
0.194538593206209
2.18619105028048
0.563315637035632
0.316469776167474
0.234485070719575
0.19482911163792
0.172089895594588
2.19192993062515
0.559802350948606
0.312884342382258
0.232464552693696
0.194395738563149
0.172536491040473
0.158833372986919
2.19485400328955
0.556660843165944
0.310050510225694
0.23039751632007
0.193438062833328
0.172484571295594
0.159267390803666
0.150557904649579
2.19512419033057
0.552141561827539
0.307141205989472
0.228338799645569
0.192171628014816
0.171991975348345
0.1593254380509
0.150926089928722
0.145232332407633
2.19479328938157
0.546025337733521
0.303613251114288
0.226102358729176
0.190706353010324
0.171169601726838
0.159030372559683
0.150988876628121
0.145528687479331
0.141773138789338
2.19480318386555
0.538511026653904
0.299305250288897
0.223529134001391
0.189053347512029
0.170125235235166
0.158459731598748
0.150773713642819
0.145564452078252
0.142005694623495
0.139554653929376
2.19512681827939
0.529685405955631
0.294231491252813
0.220568832617437
0.187204975202238
0.168931572042024
0.157713019194527
0.150354229061735
0.145382480759868
0.142009799450461
0.139732451954644
0.138189870740588
2.19485570431745
0.519526359240608
0.28846453594296
0.21726299512204
0.185189750423779
0.167644899379182
0.156879301838135
0.149825115199757
0.145062911512297
0.141843450509579
0.139707121155639
0.138321104977925
0.137428981591596
2.19193055418302
0.508144314838199
0.282173441095687
0.213737241445112
0.183097206847187
0.166341816170319
0.156041896004599
0.149278238621608
0.14469968572402
0.141595602358875
0.139547801106894
0.138269772687346
0.137536083475449
0.137083986407954
2.18619294169925
0.495418121341625
0.275619205380718
0.2102167300593
0.181096489787433
0.165149305942265
0.155304526664667
0.148807222179857
0.144383484161614
0.141360376299559
0.1393477208209
0.138090979228915
2.4668438288431
0.609693054849384
2.3816914763307
0.326504935033108
0.59746443447374
2.28696637178866
2.21610824321158
0.581546232914416
0.324118870223111
0.235033015081004
2.18722221389308
0.568736655845831
0.319674332667559
0.234825866363261
0.19355993346872
2.18619348918741
0.561735484506118
0.315204795833357
0.233455610501402
0.193950742377414
0.17131200264108
2.1919261487796
0.558428311392809
0.311781049527621
0.231559982751628
0.193618056394481
0.171844227739978
0.158200727421419
2.1948531043604
0.555485085935713
0.309102129322225
0.229615037275517
0.192760620539364
0.171878070869668
0.158711115299728
0.150037873951202
2.19512936670949
0.551164186183725
0.306343905412146
0.227675494065897
0.191593301641388
0.171470999368126
0.158845488461188
0.150476160896314
0.14480445473155
2.19479882191684
0.545239413136417
0.302963182040061
0.225555458078082
0.190225561349256
0.170733585846881
0.158626570143278
0.150608957655476
0.145166462028721
0.141423829070233
2.19479800618548
0.537906611430369
0.298796875769387
0.223095189091088
0.188668018532812
0.169773202095724
0.158131769235501
0.150463734218983
0.145267897894044
0.141718826880686
0.139274329102437
2.19512477951573
0.529243491501662
0.293855956468419
0.220242895546218
0.186912366218979
0.16866206849641
0.157460321809063
0.150114130982486
0.145151801767328
0.14178574303911
0.139512276409323
0.137970810210248
2.19485330122245
0.519201748329888
0.288199734000736
0.217036189697847
0.184985660951965
0.167455734096409
0.156700781163066
0.149654559139817
0.144898324590614
0.141682909244482
0.139548164146078
0.138159732573183
0.137260129559061
2.19192988002277
0.507739865035015
0.281952609439202
0.213592008076668
0.182975329758247
0.166229851250533
0.155935705938403
0.149176214914724
0.144600918694561
0.14149928194914
0.139452425523055
0.138169473113014
0.137410318796972
0.136963073936736
2.18619500588245
0.494820257186039
0.275400800737505
0.210140318279869
0.181052228728189
0.165112534767491
0.155269771318174
0.148773485552307
0.144350850111882
0.141329631879093
0.139321225290473
0.13807829392853
0.137413273996541
0.137074425895358
0.136942147417241
2.18721907869173
0.480896666286288
0.268974320921915
0.207076948309194
0.179510994896213
0.164316325427616
0.154859566029818
0.148567346349727
0.144247171850778
0.141263957377041
0.139247568904795
0.13796557083029
2.46684253706441
0.606956146695615
2.38168167136367
0.324572958746175
0.594957842932096
2.28700507263454
0.23363185733299
0.322353056888334
0.579281836584954
2.21609060902104
2.18721879214926
0.566719340399774
0.318081278009796
0.233548860289642
0.192482481773206
2.18619594672053
0.559948920212142
0.313783755557714
0.232305341402225
0.192973157357478
0.170448907058729
2.19192946378825
0.556856269577819
0.310525922726685
0.230536415596622
0.192741659821659
0.17106650850592
0.157491735603352
2.19484674775684
0.554115731545988
0.308005932444315
0.228716038145236
0.191985659444048
0.171186498713391
0.158078399452352
0.149447623097332
2.19512418391961
0.549995738296675
0.305402499560748
0.226898356522422
0.190919148959096
0.170865850675101
0.158289478114279
0.149956051058257
0.144310800315838
2.19480428773884
0.544271682419937
0.302174190153907
0.224898019350928
0.189651088936465
0.170214710145413
0.158147435342659
0.150159207841987
0.144738549064383
0.141012069754399
2.19480374182143
0.537131256935011
0.298156226991135
0.222554849059564
0.188191664691033
0.169340001807913
0.157729470318306
0.150084444522326
0.144905864052841
0.141369516766603
0.138934137138714
2.1951198105926
0.528646650576962
0.29335720214493
0.219815934512244
0.186532009788936
0.168313469076271
0.157134547206487
0.149805372334654
0.144855833426045
0.141499108691269
0.139231985188557
0.137694357685782
2.19485167696793
0.51875124284218
0.28782897780585
0.216716359700583
0.184698154315159
0.167190138278669
0.156450880476465
0.149416299821101
0.144668749010696
0.141459459911368
0.139328283481178
0.137940758295492
0.13704012738252
2.19192784839133
0.507353118624029
0.281672077708634
0.21336653550535
0.18277558485054
0.166044872048575
0.155760529124451
0.149008099144249
0.144437993732774
0.141339807360715
0.139294121998761
0.138008452674229
0.137241832112131
0.136794481651598
2.18619346582451
0.494361069946646
0.275131570402809
0.209986067429193
0.180932865800353
0.165004900611702
0.155167505968626
0.148674545665952
0.14425435463295
0.141234900616078
0.139226915443067
0.137978659423789
0.137288522300295
0.136955236675855
0.136826121306808
2.18721905677796
0.480088818140041
0.268716675248132
0.206989323617466
0.179469279821588
0.164284605800315
0.154829572655551
0.148537492445288
0.14421755192563
0.141235461679441
0.139222674472769
0.137954072254141
0.137277875008185
0.136978114621145
0.13694227232369
0.13703591523588
2.2161092742595
0.467399986542253
0.263451778692647
0.205138641024869
0.178908661160014
0.164241220682938
0.154995103303542
0.148775204599376
0.144459627660355
0.141443350266324
0.139368384937206
0.138009233472657
2.46683911286069
0.604007060204731
2.3816796034234
0.322484197951757
0.592227843014726
2.28699776642828
0.232112071787694
0.320428335683474
0.57680475105145
2.21610696348779
0.191307802682474
0.232151046439264
0.316328562056738
0.564486551121176
2.18721371618764
2.18619328609255
0.557949438781858
0.312204590114688
0.231033753175328
0.191896786727538
0.169501609275192
2.19193396671431
0.555077757031541
0.309115329182656
0.229392325687402
0.191766080787179
0.170203513233885
0.156707056830635
2.19485240952263
0.552549093245827
0.306758312041782
0.227698346913428
0.191112031316737
0.170409385832066
0.157369250063673
0.14878750563802
2.19511928563004
0.548633170408301
0.304313387230694
0.226004926974289
0.190147544153315
0.170175557022224
0.157656917553583
0.149365636014388
0.143751519903673
2.19479898289547
0.543113613222017
0.301241395886836
0.224126938582268
0.188980887254459
0.169611615814999
0.157592117982611
0.149639162387939
0.14424478288033
0.140537915375679
2.1948092905844
0.536175360614039
0.297377479084399
0.221904504215005
0.187621865153934
0.168823962143692
0.157251732330705
0.149635179079382
0.144478026517836
0.140957689688853
0.138534122298261
2.19512548417959
0.527882930325545
0.29272805779834
0.219283598461113
0.186061056349703
0.167883831497784
0.156734379866665
0.149427152502774
0.144494218629014
0.14114990367212
0.138891754854061
0.137360368747831
2.19484905933732
0.518157632419221
0.287340501720585
0.216297695087591
0.184323763328602
0.166845747089311
0.156127926840044
0.149109260787946
0.144373700311002
0.141173247309831
0.13904814357048
0.137664301202462
0.136765701900803
2.1919284360264
0.506863807051465
0.281301903838962
0.213053080371677
0.182493996226197
0.165783951183415
0.155514084234888
0.148772212808672
0.144209921907398
0.141117232237067
0.139074708654947
0.137789691271083
0.137021911295599
0.136574817933565
2.18619093755697
0.493974591341924
0.274828927645224
0.209760014437122
0.180737806347747
0.164824852806466
0.154996398181931
0.148509481836769
0.144093571492419
0.141076840199696
0.139069492220565
0.13781813459916
0.137120452325349
0.136787026430182
0.136659074427803
2.18721821276561
0.479577177089461
0.26841686385921
0.206826156658267
0.179352734552781
0.164182189689117
0.154732123391233
0.148442398545362
0.144123942747946
0.141142795584924
0.139129768285094
0.137855321270916
0.137153824963102
0.136860047785457
0.136827937904496
0.13692149122025
2.21610890975852
0.466230485807514
0.263154703358631
0.205044734992537
0.178871534264961
0.16421629334953
0.154971215137181
0.148750278222642
0.144433844409031
0.141417764047602
0.139345621178347
0.137999253725582
0.137242410607197
0.136891872507925
0.136869328413485
0.137044495401976
0.137289045888627
2.28699538146645
0.462136161315553
0.262189673664295
0.206084042222382
0.180290678925558
0.165550157369188
0.156120017547392
0.149708956584054
0.145217051445646
0.142040786495128
0.139817883843715
0.138316632865835
0.600879024690994
2.38167615227496
0.320245592357154
0.589281700477603
2.28699604307766
0.230477741081563
0.318347047613032
0.574109548516378
2.21611090142735
0.190038892738297
0.230634744026379
0.314417907476381
0.562042921635961
2.18721700268632
0.168472285218861
0.190723172685233
0.229641588493866
0.310466693704911
0.555736414723005
2.18618954965512
2.19192944467223
0.553086088639289
0.30754680753887
0.228127118767312
0.190691684385294
0.169256242063256
0.15584819258927
2.19485809397211
0.550775695643972
0.305355376814443
0.226560227413846
0.190139159473335
0.169546864514838
0.156584302590306
0.148058553186922
2.19512523435617
0.547073877759716
0.303072983294786
0.224992891229769
0.189277222975387
0.169399570198072
0.156947769689668
0.148705259547312
0.143127261161958
2.19479380894899
0.541761818917086
0.300161108067292
0.22323967640704
0.188213215103672
0.168923240660438
0.156960071032939
0.149048664835849
0.143685304907274
0.140001738692637
2.19480393953053
0.535030702996232
0.296455838815335
0.221140810374891
0.186956416104194
0.168223620052782
0.156697635450823
0.149115431431171
0.143984195664702
0.140483387325643
0.138074473831945
2.19513090795769
0.5269411473944
0.291961903091616
0.218641944650915
0.185496938009766
0.167371371449092
0.156258634720125
0.148978750220209
0.144066603041166
0.140738040275003
0.138491624512274
0.136968816928218
2.19485431366289
0.517403879600882
0.286724681181048
0.215775066249599
0.183859346831567
0.166420479313579
0.155730509546613
0.148732567428123
0.144012768468887
0.140824247607768
0.138707909363102
0.137330222776871
0.136435831429914
2.19192840437474
0.506255652016706
0.280822725976979
0.21264412349605
0.182126723345605
0.165444636504742
0.155194610070994
0.148467393822592
0.143916138540607
0.140831632822499
0.138794804969881
0.137513282648095
0.136747438493905
0.136301849180317
2.18619035161078
0.493502964730523
0.27445438992917
0.209453343403505
0.18046315970813
0.164569521791869
0.154754135680444
0.148276537318946
0.143867423640664
0.14085541617751
0.138850699502815
0.137599668269644
0.136900677614535
0.13656741376439
0.136440122695341
2.18721384409991
0.479237443293066
0.268109888852754
0.206600869778037
0.179163345455399
0.164008092481429
0.15456594617166
0.148281081315258
0.143965837380151
0.140986537747671
0.138973477299907
0.137695440749556
0.136986164795521
0.136692228945884
0.136661239824846
0.136755062635053
2.21610749982241
0.46562919300426
0.262855175060032
0.204880019665658
0.178760145999511
0.164120669371311
0.154879782998518
0.148659958053975
0.144343842076319
0.141327715507175
0.139254526833544
0.137901671416857
0.13711908478433
0.136774482255059
0.136756061813131
0.136931722715809
0.137174111648702
2.28699558541227
0.460474783317041
0.261830624428578
0.205995681846604
0.180262302690886
0.165534742811341
0.156104184847451
0.149690340881343
0.145196124136505
0.142018895430274
0.139797875982637
0.13830865547017
0.137411667813741
0.136933418702627
0.136825889804335
0.136991769311076
0.137304897823959
0.137642155729438
2.38167955402928
0.497843661084375
0.275346760050425
0.214148186375216
0.185759431415772
0.169408404453371
0.158934317589415
0.151815409089555
0.146818857493772
0.143264457144459
0.140744466655538
0.138998069642344
0.317870205678784
0.58614005629485
2.28699263701049
0.228735070908056
0.316114771403881
0.571197582369957
2.21611216634959
0.188680381021846
0.229003850268241
0.312351227633819
0.559387014967119
2.18722095953295
0.16736443837964
0.189455247122023
0.228131068401288
0.308571440311824
0.553313011807209
2.18619082549136
0.154917751735704
0.168226806265649
0.189519932663217
0.226741380195486
0.305819866745846
0.550880135579548
2.19192394282371
2.19485348474157
0.548787966223697
0.303794084652129
0.225300850306007
0.189067292689438
0.168599877021238
0.155725031333401
0.14726265679727
2.19513150130458
0.545307663406215
0.3016771217282
0.223860305152813
0.188307453592449
0.168537927330498
0.156162617543044
0.147975922870202
0.142439344539768
2.19479968561379
0.54021323424419
0.298929653381897
0.222233773726134
0.187346666959743
0.168148924761816
0.156251184777238
0.148388021054724
0.14306074298403
0.139404418022056
2.19479860741361
0.533693014990463
0.295387131596387
0.220261030190883
0.186193426526744
0.167537795555686
0.156066545599904
0.148524988550086
0.143424483922993
0.139946968179062
0.137555735734926
2.19512558481951
0.525812261740549
0.291054305169825
0.217887413280097
0.184837289422041
0.166774497705199
0.155706295633032
0.148459592142477
0.143572755017796
0.140263537987688
0.138031771008381
0.13651995768462
2.19485531460617
0.516475254000287
0.285974100550254
0.215144018075672
0.183302144352938
0.165912411979574
0.155257340037365
0.148285418171977
0.143585542194229
0.140412341148578
0.138307605745648
0.136938492133218
0.136050319032756
2.19193125464139
0.505504999046696
0.280221455649228
0.212133212564687
0.181670193949213
0.165024648669358
0.154800581581108
0.148092675658356
0.143556157624635
0.14048292740618
0.138454539254671
0.13717906866139
0.136417417912892
0.135974784701819
2.18619245123398
0.492900691376521
0.273983489982858
0.209055886064088
0.180104477403331
0.16423628286215
0.154438858231256
0.147974456112526
0.143575254905095
0.140570618532444
0.138571080490016
0.137323283737749
0.136626137949467
0.136294344710271
0.136168174085622
2.18721386158079
0.47884825951591
0.267748299667904
0.206303485617776
0.178897377434423
0.163759557565762
0.15432871356698
0.148051706644636
0.143742066294337
0.140766559848838
0.138755454036318
0.137477306711956
0.136766511917929
0.136472668955112
0.136442291827635
0.136536332865061
2.21610229245698
0.465370855739051
0.262591549455937
0.204665559542386
0.178579451750008
0.163954208692167
0.15471966825855
0.148503211394644
0.14418902700652
0.141173700615836
0.139099655277909
0.137742594949226
0.136951841194711
0.136606947377212
0.136589669801575
0.136765597713611
0.137007113372726
2.28700593835545
0.459753339551144
0.261546169873991
0.205846123621297
0.180161310923955
0.16544861223622
0.156020519875604
0.149605998994255
0.145110601752258
0.14193211343159
0.139709070053342
0.138212573047728
0.137289228930323
0.136816581314268
0.13671317469138
0.136879976310509
0.137191576444898
0.137525430449874
2.38168145625283
0.497014443643838
0.274974030703266
0.214067656060255
0.185745400500038
0.16940629763071
0.158929274916549
0.151805003295414
0.146804107470391
0.143247227369749
0.140727956694341
0.138992691308129
0.137881717804901
0.137209819884764
0.13693405461404
0.13698523673917
0.13726945120802
0.137664193592498
0.138048934819292
3.68516517047986
0.825997725907066
0.350085795197913
0.241785065167995
0.200262166444339
0.17818339370927
0.164714566216978
0.155847412776072
0.149739899114517
0.145429634986255
0.142365307750964
0.140206702675248
0.226893956710425
0.313742603620076
0.568080160510907
2.21610428102563
0.187238867513404
0.227264172251107
0.310132928339028
0.556517597430711
2.18722160490384
0.166183183040531
0.188097528759002
0.226505690999881
0.306520603661445
0.55067961508508
2.18619347792412
0.153919709834846
0.167118647910215
0.188253604297658
0.225237059852828
0.303935345438305
0.548462186607067
2.19192630107263
0.146402833518242
0.154794005255427
0.167570435210846
0.187897743792152
0.223920609821138
0.302073791375292
0.546583950690707
2.19484951396594
2.19512709796093
0.543326071477576
0.300122393437042
0.222606027955016
0.187238296516255
0.167591456982815
0.15530286971666
0.14717948992668
0.141690000730879
2.19480800854518
0.538457639524753
0.297542578471949
0.221107064206002
0.18638032505877
0.167288565454034
0.155465947487209
0.147658178169229
0.142372398731097
0.138747545548804
2.19480421378859
0.532158715273405
0.294167425170479
0.219262584033448
0.185331327268596
0.166765688475297
0.155358246112289
0.147864085315339
0.142799479599381
0.139349296391817
0.136979000975551
2.19512025608535
0.524491321806785
0.290000297553464
0.217017019510283
0.184080023730944
0.166091887333242
0.155076614653472
0.147869379078177
0.143012731205515
0.139726725125689
0.137512724575057
0.136014480605423
2.19485207565669
0.515359770604048
0.28508359747229
0.214400831446613
0.182649599801086
0.165319808607499
0.154707284212392
0.14776714645166
0.143091721454606
0.13993750436309
0.137847386959537
0.136489352131319
0.135609480022703
2.19193118340958
0.504582391483643
0.279489350553121
0.211515065680639
0.18112141140308
0.164521901641457
0.154330587401493
0.147647155400648
0.143129485419176
0.140070936666357
0.13805390107173
0.136787001380599
0.136031651524522
0.135593579935536
2.18619365611158
0.492147732635851
0.273399408535717
0.208559248010066
0.17965763950445
0.163822632482605
0.154048906472678
0.147602164685257
0.143216485972705
0.140222283512921
0.138230698420257
0.136988773559468
0.136295830875004
0.135967060771838
0.135842979087998
2.18721698531951
0.478340669308842
0.267296104287667
0.20592103673807
0.178549553329674
0.163433677677638
0.154018445421358
0.147752914473655
0.143451871911641
0.140482753498426
0.138476147751132
0.1372008485638
0.13649176367039
0.136199399743388
0.13617018090395
0.136264814705946
2.21610342175294
0.465132066364503
0.262295811637814
0.204388383219095
0.178325802743495
0.163714265545811
0.154488535989795