/*--------------------------------*- C++ -*----------------------------------*\
  =========                 |
  \\      /  F ield         | OpenFOAM: The Open Source CFD Toolbox
   \\    /   O peration     | Website:  https://openfoam.org
    \\  /    A nd           | Version:  12
     \\/     M anipulation  |
\*---------------------------------------------------------------------------*/
/*   Windows 32 and 64 bit porting by blueCAPE: http://www.bluecape.com.pt   *\
|  Based on Windows porting (2.0.x v4) by Symscape: http://www.symscape.com   |
\*---------------------------------------------------------------------------*/
FoamFile
{
    format      ascii;
    class       surfaceScalarField;
    location    "500";
    object      phi;
}
// * * * * * * * * * * * * * * * * * * * * * * * * * * * * * * * * * * * * * //

dimensions      [0 3 -1 0 0 0 0];

internalField   nonuniform List<scalar> 
28973
(
3.58373209564446e-06
-8.62394273285438e-08
-1.02042336015289e-07
3.78731974453495e-06
-8.81686925564265e-08
-1.15419862354297e-07
4.22157871289571e-06
-1.72135297196356e-07
-1.17198192765039e-07
5.63591204441614e-07
-6.45769182004646e-09
-1.67217390291044e-07
4.00765893730976e-06
-9.12254449195242e-08
-1.29110366041832e-07
4.44618423422176e-06
-1.79854620608485e-07
-1.32907105334581e-07
6.39821534024532e-07
-5.61203312897252e-09
-1.86031086058188e-07
4.62421031885558e-06
-2.578704449154e-07
-1.32819792846973e-07
8.47930950806175e-07
-1.16531433273985e-08
-1.98681022299982e-07
1.79413892936847e-07
3.39050572001454e-09
-2.22490797205509e-07
4.24663977623529e-06
-9.93058368339615e-08
-1.39678185058204e-07
4.69271470902138e-06
-1.91270118349458e-07
-1.4647259706124e-07
7.20671846842574e-07
-5.93411980111395e-09
-2.04023698065401e-07
4.86811983367139e-06
-2.72471116603009e-07
-1.51286799987652e-07
9.41398164301352e-07
-1.14848086752839e-08
-2.2049332618784e-07
2.33939471981817e-07
3.62576888197462e-09
-2.4418106811308e-07
5.06962104008066e-06
-3.4572933039396e-07
-1.49052629545581e-07
9.76604203982502e-07
-1.17504763810953e-08
-2.30700673687689e-07
2.97224689298808e-07
9.6911195726697e-09
-2.66491149734473e-07
1.25278769569759e-07
5.89520807349613e-09
-2.75057189483437e-07
4.50642697671831e-06
-1.09352391150269e-07
-1.50427807884477e-07
4.95940684909708e-06
-2.08329078349386e-07
-1.57656143589304e-07
8.10012826765787e-07
-8.19691717485057e-09
-2.20818398570541e-07
5.13496572149112e-06
-2.92174678451533e-07
-1.65930822263327e-07
1.04273804545875e-06
-1.36917725510671e-08
-2.40046255132342e-07
2.92415628875701e-07
3.17551644050079e-09
-2.65673880313481e-07
5.33405727112619e-06
-3.66845585828608e-07
-1.70061440721394e-07
1.08272487547868e-06
-1.26496111979526e-08
-2.56238674578433e-07
3.621410371156e-07
9.81289946164648e-09
-2.91596786670231e-07
1.74920669060858e-07
5.83823289057361e-09
-2.99660445605015e-07
5.39820135807465e-06
-4.3446538584822e-07
-1.59991726566267e-07
1.11366991915743e-06
-1.11074731530599e-08
-2.59557215307395e-07
3.47929998469526e-07
2.12166821574171e-08
-3.12916198042601e-07
1.99372181940929e-07
1.3014338479562e-08
-3.28076311980161e-07
1.30821190919711e-07
5.24300891987545e-09
-3.24570075440011e-07
4.78918363845708e-06
-1.20444475423374e-07
-1.62306405638552e-07
5.24773778440213e-06
-2.28101012911143e-07
-1.69573377138805e-07
9.0869722842559e-07
-1.11245885906141e-08
-2.37982431448629e-07
5.42318849860505e-06
-3.18035990539422e-07
-1.78496786458517e-07
1.15447893624806e-06
-1.82907604815147e-08
-2.59300535015677e-07
3.56700650371972e-07
1.97646324173042e-09
-2.87080232187843e-07
5.62229241568167e-06
-3.94344967167941e-07
-1.86058104734014e-07
1.19832907700724e-06
-1.68183191224315e-08
-2.78405396092055e-07
4.32936713209628e-07
8.69064018583093e-09
-3.16355494660414e-07
2.28552453405722e-07
5.42813689022401e-09
-3.24733371614478e-07
5.67569785912883e-06
-4.61516608277963e-07
-1.82820313539958e-07
1.23263762741516e-06
-1.3217151242037e-08
-2.88456488984215e-07
4.22539332212461e-07
2.12647329521121e-08
-3.42298866514638e-07
2.57426185549951e-07
1.27994675315996e-08
-3.56612167106131e-07
1.78386953366065e-07
5.02452727127461e-09
-3.52250106316569e-07
5.56093875904092e-06
-5.2162356894797e-07
-1.64662163193798e-07
1.21570476449167e-06
-1.34574829946434e-08
-2.75922590679944e-07
3.93311991966448e-07
3.50706202137626e-08
-3.52325172286595e-07
2.31176385794448e-07
2.3255069451633e-08
-3.85754947225311e-07
1.86289046787592e-07
1.16588074684009e-08
-3.85196306236236e-07
1.50614319183958e-07
4.22444917530288e-09
-3.71176382255509e-07
5.09770314697519e-06
-1.33388415004936e-07
-1.75120548667587e-07
5.56048556282368e-06
-2.50513254038005e-07
-1.82679032455178e-07
1.01693282615498e-06
-1.45778145130014e-08
-2.55959130640292e-07
5.73434017716021e-06
-3.47431855054702e-07
-1.91817912440712e-07
1.27734130988877e-06
-2.4313466109154e-08
-2.79245545186773e-07
4.27368168445522e-07
3.55154223450317e-10
-3.09004705148359e-07
5.93337263126008e-06
-4.28835244847777e-07
-2.00283351225501e-07
1.32579281570537e-06
-2.35769805048733e-08
-3.00668798195979e-07
5.10708457309784e-07
6.36058580652529e-09
-3.41455897041129e-07
2.87119146786762e-07
4.63519979109402e-09
-3.50281145669184e-07
5.97774401826545e-06
-4.96164453916993e-07
-2.00203482086266e-07
1.36214180762666e-06
-1.90399685923854e-08
-3.13329398136628e-07
5.043728214669e-07
1.9636684673487e-08
-3.71181639415089e-07
3.20462404324672e-07
1.18867062139632e-08
-3.8584976580186e-07
2.29854388577582e-07
4.58961539027793e-09
-3.80790164853152e-07
5.84199460413987e-06
-5.53789170832935e-07
-1.88765648611446e-07
1.3435878801182e-06
-1.67468210234546e-08
-3.07163000504559e-07
4.76557807288986e-07
3.51657149462206e-08
-3.85601975889866e-07
2.97892793898475e-07
2.29780641280618e-08
-4.19192071772608e-07
2.40795350706884e-07
1.12318427400562e-08
-4.17324292609531e-07
1.96357963105684e-07
3.94289304089352e-09
-4.01936558396305e-07
5.59823363334823e-06
-6.04759468561105e-07
-1.65468161225398e-07
1.28402499981421e-06
-2.0193165465843e-08
-2.81119277471706e-07
4.14433428382837e-07
4.80168910633181e-08
-3.72589293478498e-07
2.54479696681715e-07
3.47694386366845e-08
-4.33263483347982e-07
2.12162999793546e-07
1.8985049571876e-08
-4.50914750566592e-07
1.96438327296345e-07
8.42085566046772e-09
-4.37393360175706e-07
1.72320583480355e-07
2.80047592958714e-09
-4.14527395602097e-07
5.43451074065786e-06
-1.48315566404655e-07
-1.88498123098843e-07
5.90120031711771e-06
-2.76838462270857e-07
-1.97257818035528e-07
1.13551045552252e-06
-1.87872570032228e-08
-2.74907724545959e-07
6.07072052770612e-06
-3.80945388997341e-07
-2.05940047310139e-07
1.41182928306574e-06
-3.17119184312677e-08
-3.00036669174355e-07
5.04741760216966e-07
-1.72850792396191e-09
-3.31604916350149e-07
6.26916293221536e-06
-4.6801025418236e-07
-2.15199209861032e-07
1.46578468444388e-06
-3.22882673137192e-08
-3.23831542125991e-07
5.95975086240409e-07
3.15251141419569e-09
-3.67307918930824e-07
3.51065730777024e-07
3.56518936707811e-09
-3.76516022232612e-07
6.30311463045211e-06
-5.38661564231684e-07
-2.15523897749745e-07
1.50463033465332e-06
-2.78660740756585e-08
-3.38475401427774e-07
5.94298435188472e-07
1.64464365875914e-08
-4.00681134720457e-07
3.8926282494546e-07
1.02533006700909e-08
-4.15873371904798e-07
2.85810331865093e-07
3.90250382816193e-09
-4.1013911906078e-07
6.1476700327191e-06
-5.94680669217428e-07
-2.07151751265379e-07
1.48247593737161e-06
-2.41947678944925e-08
-3.33934622173475e-07
5.67880054381609e-07
3.32414738118084e-08
-4.18256527497168e-07
3.70477798875797e-07
2.16455637373203e-08
-4.5352671166566e-07
2.99832313009356e-07
1.03398415142322e-08
-4.50636142146863e-07
2.45850553791573e-07
3.49554590480764e-09
-4.33777981593905e-07
5.87603126602662e-06
-6.4089515877614e-07
-1.90691200316348e-07
1.41689900566951e-06
-2.46132199302594e-08
-3.137689367825e-07
5.02555666821533e-07
4.81720162473339e-08
-4.0828965043447e-07
3.28402037778881e-07
3.44554242154877e-08
-4.71000160765944e-07
2.74294475615724e-07
1.83464227379613e-08
-4.88437920533717e-07
2.48217806375727e-07
7.81047865949056e-09
-4.72971022237937e-07
2.16126279007711e-07
2.46051501943852e-09
-4.48202525148166e-07
5.57296496780163e-06
-6.82030653132168e-07
-1.65097927957013e-07
1.33372592034917e-06
-3.13633865711675e-08
-2.80461175397175e-07
4.19105235211281e-07
5.82865291867735e-08
-3.77275129250664e-07
2.58202348285669e-07
4.56606354886789e-08
-4.56489597895613e-07
2.28963030314123e-07
2.63606676585082e-08
-5.04323630970702e-07
2.21240696248244e-07
1.25965056789558e-08
-5.09580123610035e-07
2.13131786693809e-07
4.56451429444039e-09
-4.84912296319837e-07
1.92275568991742e-07
1.15932955576651e-09
-4.54458580956531e-07
5.8029086950504e-06
-1.65492902804197e-07
-2.02907404550514e-07
6.27284544593858e-06
-3.07487507949911e-07
-2.1246718319817e-07
1.26531442496539e-06
-2.36189087427142e-08
-2.94678328054648e-07
6.4366902255805e-06
-4.20486853496588e-07
-2.22308650948191e-07
1.55864648365131e-06
-4.06411136940032e-08
-3.22226587480587e-07
5.89112846580567e-07
-4.17683674964787e-09
-3.55100293832594e-07
6.63184112264611e-06
-5.12967750291606e-07
-2.3064966988556e-07
1.61901187777717e-06
-4.31434107759798e-08
-3.47729835258402e-07
6.89261849266905e-07
-1.02825351778344e-09
-3.94023031974398e-07
4.20792070733438e-07
2.16617345821247e-09
-4.03496846417594e-07
6.65437947781943e-06
-5.87162401749577e-07
-2.32107109539995e-07
1.66089497265639e-06
-3.90597521244602e-08
-3.64686921496551e-07
6.92746784531827e-07
1.19948978226783e-08
-4.31121414329199e-07
4.64316516534657e-07
7.99543108929548e-09
-4.46790717772122e-07
3.46636607239308e-07
2.98751179700016e-09
-4.40329399416294e-07
6.47627736745405e-06
-6.44156362439112e-07
-2.23114779119555e-07
1.63511857950866e-06
-3.50611913895316e-08
-3.60965213103637e-07
6.68117773985002e-07
2.94200337487504e-08
-4.51686098878665e-07
4.49699629965081e-07
1.92826131419067e-08
-4.88930669974664e-07
3.63964821178858e-07
8.94525301096987e-09
-4.85047752784385e-07
2.99478355635934e-07
2.8563265243978e-09
-4.66622800727829e-07
6.17798518155759e-06
-6.86837703302934e-07
-2.09804365370776e-07
1.5608494262136e-06
-3.37208222085583e-08
-3.41574374236138e-07
5.99137799663183e-07
4.59956896748144e-08
-4.43269619642415e-07
4.0876136359684e-07
3.28035569929168e-08
-5.09772446634493e-07
3.41622436661413e-07
1.69549403979371e-08
-5.27468692096337e-07
3.04232044383661e-07
6.83577665950399e-09
-5.09990305968222e-07
2.63460674170712e-07
1.97819255894406e-09
-4.83090128951188e-07
5.84427380575649e-06
-7.20815802342695e-07
-1.91383559707163e-07
1.46931520863578e-06
-3.68339472316095e-08
-3.14065293061674e-07
5.09164443461635e-07
5.84818341225824e-08
-4.14138785293085e-07
3.3579374193417e-07
4.52941482617909e-08
-4.96717773439064e-07
2.9730815798192e-07
2.5462452450009e-08
-5.46459870555248e-07
2.79967981053679e-07
1.16049513737823e-08
-5.50959417416962e-07
2.6252700446867e-07
3.77206935125453e-09
-5.23677036551449e-07
2.34116426573585e-07
7.56773545607971e-10
-4.908001310684e-07
5.52868294107544e-06
-7.52232982678898e-07
-1.64911037564215e-07
1.37925032462444e-06
-4.73899844590486e-08
-2.77587646169601e-07
4.1888630471317e-07
6.53696933269034e-08
-3.74534529428416e-07
2.50418073452502e-07
5.48131087476986e-08
-4.60754204997519e-07
2.28665946423607e-07
3.31926791266986e-08
-5.29971386159992e-07
2.37106127933304e-07
1.6345274476054e-08
-5.67884793569517e-07
2.39295390060399e-07
5.93047416502737e-09
-5.62885288895022e-07
2.30652685440996e-07
7.51669266551296e-10
-5.28238176306767e-07
2.09531616785209e-07
-6.32278130519367e-10
-4.90910504391322e-07
6.20666896325312e-06
-1.85313458010184e-07
-2.18439082715886e-07
6.67905455630392e-06
-3.43154071431774e-07
-2.28549063026497e-07
1.40724991436497e-06
-2.93517056375469e-08
-3.1548725028102e-07
6.83583000729178e-06
-4.66735607635286e-07
-2.39875747463878e-07
1.71918609966508e-06
-5.11366583034976e-08
-3.45482247585738e-07
6.80934473586633e-07
-7.03703421556544e-09
-3.7946216526705e-07
7.02564205038375e-06
-5.65653399217018e-07
-2.48625642662489e-07
1.78591491859511e-06
-5.63722504959434e-08
-3.7347291311703e-07
7.90858260661048e-07
-6.14505406859746e-09
-4.21852485260742e-07
4.96673126357998e-07
3.16472055236154e-10
-4.31297569026186e-07
7.03340533075516e-06
-6.43079942687898e-07
-2.48911508617225e-07
1.83191279075835e-06
-5.31546947862067e-08
-3.91642193916136e-07
8.00437496680498e-07
6.11257313862565e-09
-4.62559453280513e-07
5.4609980467819e-07
5.00791484578293e-09
-4.78646587965085e-07
4.12712142382651e-07
1.78537997047089e-09
-4.71357054544146e-07
6.83085271690907e-06
-7.00927648431354e-07
-2.40797635066055e-07
1.80212478916291e-06
-4.8873308660257e-08
-3.8929356636278e-07
7.77685800191288e-07
2.39669290788097e-08
-4.86224727385618e-07
5.36073252886124e-07
1.59591844248568e-08
-5.25458424788751e-07
4.33641340404296e-07
7.04584560040015e-09
-5.2052531358048e-07
3.5755616742746e-07
2.02089526793001e-09
-5.00428025634125e-07
6.50203665090298e-06
-7.42096833325875e-07
-2.26100217857167e-07
1.71890101955538e-06
-4.66710975525529e-08
-3.69547100143862e-07
7.05052352953439e-07
4.16152512557379e-08
-4.79075067327804e-07
4.963705536815e-07
2.98151902162681e-08
-5.4982493604044e-07
4.14746883513357e-07
1.48007237686265e-08
-5.67909207510756e-07
3.64902830541396e-07
5.46235310826168e-09
-5.48324019021599e-07
3.14609244929486e-07
1.33312009228492e-09
-5.19104533092971e-07
6.13907524646584e-06
-7.70504742140545e-07
-2.11122304959058e-07
1.61579603386419e-06
-4.75629655293942e-08
-3.42440221605748e-07
6.07745569107911e-07
5.6024815409174e-08
-4.50182012262876e-07
4.2003744496749e-07
4.33429313246574e-08
-5.38051323093959e-07
3.71286147603834e-07
2.35649913026647e-08
-5.90358521175644e-07
3.43485925630005e-07
1.00085284976258e-08
-5.94158594180934e-07
3.15888827950647e-07
2.66875833786383e-09
-5.64042397644317e-07
2.79244160985251e-07
2.23625076919081e-10
-5.28441416057276e-07
5.79250020216365e-06
-7.92271974708359e-07
-1.92360484342906e-07
1.51679094740473e-06
-5.37297385080658e-08
-3.12028478641719e-07
5.09659661465252e-07
6.56152317048135e-08
-4.11967663075077e-07
3.29188158739012e-07
5.43862267556642e-08
-5.01998346020617e-07
3.00079025773983e-07
3.20126632556886e-08
-5.74680273671203e-07
3.01507113786632e-07
1.49020165218203e-08
-6.14157589441597e-07
2.95313621137797e-07
4.61262259984344e-09
-6.07817797652346e-07
2.77820787380165e-07
-2.07384417432553e-10
-5.69880775713621e-07
2.49473548503562e-07
-1.12952198158961e-09
-5.29612355283838e-07
5.48668634145659e-06
-8.1419190507214e-07
-1.65575161144719e-07
1.43073703882604e-06
-6.94230900454855e-08
-2.73879125739446e-07
4.20120998400424e-07
6.89116872719661e-08
-3.69135209801729e-07
2.40244847753737e-07
6.17176170536742e-08
-4.56315470085072e-07
2.18584077031999e-07
3.89808661408345e-08
-5.3419662644115e-07
2.36997821908213e-07
1.9680036245546e-08
-5.95843697061962e-07
2.56639622533508e-07
6.79055655461203e-09
-6.25786940782942e-07
2.59195573524027e-07
-2.0346775769083e-10
-6.11680526633263e-07
2.46755896451998e-07
-2.70983548268523e-09
-5.67978560296097e-07
2.23809240182316e-07
-2.19942907534008e-09
-5.2415600858553e-07
6.64999476585532e-06
-2.08297650414064e-07
-2.35025720032913e-07
7.12423633149719e-06
-3.84518944344601e-07
-2.45981131359168e-07
1.56239732125025e-06
-3.6267239869474e-08
-3.37319462543278e-07
7.27161577704774e-06
-5.20660847099257e-07
-2.58262531975502e-07
1.8946655987896e-06
-6.361864867157e-08
-3.69755429025064e-07
7.80724517020859e-07
-1.05935776018654e-08
-4.04682223457267e-07
7.454782371716e-06
-6.27357210968033e-07
-2.68522215841361e-07
1.96806774746189e-06
-7.23486008261384e-08
-4.00811878759318e-07
9.01357225075921e-07
-1.22250707383536e-08
-4.50792383302772e-07
5.79061794440562e-07
-1.93093443867608e-09
-4.59919630186865e-07
7.44418492778128e-06
-7.08405513640647e-07
-2.68023619543562e-07
2.01799402433669e-06
-7.06226817459474e-08
-4.2045213091392e-07
9.17618384444037e-07
-1.38549252860815e-09
-4.95415500976277e-07
6.34946084391495e-07
1.19423189006392e-09
-5.11576039398567e-07
4.84371643937046e-07
2.68203453045441e-10
-5.03225067793135e-07
7.21290233796307e-06
-7.66619214860204e-07
-2.58512257687255e-07
1.98471224624449e-06
-6.63025158453497e-08
-4.18347786819418e-07
8.97421560668739e-07
1.6619341861189e-08
-5.2188550455897e-07
6.30135935034925e-07
1.15277039561009e-08
-5.63140199459431e-07
5.09299919599732e-07
4.54777177685236e-09
-5.57066469931359e-07
4.2042107749375e-07
9.33216293990768e-10
-5.35154903614581e-07
6.85130125674318e-06
-8.05753411464993e-07
-2.44420566367749e-07
1.89138209806822e-06
-6.31620600317204e-08
-3.98990565944205e-07
8.20612099950247e-07
3.5228091126931e-08
-5.16110775891083e-07
5.91779494227886e-07
2.55292232185975e-08
-5.91201761723217e-07
4.94140132048664e-07
1.18612520692288e-08
-6.09666644310894e-07
4.30604938932537e-07
3.66365710779853e-09
-5.87868940456437e-07
3.69838291029665e-07
5.16903323168156e-10
-5.56173890123937e-07
6.4549045303338e-06
-8.30236612932922e-07
-2.27692857656862e-07
1.77643487376153e-06
-6.25485852680166e-08
-3.70853230545437e-07
7.15764662952886e-07
5.10809731028374e-08
-4.8702933839249e-07
5.11774194168076e-07
3.97749999343424e-08
-5.80769110743087e-07
4.51551842374432e-07
2.06348649899789e-08
-6.35923510765328e-07
4.12259948981355e-07
7.78679815435592e-09
-6.39007252845573e-07
3.73538606052925e-07
1.22213149191706e-09
-6.0586159482075e-07
3.27890744684174e-07
-4.53312766865542e-10
-5.67297613795085e-07
6.07925578246174e-06
-8.44411592235677e-07
-2.12825911525987e-07
1.66489366126563e-06
-6.59582172430243e-08
-3.40837800592985e-07
6.0884827767486e-07
6.28741867784549e-08
-4.48475181023822e-07
4.14585864331885e-07
5.21326381410672e-08
-5.44367911345201e-07
3.77276666552684e-07
2.96153708183239e-08
-6.21297826784546e-07
3.71075006305033e-07
1.26358283140297e-08
-6.62552968988811e-07
3.55813691997931e-07
2.77248318437591e-09
-6.54762151856918e-07
3.28684634134321e-07
-1.44250934097376e-09
-6.13239380666243e-07
2.92455268162069e-07
-1.7153625829292e-09
-5.69707680549316e-07
5.74298218157111e-06
-8.54052529344779e-07
-1.94510259901851e-07
1.57029504723565e-06
-7.64681819214821e-08
-3.0917598962592e-07
5.11449311244482e-07
6.92350874689203e-08
-4.06974433893639e-07
3.19326553327679e-07
6.12452372351633e-08
-4.97906488363574e-07
2.90924413392796e-07
3.75325450184663e-08
-5.79857801159263e-07
3.04249590334143e-07
1.7771014014508e-08
-6.44800443045558e-07
3.18104394576033e-07
4.87920264451841e-09
-6.75888848926528e-07
3.12809627515332e-07
-1.7937971579808e-09
-6.59845337566815e-07
2.91771945432e-07
-3.81516887285999e-09
-6.12210963059932e-07
2.61896984185866e-07
-2.74658098542544e-09
-5.64953363181357e-07
5.45263756830301e-06
-8.67881185765133e-07
-1.67960248455949e-07
1.49578574875001e-06
-9.91880387157157e-08
-2.69895750893343e-07
4.24886778043749e-07
6.82651204965427e-08
-3.62507519273019e-07
2.3168127897379e-07
6.59362866409976e-08
-4.48816442561612e-07
2.0640503339688e-07
4.32209874761931e-08
-5.28586508140969e-07
2.27366411803004e-07
2.23677107654297e-08
-6.00356674433466e-07
2.58184533883352e-07
7.31472174519939e-09
-6.56087455515884e-07
2.78832161136875e-07
-1.65371822729303e-09
-6.79065006071966e-07
2.77822866494936e-07
-5.46760142284494e-09
-6.56604702397848e-07
2.60356451991748e-07
-5.59675670688477e-09
-6.04535894889351e-07
2.34805489766758e-07
-3.38973112241403e-09
-5.54546223341312e-07
7.13742039000016e-06
-2.34239985497868e-07
-2.53187518660039e-07
7.61342814360142e-06
-4.32693179150838e-07
-2.64804268681339e-07
1.73200829518704e-06
-4.45508465450841e-08
-3.60083259222424e-07
7.7485118850267e-06
-5.83830224210353e-07
-2.77571705572335e-07
2.08650373870928e-06
-7.87938143202238e-08
-3.95283502123674e-07
8.89076089891396e-07
-1.49683286345575e-08
-4.30702354612868e-07
7.92336868804684e-06
-6.99670382905391e-07
-2.8957270960321e-07
2.16689116626985e-06
-9.14580624010604e-08
-4.29248615132966e-07
1.02135606595456e-06
-1.9603749585159e-08
-4.80742585373775e-07
6.68360089945482e-07
-4.68679019099362e-09
-4.89293706911956e-07
7.89138650260537e-06
-7.84856423269188e-07
-2.8969871448291e-07
2.22051906448348e-06
-9.19287038069193e-08
-4.5146308821359e-07
1.0448540138988e-06
-1.05397774869883e-08
-5.29732024268241e-07
7.31310238017578e-07
-3.50288054393812e-09
-5.45583008006629e-07
5.61953076962476e-07
-1.6107187269196e-09
-5.35890132520765e-07
7.62618386908204e-06
-8.43276974439207e-07
-2.78403097412894e-07
2.18327829620319e-06
-8.80089851121259e-08
-4.49200901832131e-07
1.02769520217895e-06
7.06081338402982e-09
-5.59169242834046e-07
7.32232413621759e-07
5.82041667502611e-09
-6.02137480100476e-07
5.91313689635709e-07
1.37034235636844e-09
-5.94691591666688e-07
4.88390741293821e-07
-4.39802672788153e-10
-5.7075492172954e-07
7.22688794657148e-06
-8.79595127462728e-07
-2.6261230255538e-07
2.07964397223335e-06
-8.39446948428953e-08
-4.29121577133545e-07
9.46725535573659e-07
2.65033120390897e-08
-5.54347113004652e-07
6.95609319616594e-07
1.97437184783803e-08
-6.3392919751919e-07
5.80288097222627e-07
7.99746314587479e-09
-6.52736474021535e-07
5.01707661936206e-07
1.34654882078157e-09
-6.28581493586932e-07
4.2944154779593e-07
-5.21260551064485e-10
-5.94236899504455e-07
6.79477501395747e-06
-8.99171160397944e-07
-2.46465596895763e-07
1.95129540485521e-06
-8.16109412368218e-08
-4.00833055391046e-07
8.33392666197535e-07
4.37810841679036e-08
-5.25167455850009e-07
6.11541541729871e-07
3.45858804927287e-08
-6.24934936036001e-07
5.38609165827243e-07
1.66265558723534e-08
-6.83023473993237e-07
4.86707394914067e-07
4.8955176249281e-09
-6.85344337399464e-07
4.35790855763888e-07
-5.98935995917039e-10
-6.49004682688908e-07
3.80286735411747e-07
-1.28138404453268e-09
-6.07288438307819e-07
6.38595821111059e-06
-9.07220408049959e-07
-2.29707424125329e-07
1.82704100700173e-06
-8.28413251458847e-08
-3.69538802607714e-07
7.17418897830398e-07
5.73873877320298e-08
-4.85729423274613e-07
5.07467892481613e-07
4.80127134749663e-08
-5.88147158737202e-07
4.60943793299471e-07
2.5929437201295e-08
-6.69730958952066e-07
4.4631783293973e-07
9.50290758803259e-09
-7.12881171253602e-07
4.21157788607702e-07
3.88914657370068e-10
-7.03517728776276e-07
3.83508959421522e-07
-2.98260800450898e-09
-6.58156243547837e-07
3.38682845664265e-07
-2.43070294459146e-09
-6.11094274589372e-07
6.02207175158226e-06
-9.07698707559855e-07
-2.15794486566015e-07
1.72002620573308e-06
-9.00720117237678e-08
-3.38432710449375e-07
6.11025316038118e-07
6.62439677809931e-08
-4.43778001329004e-07
4.04904064385962e-07
5.87062051997084e-08
-5.40623497071032e-07
3.69012600100697e-07
3.46581363712805e-08
-6.27497921935004e-07
3.76809681646109e-07
1.4837978195925e-08
-6.96059900582989e-07
3.8440930092507e-07
2.24806388062425e-09
-7.283326207075e-07
3.70606819209266e-07
-3.85019464901363e-09
-7.10152077054235e-07
3.40219943768779e-07
-5.15671972308279e-09
-6.58245901475488e-07
3.0278901674098e-07
-3.37276176148261e-09
-6.07227050590124e-07
5.70366829101802e-06
-9.06188274868258e-07
-1.98891481643005e-07
1.63775143520526e-06
-1.06858878841593e-07
-3.06084275939068e-07
5.17008279633941e-07
6.86709108932397e-08
-4.00730064674009e-07
3.11085458081798e-07
6.54306249304063e-08
-4.90562615503245e-07
2.78979178393316e-07
4.1527096577626e-08
-5.7447418867553e-07
2.95522391857087e-07
2.00178468741783e-08
-6.50259600821536e-07
3.22468637189856e-07
4.80160320986875e-09
-7.09005347770608e-07
3.37768574014241e-07
-3.93592146718483e-09
-7.32682823943967e-07
3.2911063161461e-07
-7.26564849100182e-09
-7.07682311558435e-07
3.03257193244105e-07
-6.79768322081319e-09
-6.51060224350757e-07
2.71041246119254e-07
-3.98468930561845e-09
-5.9720439930493e-07
5.42543433203896e-06
-9.11640346551137e-07
-1.72630567011145e-07
1.58164630579594e-06
-1.38939579162908e-07
-2.6612077837434e-07
4.34068070130705e-07
6.24600565777861e-08
-3.55014197612293e-07
2.25391113591665e-07
6.68823777667997e-08
-4.39779524631576e-07
1.95327401209909e-07
4.54024820747178e-08
-5.19471655270066e-07
2.15254776038846e-07
2.39129954464957e-08
-5.93955521042908e-07
2.4975703315332e-07
7.35765510708629e-09
-6.6108049283043e-07
2.82351123365266e-07
-3.42543623758302e-09
-7.11704517861251e-07
2.99802186693361e-07
-8.76438824108183e-09
-7.28304954014341e-07
2.93663280859214e-07
-9.74569778389863e-09
-6.98084491442779e-07
2.70769211639534e-07
-7.82856529500369e-09
-6.38130369967041e-07
2.42235297214035e-07
-4.2207567896759e-09
7.67451924790173e-06
-2.64590182636102e-07
-2.72499316432605e-07
8.15316271713373e-06
-4.88729046862825e-07
-2.85240478643987e-07
1.91705914331637e-06
-5.44841463681461e-08
-3.83757547544546e-07
8.27169095202862e-06
-6.57591078920293e-07
-2.98275769155906e-07
2.29624128387802e-06
-9.71087809816511e-08
-4.21981138128488e-07
1.00660208653782e-06
-2.02152943794718e-08
-4.57393534891384e-07
8.4357309705365e-06
-7.84380988285923e-07
-3.11813467791385e-07
2.3840575755827e-06
-1.14472065158899e-07
-4.59065587273061e-07
1.15144234623237e-06
-2.86811556095952e-08
-5.11656911640386e-07
7.65024527006818e-07
-8.06542451602981e-09
-5.19301521773737e-07
8.37931477240511e-06
-8.74615227347833e-07
-3.12969049870104e-07
2.44132544199897e-06
-1.17738968368794e-07
-4.8408604452517e-07
1.18300508212553e-06
-2.16815892979544e-08
-5.65322073395642e-07
8.35722139586295e-07
-9.25951240334375e-09
-5.80580421307894e-07
6.45833208147644e-07
-3.91719805721708e-09
-5.69256307322189e-07
8.07539354086094e-06
-9.32998041133242e-07
-3.01056096787484e-07
2.39886602676955e-06
-1.14608348734402e-07
-4.82601358446658e-07
1.16890797518703e-06
-4.94000770679587e-09
-5.98272962708287e-07
8.42823537401986e-07
-1.32686839414119e-09
-6.42497479407351e-07
6.80073775955972e-07
-2.58821152110764e-09
-6.33364814733591e-07
5.61787197491744e-07
-2.13856500797174e-09
-6.07147643346856e-07
7.63225763759264e-06
-9.65762005151116e-07
-2.82873208149902e-07
2.2841764149551e-06
-1.09843344562909e-07
-4.61092377633816e-07
1.08386839540766e-06
1.50336702674668e-08
-5.94316394561903e-07
8.08250817195027e-07
1.22168875698798e-08
-6.78205788221954e-07
6.73616680562708e-07
3.06812833919544e-09
-6.97163435427607e-07
5.7856763322326e-07
-1.56679699346067e-09
-6.70424613075323e-07
4.93712666033398e-07
-1.81177621193879e-09
-6.33213951696749e-07
7.1594383384013e-06
-9.7927958519997e-07
-2.64966278993141e-07
2.14177328506318e-06
-1.05582583981368e-07
-4.31448969800933e-07
9.61565683305216e-07
3.37373714341344e-08
-5.64529073177111e-07
7.19997344693143e-07
2.75229868958989e-08
-6.70581239788858e-07
6.32977799742238e-07
1.13579510676699e-08
-7.31658200264815e-07
5.67236991197978e-07
1.20352956751021e-09
-7.33122089807569e-07
5.02969853905107e-07
-2.87721344494605e-09
-6.93404793616469e-07
4.36693126473891e-07
-2.30338587856813e-09
-6.48339665902527e-07
6.71544128604134e-06
-9.79806473413874e-07
-2.48835161041841e-07
2.00309434986925e-06
-1.04267237023325e-07
-3.99844950771065e-07
8.35413388538061e-07
4.92461970738252e-08
-5.242888056299e-07
6.08327213125032e-07
4.19841861682221e-08
-6.33423590635511e-07
5.51589712205984e-07
2.08802461529205e-08
-7.19833384101081e-07
5.27694276350002e-07
5.43881850447125e-09
-7.6494151978475e-07
4.91694581373972e-07
-2.58836082803567e-09
-7.53891506797912e-07
4.4256669235708e-07
-4.85634108755553e-09
-7.04486953674943e-07
3.8836378522221e-07
-3.2900794415071e-09
-6.53679240951381e-07
6.32013227792634e-06
-9.72345997022687e-07
-2.32951141884805e-07
1.88361911569944e-06
-1.0872411996867e-07
-3.67409713798956e-07
7.19864174697465e-07
6.0269311987797e-08
-4.81259231077398e-07
4.97851807748383e-07
5.40784460522187e-08
-5.84741007319797e-07
4.53546888444622e-07
3.02660676258437e-08
-6.77015585779827e-07
4.55195832678605e-07
1.0808506321394e-08
-7.4942164038787e-07
4.55957330706397e-07
-1.14484853752896e-09
-7.82895313395298e-07
4.32888139327522e-07
-6.39115929996376e-09
-7.62390002910405e-07
3.92330330249943e-07
-6.76976449217627e-09
-7.05927304363985e-07
3.46677479784725e-07
-4.11784683687641e-09
-6.50865043811687e-07
5.97644473608486e-06
-9.59624877716695e-07
-2.20822729180506e-07
1.7895482426627e-06
-1.2179854582646e-07
-3.35860847700372e-07
6.17175595255226e-07
6.54523758721393e-08
-4.37808006623025e-07
3.9682060698169e-07
6.26291272224465e-08
-5.33435879149992e-07
3.57187374096805e-07
3.82062625729213e-08
-6.22379636993873e-07
3.68969406349188e-07
1.6454157683675e-08
-7.02559307002865e-07
3.91734282065966e-07
1.38323305160549e-09
-7.64460984164629e-07
4.01239292676448e-07
-6.86514845626275e-09
-7.88787434166856e-07
3.84284099256055e-07
-9.47721472724913e-09
-7.61004318764987e-07
3.49318453954914e-07
-8.20207035510749e-09
-6.99477612760124e-07
3.0984248176707e-07
-4.62023795072034e-09
-6.41407806670996e-07
5.67333020346001e-06
-9.47485072054442e-07
-2.06607430791247e-07
1.7263315908846e-06
-1.47099594328996e-07
-3.03336681425243e-07
5.27346888295837e-07
6.29305488612046e-08
-3.93623325672365e-07
3.05382858683557e-07
6.63334664726548e-08
-4.81624050017166e-07
2.68190004125337e-07
4.34724996836058e-08
-5.65370518315253e-07
2.83672413626485e-07
2.11481871892786e-08
-6.44022322803854e-07
3.15000438126503e-07
4.26877730323648e-09
-7.14969282833813e-07
3.44101346726116e-07
-6.40668688062073e-09
-7.68284517061914e-07
3.5627821293992e-07
-1.13152364055323e-08
-7.85109253579311e-07
3.42611181344129e-07
-1.16768271961444e-08
-7.51750795237438e-07
3.11532502854237e-07
-9.08860415983831e-09
-6.86719571702419e-07
2.76550476173331e-07
-4.85782825245203e-09
-6.26661752881849e-07
5.39891842018013e-06
-9.42699279439381e-07
-1.79861794768062e-07
1.69611190686364e-06
-1.90898001977048e-07
-2.63490038781004e-07
4.48830290772474e-07
5.03050540656441e-08
-3.47012392674946e-07
2.21307157917888e-07
6.38176250618467e-08
-4.29473120865706e-07
1.8580199519887e-07
4.49859130424845e-08
-5.08535466705051e-07
2.03750719772277e-07
2.38266962628454e-08
-5.83611320199574e-07
2.38291245749454e-07
6.50920773017685e-09
-6.54159131630045e-07
2.75269583958834e-07
-5.60778702696519e-09
-7.17276295164907e-07
3.05208345023629e-07
-1.24008747900368e-08
-7.63226499274078e-07
3.17732537304288e-07
-1.44954918257773e-08
-7.73887061217402e-07
3.05828702525836e-07
-1.30441656449362e-08
-7.36329652873713e-07