/*--------------------------------*- C++ -*----------------------------------*\
  =========                 |
  \\      /  F ield         | OpenFOAM: The Open Source CFD Toolbox
   \\    /   O peration     | Website:  https://openfoam.org
    \\  /    A nd           | Version:  12
     \\/     M anipulation  |
\*---------------------------------------------------------------------------*/
/*   Windows 32 and 64 bit porting by blueCAPE: http://www.bluecape.com.pt   *\
|  Based on Windows porting (2.0.x v4) by Symscape: http://www.symscape.com   |
\*---------------------------------------------------------------------------*/
FoamFile
{
    format      ascii;
    class       volVectorField;
    location    "500";
    object      U;
}
// * * * * * * * * * * * * * * * * * * * * * * * * * * * * * * * * * * * * * //

dimensions      [0 1 -1 0 0 0 0];

internalField   nonuniform List<vector> 
10140
(
(4.24804747403723e-06 9.76753763996807e-05 2.84036670077786e-05)
(6.41617809856348e-06 0.000126851614866137 3.44321814226961e-05)
(1.63306736539502e-05 4.00000778378522e-05 2.80685595376543e-05)
(4.81037867206861e-06 -8.11593588206705e-05 6.34671015853716e-05)
(7.69379761238253e-06 0.00015780595389338 4.18652875872651e-05)
(2.07589626032197e-05 6.18856957818902e-05 3.48151569504255e-05)
(5.73933228697458e-06 -5.47334261921254e-05 7.29491436052982e-05)
(3.12924277506355e-05 2.69302907261423e-06 2.8263032905965e-05)
(1.64092263676008e-05 -0.000118807908290436 6.29404945654941e-05)
(3.5057784697958e-06 -5.39633414297368e-05 9.71451893032293e-05)
(7.28507678592742e-06 0.000196653812648814 4.59004878104677e-05)
(2.30306213460937e-05 8.90372442078961e-05 4.20429792994476e-05)
(6.19738862573368e-06 -2.93434338761948e-05 8.18675292893913e-05)
(3.56424866109586e-05 2.20504204814546e-05 3.54562799181881e-05)
(1.87425450194569e-05 -9.69693954118579e-05 7.306757893328e-05)
(3.86667881549853e-06 -2.92129760037387e-05 0.000108339909179061)
(4.7628987524654e-05 -1.77816880408456e-05 2.90553694214531e-05)
(2.99254998443111e-05 -0.000144423300403061 6.30560754668851e-05)
(1.14370604527136e-05 -7.44307888215896e-05 9.77655790555828e-05)
(2.6673914301993e-06 -2.12096830399883e-05 0.000130407588630302)
(6.82960167774561e-06 0.000244778991731167 4.94927324050805e-05)
(2.23810568517374e-05 0.00012385156603695 4.55974944640429e-05)
(6.15943143903923e-06 7.48311558341626e-07 8.93350973108125e-05)
(3.77676116363166e-05 4.70202789998911e-05 4.28690520816582e-05)
(1.98225035203533e-05 -7.39870198709899e-05 8.13926193234028e-05)
(3.97377932814018e-06 -3.65610113571874e-06 0.000119123223970632)
(5.20212085541011e-05 1.85397551778483e-07 3.65469196188334e-05)
(3.28869147827407e-05 -0.000124779880899468 7.35979720805917e-05)
(1.24340164205176e-05 -5.21003848004078e-05 0.000108931042974584)
(2.8205178539218e-06 2.80213533271473e-06 0.000143302256759863)
(6.5220189661267e-05 -3.34353940754702e-05 2.9417687602377e-05)
(4.45568293765459e-05 -0.000157985888545096 6.34464466486557e-05)
(2.11079406426963e-05 -9.23908317679728e-05 9.81269156984728e-05)
(8.26114160658555e-06 -3.32534683869388e-05 0.000131172413654354)
(2.04391285490681e-06 8.08110545954685e-06 0.000161793523346367)
(6.57462251067842e-06 0.000296848922194479 5.40276980775685e-05)
(2.15826564062493e-05 0.000167920565310399 4.9152910721562e-05)
(6.0645480779121e-06 3.53220201670881e-05 9.70222085980791e-05)
(3.75256504229481e-05 7.92540950986141e-05 4.67615468341813e-05)
(1.98937301756951e-05 -4.55418029024297e-05 8.89163782703915e-05)
(3.92177220714444e-06 2.52340208563838e-05 0.000129569214400069)
(5.45149608632625e-05 2.37795828538698e-05 4.40367876350757e-05)
(3.4265718411626e-05 -0.000103346278533096 8.18613172242162e-05)
(1.27809543138839e-05 -2.7868498229543e-05 0.000119668307727774)
(2.83418766290725e-06 2.84888866575433e-05 0.000156324711149162)
(7.00428411735419e-05 -1.67659157088299e-05 3.69553883583428e-05)
(4.78842384196666e-05 -0.00013927487463891 7.41910704982423e-05)
(2.25077291855753e-05 -7.15486777979639e-05 0.000109441807732783)
(8.68732631363026e-06 -1.05879396716395e-05 0.000144084681694698)
(2.10581583220667e-06 3.17413289695106e-05 0.000176597208081592)
(8.36184491854417e-05 -4.71319144671367e-05 2.88198085670129e-05)
(5.98432515887154e-05 -0.000167637192471347 6.29577946786396e-05)
(3.17816070060342e-05 -0.000105345840775495 9.81935450358056e-05)
(1.52082083469774e-05 -4.61543242612065e-05 0.000131445262200704)
(6.0696997196397e-06 -4.85539358028454e-07 0.000162203983133437)
(1.45163583150927e-06 3.36852371425617e-05 0.000190868535248596)
(6.3253652436906e-06 0.000354657199640482 5.9240631257001e-05)
(2.11600509655429e-05 0.000215021863012975 5.38192597060809e-05)
(5.95296379768684e-06 7.33570308661758e-05 0.000105413625706635)
(3.70395287719751e-05 0.000121587475030146 5.02529131016535e-05)
(1.98012970581369e-05 -1.2713963098612e-05 9.68454287126799e-05)
(3.82970324381654e-06 5.7310460276662e-05 0.00014025789043848)
(5.49626656246756e-05 5.42949387549473e-05 4.83685172759784e-05)
(3.47094725972228e-05 -7.607176806812e-05 8.95650641631699e-05)
(1.27148970026163e-05 1.21184214183873e-07 0.000130351332001824)
(2.7695661337498e-06 5.69583809204578e-05 0.000169473864855373)
(7.30604467778318e-05 5.72939936141351e-06 4.46926088803147e-05)
(4.97565651091441e-05 -0.000118656058778288 8.2605630659107e-05)
(2.31386867539333e-05 -4.83592749738379e-05 0.00012027900526666)
(8.7484738965397e-06 1.42689737771654e-05 0.000157219824052877)
(2.07644735665993e-06 5.73433895834847e-05 0.000191793646833542)
(8.91013288428148e-05 -3.16082348844501e-05 3.64491142520569e-05)
(6.36050534303581e-05 -0.000149422865219119 7.3956213220191e-05)
(3.35117296057776e-05 -8.53324385483865e-05 0.000109720369453189)
(1.58544969717223e-05 -2.44699488353389e-05 0.00014448187547127)
(6.22952316488101e-06 2.22528452390553e-05 0.000177055970128127)
(1.46129940206417e-06 5.70090946819693e-05 0.000207585702675345)
(0.000102122269779833 -6.01786067978378e-05 2.74524763006937e-05)
(7.51728136358303e-05 -0.00017458164611509 6.1444037579902e-05)
(4.302400199508e-05 -0.000115993010512392 9.72180632265942e-05)
(2.29642500401572e-05 -5.70172890152243e-05 0.000131129382129693)
(1.0978990334504e-05 -1.05109834124052e-05 0.000162098305182603)
(4.28156222364237e-06 2.66713653489914e-05 0.000190646635084506)
(9.12022397874305e-07 5.58557746489024e-05 0.000217641103461075)
(6.03658604984627e-06 0.000418842699572598 6.47506059732956e-05)
(2.05536696657239e-05 0.000267243968109083 5.96580275908925e-05)
(5.74015938371131e-06 0.000115289241573335 0.000114448729235118)
(3.67639361600868e-05 0.000166203269101057 5.45261726679929e-05)
(1.9636572050289e-05 2.32662843265433e-05 0.000105380737368802)
(3.69250865685208e-06 9.25588936175075e-05 0.000151295149228119)
(5.51491659530426e-05 9.58776370451429e-05 5.18700460692362e-05)
(3.48830437240894e-05 -4.43763257249178e-05 9.77154807933326e-05)
(1.25068736935587e-05 3.12157885939712e-05 0.000141354081864092)
(2.67757219845897e-06 8.81438654490199e-05 0.000182975463392419)
(7.43329692355987e-05 3.485648690685e-05 4.91221999836888e-05)
(5.0724314777606e-05 -9.20000712212795e-05 9.05230565369936e-05)
(2.32507894442813e-05 -2.11514051180601e-05 0.000131191084927633)
(8.58275287041096e-06 4.21187961080164e-05 0.00017063844706772)
(1.99893444895469e-06 8.54329894931617e-05 0.000207376892738876)
(9.27196673654897e-05 -1.01368363515174e-05 4.4394050687081e-05)
(6.60657142402259e-05 -0.00012937923245845 8.25573749518802e-05)
(3.44905630491442e-05 -6.28490926830069e-05 0.000120742756726072)
(1.60411792552043e-05 -3.59845224836886e-07 0.000157770594325514)
(6.1454744058195e-06 4.72030500347813e-05 0.000192391933957459)
(1.4025697659852e-06 8.23168834657071e-05 0.000224849514868294)
(0.000108499404925117 -4.56906114553203e-05 3.53956948580165e-05)
(7.95086384024692e-05 -0.000156607706838353 7.27559989616292e-05)
(4.51108780512441e-05 -9.64909382748046e-05 0.000108933692119198)
(2.38051517500692e-05 -3.5953860399614e-05 0.00014433448492647)
(1.12241688119832e-05 1.15035824068337e-05 0.000177047269381879)
(4.2911264524354e-06 4.92789262636872e-05 0.000207386804958033)
(8.85105509199858e-07 7.87575802587386e-05 0.000236159648262695)
(0.000120087298296528 -7.30881386378656e-05 2.56874141364052e-05)
(8.99479192465726e-05 -0.000179685384157524 5.90420139286081e-05)
(5.4212986011469e-05 -0.000124656031211134 9.51250103117319e-05)
(3.11721617777132e-05 -6.66878022213436e-05 0.000129584699274503)
(1.65856268818757e-05 -1.97014565232676e-05 0.00016130170388074)
(7.64618368652097e-06 1.8266735109451e-05 0.000189969256595552)
(2.74834016344982e-06 4.95922355248675e-05 0.000216768505443681)
(4.46850372071117e-07 7.48175015425829e-05 0.000242177641260783)
(5.62766143064211e-06 0.000489972830683755 7.07771402691666e-05)
(1.97099281377786e-05 0.000325150822540206 6.55816948859808e-05)
(5.53407953150422e-06 0.00016139961222852 0.000123788481309273)
(3.5962560458932e-05 0.000215129043622706 6.06736857769723e-05)
(1.92063619654304e-05 6.2811300004392e-05 0.000114907013646567)
(3.50742097312343e-06 0.000131233394050377 0.000162836491361353)
(5.51206332659566e-05 0.000139348062437019 5.57359026432001e-05)
(3.48246863702942e-05 -9.76388581042979e-06 0.000106256325214955)
(1.21458040341473e-05 6.53228893572239e-05 0.000152728962347497)
(2.54042345689384e-06 0.000122239185311813 0.000196853924473747)
(7.51177176665704e-05 7.5363085900471e-05 5.30873299224687e-05)
(5.1309755776459e-05 -6.0815251428458e-05 9.89017569269335e-05)
(2.31133582613983e-05 9.10844599640728e-06 0.000142471903360507)
(8.30510780101423e-06 7.26591820810099e-05 0.000184470662353159)
(1.89740645472646e-06 0.000116015309785676 0.000223394569396079)
(9.48696525853096e-05 1.77437733090459e-05 4.88804878349364e-05)
(6.76330790551525e-05 -0.000103196278360668 9.06121878729858e-05)
(3.48720107207788e-05 -3.61996677607962e-05 0.000131878665986583)
(1.58987645979347e-05 2.68762642583239e-05 0.000171424825397304)
(5.91233418879418e-06 7.47595180322574e-05 0.000208211559363614)
(1.30722432289818e-06 0.000109921510206114 0.00024262480869532)
(0.000112870279940498 -2.52105430999028e-05 4.35404166260798e-05)
(8.25716416651227e-05 -0.000136975622145762 8.15121023007411e-05)
(4.64662373357507e-05 -7.45452630131538e-05 0.00012011950432617)
(2.41594065240057e-05 -1.2406179490501e-05 0.000157795303433316)
(1.1145450901234e-05 3.58544624944156e-05 0.000192531455766612)
(4.11447408470452e-06 7.40327507000382e-05 0.000224757550463463)
(8.01937243257818e-07 0.000103592722306091 0.000255310386175186)
(0.000127599755123736 -5.95509263127537e-05 3.39949285359967e-05)
(9.49781202011195e-05 -0.000161777242082479 7.07151389371281e-05)
(5.67106088137939e-05 -0.000105439494561407 0.000106988225494773)
(3.22189712826782e-05 -4.603387458222e-05 0.000142918596567012)
(1.69064370744509e-05 1.82853403652466e-06 0.000176371880771596)
(7.64419911921255e-06 4.0297109800044e-05 0.000206761190522324)
(2.65599294921752e-06 7.18999953050893e-05 0.000235265088207186)
(3.92658301341676e-07 9.71938821935234e-05 0.000262334786308159)
(0.000136960631276926 -8.60604523685549e-05 2.34624777384979e-05)
(0.000103577319617219 -0.000183737986404257 5.58486063684919e-05)
(6.48540716696486e-05 -0.000131922654590181 9.20217162151155e-05)
(3.92920011101978e-05 -7.50192046116291e-05 0.000126825293027564)
(2.25088422644647e-05 -2.83396795910283e-05 0.000159209532529989)
(1.15497293451544e-05 1.02256863016476e-05 0.000188664497266832)
(4.89363926911355e-06 4.21535743967738e-05 0.00021554543993935)
(1.42470182582222e-06 6.90184002709374e-05 0.000240793592336245)
(6.8709682323398e-08 9.07459590505162e-05 0.000264668931941523)
(5.07009909652227e-06 0.000568599027218704 7.73966231242102e-05)
(1.84829227193072e-05 0.000389243801875206 7.19836069814981e-05)
(5.23302521488464e-06 0.000211874876722282 0.000133722317474272)
(3.45910530420472e-05 0.000269923298087009 6.72188919908064e-05)
(1.8666888903316e-05 0.000106208899166973 0.000124914580864976)
(3.26922945381322e-06 0.000173446334111429 0.000174894110332224)
(5.43275138708975e-05 0.000186863681802702 6.18719630954191e-05)
(3.44716423644286e-05 2.81671407359779e-05 0.000115979501209523)
(1.16219363268824e-05 0.000102706164909549 0.000164641004868861)
(2.35780107966733e-06 0.000159451020613237 0.000211177649029019)
(7.53176050772047e-05 0.000118133936420426 5.69162598027661e-05)
(5.14933712081068e-05 -2.68564608078045e-05 0.000107597371475121)
(2.27031232816195e-05 4.22294186104592e-05 0.000154120177037507)
(7.88260820556176e-06 0.00010602607106769 0.000198714645275921)
(1.75381369903863e-06 0.000149300797779037 0.000239839396480343)
(9.63983232416629e-05 5.69047635847309e-05 5.31973813957853e-05)
(6.87140672729917e-05 -7.23979297175069e-05 9.91910468274886e-05)
(3.48915744590145e-05 -6.50934886583161e-06 0.000143411183852337)
(1.55409733168981e-05 5.67581704244852e-05 0.000185533309983073)
(5.58274748102223e-06 0.000104793332266775 0.000224514418164357)
(1.18953330732751e-06 0.000139849199859824 0.000260894505688647)
(0.000115938876346257 1.45778148094274e-06 4.80189817705642e-05)
(8.47620007456921e-05 -0.000111134102437452 8.96389561855531e-05)
(4.71784527936734e-05 -4.83613774245356e-05 0.000131408254990106)
(2.40964393352107e-05 1.43413138054634e-05 0.000171651935541591)
(1.08261473506742e-05 6.28851607900924e-05 0.00020856076533698)
(3.82265720551531e-06 0.000101162351370154 0.000242711830227784)
(6.8740012979983e-07 0.000130570550185203 0.000275045804064131)
(0.000132895827906139 -3.99970484692146e-05 4.23235826207483e-05)
(9.86701507491181e-05 -0.000142421227666519 7.9593903038319e-05)
(5.8458843750405e-05 -8.38678877763574e-05 0.000118282674661802)
(3.27616447507915e-05 -2.29192312201142e-05 0.000156502216166296)
(1.68631999877078e-05 2.57174671731975e-05 0.000191996174778669)
(7.3863309967857e-06 6.45484547913657e-05 0.000224242927571746)
(2.40980846295647e-06 9.62553562871356e-05 0.000254477548380892)
(2.90248389774607e-07 0.000121411795734867 0.000283181635907138)
(0.000145812899674958 -7.349542884519e-05 3.22317509255075e-05)
(0.000109399805166515 -0.00016577107420427 6.79141810729749e-05)
(6.78154068267994e-05 -0.000112822141007467 0.000103995651643747)
(4.0571006874385e-05 -5.45958210522309e-05 0.000140230524916825)
(2.29092302077158e-05 -7.1367694630225e-06 0.000174354875377827)
(1.15283886340002e-05 3.18622353473065e-05 0.000205529050055405)
(4.71990942579163e-06 6.3979226096807e-05 0.000234047922046536)
(1.25734683109136e-06 9.08825661593629e-05 0.000260888685874594)
(-5.01716650884402e-09 0.000112493415482512 0.000286294092533864)
(0.000152158798267086 -9.93917109905993e-05 2.04874338626986e-05)
(0.000115556906146869 -0.000187331717900376 5.1844136328051e-05)
(7.45652175695011e-05 -0.000138510947217665 8.79279070739105e-05)
(4.69195490134285e-05 -8.23581469980379e-05 0.000122954680424104)
(2.83422784930542e-05 -3.61110062700937e-05 0.000155877301616477)
(1.56608311423319e-05 2.43863705995072e-06 0.000186099095525231)
(7.39798523905327e-06 3.49092184456968e-05 0.000213805804614898)
(2.5780674264475e-06 6.22417140391941e-05 0.000239156178752313)
(3.10409446397168e-07 8.53366019342916e-05 0.000262937029318606)
(-2.28993307817461e-07 0.000103778609550262 0.000285332514106016)
(4.37185534869228e-06 0.000655536899536485 8.49051621408047e-05)
(1.68137868234386e-05 0.00046003180523958 7.90643564253285e-05)
(4.79600984913296e-06 0.00026691105204454 0.00014430671663648)
(3.25969961513007e-05 0.000330238248264187 7.41825653802947e-05)
(1.78657507337297e-05 0.000153695733244943 0.000135248593581654)
(2.94312041566402e-06 0.000219345522996062 0.000187482345453276)
(5.26514106454113e-05 0.000239703802148259 6.88302621446736e-05)
(3.37350998600732e-05 6.96993811586989e-05 0.00012656727264438)
(1.09309090783743e-05 0.000143469624064264 0.000177127057173275)
(2.11829397092131e-06 0.000199909264346119 0.000225968597908843)
(7.46687096203416e-05 0.000164430034074003 6.27528823151722e-05)
(5.12196638050652e-05 1.03191437498081e-05 0.000117261722748875)
(2.19808777227976e-05 7.84961736577029e-05 0.000166343892157281)
(7.30107295947023e-06 0.000142414505084649 0.000213445983936554)
(1.56124422673787e-06 0.000185451988787788 0.00025672317722765)
(9.71457983481295e-05 9.89463268878059e-05 5.70079735332694e-05)
(6.92564809195709e-05 -3.88939066418299e-05 0.000108000702770113)
(3.45295656995374e-05 2.59101913779164e-05 0.000155308046281871)
(1.49332934464778e-05 8.93693612186306e-05 0.000200074454905352)
(5.12137059410716e-06 0.000137472715704364 0.000241282071691217)
(1.03329886171185e-06 0.000172290125952478 0.000279634114742399)
(0.000118298450454847 3.94148113002058e-05 5.25218406454305e-05)
(8.63884987762992e-05 -8.06094523874629e-05 9.83461709633435e-05)
(4.74239714432174e-05 -1.91341169126824e-05 0.000143111493606151)
(2.37098299391249e-05 4.37033046143737e-05 0.000185990689333111)
(1.03165635825062e-05 9.23560537059463e-05 0.000225109413157551)
(3.4455164827355e-06 0.00013060698607109 0.000261201286737227)
(5.51329726360667e-07 0.000159721936721683 0.000295322608870542)
(0.000136924080139944 -1.44749551942105e-05 4.67544136696869e-05)
(0.000101498340475873 -0.000116807651052498 8.77370862244199e-05)
(5.95322083439802e-05 -5.80288384562709e-05 0.000129646229790012)
(3.28221812981814e-05 3.42375432191611e-06 0.000170482887594392)
(1.64951470465508e-05 5.2323128259285e-05 0.000208197672028852)
(6.93123454238575e-06 9.12193241974303e-05 0.000242361564001315)
(2.0651470669496e-06 0.000122810910036751 0.000274336925499551)
(1.59649207937573e-07 0.000147634090577645 0.000304663480623692)
(0.000152101561908407 -5.4769319052942e-05 4.07683034247685e-05)
(0.000113754120729642 -0.000146583918699153 7.68879494875366e-05)
(6.99738335148741e-05 -9.14823751552121e-05 0.000115350610322667)
(4.13142992905909e-05 -3.17675598723079e-05 0.000153875829838661)
(2.29144649923674e-05 1.6400471819082e-05 0.00019006099442043)
(1.12080813825639e-05 5.57276748388015e-05 0.000223112764312821)
(4.32976832804389e-06 8.79040841233623e-05 0.000253329932784885)
(9.56958372724723e-07 0.000114675905841763 0.000281757767669714)
(-1.20120757094662e-07 0.000135969857687313 0.00030865646796623)
(0.000162543482847317 -8.79080545227661e-05 2.99668634308814e-05)
(0.00012223694353905 -0.000169211125060524 6.42953005485762e-05)
(7.80305883912063e-05 -0.000119403926581501 9.99854536227633e-05)
(4.84570391983916e-05 -6.20224853343122e-05 0.000136380812863849)
(2.88389180262753e-05 -1.50896751622466e-05 0.000171039532871245)
(1.56205048478072e-05 2.38093213018848e-05 0.00020299436355513)
(7.13128510467129e-06 5.64052244336604e-05 0.000232340601045408)
(2.2783650379198e-06 8.36903825464974e-05 0.000259222366084933)
(8.79889632541784e-08 0.000106627775731561 0.000284470519947703)
(-3.16028292657935e-07 0.000124796222107779 0.000308261633358034)
(0.000164923601610276 -0.000114023649872443 1.68451730639252e-05)
(0.000125459658782048 -0.000190929832828987 4.68988976447631e-05)
(8.30509788657227e-05 -0.000145078870366622 8.27376546087546e-05)
(5.37869858283071e-05 -8.92670022146664e-05 0.000117965825854042)
(3.37765451445939e-05 -4.32048727859382e-05 0.000151386543226791)
(1.96887521697845e-05 -4.76746963236112e-06 0.000182312015356796)
(1.00309074564806e-05 2.78007978390345e-05 0.000210873775763703)
(3.92607614916187e-06 5.56002654019319e-05 0.000237091708891594)
(6.36997448029756e-07 7.90942565375917e-05 0.000261017725930592)
(-5.9911066290048e-07 9.8746737788625e-05 0.000283392276925858)
(-4.61944831156833e-07 0.000114016329990704 0.000304364940020933)
(3.5049390706559e-06 0.000752387688538651 9.47485368653786e-05)
(1.45162371340166e-05 0.000538334890044973 8.71081120860767e-05)
(4.22847921005128e-06 0.00032677313863871 0.00015553406703913)
(2.96630090403937e-05 0.000396739024630225 8.17000509713702e-05)
(1.66606261998344e-05 0.000205456663825366 0.000146275046354665)
(2.50253917286407e-06 0.000269119916597553 0.000200585589516673)
(4.99906248272638e-05 0.000298247216706862 7.60931573959053e-05)
(3.25765988961426e-05 0.000115034010267723 0.000137437871457305)
(9.98547648644306e-06 0.000187749242763108 0.000190166105104114)
(1.80489037164739e-06 0.000243757610076341 0.000241210212335113)
(7.28776923761108e-05 0.000215773691655881 6.99277813266882e-05)
(5.036176418014e-05 5.0894767879034e-05 0.000128180844532872)
(2.09305592350931e-05 0.000117986932707147 0.000179221988705251)
(6.53597141119372e-06 0.000181934093722133 0.000228696901222453)
(1.31114565319683e-06 0.000224603670155664 0.000274038724059302)
(9.68413067760379e-05 0.000143934807522107 6.25803695891756e-05)
(6.9176274021792e-05 -2.27337012941199e-06 0.000117604880433996)
(3.37053218279427e-05 6.13617622945501e-05 0.000167781772731343)
(1.40306552396361e-05 0.00012490322140364 0.000215139702088738)
(4.50621049624324e-06 0.000172949282736068 0.000258536498492843)
(8.3066346556021e-07 0.000207384815990182 0.000298822745086901)
(0.000119725860173987 8.05937088162891e-05 5.62653616586145e-05)
(8.73777160725353e-05 -4.74149978201364e-05 0.000107216826613703)
(4.71763839292331e-05 1.27258294634415e-05 0.000155169277331801)
(2.29656115626063e-05 7.56985091355162e-05 0.000200779702973564)
(9.57980288632526e-06 0.000124396170188103 0.000242151244136191)
(2.94865970216958e-06 0.00016252019479423 0.000280197867277126)
(3.79843185014527e-07 0.00019121408461941 0.000316102179876866)
(0.00014021266847076 2.2423220466922e-05 5.1321698099248e-05)
(0.000103708707109331 -8.64462754239586e-05 9.65032175983115e-05)
(6.00592632487464e-05 -2.91487400009462e-05 0.000141430057283988)
(3.24599638598171e-05 3.23540241619188e-05 0.000184957047466982)
(1.58377626214793e-05 8.13342058947755e-05 0.000224943121239979)
(6.30586117629937e-06 0.000120173427107688 0.000261047700124499)
(1.64219457850942e-06 0.000151532436728566 0.000294773569523714)
(8.56320681648218e-09 0.000175890873027345 0.000326724736548526)
(0.00015713399469886 -3.03262453566899e-05 4.51283739339033e-05)
(0.000117228816951237 -0.000121092923093949 8.50085176809238e-05)
(7.14258888857913e-05 -6.58677549628958e-05 0.000126728831426019)
(4.15236555848129e-05 -5.71266218581545e-06 0.000167903116169748)
(2.25258821812187e-05 4.26612547897324e-05 0.000206355651147104)
(1.0612544346867e-05 8.20317911467734e-05 0.000241366347366947)
(3.76844583825092e-06 0.000114059620022775 0.000273310225602336)
(5.68888019835755e-07 0.000140517239134457 0.000303320744934721)
(-2.61053006606194e-07 0.000161321062704679 0.000331694274521171)
(0.000169845306642584 -7.00216940953568e-05 3.87307365381332e-05)
(0.000127270149878965 -0.000150129201725094 7.33459702831533e-05)
(8.06169803689873e-05 -9.81899575389255e-05 0.000111361528043899)
(4.94116863723047e-05 -3.93490464899536e-05 0.000150034631130236)
(2.89022568310021e-05 8.22522147508747e-06 0.00018676560388033)
(1.52440633955587e-05 4.73878082763559e-05 0.000220624699591532)
(6.60515759533476e-06 8.00028956511718e-05 0.000251689758800436)
(1.78890096743022e-06 0.000107107272723778 0.000280128516089841)
(-2.50928047387071e-07 0.000129719363014905 0.000306826769935537)
(-4.39235643920288e-07 0.000147415837951684 0.000331977313374289)
(0.00017695496504603 -0.000103411436591992 2.69213614660154e-05)
(0.000133011337373621 -0.000172591688448507 5.9699474360787e-05)
(8.70405204526262e-05 -0.000125875357066827 9.48534668925512e-05)
(5.5601974275242e-05 -6.89109753166155e-05 0.000131368880334716)
(3.4385634031093e-05 -2.22422455061111e-05 0.000166512837800969)
(1.96408792033842e-05 1.64611130960349e-05 0.000199185337397639)
(9.6688158365063e-06 4.90780080009691e-05 0.000229407438874061)
(3.47756781783362e-06 7.67654501964314e-05 0.000257161462211994)
(2.44107353118895e-07 0.000100018038730835 0.000282497645931788)
(-8.59953490234161e-07 0.000119346378688315 0.00030620627098484)
(-5.55769571983341e-07 0.000134205074707379 0.00032844128847253)
(0.000174208530810693 -0.000130535027827212 1.25243347488204e-05)
(0.000132861678460269 -0.000195056969010796 4.06465812193315e-05)
(9.00510747984457e-05 -0.000152204070923387 7.62563103084812e-05)
(5.96989164028872e-05 -9.62811417575493e-05 0.000111737330101858)
(3.86110070097409e-05 -5.0037870891433e-05 0.000145706472405092)
(2.34059902692836e-05 -1.15037544414322e-05 0.000177349253841023)
(1.25902130799587e-05 2.11166154077548e-05 0.00020675137693082)
(5.3442507609881e-06 4.90588857105508e-05 0.000233897674036393)
(1.04065109508438e-06 7.29653479524403e-05 0.000258729096480098)
(-9.56173294225315e-07 9.29917008473515e-05 0.000281291777840753)
(-1.32525261033421e-06 0.000109386796604525 0.000302346541608511)
(-6.41949791723056e-07 0.000121565902508566 0.000321920851398678)
(2.14403014735368e-06 0.000859346075655197 0.000106329394727836)
(1.15520490047363e-05 0.000625247332313281 9.69034578402722e-05)
(3.49942242703978e-06 0.000391802876177515 0.000167511717818278)
(2.56594506279017e-05 0.000470084935399575 9.0136162433454e-05)
(1.50151803941406e-05 0.000261727285204625 0.00015807948325605)
(1.93691598799822e-06 0.000322971512088757 0.000214162105359184)
(4.60953745481626e-05 0.000362596081835764 8.39469747273016e-05)
(3.07627721708218e-05 0.00016437777226505 0.000148923980857618)
(8.70372053114442e-06 0.000235694776917524 0.000203784600039607)
(1.39219230859478e-06 0.000291168507885237 0.000256860335547829)
(6.97301248840986e-05 0.000272835855876533 7.74631819626842e-05)
(4.88976135386437e-05 9.50601653106284e-05 0.000139742947603161)
(1.947176056013e-05 0.00016080373626803 0.000192701425678272)
(5.54140612372641e-06 0.000224711489159716 0.000244452224923)
(9.91046531679051e-07 0.000266906018631323 0.000291746110540529)
(9.51409434956809e-05 0.00019377099742625 6.97965258504209e-05)
(6.83683444105644e-05 3.76177586790518e-05 0.000128621363175923)
(3.23606498761346e-05 9.99235233080901e-05 0.00018095990245199)
(1.27939771529635e-05 0.000163454392475398 0.000230779783136476)
(3.71136412615059e-06 0.000211340536584442 0.000276277561441483)
(5.74237200362299e-07 0.000245268102502089 0.000318423076612772)
(0.000119949937783507 0.00012423321540748 6.15861661889325e-05)
(8.76125353424373e-05 -1.12309399065995e-05 0.000116830203016511)
(4.63504595238614e-05 4.74992173933818e-05 0.000167794429301355)
(2.17986107085204e-05 0.000110524932575496 0.000216110099636408)
(8.57715334364644e-06 0.000159154391044193 0.000259715076258369)
(2.30896406821234e-06 0.000197029388569456 0.000299686294807749)
(1.65891709510091e-07 0.000225173342920837 0.000337340746546507)
(0.000142467905685194 6.26743326378256e-05 5.49688325894674e-05)
(0.000105198446003629 -5.34562468793268e-05 0.000105379360344894)
(5.99909206305107e-05 2.29717731447542e-06 0.000153556832762728)
(3.16317658978999e-05 6.38377649540048e-05 0.00019989378342275)
(1.48504058872549e-05 0.00011284044743772 0.000242204714601566)
(5.47456459139124e-06 0.000151536269842278 0.000280272404436843)
(1.11070380478435e-06 0.000182556911199169 0.000315748061606427)
(-1.7487039889661e-07 0.000206329846082274 0.000349315451753286)
(0.000161423247486365 5.67068785974631e-06 4.96389729378463e-05)
(0.000120051480772573 -9.07977162562483e-05 9.37730629116026e-05)
(7.22739578937594e-05 -3.72202231353142e-05 0.000138521302987174)
(4.12297725637926e-05 2.29005864668924e-05 0.000182423800156479)
(2.17562852555531e-05 7.12950975357178e-05 0.000223207843282541)
(9.75664340010452e-06 0.000110585537937325 0.000260211663536957)
(3.05236563712152e-06 0.000142352697116007 0.000293898777087389)
(1.0907689777173e-07 0.000168384282021933 0.000325496447967679)
(-4.21472013334079e-07 0.000188573783873675 0.000355343823055589)
(0.000175846205379096 -4.65647323460342e-05 4.28926565494879e-05)
(0.000131390007088343 -0.000124673588399589 8.14040431144907e-05)
(8.24587460179928e-05 -7.26956872010731e-05 0.000122708161431501)
(4.97862850500476e-05 -1.34650290943154e-05 0.00016404883555055)
(2.85136406611936e-05 3.42514952537683e-05 0.000203080583969577)
(1.45257277912501e-05 7.34038595607619e-05 0.000238942948432823)
(5.83686488567716e-06 0.00010584296810282 0.000271772372374485)
(1.14680528842062e-06 0.000132594345567597 0.000301779261362777)
(-6.69038674654457e-07 0.000154718929739256 0.000329916347740936)
(-5.85759787333764e-07 0.000171785941117848 0.000356404995418458)
(0.000185422518660879 -8.64225124780174e-05 3.57964530433496e-05)
(0.000138696831069139 -0.000153582615763824 6.8801054450527e-05)
(9.00628054240125e-05 -0.000104714164284602 0.000106216597135772)
(5.67783224530804e-05 -4.62898139150505e-05 0.000144985888322733)
(3.45157332152237e-05 9.69191702158163e-07 0.000182205377545768)
(1.92157283855449e-05 3.98677686746155e-05 0.00021680543928186)
(9.00837057311531e-06 7.24388493258177e-05 0.00024877544824077)
(2.79794160458337e-06 9.9900136571419e-05 0.00027810893830342)
(-3.16924323657332e-07 0.000122772484377772 0.000304867928728803)
(-1.2236088438456e-06 0.000141608288004515 0.000329894458785081)
(-6.82342404209464e-07 0.000155856921180848 0.000353361749160557)
(0.000187913004424082 -0.000121183883687724 2.33398434665592e-05)
(0.000141261048823616 -0.000176408730381546 5.38458196998207e-05)
(9.45596254480163e-05 -0.000132837234862009 8.84015118407232e-05)
(6.17994259656894e-05 -7.58222173482493e-05 0.000125072718913774)
(3.93442284389108e-05 -2.90374882996789e-05 0.000160746296722675)
(2.33640656843224e-05 9.69081064601119e-06 0.000194150336559145)
(1.21419086282491e-05 4.22841031301847e-05 0.000225238267121561)
(4.74256165039199e-06 7.00404757902307e-05 0.000253944508042215)
(4.59071440897437e-07 9.36401199299429e-05 0.000280193711783258)
(-1.41275567108801e-06 0.000113257575588889 0.00030403248568347)
(-1.60573938129819e-06 0.00012916562798556 0.000326258725257711)
(-7.3709860611273e-07 0.000140810300753895 0.000347012912624145)
(0.00017889243886357 -0.000150174180916432 6.81423790195939e-06)
(0.000137237962240052 -0.000200262428329572 3.26939248425264e-05)
(9.53160770338033e-05 -0.000160487230663854 6.82109653370685e-05)
(6.44819775444497e-05 -0.000103868893653824 0.000104082238784066)
(4.27040578789966e-05 -5.70211360971932e-05 0.000138711300412352)