/*--------------------------------*- C++ -*----------------------------------*\
  =========                 |
  \\      /  F ield         | OpenFOAM: The Open Source CFD Toolbox
   \\    /   O peration     | Website:  https://openfoam.org
    \\  /    A nd           | Version:  12
     \\/     M anipulation  |
\*---------------------------------------------------------------------------*/
/*   Windows 32 and 64 bit porting by blueCAPE: http://www.bluecape.com.pt   *\
|  Based on Windows porting (2.0.x v4) by Symscape: http://www.symscape.com   |
\*---------------------------------------------------------------------------*/
FoamFile
{
    format      ascii;
    class       volScalarField;
    location    "800";
    object      k;
}
// * * * * * * * * * * * * * * * * * * * * * * * * * * * * * * * * * * * * * //

dimensions      [0 2 -2 0 0 0 0];

internalField   nonuniform List<scalar> 
10107
(
1.41463066420846e-06
5.8893707344903e-07
7.71817173683332e-06
1.20844975894097e-06
2.574826368221e-07
1.79438512042387e-06
5.19800972592143e-07
5.70962518368872e-06
1.86031130552259e-05
2.85694194455865e-06
2.15054791596262e-07
3.57570765183674e-06
3.13729051532486e-07
2.35102125083035e-06
3.91332053831175e-06
1.55882244514215e-06
1.25750624581605e-06
3.26739995193675e-06
6.75478361435975e-06
2.41233760480501e-05
4.29883415442467e-05
1.9837099401242e-05
7.20037244572534e-06
1.05219959603687e-05
4.31841226246369e-06
2.87864282552781e-07
4.47207579165766e-06
3.17265005444296e-06
6.73352611061274e-07
1.48601492370814e-06
1.21542856606532e-06
2.0799701865175e-06
1.14602247933865e-06
4.22277978589628e-06
8.18140105458103e-06
2.06151933997756e-06
2.54951022899202e-06
2.50826224207119e-06
1.96361791327481e-06
1.66535192108361e-06
4.36063214354994e-06
3.40195303738186e-06
7.7756908659993e-06
1.07582081544335e-05
9.98882203712157e-06
1.12281528150508e-05
3.38154043738194e-05
1.71336939756659e-05
4.08256983575843e-05
1.08046673883661e-05
1.22577330219294e-05
9.37132088316577e-07
3.84566624598506e-07
1.98599220561136e-06
1.68731378358413e-06
6.57987607818398e-07
1.28852794621278e-06
1.62714253163509e-06
1.42576620877451e-05
9.62601915012899e-07
1.65984788850992e-06
7.33665757584587e-06
1.1683213790307e-06
1.33231187346528e-06
2.9973285408893e-06
4.27281127070948e-06
3.18880895856478e-06
1.65058830938807e-05
3.85919557289352e-06
2.92448892407409e-06
6.04915675795225e-06
4.42725351067184e-06
2.44823461110212e-06
1.0242907983762e-05
1.00152749759653e-05
5.46260758861471e-06
9.85279074651657e-06
7.14218675587318e-06
2.82363214816664e-05
1.89475466621104e-05
9.19856356273101e-07
5.0210784595972e-07
2.82194470497763e-07
3.58436544523774e-07
6.367275939894e-06
4.47058645012641e-07
5.44125875451314e-07
8.59974775259762e-07
6.39046386315543e-05
4.30291388738985e-06
6.7100660258297e-07
6.56732080162235e-07
7.31484705436666e-07
2.39717613143726e-06
2.85837751290922e-07
5.99769239483646e-06
8.01452283417494e-05
2.46171595423858e-05
9.11814554031898e-06
7.93792239137193e-06
6.88007190391305e-06
1.35273634396388e-06
9.253399766531e-06
5.79601414840343e-06
3.76709666006367e-06
1.47870395199508e-06
1.3182095279265e-05
1.27157313805775e-05
1.10721391264398e-05
6.64583656337077e-06
5.60960205440854e-07
2.61896901693896e-07
2.41717816754055e-07
1.21769175961601e-06
3.59466823402227e-05
1.72035720097747e-06
3.38040924035648e-07
2.14599943803476e-07
1.25077276222373e-05
1.0014246099386e-05
1.3879380691085e-06
4.52128674925233e-07
3.9593133474726e-07
3.42241570314316e-06
2.52201873127179e-07
4.20922253702637e-07
1.30792393209774e-05
9.16282837785987e-05
1.45181166785281e-05
3.3018946389598e-05
1.36087367254417e-05
3.34652675807621e-06
1.27623100295545e-05
1.1281911216762e-05
2.22195932796523e-06
7.5635754812388e-07
1.18781901215765e-05
8.72267225076095e-06
6.78196870538542e-06
3.28882552209688e-06
1.51637033036902e-06
1.62888539385354e-05
1.52732826499786e-05
1.13213855562958e-05
9.13810068427584e-06
1.45439862687635e-07
2.37997915434576e-07
8.70217469092365e-07
1.08016227984821e-05
1.27139601523717e-05
5.87348996431186e-06
6.97602001350982e-07
3.20377103466429e-07
4.98875734872795e-06
1.2092350034005e-05
6.42575984991711e-06
3.39500161499059e-07
2.56806530770312e-07
3.85316469035285e-06
1.87006015275473e-07
3.41827181069043e-07
8.87783974779484e-07
5.3031405896446e-06
1.33461872195298e-05
9.38258598878832e-06
8.7905728444551e-05
1.51271238050179e-05
9.48841326616914e-06
3.51522952169806e-05
1.52908651952387e-05
7.10522642560444e-06
1.57812796200598e-06
1.57232700166794e-05
1.41042942712257e-05
4.91450509589599e-06
1.81188982111375e-06
8.91240483953954e-07
1.07471113102658e-05
1.0867746878639e-05
8.37586312862607e-06
5.37923982261206e-06
2.07205544731846e-06
1.77673946056966e-05
1.62403551454412e-05
1.41682498772075e-05
9.12922886552372e-06
2.78390167159639e-07
3.09765803510039e-07
3.65428260007652e-06
1.5408795984622e-05
5.32072216493202e-06
1.27447769057288e-05
2.59267171401541e-06
8.86312116809087e-07
4.76247311222738e-06
3.34568171300318e-06
2.58964667328716e-06
2.52126857847136e-07
2.17129281757378e-07
3.65659905330579e-06
1.50233871483831e-07
2.42911033447738e-07
5.90828310970611e-07
5.14469927659734e-07
5.54327986353955e-06
5.46514674971607e-06
3.94634332917358e-06
1.7498984217332e-05
1.16970191973809e-05
4.11323100798728e-06
8.05147340434664e-05
1.47434247345809e-05
1.32309984221598e-05
4.60091513929819e-06
3.34741852841852e-05
1.56213809936679e-05
1.10872618094665e-05
3.51586317867392e-06
1.71156315122616e-06
1.64629971765207e-05
1.52037820674654e-05
8.99187922180817e-06
6.32105186743787e-06
4.15547581643042e-06
1.52788915164699e-06
1.27737263084195e-05
1.30425079743793e-05
1.02284080333579e-05
5.93782058063297e-06
2.3753810241861e-06
2.06457368789993e-05
1.94279053400246e-05
1.4452891414067e-05
8.81238063695702e-06
4.5679420920006e-07
1.29745568330179e-06
1.2518603016391e-05
4.12139436258848e-06
4.51698613257441e-06
2.54172475599376e-06
1.70766728370614e-06
4.06461276034366e-07
6.98230385864698e-06
2.37246203723124e-06
1.234741887321e-06
1.84880764701414e-07
1.95011274172466e-07
3.18654727620978e-06
1.59328402416784e-07
2.15860946980445e-07
4.85218937400973e-07
4.25730052240426e-07
3.94590619554436e-07
6.29797634333622e-06
5.59707937978213e-06
3.54213139960694e-06
5.65499349120971e-06
5.25160782578506e-06
2.81944901718053e-06
1.72809185598517e-05
1.51943970855798e-05
6.96205684396578e-06
2.36266151334615e-06
7.48680863589681e-05
1.46267389634634e-05
1.55702320159601e-05
6.43347626904493e-06
3.51076168466218e-06
3.13092316231511e-05
1.52260443655279e-05
1.39709693588014e-05
7.19409673375295e-06
4.90617010000235e-06
2.19948419503791e-06
1.5974299027363e-05
1.48985046911778e-05
1.14079201067251e-05
1.02967337147137e-05
9.0981931544273e-06
5.00626389707919e-06
1.98514348609481e-06
1.5646605442391e-05
1.50843280936971e-05
1.03750058819562e-05
6.40195851880752e-06
2.42278726266038e-06
2.43580310433837e-05
2.03237763148844e-05
1.44198815578629e-05
8.16917143872643e-06
2.25377022983247e-07
1.08680249439227e-06
1.8062724521658e-06
4.2957311284968e-06
5.04411361474538e-06
2.1680292321159e-06
8.45870479417475e-07
3.1447595580523e-07
3.5350891562856e-06
2.33851577961807e-06
1.27976433984362e-06
1.22812222221306e-07
1.64969609283731e-07
2.62066053268826e-06
1.74644696525412e-07
2.10291775351066e-07
3.85426503418113e-07
4.50346684492625e-07
3.67556070847375e-07
5.13462673541846e-07
4.78995966885437e-06
5.72795469660257e-06
3.14092518559566e-06
5.14549664229899e-06
3.94302612019289e-06
2.86513376497122e-06
5.55356645238339e-06
6.74840366503466e-06
4.4575735609366e-06
1.91193082503745e-06
1.7117526934151e-05
1.9501901581289e-05
8.91975120116455e-06
5.08340214155187e-06
2.38261178792197e-06
7.14879378478483e-05
1.47903862482367e-05
1.65344463482746e-05
8.37749985122212e-06
5.1251339239735e-06
2.9440500214324e-06
2.98222247005048e-05
1.439825481526e-05
1.52477515725472e-05
9.22470819164247e-06
8.04808353377791e-06
5.05172845749419e-06
2.38345633797546e-06
1.53080327420565e-05
1.36056570383251e-05
1.19992230360585e-05
1.13065531967965e-05
1.22005843525956e-05
9.03608376318731e-06
5.54581593612414e-06
2.18273409869318e-06
1.87409792967858e-05
1.56262542050749e-05
1.11302137813896e-05
6.65914750213708e-06
2.23959098260897e-06
2.60959894724968e-05
2.04548970524395e-05
1.34847135596058e-05
7.01823973196446e-06
1.80841014614814e-07
5.5243614160611e-07
1.79622072849238e-06
3.98804336418133e-06
2.25683932236294e-06
1.17226639144182e-06
1.38922957878217e-06
4.75253998720864e-07
1.83029794172647e-06
2.63095477243921e-06
2.47548399728886e-06
7.31855888271834e-08
1.21202140408976e-07
1.93786090526898e-06
1.60733413769527e-07
1.96860713318164e-07
3.28604256667971e-07
4.19741511289816e-07
4.01146375318175e-07
3.30038062206719e-07
6.55297563578903e-07
3.0029674648872e-06
5.63752277335609e-06
3.85720836511521e-06
5.04508733089888e-06
3.75143527420301e-06
3.32165495672496e-06
4.6429926968743e-06
4.55648176391509e-06
3.87660800033599e-06
2.16163151791721e-06
5.22464119053555e-06
7.37866845724742e-06
5.10784494313591e-06
4.15126317554822e-06
2.16986976661072e-06
1.69124734658319e-05
2.4243687162833e-05
9.56671051285512e-06
6.42299231947215e-06
4.24333806115548e-06
2.9073927272855e-06
6.93102372344294e-05
1.52655020728807e-05
1.65362110364228e-05
8.74300262462323e-06
7.08836298484306e-06
5.43935300380167e-06
2.94275285790766e-06
2.90223968399825e-05
1.34245113431504e-05
1.52933025448076e-05
9.7096228864383e-06
9.39761933112685e-06
8.71280065800118e-06
5.60717885828419e-06
2.32819652421834e-06
1.47898861530766e-05
1.20936458966653e-05
1.1694710816852e-05
1.08050378744958e-05
1.30304003286271e-05
1.32522441974665e-05
9.76073318668032e-06
5.97943743451625e-06
2.09898539249091e-06
2.06192812759784e-05
1.62807985047227e-05
1.12863780790505e-05
6.20729629414978e-06
1.80297962350445e-06
2.68175923815639e-05
1.94666701385434e-05
1.19029241081745e-05
5.53219268927079e-06
3.0713360286594e-07
7.87797292781745e-07
6.31086092115203e-07
1.25085263741066e-06
1.31218906824493e-06
1.36066824240179e-06
1.12933234686409e-06
6.38609171807557e-07
9.27006265032697e-07
1.0738216897194e-06
1.55560653660085e-06
4.18421115866339e-08
7.79766161731128e-08
1.29334366259288e-06
1.25097776601829e-07
1.70420094796306e-07
2.62196666305449e-07
3.87971664120595e-07
4.04451079349053e-07
3.60366446161648e-07
3.87552908795709e-07
1.57750279555603e-06
2.5337488541699e-06
4.08436978015524e-06
2.91113198033629e-06
5.57462204007329e-06
4.87169267536377e-06
2.19286837313122e-06
4.51155655242652e-06
4.11680280918866e-06
4.76278608655346e-06
2.49522044645186e-06
4.21631362393513e-06
4.64544149106566e-06
4.71825204282942e-06
3.69017054025223e-06
2.45214741986438e-06
4.78212307135086e-06
8.00861289272593e-06
5.65145375300976e-06
5.00125038339481e-06
4.34723926752058e-06
3.09838187677622e-06
1.63488978271403e-05
2.76821797897087e-05
9.73002090121423e-06
6.52453025575095e-06
6.02563127364476e-06
5.76250019454768e-06
3.35529922036947e-06
6.57206769597779e-05
1.62737207347916e-05
1.59764823799101e-05
8.60764740521967e-06
7.20822443097802e-06
8.14459274204702e-06
6.48389406772209e-06
2.6124043073671e-06
2.85290070485307e-05
1.25990275484746e-05
1.45739242242495e-05
9.33256807413301e-06
9.10506841259267e-06
1.14338250739446e-05
9.67044128071635e-06
6.01131848864445e-06
2.14007614178031e-06
1.44423003940309e-05
1.06744523796615e-05
1.08722835435944e-05
9.83095361868048e-06
1.2124217581873e-05
1.59827172049504e-05
1.39326940411423e-05
1.01368731645899e-05
5.86011006656579e-06
1.75737161369255e-06
2.13220191587131e-05
1.62871229349134e-05
1.06352598274237e-05
5.18835213572157e-06
1.28289270878939e-06
2.55156967435197e-05
1.73922741579006e-05
9.73635893638716e-06
4.04244632488703e-06
3.63766189047463e-07
4.28951289658822e-07
5.3398782514387e-07
6.24864954635532e-07
6.21820510141521e-07
5.87323785556685e-07
8.28361767710485e-07
9.0562612410791e-07
6.74020869001426e-07
9.07571071517064e-07
1.06465241210273e-06
1.23430950476381e-06
2.50084637954821e-08
4.67800817924215e-08
8.17315402654776e-07
8.50337810002746e-08
1.31433078091957e-07
1.98927538499836e-07
2.95385132464431e-07
4.05951260110221e-07
3.35007902912232e-07
4.24817920834088e-07
8.54921318804704e-07
1.11875034512547e-06
2.01104139509683e-06
4.06910975334185e-06
4.80522233358218e-06
4.34385150180174e-06
3.75409800102473e-06
4.95315356956487e-06
2.70030942330421e-06
5.25680224952507e-06
5.29323607715653e-06
2.59542554850326e-06
2.20027877465665e-06
1.51493965332574e-06
4.11614956802203e-06
4.48934598786751e-06
6.07087573808513e-06
3.64184403149153e-06
2.27191146193166e-06
3.79462512706059e-06
4.50453555967881e-06
5.16918098779145e-06
5.07467297439969e-06
5.18663873426576e-06
3.1299936395436e-06
4.28321499066915e-06
7.9651154307726e-06
6.01069848982871e-06
5.11088812955315e-06
6.44964100377659e-06
5.93473108074584e-06
3.55421318791649e-06
1.55215685222398e-05
2.88904110914826e-05
9.85705412188936e-06
6.22648973917841e-06
6.15538354393684e-06
7.49385865567522e-06
7.16306286588067e-06
2.8308949430464e-06
5.98986950185027e-05
1.82885722209705e-05
1.50983349301742e-05
8.24551813715235e-06
6.43618357370728e-06
9.3095130014321e-06
9.74392538587253e-06
6.74089191472845e-06
2.2789512200689e-06
2.76558405514498e-05
1.2213355307079e-05
1.33165495793303e-05
8.82300231042427e-06
8.02766414243105e-06
1.21383232154209e-05
1.28223736401049e-05
1.01303723799358e-05
5.97137942747587e-06
1.78556379832827e-06
1.42524419577389e-05
9.67631185823338e-06
9.83387581013548e-06
8.65870828665074e-06
1.04924952733032e-05
1.64479811126037e-05
1.7455898008644e-05
1.42107260284257e-05
9.94032967465085e-06
5.08471620926046e-06
1.3107367955586e-06
2.11883844553498e-05
1.5296961847034e-05
9.10386667672094e-06
3.94096831085023e-06
8.50238214055504e-07
2.30389401565163e-05
1.44732948231266e-05
7.45665537486537e-06
2.83575091458851e-06
3.55293275833074e-07
6.00539171124513e-07
3.84648925764829e-07
3.39518725203714e-07
5.07124965507591e-07
6.47631311082074e-07
7.34148498820416e-07
2.8614536826728e-07
6.42919251355593e-07
5.86958509433227e-07
1.25587818784373e-06
6.98165087625975e-07
8.0277560467984e-07
1.43506704933212e-06
1.10689992467029e-06
1.5232269328586e-08
2.87061713172733e-08
5.17672441373827e-07
5.40023231914324e-08
9.19385864952488e-08
1.43280285475678e-07
2.16966931313902e-07
3.13154815106162e-07
3.62676647451881e-07
3.35916917997664e-07
3.61498061720595e-07
6.02503678842131e-07
1.53875354141719e-06
4.15110238455701e-06
2.73903966675516e-06
4.16852685429073e-06
4.46520273129091e-06
3.94915466483303e-06
2.24318923080641e-06
5.6636122571175e-06
4.30462799340782e-06
4.12804042896165e-06
2.9076337290807e-06
4.18691540707198e-06
1.51897716094375e-06
2.76637190621226e-06
2.52970361202151e-06
4.81131234264249e-06
4.9807141229725e-06
2.93523855402767e-06
2.68195226563799e-06
1.66392411300733e-06
2.51242629640549e-06
1.6877221090945e-06
1.05816232207781e-06
3.73893670488206e-06
4.50164071366278e-06
6.69723560774107e-06
5.7155848444381e-06
5.21158247436295e-06
2.55459625323887e-06
3.39031920446826e-06
4.17681366391249e-06
5.11374695355157e-06
6.20152450661763e-06
7.48371825519833e-06
6.56767872722463e-06
3.30904282202637e-06
3.77303243334774e-06
7.27325545106101e-06
6.06634278275173e-06
5.17173802772873e-06
6.99727174531199e-06
7.96524452710648e-06
7.24350891830484e-06
3.0865566996977e-06
1.51936535592068e-05
2.78255448057385e-05
1.05758359308954e-05
5.89153384051326e-06
5.54406472892055e-06
8.59694700742267e-06
9.13890069105873e-06
7.51864568535921e-06
2.41827156068692e-06
5.23416810041019e-05
2.06551466339334e-05
1.39518627703135e-05
8.53929405351913e-06
5.34799747027689e-06
9.44050330937396e-06
1.13273156091017e-05
1.06249786607363e-05
6.44225190122547e-06
1.87839187048307e-06
2.59124211720847e-05
1.22084035800239e-05
1.17900121680019e-05
8.35585625699967e-06
6.71667058357758e-06
1.1611070678069e-05
1.47925368458161e-05
1.35934201578553e-05
1.00413173759006e-05
5.2270344710101e-06
1.36746374166924e-06
1.42847982498322e-05
9.26258524658152e-06
8.8051561456227e-06
7.84995468207869e-06
8.63272067076833e-06
1.55528313387725e-05
1.97993856146811e-05
1.77627198641507e-05
1.38275601584516e-05
8.81847295592557e-06
3.98416198448418e-06
9.16087599206733e-07
1.99336263290807e-05
1.3285990486753e-05
7.19256151834062e-06
2.84178459323439e-06
5.5767521878935e-07
1.95792339734355e-05
1.1327964224478e-05
5.53558505050571e-06
1.97917223787504e-06
3.52235156704036e-07
3.51021742061874e-07
2.8057915595599e-07
4.40334037680226e-07
1.55685180122644e-07
4.7692215840299e-07
7.37816286341752e-07
6.38827870988465e-07
1.00480976337648e-06
1.34178660359809e-06
9.01134920743373e-09
1.76098082503311e-08
3.26633441646306e-07
3.43839387656282e-08
6.13046044890702e-08
9.90106328895611e-08
1.5068171165643e-07
2.23390855168283e-07
2.76523528908456e-07
2.91825367934375e-07
3.32826855368068e-07
3.24574309687012e-07
6.03220597075214e-07
1.3472435808702e-06
4.98679281651595e-06
1.4318918899145e-06
5.95774682896458e-06
5.237103279302e-06
1.90988406048594e-06
2.08764310798375e-06
4.42695484708618e-06
3.52876735343369e-06
4.74048396091578e-06
5.47855944166182e-06
4.07439371459799e-06
4.83236999375694e-06
2.90921414723048e-06
4.1048139919963e-06
4.35230387153662e-06
2.9917066622239e-06
2.28199772017438e-06
3.3742502793124e-06
3.33247761485261e-06
1.25283296314999e-06
3.05941427724285e-06
4.27187311600462e-06
4.61021567551271e-06
3.75184322470676e-06
6.39211944736315e-06
5.1988964956332e-06
1.70919143127957e-06
2.03108020333651e-06
1.38508666744121e-06
1.01724672101889e-06
3.39932358162644e-06
4.20851038901733e-06
6.84188439769726e-06
7.98504981153432e-06
8.40613100892555e-06
6.3425652676566e-06
2.72556013376671e-06
3.0384805308284e-06
3.76561696053326e-06
4.74752813946553e-06
6.93124258678132e-06
8.52406786791142e-06
9.22107327098804e-06
7.44199647204896e-06
2.99930348999454e-06
3.44916353468041e-06
6.15789953019408e-06
5.82525971350286e-06
5.07970266637211e-06
6.66671871832107e-06
9.19077168225246e-06
9.19032315911018e-06
7.68903156690715e-06
2.51791152008804e-06
1.46353030524128e-05
2.4414171174835e-05
1.18941990722257e-05
5.82018327166141e-06
4.68614744272152e-06
8.59841719043891e-06
1.00352477092051e-05
1.05649118379951e-05
6.97449803237583e-06
1.96559018255597e-06
4.44552987685517e-05
2.17641864021555e-05
1.30549796900563e-05
8.66737941448039e-06
4.41826892089983e-06
8.63097687417541e-06
1.21277295956076e-05
1.29061534073785e-05
1.04690978137146e-05
5.58700504523821e-06
1.45067811839757e-06
2.36345603338622e-05
1.23639574654219e-05
1.04545158270173e-05
8.13879636143605e-06
5.50374964438948e-06
1.05653305040521e-05
1.54760317932922e-05
1.60010767269798e-05
1.34791029522084e-05
8.99182621559724e-06
4.20942955808649e-06
9.98616900521139e-07
9.29629104134078e-06
7.92144960414572e-06
7.31787191478932e-06
7.02509779602649e-06
1.41303652905073e-05
2.08446104871888e-05
2.08435853047032e-05
1.73548032076758e-05
1.24896405090816e-05
7.15600552611538e-06
3.00041156153057e-06
6.30879729484771e-07
1.76642807343509e-05
1.07457949367065e-05
5.44984721424767e-06
2.05249135712925e-06
3.61687611767545e-07
1.56058624398482e-05
8.54101901526813e-06
4.04712025911736e-06
1.37136443273511e-06
3.11886729292588e-07
7.34274952021696e-08
1.55766556323829e-07
3.48042901917194e-07
1.55662779438321e-06
1.01350025696618e-06
4.89809077294488e-09
1.03785812676898e-08
1.97541194187198e-07
2.15779550702121e-08
4.05921283463848e-08
6.79783611245345e-08
1.03996653641437e-07
1.50602437778513e-07
1.96250678140459e-07
2.26036191434819e-07
1.61310335132957e-07
2.90424786229322e-07
2.67732390793764e-07
2.47530481654119e-07
1.64394673945556e-06
5.77747379329653e-06
1.49427835775599e-06
9.52399020765359e-06
5.75068564403438e-06
1.69199700867515e-06
8.16348929126336e-06
1.02335350992052e-05
6.12229746108665e-06
3.04643948005583e-06
2.88211733198074e-06
4.67103096870355e-06
5.35363385628614e-06
7.99087825123402e-06
6.54259088459822e-06
2.78639821306293e-06
3.21777774707464e-06
3.83296459322538e-06
4.47375558666432e-06
3.78511758547457e-06
7.25084436701892e-06
5.34401256822868e-06
3.29452039206072e-06
3.53624929911126e-06
1.82193720701731e-06
3.69387674217016e-06
4.3557005111029e-06
4.5739323011899e-06
1.09093899648188e-05
9.73968148071599e-06
5.8142225996167e-06
2.20762519682409e-06
1.95711382964034e-06
1.35449308173795e-06
1.6080715131686e-06
3.10581062721751e-06
3.80169390129346e-06
6.62930591299801e-06
9.4832227068431e-06
1.05776237407425e-05
9.93695591874126e-06
7.13516332237465e-06
2.55844812400901e-06
2.79397518662683e-06
3.36443379602765e-06
4.19672400434659e-06
7.05033579497319e-06
9.11968910355377e-06
1.06641000596501e-05
1.03357962138368e-05
7.50940356146062e-06
2.4389048323803e-06
3.45709773380422e-06
4.91413247088828e-06
5.3387637392171e-06
4.72902668658877e-06
6.0804212263327e-06
9.42004256795432e-06
1.02719573024731e-05
1.0474591132891e-05
7.1307814814506e-06
1.98592711046994e-06
1.27963764423282e-05
1.94108729404759e-05
1.30221693261356e-05
6.21129651358492e-06
4.11417420734604e-06
7.45725782780081e-06
1.0722541731532e-05
1.19622746412639e-05
1.07491177384e-05
5.90342311320128e-06
1.52688987204335e-06
3.7091568397968e-05
2.12295126482721e-05
1.25216303256925e-05
8.51680680838373e-06
3.96997931262204e-06
7.1261575174735e-06
1.24725031168167e-05
1.43217487924039e-05
1.34590584980872e-05
9.30490755599455e-06
4.52044297778619e-06
1.09750175894104e-06
1.23866874108295e-05
9.51171389055991e-06
7.93868390064603e-06
4.81445101733035e-06
9.15824192940735e-06
1.58211621353778e-05
1.80782848278187e-05
1.63151703265589e-05
1.24559731226023e-05
7.36195792394462e-06
3.25924055631471e-06
7.2938107211825e-07
7.43098377936909e-06
6.93747101274904e-06
5.9446248355336e-06
1.21437090698232e-05
2.14749945083319e-05
2.3652753011829e-05
2.07439458460439e-05
1.61248494863582e-05
1.0412692369739e-05
5.52790279357559e-06
2.23445346293244e-06
4.31393872226006e-07
1.46033177618647e-05
8.2736456183889e-06
4.0236252482212e-06
1.44716872987902e-06
2.24804817876391e-07
1.18992488469164e-05
6.35476560780566e-06
2.8581232490906e-06
8.73655510419219e-07
7.25999995858635e-08
7.27799341296364e-08
1.40161587461666e-07
3.21723832328355e-06
2.23070692572808e-09
5.57282899702859e-09
1.0943936282797e-07
1.2821826545479e-08
2.61942659248599e-08
4.6654108973992e-08
7.35304888452908e-08
1.05305337833948e-07
1.35939922160596e-07
1.4898000035945e-07
1.75537041309555e-07
1.5360129113969e-07
1.72305366570758e-07
1.42722913336616e-07
1.24809830288554e-07
1.5484171386056e-06
6.28154874850254e-06
1.67456331170329e-06
1.02656959157973e-05
6.10470072334765e-06
1.77499882562081e-06
1.23910803376157e-05
1.00792094048209e-05
6.43967019937315e-06
1.84423544978288e-06
1.01562495046829e-05
1.45971325917277e-05
1.2309439515498e-05
6.95103803129136e-06
5.47489023049359e-06
1.01483476323082e-05
1.14262393888385e-05
8.63292704647416e-06
5.08988979203052e-06
3.53820852325946e-06
4.62281405553129e-06
5.40585524216568e-06
1.29608538476486e-05
1.05639245959713e-05
5.95442429453702e-06
3.16810863659876e-06
4.24867444519132e-06
5.34393476220384e-06
1.41212817564721e-05
1.30080694017928e-05
9.85968343776616e-06
6.40221586127318e-06
2.1745073045188e-06
2.01032925802552e-06
1.84195595359384e-06
1.77836689541549e-06
2.9045431835469e-06
3.43347117838287e-06
6.10965781821832e-06
1.03331411298338e-05
1.17385166600842e-05
1.2525294043148e-05
1.10396822703394e-05
7.11677828287348e-06
2.20061426631439e-06
2.85239509003425e-06
3.03943011686849e-06
3.61253593567099e-06
6.43421672058743e-06
9.47065359176858e-06
1.11662807015403e-05
1.21503929778082e-05
1.09052896607119e-05
6.84961271278422e-06
1.96301659427335e-06
3.52887515313505e-06
3.92586378468818e-06
4.54598725783879e-06
4.24494761127856e-06
5.36756783646247e-06
8.37918467247465e-06
1.10881622025285e-05
1.19719009942119e-05
1.07879914465434e-05
5.97956538445621e-06
1.58220827486448e-06
1.11033809610671e-05
1.38019619831203e-05
1.29887332799848e-05
6.89328964281962e-06
3.98054699331703e-06
5.64972935424218e-06
1.09362558751147e-05
1.28189110739436e-05
1.33629057035512e-05
9.56385903551908e-06
4.75696756882293e-06
1.20405571628421e-06
3.08400694698164e-05
1.92799922743244e-05
1.20109058102281e-05
8.34664789853053e-06
4.33712861144258e-06
5.51774774259645e-06
1.22835424577816e-05
1.54741978555558e-05
1.56835467000203e-05
1.26943575847209e-05
7.61570922299782e-06
3.51789561124578e-06
8.3398267199616e-07
8.87938604533438e-06
7.54931542668197e-06
4.69601826937996e-06
7.44905062069756e-06
1.61558752982875e-05
2.004525838571e-05
1.88804130480129e-05
1.56793095757105e-05
1.05135609656376e-05
5.73960987608778e-06
2.44448773611785e-06
5.1605784319737e-07
6.63060387908983e-06
5.5198496010999e-06
9.75712829814577e-06
2.1215983199511e-05
2.60395272397395e-05
2.40765690278806e-05
1.96784770719906e-05
1.38640509724877e-05
8.18319468699812e-06
4.13189519824536e-06
1.58840822868454e-06
2.75983597713394e-07
1.13984023279068e-05
6.22987613428248e-06
2.87250425730892e-06
9.33268647123738e-07
1.25592560576641e-07
8.97134213395279e-06
4.63149874043886e-06
1.86615094718522e-06
4.81021150873577e-07
6.16411782891368e-08
7.27043632845591e-08
8.33783833591255e-08
7.06151654113106e-10
2.47415207602183e-09
5.02432429134757e-08
6.86692270138991e-09
1.58338884424107e-08
3.12649007757064e-08
5.25470029906301e-08
7.68732748780855e-08
1.01107074761572e-07
1.12203462255757e-07
1.17247616437254e-07
1.12011248126783e-07
1.20432060562196e-07
1.14695835427458e-07
1.05441446504359e-07
9.23186916521657e-08
1.55724122843536e-06
6.11121324542377e-06
1.58040834725076e-06
1.07232093904809e-05
6.3514398339378e-06
1.81650575800419e-06
1.3799560235311e-05
1.05718969934532e-05
6.50329991489092e-06
1.89135060099727e-06
1.55534630046944e-05
1.31713995013401e-05
1.07600757355381e-05
6.25084794320256e-06
1.88912965869308e-06
1.0018643158292e-05
1.64692173705975e-05
1.57484086751479e-05
1.12121191816307e-05
6.2017048278405e-06
5.02660683851242e-06
1.11699671336361e-05
1.51891985601296e-05
1.42358315176096e-05
1.05210924420235e-05
6.11610835112884e-06
3.26112795810731e-06
4.62664365363455e-06
7.11560106416925e-06
1.69418527637443e-05
1.49145790015741e-05
1.02888954338245e-05
6.31185340840376e-06
2.92030047727666e-06
4.14723938199476e-06
5.84081271319548e-06
1.56222876859696e-05
1.50374860026264e-05
1.37064134464956e-05
1.08212115021226e-05
6.65614195060444e-06
1.97233989174694e-06
1.94943342099601e-06
1.94886477335289e-06
1.92089765867401e-06
2.86929601500823e-06
3.22594698510721e-06
5.3325647248355e-06
1.06477612144019e-05
1.23312227123169e-05
1.37972590199502e-05
1.39353552571896e-05
1.10207316061257e-05
6.45603105695466e-06
1.85525446857575e-06
3.24656202809615e-06
2.88067998299026e-06
3.13258044630597e-06
5.49001702230075e-06
9.30066043301283e-06
1.12616946519158e-05
1.32110633836599e-05
1.33010417478677e-05
1.06549420385482e-05
5.80383135725948e-06
1.61892517301619e-06
3.3077614082914e-06
3.34716001412288e-06
3.63435409293048e-06
3.64272688228627e-06
4.5608396383267e-06
6.94962509245363e-06
1.12551884492574e-05
1.29464649730308e-05
1.33986305777896e-05
9.60455582142122e-06
4.84687289496241e-06
1.27822729898873e-06
1.01071981426784e-05
9.00411547767498e-06
1.07823670760351e-05
7.1306259943876e-06
4.13744266744238e-06
4.3883834154733e-06
9.72907467665106e-06
1.3724156248005e-05
1.50917043313448e-05
1.29169457592941e-05
7.81098225453351e-06
3.71145016073957e-06
9.18351588084908e-07
2.52713097230761e-05
1.69835534190703e-05
1.11415308694669e-05
8.07413667104215e-06
4.8146284375426e-06
4.32579088379718e-06
1.17419863894562e-05
1.68671250670427e-05
1.75056837338405e-05
1.56575310214136e-05
1.07434928366695e-05
5.981054168799e-06
2.64403028712884e-06
5.95093573402041e-07
7.13747203710778e-06
4.99542245569058e-06
6.10209741408949e-06
1.58697686381101e-05
2.18613422291291e-05
2.13953014618813e-05
1.86030089149342e-05
1.3788481361938e-05
8.34018789986737e-06
4.33844208255828e-06
1.74853372741626e-06
3.34145528371542e-07
5.77084695866297e-06
8.01121267016174e-06
2.01070443467024e-05
2.79006482906517e-05
2.72557236726065e-05
2.31555019003299e-05
1.73708228337884e-05
1.10891149609962e-05
6.24931512883392e-06
2.98422476887567e-06
1.0350636601451e-06
1.54623697632635e-07
8.70430059726288e-06
4.57391826713933e-06
1.89936060335239e-06
5.19825611016042e-07
5.6463583747358e-08
6.70461716726513e-06
3.15754798074178e-06
1.05839879763888e-06
2.07417630927123e-07
6.22568491478745e-08
6.29952411430619e-08
7.82777455771909e-08
1.22693501250406e-10
7.58049539086327e-10
1.61197550541819e-08
2.99768280372929e-09
8.64054865960171e-09
1.96380573730585e-08
3.63630553903989e-08
5.71502333129549e-08
7.8850993858371e-08
9.36785175833426e-08
9.62233647548907e-08
9.49056799453301e-08
9.40127304961544e-08
9.8051474359741e-08
1.00875807229084e-07
9.335006968923e-08
8.69452781115205e-08
1.50102005574123e-06
5.97477766662515e-06
1.56720060447906e-06
1.05219466197079e-05
6.12103541049263e-06
1.71180847589231e-06
1.45852201634495e-05
1.07469059218221e-05
6.54239098012172e-06
1.91620108233644e-06
1.67854804415086e-05
1.42192136747766e-05
1.11349675219684e-05
6.67292702977392e-06
1.9451309267784e-06
1.75501646266642e-05
1.58327187903009e-05
1.45021897924015e-05
1.10990183213319e-05
6.59032469121125e-06
1.94894425803173e-06
8.32723951039343e-06
1.71922467873401e-05
1.78333605141734e-05
1.53821058339076e-05
1.12029496408582e-05
6.5971799074366e-06
4.26295364264533e-06
1.09219813008666e-05
1.70767983684774e-05
1.79602701427481e-05
1.56734505156608e-05
1.09757870469421e-05
6.4842619495366e-06
3.01617580081529e-06
4.42858929376023e-06
8.38214047278098e-06
1.87342874255427e-05
1.80006885882981e-05
1.47727235984342e-05
1.07484765115413e-05
6.35134616172873e-06
2.83953485293635e-06
4.10033574734533e-06
5.85118566437829e-06
1.59033587031524e-05
1.61922854497599e-05
1.61979881170796e-05
1.47173344669413e-05
1.0768469465547e-05
6.11607290912332e-06
1.72893807107542e-06
1.80321539706112e-06
1.82597593210033e-06
1.87838779515978e-06
3.23758363564853e-06
3.19407494355999e-06
4.45655036088614e-06
1.03377554323273e-05
1.27400402458922e-05
1.42514319850433e-05
1.57486830404806e-05
1.43471113076124e-05
1.02623563075269e-05