/*--------------------------------*- C++ -*----------------------------------*\
  =========                 |
  \\      /  F ield         | OpenFOAM: The Open Source CFD Toolbox
   \\    /   O peration     | Website:  https://openfoam.org
    \\  /    A nd           | Version:  12
     \\/     M anipulation  |
\*---------------------------------------------------------------------------*/
/*   Windows 32 and 64 bit porting by blueCAPE: http://www.bluecape.com.pt   *\
|  Based on Windows porting (2.0.x v4) by Symscape: http://www.symscape.com   |
\*---------------------------------------------------------------------------*/
FoamFile
{
    format      ascii;
    class       volScalarField;
    location    "800";
    object      nut;
}
// * * * * * * * * * * * * * * * * * * * * * * * * * * * * * * * * * * * * * //

dimensions      [0 2 -1 0 0 0 0];

internalField   nonuniform List<scalar> 
10107
(
2.68429092328812e-07
8.09173644480014e-08
2.85415875301468e-06
2.02479405934262e-07
6.20549120062841e-08
7.01856531557993e-07
5.68676982472595e-08
2.29551211793631e-06
3.89237562849977e-06
5.75060118712202e-07
4.38016004312681e-08
6.58358830923484e-07
6.71933550011842e-08
1.51524565518416e-06
1.05556755128898e-06
1.6977640105824e-07
2.21429621869952e-07
2.31021469290131e-06
3.35146810999438e-06
5.4081476229209e-06
6.71482022812619e-06
4.93411896240713e-06
2.24330584383949e-06
2.1043592428712e-06
1.02549405562931e-06
7.06128500212551e-08
1.20008488630593e-06
1.38304102525976e-06
3.57856267320286e-07
2.91620610318866e-07
3.90546034465606e-06
2.00317430824652e-06
6.8439422552897e-07
1.76610878812394e-06
2.47640239142422e-06
4.65260025795646e-07
1.09259290639734e-06
8.30339837534501e-07
3.48692071456502e-07
5.95647413709703e-06
3.4771971480411e-06
3.2032555070996e-06
4.55633373735699e-06
4.29630077886694e-06
4.91731022813877e-06
2.80707701748811e-06
5.12823351873084e-06
4.42269892208918e-06
6.89549725709061e-06
1.81515385817457e-06
3.27027660488959e-06
2.06088167009439e-07
9.15946232545776e-08
1.52493202211704e-07
1.24391078853801e-06
2.38321103986771e-07
1.48206859511504e-06
4.11609507966095e-07
2.06608807180624e-05
1.04663694136016e-06
1.33855151591587e-06
2.92355410716001e-06
2.45569752326357e-07
3.02035828100745e-07
1.64847393528292e-06
1.09983520535677e-06
5.77448747010473e-07
2.12655161491262e-05
8.23962829909978e-06
4.88444094838218e-06
5.32536143093832e-06
3.96599779324573e-06
2.09664536610723e-06
6.22489833838239e-06
4.96486726250137e-06
3.59990025203962e-06
3.05540997275383e-06
2.05057896957873e-06
4.44923569600229e-06
3.21834928025748e-06
2.18428178307603e-07
7.40414357964208e-07
1.87394095074957e-07
2.9268430818569e-07
1.10012317584837e-05
4.75536254785147e-07
3.95742347490507e-07
2.48863420120465e-07
3.34084756796629e-05
2.63292934145702e-06
4.70676349952007e-07
2.06639135302456e-07
1.41697827035375e-07
1.2104347709722e-06
6.43220132713579e-08
1.32470854745921e-06
3.57841761492608e-05
2.35956943024284e-05
8.88702252407676e-06
1.10394833394528e-05
7.25072421610394e-06
1.35149812223626e-06
8.10439416283143e-06
5.47954824947764e-06
3.32559619534199e-06
7.12425882917969e-07
7.86522125879133e-06
7.34733480730559e-06
8.72368272601975e-06
4.46117727388662e-06
1.5300431020936e-07
2.05260717336945e-07
2.65803660897851e-07
1.08516496217278e-06
2.47895181678471e-05
7.05220329783185e-07
5.31545643744132e-07
6.46809770361485e-08
6.85072810009457e-06
7.19550135484586e-06
8.1562338897459e-07
1.51330140054473e-07
1.2127700604103e-07
2.11854276091158e-06
4.81672332378717e-08
9.33674783041803e-08
7.79936435219845e-06
3.61809062809728e-05
1.35463069094123e-05
2.42384208289386e-05
1.03369070095942e-05
2.44257022016168e-06
1.28455050413712e-05
8.48322474475865e-06
1.98577473424063e-06
3.04835036174952e-07
9.7753618751681e-06
8.60126421411237e-06
6.65856844410905e-06
2.37633090553827e-06
8.70382009917964e-07
1.05192677769322e-05
1.60418146477928e-05
1.07275443363379e-05
7.62841115421934e-06
4.28837142307171e-08
4.27888947646255e-07
3.73220842146993e-07
1.20529487329385e-05
8.14484150147233e-06
2.36883748269561e-06
6.11202295563935e-07
9.77122713666234e-08
3.07912459308116e-06
6.29358922554668e-06
2.34843403119709e-06
1.14376956849164e-07
8.54399412816015e-08
3.05991284529567e-06
5.6747678701373e-08
6.50214361503947e-08
1.9689441027427e-07
3.72396714125257e-06
8.80850798770281e-06
4.93332362994209e-06
3.37944750046443e-05
1.24475077182291e-05
3.51775028783996e-06
2.27135315321512e-05
1.01916777969361e-05
3.90028328294302e-06
5.91579994969644e-07
1.33752619496864e-05
9.05711598189976e-06
4.03539671460642e-06
1.04787931214373e-06
4.39360029041254e-07
1.02979799125342e-05
1.31618378456209e-05
8.440299070006e-06
4.49245145353006e-06
1.50196648197759e-06
2.32114214874363e-05
2.33047143681882e-05
1.85414254076502e-05
1.06206928214711e-05
8.4861597180205e-08
5.24677961337507e-07
1.42386746180079e-06
8.74571683251986e-06
3.19774463236051e-06
7.11918325413496e-06
9.8970551647384e-07
1.93642743227995e-07
3.22542076896702e-06
1.68665939931842e-06
1.01597833905613e-06
8.46482117435523e-08
7.30900363741922e-08
3.68383958588676e-06
4.97925784879426e-08
7.34570404002141e-08
1.12284999906865e-07
1.13399628684486e-07
3.96127646545225e-06
4.41636521156407e-06
2.51442227175255e-06
1.14325695196623e-05
6.068375293007e-06
1.88787354008268e-06
3.12707212228482e-05
1.08721110610218e-05
4.41333179300909e-06
1.70900358038609e-06
2.08212655163609e-05
9.74937604534532e-06
5.16982326894403e-06
1.7453755122197e-06
8.04141711573585e-07
1.32178594971531e-05
9.09809460224435e-06
7.17209218994366e-06
5.31787738391007e-06
2.9298599331451e-06
9.55979934138599e-07
1.76918158453976e-05
1.98947924689116e-05
1.29570649820782e-05
6.4118506539701e-06
2.17172931448703e-06
3.80263902975378e-05
3.46656567747398e-05
2.77943969514454e-05
1.50102647453272e-05
1.12145980076134e-07
3.34244168679989e-07
9.68068877189098e-06
2.48724794309603e-06
3.01279783101289e-06
1.38787715153582e-06
8.31438521746598e-07
1.24727396847538e-07
6.17978274148455e-06
1.22132269733372e-06
4.52855469325545e-07
6.18473021324768e-08
6.54973066874261e-08
3.92812619545658e-06
5.35850326852635e-08
7.13905921489204e-08
1.46348617683365e-07
8.0109840873316e-08
8.68246332232752e-08
5.53446742080808e-06
4.42386428750969e-06
2.3769545004065e-06
5.01991114326996e-06
3.91902685930026e-06
1.52636406561874e-06
1.21617692876379e-05
7.74291143433e-06
3.63678523038871e-06
9.66134792193458e-07
2.94211151782486e-05
9.86592117864498e-06
5.05253207802937e-06
3.13722379545683e-06
1.80727002531325e-06
1.94170266144319e-05
9.30476892888141e-06
6.23252937826074e-06
5.41121431695404e-06
3.28598427079803e-06
1.34088978063665e-06
1.28910280786048e-05
8.75809852893088e-06
8.72673995503339e-06
1.33304699161714e-05
1.0242314389894e-05
4.61007785064158e-06
1.59598476063086e-06
3.03291540671492e-05
2.59707185123841e-05
1.77796382598527e-05
9.59992129791947e-06
2.75341739237198e-06
4.82035143033268e-05
4.48163148423543e-05
3.91594218842823e-05
2.07345951150208e-05
6.98973592296248e-08
5.50817123613047e-07
9.91546316916598e-07
2.54769373418591e-06
5.29739395730698e-06
1.21007133272047e-06
3.52574555097251e-07
9.5880280814964e-08
2.5104062243931e-06
2.64351590347838e-06
4.49154602403075e-07
4.09758446430662e-08
5.52127556098395e-08
3.6668324637305e-06
5.86611056364608e-08
7.06592308508351e-08
1.27193086859027e-07
1.3517271522497e-07
6.86248309417411e-08
1.11357874424714e-07
3.53051099407636e-06
5.15873443929127e-06
3.10808741845427e-06
4.50870041346998e-06
3.35362842119976e-06
1.60981877230186e-06
5.2862602643912e-06
5.3280787076498e-06
3.32644754301372e-06
7.58892920292066e-07
1.27824892194826e-05
9.2975005795976e-06
5.02242728287318e-06
3.40392155693715e-06
1.46864803603257e-06
2.82997394114957e-05
9.41606981417957e-06
5.49758592270554e-06
5.96042043923709e-06
4.09029391667419e-06
2.08394268305669e-06
1.86175371992427e-05
8.9220325357333e-06
6.7804459484786e-06
1.02348268428071e-05
9.72601885264065e-06
4.6281974119892e-06
1.86436915299893e-06
1.26941679830306e-05
8.24019136467021e-06
8.57847632646207e-06
1.83644992926464e-05
2.32629679530842e-05
1.38552169588529e-05
7.19317611117699e-06
2.23275621673748e-06
4.08211882186017e-05
3.08087147980696e-05
2.81171903831218e-05
1.48464976109093e-05
2.99630215358186e-06
5.76809371156129e-05
5.93759924731472e-05
5.57798781015201e-05
2.40630830714717e-05
5.56435971252966e-08
2.71739196293848e-07
9.41967763283865e-07
5.71079079585211e-06
2.09058651384511e-06
7.96699273297036e-07
5.30261618956713e-07
1.42545293921944e-07
9.63769925849623e-07
2.6053929840184e-06
1.16884206001794e-06
2.43725959312563e-08
4.04528809763217e-08
2.87155616521281e-06
5.38088298285476e-08
6.61052749063427e-08
1.10265570755413e-07
1.38110764271294e-07
1.19770797696258e-07
5.99694317574109e-08
1.43180016630265e-07
1.80951979594546e-06
4.26241727124761e-06
3.24131147463503e-06
4.77120465212294e-06
3.46291296762921e-06
1.75084494191323e-06
4.38857761063669e-06
4.1738590749465e-06
3.02190828789285e-06
1.00707823914784e-06
5.28651108115233e-06
6.05441839967962e-06
4.54374915279152e-06
3.20418218057412e-06
1.41591026961764e-06
1.3192846017873e-05
1.07208264920223e-05
5.4992624141763e-06
6.30522917590311e-06
4.87322142598423e-06
2.68064228998013e-06
2.76562205508183e-05
9.39879072943144e-06
5.69319752694889e-06
8.30345275228903e-06
1.0590293454651e-05
6.8817696987144e-06
2.66235289337953e-06
1.82641349176122e-05
8.62781738372303e-06
6.81344656163467e-06
1.23630652494043e-05
1.93230494477539e-05
1.47942115644659e-05
7.35856261423412e-06
2.26336989908827e-06
1.26439717275827e-05
7.75561002245348e-06
7.76633805173474e-06
1.72730081049127e-05
3.22765947540018e-05
2.44492147338719e-05
2.22223972882818e-05
1.19367514627146e-05
2.60664803957242e-06
4.17310273010118e-05
4.39217190899653e-05
4.42980917404505e-05
1.98323724642794e-05
2.64245137175353e-06
6.95731248078309e-05
7.40621540549477e-05
6.41349564264772e-05
2.20834690593382e-05
9.29653491251767e-08
3.16013438318954e-07
2.60108516061802e-07
1.76552439855661e-06
8.76391739307612e-07
1.02356140461193e-06
6.81654245008725e-07
1.87114894482403e-07
3.01102292431246e-07
5.59903162706735e-07
9.69902938819457e-07
1.39166195382592e-08
2.5973863920764e-08
1.97851093986693e-06
4.17623994254029e-08
5.70507617988985e-08
8.79815959701431e-08
1.2993648629115e-07
1.32600420999304e-07
1.06597712678987e-07
6.81068989941048e-08
4.07302557335431e-07
1.38214085841501e-06
2.84376055104032e-06
1.66002832025474e-06
4.40866500860418e-06
3.75883643755812e-06
1.91557478347342e-06
4.35145575923249e-06
3.67585418396029e-06
2.77613162683363e-06
1.18461871497277e-06
4.20692002838075e-06
4.38098409676571e-06
4.30916448283831e-06
3.10549318107844e-06
1.85626083403988e-06
5.166323882078e-06
6.64892642237385e-06
5.19712540057192e-06
5.68175279552809e-06
5.286463020637e-06
3.76942453346653e-06
1.33865307748249e-05
1.18065387336226e-05
5.51835044707231e-06
7.44098784342325e-06
1.13329144578955e-05
1.13261107158518e-05
4.08147763607039e-06
2.6931233171238e-05
9.68646022905089e-06
5.66625788214654e-06
8.81558417950186e-06
1.56193705018988e-05
1.95541374220636e-05
1.23929556567548e-05
2.78489946307456e-06
1.8136821092144e-05
8.39598170575712e-06
6.51578095475739e-06
1.14108780982183e-05
2.22955714623394e-05
2.4705651850717e-05
2.19831167839126e-05
1.24617545750108e-05
2.52255198717684e-06
1.26404431673885e-05
7.36229059699712e-06
6.77344980007523e-06
1.35611849882564e-05
2.95173455655654e-05
3.6964605069655e-05
3.32451268286772e-05
3.86401219867997e-05
1.77529575205761e-05
2.48344912626306e-06
5.4575031569939e-05
6.12512155688126e-05
5.73664630646238e-05
2.03998194759464e-05
1.98136459497691e-06
8.49328376632137e-05
9.12223994871833e-05
6.33651796521597e-05
1.76312564539234e-05
1.05971664062067e-07
1.48803590510653e-07
2.06207582755275e-07
6.19985927256434e-07
2.47431637638199e-07
3.87295362908831e-07
1.4170285937629e-06
2.32448161282575e-07
1.210231181796e-07
2.28343750268096e-07
4.27594989614507e-07
3.87104134447446e-07
8.31368732801523e-09
1.55609007545393e-08
1.30620294818353e-06
2.83288011900441e-08
4.3879666511489e-08
6.65707663089633e-08
9.90009108773601e-08
1.35648376674851e-07
1.09435206374216e-07
1.24498025472984e-07
1.43096903591366e-07
2.36230305626036e-07
1.30652189428311e-06
3.10231503055044e-06
1.85952270254848e-06
3.28856236883912e-06
2.22422326947823e-06
1.59766708518981e-06
1.43951632927903e-06
4.34676476196117e-06
3.98492635313522e-06
2.16512810109243e-06
1.62758274646345e-06
5.79453504167578e-07
4.06309052811702e-06
3.8939651378044e-06
3.95029435930935e-06
2.36069190178325e-06
1.61539715553921e-06
4.01213935225975e-06
4.31295378886373e-06
5.19798592050953e-06
6.27956448085727e-06
6.94131287873799e-06
4.49329838939041e-06
5.00963358867408e-06
6.82091786275536e-06
5.40632416284852e-06
6.79760855616903e-06
1.24194034843048e-05
1.44541584334445e-05
5.34694269247078e-06
1.3417861735902e-05
1.23878874908343e-05
5.45192147559763e-06
7.0540419453663e-06
1.37599220330221e-05
2.33580383726515e-05
2.108412319726e-05
3.49951573505864e-06
2.59351313434635e-05
1.02889705717659e-05
5.54480686432086e-06
8.01257091114908e-06
1.4373787955512e-05
2.81345585098098e-05
2.87759535552026e-05
1.83610505625178e-05
2.84349420184317e-06
1.79428413921164e-05
8.33366791557301e-06
6.08208803165105e-06
9.45858843689928e-06
1.80203535405003e-05
3.7541247673218e-05
3.0877749634164e-05
3.764359091052e-05
1.88724338898857e-05
2.45037536472534e-06
1.26933089073674e-05
7.15254004507379e-06
5.91610343676779e-06
9.86624343186005e-06
2.23854934645064e-05
4.63450712964826e-05
4.10147513490144e-05
5.15603169566693e-05
5.43023478928755e-05
1.9863257627376e-05
2.02827935338735e-06
7.35629424644901e-05
8.08056504497475e-05
6.02762252569869e-05
1.75330632483269e-05
1.38995156838166e-06
9.87585367778005e-05
9.43928411508804e-05
5.61770345817787e-05
1.3476699247545e-05
9.52959146103483e-08
4.04340586092405e-07
2.5783608405926e-07
1.3663690154283e-07
1.95457437192485e-07
1.32954333584493e-07
4.81212587075548e-08
6.79902980726881e-08
9.12480807142225e-08
1.32632462811343e-07
2.98331133767175e-07
3.69883195842362e-07
2.34715099208488e-07
3.45680165699619e-07
2.02428746881258e-07
5.06932081641256e-09
9.54352117540109e-09
8.74755562793723e-07
1.79648400966892e-08
3.06307553861573e-08
4.78275125197834e-08
7.25586490779418e-08
1.04805572172982e-07
1.20950663210433e-07
1.0942941003794e-07
1.04708803797385e-07
1.12089710974621e-07
1.5733952864105e-06
4.09999666411633e-06
2.70316370978636e-06
3.78800587392133e-06
2.76784088495853e-06
2.26238989046213e-06
5.53806063199236e-07
2.04812054093922e-06
3.40929400695461e-06
2.56085651756228e-06
1.70436117948074e-06
1.41226600325433e-06
4.8807067107932e-07
1.37313492849496e-06
8.6380426465467e-07
4.16745704340841e-06
3.85356463053355e-06
2.44060905596982e-06
1.45781939094176e-06
6.41088921770668e-07
1.06110239068379e-06
9.87343122982558e-07
4.19410804805129e-07
3.84696417097308e-06
3.96400781849898e-06
5.12551314717653e-06
5.29598688773789e-06
5.58428541885283e-06
3.06928926461336e-06
3.83459213071112e-06
4.1246920939071e-06
5.32794534376086e-06
9.69415489828727e-06
1.62287234352906e-05
1.5259728670806e-05
5.92239989690996e-06
4.84138556722873e-06
6.63066674668266e-06
5.41985151721498e-06
6.80961362590027e-06
1.56636140084203e-05
2.31143713688693e-05
2.56273531678486e-05
4.43701984693165e-06
1.362985942314e-05
1.25067258252967e-05
5.77855062225247e-06
6.28375514141923e-06
1.15664612514797e-05
2.5115328759576e-05
4.06895266423596e-05
2.67502082433546e-05
3.36635391892482e-06
2.46520620636551e-05
1.09315151278391e-05
5.49539082117292e-06
7.05312154558595e-06
1.06155369336577e-05
2.84131961499834e-05
3.94971050561463e-05
3.98476330275293e-05
2.34430491303039e-05
2.70196715547334e-06
1.75159642454702e-05
8.44848696053674e-06
5.69628468255995e-06
7.49604032060816e-06
1.28143143741168e-05
3.16437955037784e-05
4.01077635587856e-05
4.50469093941365e-05
5.69642592919051e-05
2.12380667904139e-05
2.13177693517499e-06
1.28642538136786e-05
7.21614715651794e-06
5.34014514067638e-06
7.42914867586177e-06
1.55260363514404e-05
3.88746822225302e-05
5.3162864212989e-05
5.70901370300028e-05
7.28217737577733e-05
5.99373058444715e-05
1.84053705651935e-05
1.54646528729396e-06
9.02832652311054e-05
8.89735338027099e-05
5.5546855451516e-05
1.40897486350359e-05
9.7194342960138e-07
0.000107287163153225
8.98390485065496e-05
4.60705031852181e-05
1.02698702557144e-05
8.19371696194233e-08
6.06161534636801e-08
1.01653908852807e-07
1.00270088694709e-07
4.69890437368152e-08
1.07701850142577e-07
1.50609905230412e-07
1.35313164066313e-07
2.93502282058558e-07
3.95223198613321e-07
3.00825850806341e-09
5.86072937397156e-09
5.78729272026947e-07
1.14316216787816e-08
2.03948231028789e-08
3.29848907572223e-08
5.02803800398177e-08
7.46427854446417e-08
9.24353416827772e-08
9.72583553678167e-08
1.08485449298243e-07
9.34877725343441e-08
1.90944121220539e-07
1.77257371426726e-06
8.40992547590569e-06
1.4138736595301e-06
7.7289308506836e-06
5.82726910608521e-06
1.93072314827415e-06
1.63874126872907e-06
3.67656432716786e-06
1.50804249459625e-06
4.78795091625258e-06
4.14469550466004e-06
2.08770901505313e-06
1.34938476928334e-06
9.92693742221413e-07
3.39890424006762e-06
2.89946060916229e-06
1.93746745805477e-06
1.38922959890505e-06
1.3917636414726e-06
1.09918305915232e-06
3.79121317785113e-07
7.73957369942358e-07
3.92833991051648e-06
3.72661953323315e-06
3.15652545518846e-06
4.70382043033471e-06
4.47511094273559e-06
6.00538727412919e-07
1.97338833850566e-06
8.82403189902961e-07
4.37388351973118e-07
3.68665559288575e-06
3.85770312302974e-06
5.93125646513116e-06
1.0331604792356e-05
1.64440710356548e-05
1.32746115394951e-05
4.80718898004183e-06
3.68357280836788e-06
3.89852862145774e-06
5.04362471720476e-06
1.09013045051912e-05
2.4381706764344e-05
2.50935701180901e-05
2.62527832066818e-05
5.38923658678182e-06
4.77046625673406e-06
6.17966117350323e-06
5.35805102995166e-06
6.23061094179511e-06
1.36771488247524e-05
2.55278755126963e-05
4.35099065407119e-05
3.14613728981204e-05
3.76037433495173e-06
1.36522183768989e-05
1.21834917215526e-05
6.46957633638986e-06
5.57665198679966e-06
8.62254281570077e-06
2.46722248245154e-05
4.5578031583548e-05
4.96545029290724e-05
2.9616970670673e-05
3.03915746291422e-06
2.32197803816464e-05
1.12589463087276e-05
5.60210360000799e-06
6.08997693203966e-06
7.4531138118827e-06
2.1306178738851e-05
4.70164055746122e-05
4.91304402229347e-05
5.67047671596811e-05
2.50804722425442e-05
2.37229308949678e-06
1.69167511185163e-05
8.68195539891832e-06
5.45541399818351e-06
6.17183461626968e-06
8.71670990065366e-06
2.427502273094e-05
5.06807030132522e-05
4.93663253321535e-05
6.63344522114237e-05
6.29692253491308e-05
2.06701443354183e-05
1.75040230089931e-06
7.55070656702367e-06
5.04312151456781e-06
6.03343525290692e-06
1.05519677854243e-05
3.06491299272412e-05
6.08508442385663e-05
6.33517239240062e-05
7.93400265262914e-05
8.64667869933786e-05
5.71111783996881e-05
1.59512344176553e-05
1.15600584214775e-06
0.000100503904307726
8.70924317006467e-05
4.67087741074122e-05
1.12729885181427e-05
6.61692310400801e-07
0.000111530379204477
7.82655251180038e-05
3.47569199962422e-05
7.50690488660701e-06
9.70617539746108e-08
2.31053772169857e-08
4.61069276816407e-08
8.84608435219842e-08
3.43426089363395e-07
2.2281351462084e-07
1.6390320963032e-09
3.46471950964158e-09
3.66376002915985e-07
7.18151058247623e-09
1.34959476597843e-08
2.26145670317009e-08
3.46401339171927e-08
5.02301579245193e-08
6.55263524145368e-08
7.5538105292683e-08
5.38409217721381e-08
9.56166632866079e-08
8.30668360605515e-08
6.6877849587621e-08
2.94632807743307e-06
1.75473803962142e-05
1.98714897938456e-06
2.03417422796851e-05
1.09332019957709e-05
2.09227552404826e-06
1.30454441204233e-05
1.59506021376985e-05
6.78225456512304e-06
2.89693334172479e-06
1.07133198384742e-06
1.38302326407646e-06
5.72976730435746e-06
7.2838746423166e-06
4.34424437499853e-06
1.95893680566503e-06
1.05618604356187e-06
3.30757288793114e-06
3.27984623263569e-06
2.73105002839753e-06
5.94241457099352e-06
5.32818651946128e-06
9.29387574185213e-07
2.51253539162075e-06
5.00877387880298e-07
3.66822585262479e-06
3.6706618769525e-06
4.03477516869326e-06
1.10962839771926e-05
1.71122555340695e-05
1.03216612309943e-05
3.6700226666591e-06
2.06761210261336e-06
9.11266199779067e-07
1.15307049278544e-06
3.57036198579333e-06
3.65234004459237e-06
6.13061715833533e-06
1.4407529379752e-05
3.04965076384642e-05
2.81785067260204e-05
2.16989895876906e-05
4.94336096140441e-06
3.59187175021019e-06
3.68660141872303e-06
4.59474985561176e-06
1.02708200185912e-05
2.61952365953318e-05
3.46742112473832e-05
3.91524695716638e-05
3.33243742152308e-05
4.18591057388098e-06
4.84198264782231e-06
5.56686753593953e-06
5.22372244330312e-06
5.52682739818927e-06
1.08541690403345e-05
2.93919774709676e-05
4.81782538454941e-05
5.82550882090105e-05
3.29173814210295e-05
3.21428281204032e-06
1.29013390684713e-05
1.1509980409761e-05
7.15521234267767e-06
5.38220283924391e-06
6.35301903120435e-06
1.75607384556168e-05
4.2394355160184e-05
6.27852387201831e-05
5.46660605517584e-05
2.90506914076194e-05
2.66595782748374e-06
2.17302057387241e-05
1.13028028090549e-05
5.85317677727737e-06
5.55212646888546e-06
5.55005777552172e-06
1.46789580521526e-05
4.06799938854876e-05
5.90261261585693e-05
6.30438160324373e-05
6.69386200005612e-05
2.41635579620776e-05
2.03426102242825e-06
8.96425832183462e-06
5.39457485151272e-06
5.47200721153179e-06
6.25495563959504e-06
1.78172923898569e-05
4.45795184988107e-05
5.71971505257079e-05
7.16795254847995e-05
8.1608136786631e-05
6.05455303019535e-05
1.8687879075667e-05
1.41317469873217e-06
5.05892091538848e-06
5.2755640620442e-06
7.54007222015984e-06
2.29229217681681e-05
5.54196439715393e-05
7.48613681029995e-05
8.35929783581734e-05
9.14560300993371e-05
8.68807359648128e-05
4.89918170084585e-05
1.31996072630123e-05
8.37594010320694e-07
0.000106811878343301
7.73525989301623e-05
3.54039689347372e-05
8.30562272937397e-06
4.29478647077287e-07
0.000103904768798846
6.09876338314454e-05
2.31439189049795e-05
4.77171906505183e-06
2.37068310390128e-08
2.27961710611443e-08
4.33143295194806e-08
2.90118353207949e-06
7.43538447328298e-10
1.86482684494178e-09
2.11561080145509e-07
4.28039037045066e-09
8.71799757233214e-09
1.55113140834732e-08
2.44598544269395e-08
3.50677122586294e-08
4.53206235279483e-08
4.97324313315798e-08
5.87294834748853e-08
5.14924819825903e-08
5.75414178891394e-08
4.65240636883125e-08
3.90962450362737e-08
2.646211348954e-06
2.61454577666523e-05
2.83137174145118e-06
4.97000007940996e-05
1.86387186792271e-05
2.58205733680785e-06
2.92102426340932e-05
2.67474886126435e-05
1.45361531472917e-05
2.14971669811983e-06
1.82085164731436e-05
2.5433556136961e-05
1.81858858576203e-05
1.06487300635802e-05
6.03264147609655e-06
1.07122454835267e-05
1.02497002862899e-05
1.1377484743262e-05
6.3496707731261e-06
3.16455469394567e-06
3.65000258704099e-06
4.36249251305519e-06
1.38204852571547e-05
2.06544745744559e-05
1.18451602235563e-05
3.43281275763311e-06
3.66279955224108e-06
4.9205632721558e-06
1.70109326326572e-05
3.67369502868276e-05
3.18513479693018e-05
2.18379732430814e-05
4.23825313214761e-06
3.50864685782673e-06
2.22321974379175e-06
1.97794268413579e-06
3.50462699142292e-06
3.44315001271837e-06
5.82364591085087e-06
1.56342322852594e-05
3.7940639014766e-05
4.34787554361574e-05
3.26784106986066e-05
3.18867114736404e-05
4.23666968387071e-06
3.69539450782024e-06
3.52100661183995e-06
4.10574433807545e-06
8.55415582083256e-06
2.37851355487987e-05
4.3755148574786e-05
4.52732553405971e-05
4.95088270633691e-05
3.37288823923413e-05
3.54482353915148e-06
4.88245862105578e-06
4.94925818466238e-06
4.91053016578206e-06
4.96141958805052e-06
8.56401121946214e-06
2.12382525112659e-05
4.61056618481407e-05
6.51819680137709e-05
5.55229688985589e-05
3.11431823652765e-05
2.92516609666427e-06
1.23560014893925e-05
1.0439755918913e-05
7.59235574420555e-06
5.58017278765679e-06
5.20373038697705e-06
1.12229160602757e-05
3.5052793186463e-05
6.11460765644203e-05
6.58532428952551e-05
6.91451182504604e-05
2.71880590891083e-05
2.37774053861289e-06
2.02498599170705e-05
1.11393140928481e-05
6.15504277586253e-06
5.3736471112588e-06
4.86388623768174e-06
9.83108348761976e-06
3.27277884222729e-05
6.2860565645182e-05
7.15759764778252e-05
7.61658335554389e-05
6.43233170035485e-05
2.13922224024629e-05
1.70226945941458e-06
5.50803853603988e-06
5.13878594503833e-06
5.15203734928789e-06
1.24638891202582e-05
3.88068631254907e-05
6.89530441793735e-05
7.60266216662922e-05
8.55582010844082e-05
8.94974334205457e-05
5.21622224990753e-05
1.5071392791595e-05
1.06119831565139e-06
5.03442316649883e-06
6.1385517377044e-06
1.67007394164154e-05
4.9065420103247e-05
8.43800025489166e-05
9.01219227768355e-05
9.45273911061113e-05
0.000100610093997318
7.8563308731022e-05
3.72519557044131e-05
9.49092076028033e-06
5.56903946311177e-07
0.000102318335177409
6.09684536702767e-05
2.37083664658249e-05
5.22159104319194e-06
2.47898930275912e-07
8.82877828027791e-05
4.14768750102582e-05
1.33026482709466e-05
2.46979481023088e-06
2.02830645164531e-08
2.35513811113699e-08
2.67112045879818e-08
2.32878277901906e-10
8.24684878213212e-10
9.75306388890066e-08
2.2978706322712e-09
5.2859536438404e-09
1.0405588129857e-08
1.7470070459551e-08
2.55690702418822e-08
3.36621041772142e-08
3.74008121069057e-08
3.9160009552237e-08
3.75568391638685e-08
4.05607916250612e-08
3.85648925710781e-08
3.48681689600776e-08
3.03791301255102e-08
2.9443628080282e-06
2.82053798610481e-05
2.67248786362015e-06
6.9561033356023e-05
2.56592001025535e-05
3.15768923814589e-06
6.45324497702306e-05
5.13369612011708e-05
2.19372187649554e-05
2.96523207528859e-06
2.99583334941807e-05
3.98189537446733e-05
3.82738446805138e-05
1.62156381920415e-05
2.95123977286913e-06
1.76079661334606e-05
3.77053668691183e-05
2.77355208999248e-05
3.13604354752475e-05
1.49568608405426e-05
5.64312695929539e-06
1.26103817603728e-05
1.78296109620571e-05
2.9705454557601e-05
2.69127520396448e-05
1.57768158592374e-05
3.0056133146766e-06
3.82100952589831e-06
6.31193011589637e-06
2.17277253337428e-05
3.99292710791963e-05
3.78681420434553e-05
2.36796948773787e-05
3.33295701233491e-06
3.62106734993087e-06
5.48506759611054e-06
1.98011200864156e-05
4.91022241102198e-05
5.3659241608721e-05
4.2537538054255e-05
3.01977376598624e-05
3.88535376106446e-06
3.75378335780836e-06
3.52599270362432e-06
3.11979350072118e-06
3.54535196535879e-06
3.33129754046966e-06
5.17913902741115e-06
1.47523112905588e-05
3.77998659710581e-05
5.75770651745926e-05
4.14960563571846e-05
4.59078464482085e-05
3.31681698545455e-05
3.70465911142059e-06
4.03425975147826e-06
3.45606993219689e-06
3.68974194936006e-06
6.97606766478556e-06
1.96992495424712e-05
3.99195260012096e-05
4.96423571416942e-05
5.78643572124031e-05
5.39027939103033e-05
3.20519858739404e-05
3.24741894268402e-06
4.96705936054087e-06
4.4770721198553e-06
4.42586472363075e-06
4.46634549385126e-06
6.80276515331935e-06
1.481401699498e-05
3.92161732341363e-05
6.42822246959268e-05
6.83010098951411e-05
6.59215999111707e-05
2.88144590767184e-05
2.62785718627682e-06
1.26721817875628e-05
8.95790637127937e-06
7.48972084537544e-06
5.79924408019136e-06
4.84863328754182e-06
7.56018090995654e-06
2.51591904624717e-05
5.64525436925859e-05
8.20786328174544e-05
7.16918101253539e-05
6.76001682808081e-05
2.314935446617e-05
1.92679392679946e-06
1.86657613581655e-05
1.09408768625908e-05
6.40425812307134e-06
5.39537963140899e-06
4.78512094419488e-06
6.62531603220333e-06
2.56698608330342e-05
5.9502461182815e-05
8.09169487747647e-05
8.09971472746231e-05
9.3293308041872e-05
5.54504098915226e-05
1.66123938041198e-05
1.26300626315762e-06
5.06754909906768e-06
4.92779868464803e-06
9.22161431375311e-06
3.31159191013888e-05
7.07293952917586e-05
8.1018371140864e-05
9.08538883404308e-05
9.63511910059812e-05
8.18797901745326e-05
3.97710124697015e-05
1.06419717072165e-05
7.06838925882284e-07
5.86136494310256e-06
1.26629184851136e-05
4.26831168808874e-05
8.25896731972104e-05
0.000101857891349531
9.91316871165771e-05
0.000101173082110176
0.000103311798767176
6.26210420863631e-05
2.5019812801288e-05
5.88332008672232e-06
3.17634756360109e-07
8.74703238570671e-05
4.17458773080438e-05
1.36832692185665e-05
2.6783248135245e-06
1.10369178725228e-07
6.43797893407934e-05
2.37956376808459e-05
6.28435020606532e-06
9.21966107334076e-07
2.05900100690502e-08
2.05977637594718e-08
2.56435074241473e-08
4.0232600680406e-11
2.49994477690843e-10
2.85563913106522e-08
9.99181925643176e-10
2.89138172861276e-09
6.55592057996755e-09
1.21022374588174e-08
1.89996495655306e-08
2.62240795553135e-08
3.11852106057408e-08
3.20800550757428e-08
3.17294030955622e-08
3.15741812308387e-08
3.30589061133351e-08
3.39244416079932e-08
3.11949963222038e-08
2.89404928035232e-08
2.97684806918166e-06
3.14991174002703e-05
2.91031971431078e-06
8.14331098973701e-05
2.77580512293369e-05
3.03611235874661e-06
9.50999088472465e-05
6.91629082461947e-05
2.75221380396564e-05
3.4285165089261e-06
6.0696069192542e-05
6.46331094306831e-05
5.93844342617421e-05
2.49897631337023e-05
3.35679036273892e-06
4.53194961397031e-05
4.32841014163387e-05
5.53163164465535e-05
4.88770039628053e-05
2.28892575725754e-05
3.40489478969983e-06
1.36128115099818e-05
4.05825374558629e-05
3.95255096729316e-05
5.39914712513017e-05
4.68559592657099e-05
2.40647566275132e-05
4.86677888506962e-06
1.2383885586106e-05
2.32466641593626e-05
4.54542531549487e-05
4.56703154434256e-05
4.98856916190363e-05
2.64957114901627e-05
2.85866734732389e-06
3.73354813922854e-06
7.7624202186647e-06
2.62669691493227e-05
5.47714297417642e-05
5.49066298539627e-05
6.02620770134599e-05
2.95305617784079e-05
3.33260773882731e-06
3.57747721817163e-06
5.51663574159623e-06
1.98013166198282e-05
5.11650826416376e-05
7.13835679103987e-05
5.14925218997854e-05
5.75921142235419e-05
3.19955563072013e-05
3.53501391295454e-06
3.48122127521356e-06
3.32471236288436e-06
3.28016664237613e-06
3.86202597013069e-06
3.33540040673716e-06
4.40127449341754e-06
1.29427660515358e-05
3.39220690578221e-05
5.73405305967092e-05
4.85855155171555e-05
5.10442432864993e-05