/*--------------------------------*- C++ -*----------------------------------*\
  =========                 |
  \\      /  F ield         | OpenFOAM: The Open Source CFD Toolbox
   \\    /   O peration     | Website:  https://openfoam.org
    \\  /    A nd           | Version:  12
     \\/     M anipulation  |
\*---------------------------------------------------------------------------*/
/*   Windows 32 and 64 bit porting by blueCAPE: http://www.bluecape.com.pt   *\
|  Based on Windows porting (2.0.x v4) by Symscape: http://www.symscape.com   |
\*---------------------------------------------------------------------------*/
FoamFile
{
    format      ascii;
    class       volScalarField;
    location    "800";
    object      omega;
}
// * * * * * * * * * * * * * * * * * * * * * * * * * * * * * * * * * * * * * //

dimensions      [0 0 -1 0 0 0 0];

internalField   nonuniform List<scalar> 
10107
(
5.27003482348185
7.27825328304519
2.70418445669186
5.96826009719384
4.14927083928547
2.55662666049522
9.14053124380136
2.48729908201126
4.77937250429143
4.96807525264754
3.78036264211066
1.72296249805523
4.66904877017909
1.55157762227314
2.44515499494486
9.18162026892896
5.67903352404494
1.41432740514405
2.01547005451622
4.46056168027108
6.40200929939755
4.02039341823336
3.20971501300137
5.00009492011089
3.02470253982677
4.07665577109734
0.692647159848952
1.56954395325327
1.08359221491383
5.09571296103964
0.19748215245139
0.860747675623823
1.30061562188753
1.87050588325777
3.30374461069543
4.43089718798029
2.33344936990178
2.97438303585181
5.63138102071749
0.279586863428444
1.25406525943073
1.06202987237261
1.70656745405787
2.50406307848651
2.03135892870082
3.99994469161313
6.59396734768589
3.87403580426685
5.92063151292002
5.95248019318422
3.74822515123099
4.54723869844334
0.570824616196308
0.841477907496604
0.134328522239758
0.539331500286548
0.869411814311306
3.95312183062866
0.654829470515948
0.313311533372369
0.844837248099335
2.50949950195135
4.75759480946997
4.41110540376318
1.81824442397076
3.8849559005737
5.52223721165498
0.776180694516503
0.468370105155734
0.59873564958191
1.13591477994507
1.11630256532458
1.08407939978406
1.6454739382015
2.01722915164493
1.51743304151823
3.22470334075538
3.48300985323207
6.3463307882379
5.88734938694861
4.21125316065085
0.435676675936608
0.104607750340389
0.0310469889396233
0.416198120626978
0.118604642720401
0.381549793658244
3.45560940552646
1.91282712938788
0.704187502075938
0.797564354764975
3.17815925430089
5.16228597672177
1.98042570233825
4.4438557929623
4.52755619818415
2.23968348488596
1.04329032351688
1.02600679987207
0.719048360080718
0.948880649553921
1.00091618457121
1.14177563191203
1.05775401265167
1.13275829017969
2.07558987882159
1.67599802288215
1.73065903678897
1.26920470106225
1.48970465761852
3.66630328696804
0.144523663626135
0.0291258638225701
0.157943246058018
1.45007587871744
0.372328571078766
0.238297089186084
3.31782161675668
1.82575157552446
0.798917725027995
1.03104957363252
2.98769745909496
3.26468592581607
1.61545745797009
5.23596345843017
4.50823200270357
1.67696221516959
2.53250383135884
1.07173983105613
1.36225650270814
1.31651921728722
1.37008415580154
0.993523414490225
1.32990832569095
1.11893826104849
2.48120280927875
1.21511513059687
1.01411513861525
1.0185325513002
1.38399307707186
1.74218942152991
1.54847792488517
0.952091953766595
1.05535667822377
1.19790353450226
3.39149407407109
0.0745587446719633
0.148875939882434
0.826698049378694
1.56098312656833
0.485623417562496
0.321565407966475
3.27878063814882
1.62018690634922
1.92137580014283
2.45428704082568
2.9682566388506
3.00569648010294
1.25924001275943
3.29539497570583
5.25714597072873
4.50893437524619
1.42405676218208
1.51514731418327
1.90187927908116
2.60118639015609
1.21527330188874
2.69729585382123
1.54763671017967
1.50032855236412
1.82172060595636
2.66764930427872
1.17554856688605
1.5572610861352
1.21784930787785
1.72910162469667
2.02849696158926
1.04361354377716
0.825701319687272
0.992365680309965
1.1973952035442
1.37956170938665
0.765459134646865
0.696869950382653
0.764140273237118
0.859569994065528
3.2805200044547
0.0923459479666753
0.264884026187973
1.76186769817728
1.66389839610312
1.79020211318854
1.47082639569821
3.25698095035996
1.47654320268813
1.98361430550542
2.54891917842757
2.97852550755558
2.9707097236313
0.992605396639599
3.0171940487117
3.30684481874429
5.26186321824533
4.53678670404781
1.3993670757102
1.23747617959806
1.56948312680312
1.53062565569677
1.92753721261443
2.17876405418932
2.57476421697104
1.35607745835474
2.99796141389557
2.69216237584405
1.60769215770684
1.60229546188507
2.14461137889752
2.01438782316968
2.12843473556034
1.24551158832234
1.67109518334915
1.25373168437741
1.18864189809322
1.4183189337552
1.59824395584591
0.722013298128607
0.655573964632202
0.789407790074793
0.926069695175507
1.09377398386649
0.542931809131937
0.496528622108609
0.519992984172858
0.587090286978475
3.23734644487135
0.852156668186983
1.29315210016256
1.65700985863851
1.49926625878372
1.83137589172146
2.05387077822525
3.25879707512224
1.1298623512725
1.9425349601793
2.72656944865865
2.98931009642749
2.97739378968851
0.811213061305278
2.9733751092887
3.02366096824299
3.31550065235858
5.31432902124554
4.54468513030997
1.13795526551616
1.26520142030236
1.49019739292493
1.12651266721946
1.34002853624809
1.84716679374761
1.42092142608044
1.96236224764394
1.91434368622907
2.44547813869957
2.54470593331959
1.48255177581626
3.08166910679625
2.0506908937646
1.94257727704728
1.61246272381788
1.63636996059808
2.24162109969872
1.32947917276403
1.49305952058341
1.64031692000338
1.23917960072365
1.70111179292664
1.30723731490878
0.772420910850456
0.888294657641483
1.08593912278129
1.24383611614821
0.515893236182889
0.511663693334738
0.583533012895064
0.66687614618205
0.879920083810188
0.413212379308616
0.360371431099835
0.34857681003401
0.393987507034001
3.22439968358239
1.40763800733224
1.82167229240763
1.68612540465719
0.952187746540497
1.79165407318737
2.39912514158645
3.27988146396991
1.40817415203
0.88462330661261
2.84927357528255
2.9971858613557
2.98788943717078
0.71469328326555
2.97718044401914
2.97614017048956
3.03024726371563
3.33163896088872
5.35602151296243
4.61092380035489
1.35673268739034
1.11034106601337
1.01056526497499
1.14123720150635
1.17574925572174
1.77978652893605
1.05056621782185
1.26657356907015
1.34004023911289
2.51936837716398
1.33913877338234
2.09754238941204
1.77598414049349
1.49339579556173
1.62231639539614
2.5260988028324
1.57076004533908
3.00758307023194
1.40552162999669
1.2529989356219
1.41273080366784
1.60183510747694
1.61378640546245
2.24878299870063
0.901305741007767
0.827479738186281
1.09151101558629
1.27842510918052
1.2059106798114
1.65113362496159
1.39875924108392
0.615674460633071
0.524463790570543
0.652179160385767
0.770982921926084
0.977596247333532
0.416230982048278
0.383888648781063
0.392554498011275
0.448533228284354
0.747451648002756
0.333024776964763
0.276470585845484
0.241748709724024
0.291660038371601
3.24998785049072
2.03296450839844
1.90688131643746
0.698334697723115
1.07952448148728
0.611354170323398
2.61989465033406
3.33405604383619
1.89910256860624
1.00981110664595
2.11789435199729
3.00278185522813
2.99613123920442
0.67484694492311
2.98711966570684
2.97798796838942
2.98011658958233
3.03916579930953
3.34928365706884
5.50343821068362
4.57673898216596
1.65953833255423
1.32261165779905
1.19001471944301
1.05740325530872
1.0833178047704
1.89717254635653
1.05797210595547
1.09167120453713
1.28283443143111
2.14643851280742
0.988296649781485
1.21872456942154
1.12414765238478
1.29557651269517
1.53249101526518
1.28194276223036
2.26136363468558
1.73963520784052
1.01867705999
0.870745999459374
1.08458809970764
2.5061355403596
1.62419852854881
2.90455600005941
1.05293579495747
0.669326399234957
0.790400324616763
1.10532035975599
1.58903758491162
1.55595682501077
2.24457657464014
0.785373424030592
0.486342456274118
0.588933085080952
0.761993768652302
1.02864163968788
1.16971838214512
1.55934167159677
1.5058204702073
0.625544653766629
0.403710503785768
0.395534234064226
0.427900538421335
0.500926692927596
0.805243117070464
0.33800721192339
0.281818641366544
0.254782489168589
0.312988085783982
0.682313265166349
0.284582799499894
0.225463728111848
0.185591832775621
0.250512846256438
3.30374280047492
2.49292339266477
0.319483277079719
0.708487879540654
1.4972631637099
0.721506568008358
1.63847559738133
3.41292537707422
3.07870875889917
1.31376558121737
0.913354392789578
3.00662897851038
3.00211845303373
0.653695482057767
2.99546430097443
2.98716598030766
2.98013082638813
2.98585620709538
3.05014928535692
3.38062081357103
5.69036198270097
3.8730490814397
1.83320595635637
1.43625657183446
1.7536640458577
1.26446940949098
1.29606402308066
1.14475738146594
1.03679246717707
1.11995813847907
1.71561969199053
2.10634900066493
1.0022328914006
1.06036483777588
1.09493431072783
1.18827198292889
1.32101446892441
0.925633618894872
1.2044971449491
1.08741916298342
0.880230197155203
0.822334186496732
0.821977426333246
1.22129460590988
2.34464819997375
1.76321185008762
0.876836569692514
0.531692998833744
0.50878013990121
0.82207953088282
2.44031443127403
1.68004826840507
2.81958264382025
0.97641259273938
0.461492633784552
0.41651506104571
0.523191904119178
0.938060544736139
1.57298828188188
1.50060207251708
2.23671181174508
0.817865898995991
0.408380131811042
0.354951560096121
0.384514557132684
0.482381389591701
0.848377418050923
1.14254699797955
1.44988196798635
1.60513237190798
0.724933228710752
0.410748912192736
0.334200626002694
0.283983281098422
0.262340609795508
0.330092045777374
0.707633426071802
0.276719710751083
0.219528633049087
0.185391590474089
0.25433323769552
0.647479374589482
0.247087936487468
0.187592727011179
0.153654719987136
0.229277268778396
3.4326741234752
0.88433401089378
0.379537728657241
1.00786957762201
2.51310024892921
0.454689203073492
0.415057253836907
3.40587309548597
5.56935632745119
2.96800662017695
1.39126373422884
1.27172465542794
3.00810733057151
3.00625796220537
0.62571854074543
3.00167241210895
2.99530713291871
2.98821163596928
2.983660754701
2.99267318976685
3.06124431078117
3.41224625226103
5.97442220864581
3.31903464970527
1.5392328317623
1.31163654021941
2.58411598148095
1.32089679762867
1.68782426321139
3.10024135533619
1.87584494067993
1.2093597278435
1.32831465580085
1.19873994854795
1.35186907052044
2.61442832329066
1.01305878851033
1.15289835142151
1.53681604100676
1.54270196324243
1.40641046329769
0.945785974488486
1.04442008428418
0.994458443489732
0.808124988583112
0.747212930014004
0.696591538842413
0.85499566282707
1.16774832816342
1.11179024948844
0.751865613814268
0.519319709028488
0.410589873362249
0.664718773388258
1.15678405603994
2.33214994185719
1.80799634881184
0.882683968624329
0.447341455072541
0.320825684765092
0.33973728946962
0.80893905253407
2.30955819059691
1.7774929079063
2.72296859018252
1.02907271942881
0.447772263903416
0.30882533373744
0.280085519598503
0.367129968504596
0.801461532290683
1.54133004617658
1.46554379545843
2.18947004877787
0.932803279187463
0.44547761642906
0.323332972869744
0.26411835774466
0.244823166391882
0.316407489479993
0.728689907690288
1.12283109642644
1.35284972852376
1.66222175038713
0.877609431233985
0.468718515852226
0.354902488063538
0.274751438561085
0.213300293249123
0.18305524641882
0.255986017230758
0.646230901758965
0.236109914978527
0.181512093144144
0.151035779661164
0.224773518182928
0.611703481902933
0.210397347268244
0.153330428946323
0.132734941072948
0.210418802297238
3.72831592294191
0.184791259398178
0.182038843715968
2.48482453400255
2.59455446050988
0.860354102388425
3.79398833320395
4.20862058821044
7.04583862283236
4.42545133364611
1.79762732026187
0.899510197502631
3.42021287674709
1.54164026511852
2.53252034373793
3.00479489861237
3.00792242084241
0.591790968119742
3.00600077155068
3.00151221660038
2.9957712188442
2.99022837485353
2.98795959616821
2.9985502999755
3.06971332369608
3.45241325094409
5.3751916532156
0.977982808711507
1.01246482000533
1.01327184026588
1.10045416850832
1.61324401108333
1.54273155899265
4.05049597660221
2.76527291431797
1.26261565726711
1.61197646203591
1.70599621963143
2.96467903172911
1.87989797232913
2.0146395294484
2.92856115156231
1.15449596541192
1.29249528696315
1.20266641920711
1.83970132535103
1.58290290258271
2.36775104689609
1.70935723337622
2.52297344263571
0.971918775093844
1.13562861623401
1.30664684987304
1.07922941759386
0.933258614749236
0.832308731109668
0.884140760973065
1.01263647535834
0.959797187022551
0.639717909573871
0.461140291473846
0.402840762421833
0.558733432329162
0.779329053832718
1.0969116272809
1.11928209905443
0.759475986722373
0.446721410624041
0.299274210272276
0.282647562971597
0.695637343572435
1.11473296147221
2.22484647016547
1.83018833306906
0.937581702011166
0.479322465910764
0.299130932787119
0.224600811196086
0.281068678679428
0.718365216174089
2.12321715193432
1.88950446414617
2.53882994391573
1.21071131389523
0.503789634353819
0.332257703763449
0.235620724415409
0.209690371537742
0.274804350979149
0.695194190898299
1.47936024582751
1.44504023466567
2.06977228580216
1.11470268296553
0.524153722741839
0.366930404308883
0.269466280029205
0.20888996590727
0.176273991810291
0.24611630251438
0.641466618343438
1.11042571584239
1.28359151298836
1.64886082937204
1.05664256088779
0.556015745123992
0.400076102223641
0.304851456344031
0.228000791895853
0.174488669721181
0.147128283990745
0.216467360457205
0.592375145264155
0.201214280359872
0.149325197268362
0.129486385140535
0.201691645950868
0.573773330633108
0.173044420195369
0.126091765360272
0.120154647068882
0.192716381862155
4.29884457005381
0.38838187204151
2.72809925177456
3.11198871262333
3.31322299288818
4.42817052605534
4.89885632165427
4.72110659296529
3.42351601605606
2.83985291803757
2.99553684740839
3.00471274591505
0.564397650912493
3.00779187168594
3.00589047425553
3.00169655307656
2.99682921125701
2.99279902052904
2.99153466492761
3.00051719804159
3.06794005574955
3.47183702090853
3.15914725847201
0.7600493959864
0.592965161320756
1.01274387584984
0.770837124055475
0.898723430128372
0.922537903490802
1.27393088086616
0.916945998249494
1.17303613249271
0.990086165007316
1.32182435006433
1.9516099634672
1.48940646848838
1.57055635894097
1.20768744926884
1.50107363341421
1.54413259938188
1.6426354016449
1.31380644930811
3.03177672463637
3.30457007922752
3.95294934328322
1.08744996953254
1.23710393143165
1.18859907134275
1.35892080533957
1.16173577865651
2.846096934735
1.02923492741147
1.56967549901257
2.32572887784952
0.922061607324051
1.09093682297462
1.15353035868867
0.772876041236321
0.511195250294103
0.477796675916728
0.566975865746595
0.824873211118825
0.965907224537759
0.941292900574226
0.635817721033357
0.349609153710973
0.294599371608039
0.275365765181029
0.556535873253538
0.723024406641913
0.996478505423168
1.08719750538759
0.815281633506808
0.487434830441846
0.285141965505705
0.211223693402119
0.244395932491761
0.66959065662285
1.07200915253285
2.00387308768358
1.83848191191803
1.04366980142175
0.543476274097302
0.348505951595218
0.220177295081506
0.189208275142113
0.235489919273953
0.646754966315954
1.91454432547908
1.93305712678322
2.33037098600564
1.42322040152252
0.592808459982949
0.405092671941082
0.25794676235642
0.20122025156445
0.167907671537314
0.222763151794284
0.611508807583845
1.39710989233582
1.4240982471486
1.91635608782364
1.31869968452836
0.631402181226286
0.43523462866158
0.305363400133686
0.225082065371476
0.171739403061826
0.142797154733004
0.203647806700296
0.57050707714911
1.23118160649238
1.57074335434183
1.21288645821857
0.665761869149225
0.461036424983408
0.342552527381006
0.252848921487636
0.191339773067483
0.144444369258661
0.125299560027192
0.188099019986166
0.545740952582608
0.166729758267282
0.12338379727003
0.116677162233269
0.182071626687633
0.54660996672073
0.139924768042229
0.109128751163306
0.116440704744693
0.182680406032818
3.21328140612594
3.17793968532096
3.37837639929875
3.93442892991065
4.11610952946828
4.54864804179786
2.988404427218
2.99550403396536
0.539176126752214
3.00465407972314
3.00772716149031
3.00595457031049
3.00220125851827
2.99824734783479
2.99498859480117
2.99234658532949
2.99605448464726
3.0373867508719
3.22309604519668
3.70123266792263
0.557964590585519
0.3292499314908
0.751970976136265
0.398465735475573
0.525983663912804
0.808687474105402
0.625773198359954
0.641576726123632
0.902693551576471
0.983191108069575
1.29496309971438
1.1190283362977
0.93435449851772
1.09706421975057
1.50603656696924
1.42240331847611
3.04660127511535
1.15884508765062
1.36401381935189
1.38595688329281
1.22018487273039
1.00297025051762
1.11398052744704
1.38568978217856
3.63749143223996
1.00699272361516
1.18662537087702
1.13362755295018
0.98315706296288
0.569164097703243
0.563302986747669
0.601529036013757
0.946557541990901
1.48638573675436
1.39459948305852
0.869886762063821
1.04089264824129
1.08134397268383
0.658212970238368
0.346847051017778
0.311967935056102
0.294614505279037
0.51755235840236
0.77786050865077
0.91261121393292
0.913373771418907
0.686443320222861
0.348143032431285
0.256356935888915
0.217619428974892
0.225342672992445
0.582646186375421
0.713983916352748
0.882746434895888
1.02202285767718
0.855649425226872
0.560192236157152
0.32049706683598
0.213207339049998
0.179805600762455
0.216626632302381
0.61784454778867
0.991864206840382
1.68643839949671
1.81995567741074
1.15404355783393
0.647593559398816
0.424655138885438
0.252923807686605
0.190526864038481
0.16253585764511
0.203211105387079
0.572735943645627
1.70691289553091
1.87825205897291
2.13928791187424
1.53397204766724
0.715304141540914
0.485467530607764
0.306600417687531
0.218640692117709
0.16996883084331
0.139006563862783
0.187076877704873
0.539508817620159
1.38178608493005
1.76319990960783
1.45078096460033
0.769701864367187
0.514008623140796
0.35489755538297
0.24913128019345
0.18645556634722
0.142146478301889
0.121593747502565
0.174403983625861
0.5161294444152
1.46888712111809
1.31501976493123
0.788404230351998
0.529762706195966
0.387497879260292
0.279638865937087
0.211741736227663
0.159372212874415
0.119850416252876
0.112833185848592
0.169281814103196
0.515039347118583
0.135408069789196
0.106960150438627
0.113648988214803
0.174239641870671
0.523436541970704
0.114520719159221
0.104197608737677
0.123493487028926
0.183090307394224
3.06240844532914
3.19263853277925
3.23591728226173
1.10893995078537
3.00012317284131
2.98838951838587
0.517294403832214
2.99548065381921
3.00461954795575
3.00774703696448
3.00617033780488
3.00291439194283
2.99951570782702
2.99563074578356
2.98890831186384
2.98298480138562
2.99445812932044
3.06772242194462
3.19237385003994
0.585144923975047
0.24025392114245
0.591431809249115
0.206553234442123
0.327527918008191
0.687435867638481
0.294040815247008
0.341037810829645
0.443010618705056
0.857896973771413
0.557774683053543
0.471237626649548
0.543071569830961
0.652757464015795
0.907544440057815
0.947359510003229
1.11478765912037
0.758772895879889
0.80159900786866
1.11807469468885
1.26652350109125
1.23916665208894
0.937800200679566
0.511459372054718
0.502688370790928
0.922890020597319
1.15995275870113
1.08604126532501
0.830129779560845
0.354086806341597
0.30955309794954
0.293168958035129
0.51306687843275
0.572964262145985
0.828508274423807
0.899099306405081
0.828773844022591
0.997188959441282
1.04911217332677
0.660930510772588
0.309391643496456
0.250694329724839
0.225458859371174
0.223189471537592
0.519420778705567
0.771878370224879
0.863227608448083
0.879873571807532
0.752174364759374
0.398175304586267
0.255199240895158
0.21152861779867
0.17834529299163
0.203078555438277
0.553769904931073
0.722766013400839
0.793222668571692
0.925763024431964
0.855591335492453
0.626758618001855
0.394532679561555
0.240494589125515
0.183668909654317
0.157128272801313
0.19200238801296
0.540895191103424
0.898622501025045
1.32205791881745
1.71076457921478
1.23531831452736
0.764941051380913
0.503410105172201
0.311993849304374
0.209644049041123
0.166489847894539
0.135667901123293
0.174965324050241
0.506386502955712
1.52297692903141
1.73080605445025
1.95139274374011
1.55325568012137
0.891700257674976
0.561255303095018
0.375324549868514
0.246167015786976
0.183349202698092
0.140660548335809
0.118397333622855
0.164447412010861
0.489924005499676
1.61207769103925
1.46908540410621
0.911487621499685
0.597650584727222
0.416314898888989
0.277914493340547
0.203756551115495
0.155226351051022
0.117473323690018
0.110033844439614
0.162193884130012
0.486297269403974
1.31705334649114
0.89921040612816
0.584233311763151
0.432401947336165
0.308598322507088
0.233083540013551
0.176897358321602
0.129914395102193
0.104160514865979
0.110917537619531
0.167360814488311
0.495567681898209
0.111401366217924
0.102181960657462
0.121159939949873
0.178732619886148
0.506628086038357
0.101614763098008
0.111664602005175
0.14028416817281
0.194761584598444
3.03904660161857
3.08705306668659
3.12147597404275
3.03227789416475
3.00011815589781
0.515153427536288
2.98838524891312
2.99546486959106
3.00462601301671
3.00783005496708
3.00649472784376
3.00358748310247
3.00002743082254
2.99406506223786
2.98244609025947
2.96917431186883
2.97409970003325
3.02400297030466
3.03888528969574
0.528889043221622
0.216668354602216
0.591362216743593
0.154155406743284
0.24753070277143
0.575264258452105
0.174236097790142
0.205931491582171
0.296450520212704
0.63784235195594
0.280234450839954
0.257327803760203
0.281133913390633
0.385482696960421
0.640113919600816
0.568983554509085
0.408183928456247
0.378668470061581
0.357524345938382
0.414639468399005
0.890748493657858
0.885775494024846
0.8519085801958
0.479232912932044
0.390933354809831
0.387664304742952
1.085012480542
1.21084326596826
1.12732570442262
0.77973430276357
0.327668474558922
0.271703201652132
0.266551298109567
0.876189061685748
1.14530854613183
1.06485701604429
0.788959797112039
0.306248571732143
0.235707577436587
0.206373163577908
0.220418563323421
0.507634571531676
0.519324967686516
0.55271378507099
0.615713077878381
0.809312035319422
0.968375519123518
1.02962378430321
0.721769016711047
0.32622397978232
0.239631161784859
0.210252970307967
0.175413257650409
0.1946453809561
0.500789522808302
0.804747891334098
0.833513221521857
0.848997162755319
0.786978751656003
0.472132728353981
0.282109929150325
0.222045324986782
0.18232614641494
0.15122849755298
0.181075562059892
0.498526738184921
0.665939576758192
0.747622536451582
0.821162489112194
0.815594513971469
0.670439084039419
0.469124957451354
0.287003741595575
0.201400387654149
0.162213877549143
0.131864706513457
0.168209747823398
0.486414294377897
0.797589421625736
1.00515847168751
1.43962202312156
1.22957852709526
0.853321425250536
0.580460106410143
0.386700625012688
0.243109616507988
0.179175820239439
0.138803069382149
0.115546787133533
0.160326291869754
0.476621591604431
1.35388582539768
1.5523027662564
1.73970671627515
1.49649092791152
1.00616650941363
0.652918421215083
0.457423063795717
0.283469368018581
0.198818983022638
0.15301109579907
0.115158236556985
0.107863119145552
0.159160101687039
0.471172305918941
1.40846628174178
1.01372291673627
0.661716832484397
0.479218728295677
0.309084251872239
0.222375068603408
0.169481995537739
0.126687870463564
0.101858931026688
0.109085532732248
0.16430542906166
0.472732211167429
0.984556842080597
0.632651365447835
0.471077227157839
0.337822480832799
0.254688871245401
0.194733621746987
0.143859549428702
0.107336384549714
0.0997957702494834
0.119274464304627
0.175931896427166
0.486797161005059
0.0995114710160024
0.10956574785549
0.138808977080945
0.194086097545423
0.511588329273774
0.104141645008721
0.132694404877555
0.168418175775336
0.224973162545946
3.02364345326162
3.05835341538442
3.05253662388946
3.04960403194021
3.03226513676743
0.564488519533939
3.00013713898965
2.98838045979743
2.99546907768607
3.00465558655069
3.00796249508925
3.00681645249182
3.00394051422881
2.9994762954023
2.99109566163266
2.97751918913836
2.96596245573261
2.97354362953806
2.99246932825524
3.00427773299478
0.504231328189302
0.189680796153796
0.538497745375788
0.129209686735147
0.220513873971939
0.563815917734674
0.132863396696233
0.155385396512927
0.237713762306361
0.558900934951788
0.177192121742827
0.172031406315598
0.187506501668267
0.267026421742049
0.579461544089784
0.308344485016736
0.236336279123126
0.218113391738715
0.227080578215844
0.287922169179808
0.572394854586255
0.611720767916853
0.423636565506487
0.311663110895257
0.252845788433865
0.239093379293095
0.274142805994309
0.875929180946207
0.88195108271352
0.734591348307481
0.395128484050183
0.262758192979668
0.22001874065937
0.244728734759361
1.05509855969735
1.18616102661939
1.0798359579434
0.713226079455222
0.285415295950297
0.210775846231917
0.178362197989634
0.215077051679142
0.852045927834139
1.14615286060184
1.06064383048884
0.803146528510507
0.316471402248509
0.22691480114039
0.191636136478177
0.161326414859587
0.191153823062197
0.489089467155841
0.517983562234347
0.549213204872918
0.572650112007447
0.838312238366166
0.957628636462444
1.01255905932504
0.798728447316762
0.375567900182506
0.24854028793834
0.213810172167909
0.176508954410366
0.143263884595987
0.173711102246596
0.481992223711051
0.7811339790976
0.843798410764607
0.830703922464607
0.802723427170637
0.558722988691677
0.329660711646312
0.240839791372379
0.196957783262318
0.15736991440447
0.126266278556572
0.1634305090757
0.477440311607522
0.551823543775031
0.735878259780342
0.748548762051698
0.764161320670679
0.683369526171572
0.528805500770653
0.356984199367222
0.22933239416799
0.175860809491417
0.13536564887813
0.112920719323491
0.158401593775949
0.474350129053113
0.777899656897363
0.873086309472896
1.09766185387923
1.11209000165481
0.877325252274099
0.652202295442064
0.479000232796706
0.292888400929238
0.194038517236791
0.151091013396174
0.112494931564435
0.106416482753878
0.15842761586233
0.46886516417403
1.20285780469534
1.36873590126677
1.52412318696521
1.37083597998588
1.02215496115534
0.726682313366241
0.539049070348212
0.325178166084103
0.216195125429553
0.165257558913631
0.124137736120287
0.0996432037859197
0.108082719276978
0.163540559092609
0.466834453904874
1.03292932293069
0.709659059504058
0.525083843102669
0.339038407334347
0.241287729383122
0.183785995896169
0.138707960910303
0.104412840604541
0.0978218934674967
0.118286256160966
0.174684169845835
0.472747671036034
0.688456986253336
0.494722730771044
0.366233384154466
0.276221761078499
0.212365225787887
0.158375967977867
0.115792375888102
0.0965442907721968
0.107317677319345
0.137860123007953
0.193587375923101
0.500491440132102
0.102061991697997
0.13055448055633
0.168468389227449
0.227159744427798
0.569301249658332
0.123926546694013
0.170848970905201
0.21474259113587
0.308529674946395
3.02471770644669
3.05020418506065
3.03429078017122
3.73006693002183
3.04959415554777
0.845641609147659
3.03228292887633
3.00012142561296
2.98838437108533
2.99547885057045
3.00470379617671
3.00809964913782
3.00701746144821
3.00383444881016
2.9982515987981
2.98890124898374
2.97806516607392
2.97319974693783
2.97806331878807
2.9822999625052
2.99773181936069
0.496551537921568
0.172953591199204
0.508730485627499
0.110640448806046
0.192343582353006
0.52595193495135
0.106751875838341
0.129876859874723
0.211844331670792
0.544895022083391
0.135586452541436
0.131622397769719
0.146971533278651
0.2239716103703
0.54966985607635
0.19418035301789
0.172530101235763
0.157975238716683
0.166092353560384
0.235447854210338
0.564375183549302
0.359659584305929
0.252699444938668
0.207147005830794
0.183206003677571
0.178731281777988
0.236703226825613
0.559647186288958
0.651439111517061
0.481057196474297
0.306116967149988
0.234567431307081
0.191741956140785
0.173154238000529
0.227174050341139
0.861857460884442
0.901508777132627
0.723791893853697
0.38782638627331
0.240289596663868
0.180976816087231
0.158213586677702
0.210419547955992
1.0281086907095
1.16964664803509
1.06725183917067
0.720622909396282
0.293705837693678
0.208969055047282
0.164658620569075
0.144445753927931
0.189680604927494
0.855875032956421
1.16047778968567
1.0612731075166
0.862060439007305
0.354301872171913
0.238593037233228
0.198541666219724
0.158867457049406
0.132419052730882
0.170449566103763
0.480321580886532
0.491056643042758
0.520246262336624
0.542466847344044
0.895450040021551
0.974574427628164
0.999757859845873
0.868093521193188
0.460055979857198
0.270427198768276
0.223993348538645
0.18914884778689
0.146017260910883
0.119757368919423
0.160680766741891
0.472960010938205
0.645543639818068
0.884388614261143
0.832798504538035
0.812097200735258
0.628074410983556
0.387371075511162
0.268935362204387
0.215758291295663
0.172803067288948
0.128727736829534
0.109877261377233
0.157450039393856
0.472365379265038
0.558967287960638
0.738710087517339
0.720579062617011
0.726975187079995
0.682826809435695
0.573476154432869
0.433672528686728
0.272184886438549
0.19096045664427
0.148401652090571
0.109193565856239
0.105437723368561
0.159048346584024
0.469555047259904
0.766505977292764
0.854766070790203
0.887289549050521
0.935861747058024
0.832602295725088
0.692741177462358
0.559068141757399
0.353712855752537
0.211339725838518
0.162351960606743
0.121384418121189
0.0975616404916327
0.107864201514945
0.164543742738627
0.465812571765888
1.03393621360887
1.20644882190479
1.32970502229736
1.22565759280786
0.967285918679631
0.741253569480905
0.591651520336698
0.362628666092867
0.234182504756673
0.176916332547132
0.13523687787618
0.101685894132585
0.0962215100055088
0.118207185213688
0.175285638773075
0.469623564114107
0.719409566955309
0.529079216188183
0.364116538712307
0.259597231328548
0.198065185801343
0.150744028663656
0.111652749643877
0.0941717349444453
0.105703472626259
0.137708332624268
0.193951680909034
0.490361719375739
0.520726191854519
0.394533521205805
0.297811226071857
0.229340271290746
0.172564984320532
0.125414236389375
0.0974611864024902
0.0992479827397527
0.12833648616563
0.168843612224877
0.22896140650381
0.570254977213625
0.121381427781292