/*--------------------------------*- C++ -*----------------------------------*\
  =========                 |
  \\      /  F ield         | OpenFOAM: The Open Source CFD Toolbox
   \\    /   O peration     | Website:  https://openfoam.org
    \\  /    A nd           | Version:  12
     \\/     M anipulation  |
\*---------------------------------------------------------------------------*/
/*   Windows 32 and 64 bit porting by blueCAPE: http://www.bluecape.com.pt   *\
|  Based on Windows porting (2.0.x v4) by Symscape: http://www.symscape.com   |
\*---------------------------------------------------------------------------*/
FoamFile
{
    format      ascii;
    class       volScalarField;
    location    "800";
    object      p;
}
// * * * * * * * * * * * * * * * * * * * * * * * * * * * * * * * * * * * * * //

dimensions      [0 2 -2 0 0 0 0];

internalField   nonuniform List<scalar> 
10107
(
83333.3302822917
83333.3310599701
83333.3303709005
83333.3302033173
83333.3312148799
83333.3309683559
83333.3311939367
83333.3305697665
83333.3300137861
83333.3300454147
83333.3323015167
83333.3320503952
83333.3314071796
83333.3309333999
83333.330866213
83333.3308644605
83333.3310749318
83333.330366431
83333.3298860932
83333.3304791779
83333.3300418135
83333.3296161695
83333.3296037719
83333.3301483755
83333.3297101943
83333.331876389
83333.3320992251
83333.3315695314
83333.3315014115
83333.3313957639
83333.3310188699
83333.3309129037
83333.3311980017
83333.3309541007
83333.330606392
83333.3305963876
83333.3308837516
83333.3310204897
83333.3306223526
83333.3303608004
83333.3299760735
83333.3303528911
83333.3292755492
83333.3300930793
83333.3301172715
83333.3304605897
83333.3304018635
83333.3298847451
83333.3296580313
83333.3308333085
83333.3296548471
83333.3322646721
83333.3320201156
83333.3313087461
83333.3315260352
83333.3313841701
83333.3313070093
83333.3311440907
83333.3311989457
83333.3309186465
83333.3309235973
83333.3307543244
83333.3301100909
83333.330612915
83333.3303392648
83333.3307179984
83333.3307789612
83333.3305461538
83333.3300641747
83333.3303260467
83333.3296980627
83333.3299889687
83333.3303661094
83333.3291875115
83333.3297100272
83333.3300027739
83333.3306849814
83333.3302315667
83333.3299239647
83333.3300671121
83333.3321899689
83333.3320765158
83333.3315115439
83333.3315779479
83333.3318240465
83333.3315170654
83333.3314633498
83333.3311714437
83333.3310199048
83333.3311978737
83333.3310667195
83333.3299822489
83333.3302285246
83333.330112391
83333.3311508843
83333.3306560717
83333.3305611005
83333.3302112395
83333.3305602014
83333.3299491186
83333.3300030318
83333.3305221666
83333.3296057041
83333.3297070046
83333.3300044752
83333.330165728
83333.3294956459
83333.3295773498
83333.3297994123
83333.3299557145
83333.3322558239
83333.3320158548
83333.3317637228
83333.3320205125
83333.3314800121
83333.3317614001
83333.3315718166
83333.3315812524
83333.3312833363
83333.3311077469
83333.3310977341
83333.3298854471
83333.3300418177
83333.3299893801
83333.3302677481
83333.331076274
83333.3308277318
83333.3303390303
83333.330379246
83333.3300563773
83333.3301450989
83333.3305923149
83333.3298464965
83333.32986067
83333.330061049
83333.3302979411
83333.3297244412
83333.3296236878
83333.3297852108
83333.3299680795
83333.3300201828
83333.329684939
83333.3297248156
83333.3298350098
83333.3299192819
83333.3320916178
83333.3320611177
83333.331628324
83333.3319795412
83333.3319525795
83333.3319790876
83333.3317654552
83333.3315042219
83333.3315568005
83333.3311560812
83333.3309189417
83333.3298013018
83333.329933601
83333.3298853342
83333.3301208219
83333.3303098895
83333.3306173812
83333.3310941031
83333.3305110475
83333.3306043863
83333.3301950316
83333.330020299
83333.3305703937
83333.329927445
83333.3299441497
83333.3301260886
83333.3302679897
83333.3298178197
83333.3297861945
83333.3298510653
83333.3300363532
83333.3300795488
83333.329686776
83333.3297058581
83333.3298312082
83333.3299310362
83333.3299212432
83333.3297152595
83333.3297663687
83333.3298400967
83333.3298547451
83333.3318101597
83333.3319158726
83333.3310292499
83333.3327253011
83333.3320504911
83333.3318177217
83333.3318313375
83333.3314533968
83333.3313881437
83333.3313515795
83333.3309949821
83333.3297359665
83333.3298465636
83333.3298001862
83333.3299765462
83333.3301285119
83333.3302651063
83333.3305860321
83333.3309542948
83333.3306613033
83333.3309218293
83333.3302884167
83333.3302810431
83333.330476905
83333.3300383104
83333.3298968392
83333.3301487561
83333.3303430005
83333.3298481492
83333.3298499646
83333.3299161626
83333.330091124
83333.3301129002
83333.3297962236
83333.3297571074
83333.329765814
83333.3298924352
83333.3299901465
83333.3299678704
83333.3296621451
83333.3297476786
83333.3298430579
83333.3298796085
83333.329839457
83333.3297256826
83333.3297838573
83333.3298097213
83333.3297906326
83333.3322447902
83333.3317619944
83333.3325109041
83333.3327445951
83333.3319864403
83333.331943187
83333.3317851009
83333.3315898033
83333.3313841743
83333.3311933884
83333.3312415471
83333.3296891187
83333.329774914
83333.3297352357
83333.3298861117
83333.3299996908
83333.3301042776
83333.3303884843
83333.3306851485
83333.3310326913
83333.3306170877
83333.330784459
83333.3303721882
83333.3305486403
83333.3307133855
83333.330155938
83333.3301191843
83333.3301562471
83333.3303701515
83333.3299184233
83333.3298234796
83333.3299640821
83333.3302015341
83333.330154737
83333.3297736304
83333.3297769042
83333.3298093824
83333.3299549065
83333.3300399983
83333.3299953351
83333.3297146635
83333.3296940689
83333.3296794822
83333.3297987835
83333.3298977868
83333.3299195933
83333.3298759307
83333.329667154
83333.3297742705
83333.3298226028
83333.329821324
83333.3297708564
83333.3297562856
83333.3297781135
83333.3297681739
83333.3297333443
83333.3325569622
83333.3325589443
83333.3326382451
83333.3329401007
83333.3316608214
83333.3318154929
83333.3320238433
83333.3317956124
83333.3311726952
83333.3312121339
83333.3311312716
83333.3296560131
83333.3297210889
83333.329688616
83333.3298070384
83333.3299063196
83333.3300006855
83333.3301180085
83333.3305095369
83333.3307130332
83333.3308045891
83333.3306994871
83333.330800871
83333.3303978513
83333.3305094173
83333.3306008271
83333.3302107808
83333.3303195428
83333.3304233299
83333.3304690154
83333.330026596
83333.3300303891
83333.3300212597
83333.3301894131
83333.3301449285
83333.329830279
83333.3297493425
83333.3298484896
83333.3300365979
83333.3300781194
83333.329997706
83333.3296849404
83333.329681196
83333.3296773785
83333.3298223443
83333.3299305316
83333.329945198
83333.3298962275
83333.3295957507
83333.3295750992
83333.3295303803
83333.3296664073
83333.3297946571
83333.3298477693
83333.3298483363
83333.3298008478
83333.3297125386
83333.329774761
83333.3297875984
83333.3297628437
83333.3297187729
83333.3297649219
83333.3297513715
83333.3297233676
83333.3296884056
83333.3326877928
83333.3326882132
83333.3327365929
83333.3323728912
83333.331713326
83333.3317825323
83333.3317295325
83333.3319740243
83333.3312979519
83333.3311715522
83333.3310550062
83333.3296322918
83333.3296825945
83333.3296560675
83333.3297486015
83333.3298272968
83333.3299100881
83333.3300023445
83333.3301528958
83333.3305788432
83333.3306607515
83333.3307181191
83333.3305929412
83333.3307804668
83333.3304653233
83333.3305238239
83333.3306526309
83333.3302176977
83333.330327521
83333.3304204601
83333.3304024956
83333.3300801282
83333.3301791458
83333.3302347168
83333.3302662419
83333.33015188
83333.3298958468
83333.3299168296
83333.3299131218
83333.3300386878
83333.3300613764
83333.3299942865
83333.32976253
83333.329682863
83333.3296921476
83333.3298535006
83333.3299496689
83333.3299544557
83333.3299011566
83333.3295932163
83333.3295738302
83333.3295031016
83333.3296436457
83333.3297923837
83333.3298654193
83333.3298644369
83333.3298195959
83333.329455665
83333.3294422932
83333.3293391414
83333.32948024
83333.3296784124
83333.3297768618
83333.3298031933
83333.329785511
83333.3297443328
83333.3297388568
83333.3297579903
83333.3297455475
83333.3297151783
83333.3296816508
83333.3297418102
83333.3297152723
83333.3296845295
83333.3296556409
83333.3327719022
83333.3324469423
83333.3321556499
83333.3325906712
83333.3316784934
83333.3315648831
83333.3316215393
83333.3312134159
83333.3310334906
83333.3311779476
83333.3309750436
83333.3296155842
83333.3296549385
83333.3296325057
83333.3297057432
83333.3297679221
83333.3298350082
83333.3299072302
83333.3300112138
83333.3301935312
83333.3304870512
83333.3308609106
83333.330437709
83333.3304374881
83333.3307032359
83333.3304498314
83333.3304866518
83333.3306242356
83333.3302395915
83333.3303536812
83333.3303722882
83333.3304279252
83333.3300523784
83333.3301822426
83333.3302727264
83333.3302408856
83333.3301487735
83333.329948498
83333.3300607211
83333.3300990373
83333.330125183
83333.3300697269
83333.3299953415
83333.3297938094
83333.3298125247
83333.3297856841
83333.3298831891
83333.3299426935
83333.3299482415
83333.3299006358
83333.3297092397
83333.3296434606
83333.3295349291
83333.329635302
83333.3297933753
83333.3298680448
83333.3298705314
83333.3298273338
83333.3295147242
83333.3294833265
83333.3293327629
83333.3294288362
83333.3296337957
83333.3297721445
83333.329814354
83333.3298001755
83333.3297622445
83333.3293571245
83333.3293182872
83333.3291654786
83333.3292679187
83333.3295468615
83333.3297062686
83333.3297606128
83333.3297612373
83333.3297366628
83333.3297035719
83333.329735371
83333.3297281053
83333.3297069839
83333.3296792779
83333.3296546348
83333.3297080869
83333.3296779988
83333.3296536127
83333.3296321857
83333.332331775
83333.3322961753
83333.3320651489
83333.3324446595
83333.3315906
83333.3314874046
83333.3314739446
83333.3309932924
83333.3304099558
83333.3311312004
83333.3308290679
83333.3307154113
83333.3296037291
83333.3296354214
83333.3296156719
83333.32967513
83333.3297236299
83333.3297779225
83333.3298370096
83333.3299058652
83333.3300020122
83333.3301900616
83333.3303493248
83333.3305684681
83333.3301930412
83333.3302605821
83333.3304482514
83333.3303643097
83333.3304051542
83333.3305939174
83333.3304653907
83333.3302517676
83333.3303404987
83333.3303385648
83333.3304608763
83333.3303109677
83333.3300455112
83333.3301845421
83333.3302352684
83333.3302569261
83333.3301761078
83333.3299037675
83333.330045903
83333.3301426548
83333.3301523235
83333.3300550416
83333.3299908684
83333.3298280903
83333.3299326016
83333.3299806874
83333.3299960469
83333.3299918352
83333.3299508241
83333.3298974319
83333.3297264455
83333.3297396891
83333.3296861392
83333.3297050852
83333.3298135994
83333.3298712246
83333.3298708824
83333.3298297973
83333.3296651999
83333.3296341756
83333.3294310959
83333.3294280938
83333.3296194568
83333.3297660845
83333.329818632
83333.3298084082
83333.3297727404
83333.3294602534
83333.3294272135
83333.3292228101
83333.3292265491
83333.3294703411
83333.3296753816
83333.3297593203
83333.3297713428
83333.3297518862
83333.329720591
83333.3293271876
83333.3292537258
83333.3290577332
83333.3290725126
83333.3294010404
83333.3296369213
83333.3297231214
83333.3297339301
83333.3297231302
83333.32969903
83333.3296742417
83333.3297119404
83333.3296953098
83333.3296745455
83333.3296531946
83333.3296352279
83333.3296688525
83333.3296480875
83333.3296310055
83333.329615286
83333.3314215311
83333.3317594806
83333.3317304098
83333.3325427761
83333.3315125054
83333.3310510147
83333.3305493849
83333.3302220183
83333.3306092737
83333.3307850683
83333.3305735603
83333.3308829074
83333.33067755
83333.3305060861
83333.3304742272
83333.3295954777
83333.329621643
83333.3296036836
83333.3296535329
83333.329691772
83333.3297352681
83333.3297830036
83333.3298379435
83333.3298917668
83333.3299854241
83333.3301650333
83333.3299158616
83333.3300059815
83333.3301047311
83333.3301536306
83333.330215085
83333.3302261919
83333.3303534069
83333.3305058324
83333.3303233543
83333.3302143001
83333.3302827755
83333.330349095
83333.3303619862
83333.3304468974
83333.3303821466
83333.3303601822
83333.3300548651
83333.3301839167
83333.330217934
83333.3301906803
83333.3304093929
83333.3304225929
83333.3301094803
83333.3302880995
83333.3298938729
83333.330027565
83333.3301211269
83333.3301357118
83333.3300732263
83333.3299969462
83333.329788315
83333.3299042071
83333.3300278919
83333.3300553756
83333.329992329
83333.329947706
83333.3298917216
83333.329737519
83333.3298107962
83333.3298656752
83333.3298776176
83333.3298939298
83333.3298925518
83333.3298720234
83333.3298303744
83333.3296831207
83333.3297003732
83333.3296280398
83333.3295570009
83333.3296712317
83333.3297818178
83333.3298187739
83333.3298118315
83333.3297785019
83333.3296170573
83333.3296341992
83333.329411041
83333.3292834242
83333.3294581706
83333.3296628411
83333.3297550161
83333.3297764381
83333.3297617326
83333.3297324046
83333.3294287307
83333.3294013641
83333.3291941639
83333.3290888292
83333.3293261107
83333.3295874623
83333.329706489
83333.3297366006
83333.3297343704
83333.3297145768
83333.3296903438
83333.3293584739
83333.3292484592
83333.3290390956
83333.3289474466
83333.3292540399
83333.3295645791
83333.329684768
83333.3297089903
83333.3297057434
83333.329691289
83333.3296715219
83333.3296530563
83333.329681488
83333.3296662963
83333.3296503135
83333.329634182
83333.3296214242
83333.3296375467
83333.3296263569
83333.329614413
83333.3296031985
83333.3293624579
83333.3308650354
83333.3319779893
83333.3307116979
83333.3299982387
83333.3301924535
83333.3302455098
83333.3305134946
83333.3304651863
83333.330252682
83333.3295898368
83333.3296119299
83333.3295952365
83333.3296381857
83333.3296691024
83333.3297042054
83333.3297429861
83333.3297862961
83333.3298311326
83333.3298781828
83333.3299583468
83333.330059311
83333.3300691965
83333.3299301986
83333.3299947419
83333.3299818312
83333.3300555207
83333.3300727253
83333.3300770857
83333.3301646645
83333.3300850645
83333.3302510965
83333.3301092565
83333.3301460274
83333.3301812927
83333.3302845867
83333.3303260176
83333.3300461779
83333.3301398741
83333.3302148872
83333.3301125718
83333.3303141342
83333.3301826621
83333.3304263229
83333.3302953601
83333.3298991049
83333.3300331178
83333.3301324892
83333.3300793297
83333.3300372938
83333.330273787
83333.3299869641
83333.3300496747
83333.3301876101
83333.3297761172
83333.3298897086
83333.3300168642
83333.3300450985
83333.329995026
83333.3299575
83333.3298895841
83333.3297093107
83333.3297795634
83333.3299014023
83333.3299668846
83333.3299273635
83333.32989814
83333.3298718834
83333.3298278034
83333.3296817831
83333.3297231087
83333.3297543617
83333.329763615
83333.3297908244
83333.3298213667
83333.3298266031
83333.3298144699
83333.329781878
83333.3296425938
83333.3296765346
83333.3296181536
83333.3294762033
83333.3295436234
83333.3296911159
83333.3297554099
83333.3297795378
83333.3297681024
83333.3297404482
83333.3295522915
83333.329616139
83333.3294511358
83333.3292363823
83333.3293529964
83333.3295746136
83333.3296930563
83333.3297369594
83333.3297423634
83333.3297262276
83333.3297026952
83333.3294245764
83333.3293917737
83333.329223287
83333.3290452172
83333.3292280588
83333.3295148535
83333.329659015
83333.3297039167
83333.3297122816
83333.3297044046
83333.3296867518
83333.3296683617
83333.3292996022
83333.3290859419
83333.3289147782
83333.3291411794
83333.3294796022
83333.3296415296
83333.3296820693
83333.3296871098
83333.3296795291
83333.3296666097
83333.3296512192
83333.3296378547
83333.3296536618
83333.3296439486
83333.3296321512
83333.3296204863
83333.3296115815
83333.3296166157
83333.3296108242
83333.3296023569
83333.3295945983
83333.3304402336
83333.3299312498
83333.3299805436
83333.330090066
83333.3301486574
83333.3301159907
83333.3295860887
83333.3296051882
83333.3295894719
83333.3296272676
83333.3296527803
83333.3296816522
83333.3297133854
83333.3297484812
83333.3297860513
83333.3298247382
83333.3298818738
83333.3299231647
83333.3299923825
83333.3300248023
83333.3298769349
83333.3299268095
83333.3299210159
83333.3299710813
83333.329982646
83333.3299652896
83333.3299926092
83333.3300242352
83333.3300292647
83333.3300817782
83333.3302341427
83333.330207398
83333.3299835434
83333.3300459884
83333.3300904955
83333.3300437871
83333.3300114359
83333.3298976464
83333.3300113036
83333.3301041685
83333.3299784273
83333.3299880464
83333.3302118396
83333.3300665582
83333.3301577217
83333.3297767495
83333.3299002466
83333.3300398609
83333.3300080092
83333.3299790851
83333.3299485749
83333.3298898451
83333.3299499869
83333.3300170708
83333.3300046495
83333.3296977035
83333.3297727017
83333.3299020022
83333.3299655599
83333.3299308376
83333.3299044456
83333.3298768446
83333.3298281717
83333.3296625237
83333.3296941094
83333.3297693405
83333.3298613903
83333.3298612904
83333.3298434025
83333.3298361721
83333.3298175938
83333.3297833554
83333.3296418392
83333.3296685889
83333.3296794985
83333.3296634435
83333.3296919851
83333.3297444507
83333.3297704758
83333.3297849577
83333.3297726537
83333.3297460912
83333.3295820294
83333.3296414792
83333.3296283982
83333.3294757984
83333.3294729213
83333.3296143641
83333.3296943857
83333.3297379897
83333.3297482767
83333.3297344852
83333.3297119925
83333.3294840422
83333.3295655391
83333.3294911444
83333.3292751789
83333.3293149646
83333.329517735
83333.3296447628
83333.3296985466
83333.3297167393
83333.3297144543
83333.3296988515
83333.3296808124
83333.3293994025
83333.3292683033
83333.3290759753
83333.3291833033
83333.3294554781
83333.329619387
83333.3296734532
83333.3296890405
83333.3296895629
83333.3296802014
83333.3296658969
83333.3296523517
83333.3291812884
83333.3289563108
83333.3290726024
83333.3293848799
83333.3295853621
83333.3296472581
83333.3296643468
83333.32966463
83333.3296581641
83333.3296478114
83333.3296364229
83333.329626919
83333.3296330352
83333.3296273254
83333.3296188199
83333.3296106368
83333.329604756
83333.3296028359
83333.3295995046
83333.3295936544
83333.3295886925
83333.3298748537
83333.3299196206
83333.3299580427
83333.3300165843
83333.329583672
83333.3296006139
83333.329585671
83333.3296196076
83333.3296410532
83333.3296650875
83333.3296915232
83333.3297202006
83333.3297514873
83333.3297863795
83333.3298248456
83333.3298757852
83333.3299237418
83333.3299465985
83333.3299392298
83333.3298388142
83333.3298766378
83333.3298722209
83333.3299108091
83333.3299187884
83333.3299083574
83333.3299287494
83333.3299558985
83333.329962302
83333.3299423483
83333.3299114111
83333.3299647518
83333.3299922379
83333.3299749214
83333.3298492919
83333.3299524296
83333.3300096707
83333.3299642225
83333.3299638246
83333.3297743976
83333.3298887202
83333.3300266484
83333.3299306005
83333.3299369799
83333.3299213695
83333.3296899785
83333.3297843552
83333.3299356828
83333.329946983
83333.3299284282
83333.3299023896
83333.3298755312
83333.3298285031
83333.3298788769
83333.3299264058
83333.3299476291
83333.3296502179
83333.3296905482
83333.3297842782
83333.3298813844
83333.329872398
83333.3298562442
83333.3298472689
83333.3298223798
83333.3297858979
83333.3296300493
83333.3296432881
83333.3296717676
83333.3297407307
83333.3297780554
83333.3297803295
83333.3297901588
83333.3297932344
83333.3297767251
83333.3297499935
83333.3295922254
83333.3296273085
83333.3296348538
83333.3296040122
83333.329614039
83333.3296749844
83333.3297129228
83333.3297440889
83333.3297541481
83333.3297405691
83333.3297189345
83333.3295085557
83333.3295807751
83333.3296175345
83333.3295108337
83333.3294613087
83333.3295677781
83333.3296493732
83333.3296968054
83333.3297210899
83333.329722243
83333.3297081607
83333.329690661
83333.3294483791
83333.329499915
83333.3294912208
83333.3293387012
83333.3293223387
83333.3294883329
83333.3296144813
83333.3296672405
83333.3296898787
83333.3296975543
83333.329691261
83333.3296780372
83333.3296645974
83333.3293173076
83333.3291345715
83333.3291712204
83333.329402466
83333.3295813959
83333.3296439333
83333.3296645418
83333.3296722502
83333.3296698807
83333.329661323
83333.3296504959
83333.329640706
83333.3290532916
83333.3290451958
83333.3292883463
83333.3295030933
83333.3295968889
83333.3296336276
83333.329645399
83333.3296461281
83333.32964156
83333.3296337761
83333.3296256674
83333.3296192146
83333.3296184999
83333.3296149824
83333.3296090673
83333.3296037612
83333.3296001439
83333.3295933048
83333.32959128
83333.3295876187
83333.3295848344
83333.3298380049
83333.3298697365
83333.3299058273
83333.329582216
83333.3295976063
83333.3295832627
83333.329614328
83333.329632733
83333.3296529934
83333.329675156
83333.3296991697
83333.3297249568
83333.3297541513
83333.3297888694
83333.3298269321
83333.3298642782
83333.3298913106
83333.3299007076
83333.3298888779
83333.3298089263
83333.3298382175
83333.3298357994
83333.3298679685
83333.3298718731
83333.3298643431
83333.3298770411
83333.3299026123
83333.329904676
83333.3298888103
83333.3298708987
83333.3299118041
83333.3299346275
83333.3299296129
83333.3299019104
83333.3298111184
83333.3298905524
83333.329943545
83333.3299415403
83333.3299237943
83333.3297281334
83333.3298427406
83333.3299462858
83333.3299260757
83333.3299182098
83333.3299031358
83333.3296838466
83333.329773896
83333.329932426
83333.3298965893
83333.3299019041
83333.3298863552
83333.3298645722
83333.3296356512
83333.3296937341
83333.3298249432
83333.3298811197
83333.3298865874
83333.3298653419
83333.3298511695
83333.3298231637
83333.3297882754
83333.3298261908
83333.3298649324
83333.3298920573
83333.3296202308
83333.3296395887
83333.329688871
83333.3297827116
83333.3298114996
83333.3298122549
83333.3298114796
83333.3298046233
83333.3297815803
83333.3297535024
83333.3295938564
83333.3296086398
83333.3296126579
83333.3296430154
83333.3296879139
83333.3297121602
83333.3297356234
83333.3297578151
83333.3297614489
83333.3297456391
83333.3297241257
83333.3295363625
83333.3295781794
83333.3295983723
83333.3295719567
83333.3295657205
83333.3296190801
83333.3296628543
83333.3297013924
83333.3297272833
83333.3297288518
83333.3297152882
83333.329698311
83333.3294538529
83333.3295096298
83333.3295691705
83333.3295268372
83333.3294756083
83333.3295461963
83333.3296232005
83333.3296643015
83333.3296919966
83333.3297043362
83333.3297001642
83333.3296877772
83333.329674629
83333.3294547873
83333.3294618094
83333.3294593244
83333.3293724462
83333.3293414953
83333.3294678595
83333.3295925572
83333.3296443637
83333.329664324
83333.3296782548
83333.3296796521
83333.3296726862
83333.3296624499
83333.3296526326
83333.3292018678
83333.3291719987
83333.3293477451
83333.3295263228
83333.3296071185
83333.3296369833
83333.3296520082
83333.3296565816
83333.3296538144
83333.3296469705
83333.3296391923
83333.3296323743
83333.3290691077
83333.3292064133
83333.3293999649
83333.3295253373
83333.3295907864
83333.3296200648
83333.329630209
83333.329631981
83333.3296288651
83333.3296233895
83333.3296180381
83333.3296138965
83333.3296079897
83333.3296058953
83333.3296021848
83333.3295991344
83333.329597133
83333.3295865025
83333.3295854984
83333.3295836566
83333.329582443
83333.3298086087
83333.3298346268
83333.3298622292
83333.3295814952
83333.3295957342
83333.3295818491
83333.3296107828
83333.3296269283
83333.3296442905
83333.3296630546
83333.3296832257
83333.3297048525
83333.3297288743
83333.3297568442
83333.3297894026
83333.3298208623
83333.329848331
83333.3298629526
83333.329863881
83333.3298498479
83333.3297860694
83333.3298083891
83333.3298069149
83333.3298335636
83333.3298351531
83333.3298302337
83333.3298475464
83333.3298628931
83333.3298630075
83333.3298515257
83333.3298323687
83333.3298695085
83333.3298890732
83333.3298841201
83333.3298642029
83333.3297984686
83333.3298546047
83333.32989509
83333.3299044318
83333.3298906923
83333.3298635907
83333.3297120712
83333.329798646
83333.3298847846
83333.3299043798
83333.3298960187
83333.3298773964
83333.3296353947
83333.3297269723
83333.3298624464
83333.3298882823
83333.3298889076
83333.3298746806
83333.3298527041
83333.3296256635
83333.3296784246
83333.3298211005
83333.329848435
83333.3298731642
83333.3298589432
83333.3298433075
83333.3298192586
83333.329603183
83333.3296329605
83333.3297233031
83333.3298052365
83333.3298426872
83333.3298347514
83333.3298255345
83333.3298102144
83333.3297848204
83333.3297561728
83333.3297884915
83333.3298197067
83333.3298472335
83333.3295938148
83333.3296052056
83333.3296213413
83333.3296846734
83333.3297360925
83333.3297615081
83333.3297725022
83333.3297775835
83333.3297706351
83333.3297506248
83333.3297285304
83333.329557935
83333.3295732575
83333.3295742824
83333.3295792168
83333.3296069806
83333.3296453718
83333.3296780309
83333.3297168029
83333.329737524
83333.3297357984
83333.3297210877
83333.329704168
83333.3294994202
83333.3295298518
83333.3295566363
83333.3295475367
83333.3295353524
83333.3295771378
83333.3296252156
83333.329663358
83333.3296971801
83333.3297113098
83333.3297076021
83333.3296954831
83333.3296826611
83333.3294474518
83333.3294576241
83333.3295047749
83333.3295065819
83333.3294802411
83333.3295308124
83333.3296053823
83333.3296434751
83333.3296654801
83333.3296838558
83333.3296880234
83333.329682078
83333.3296723265
83333.3296626841
83333.3295070925
83333.3294645884
83333.3294389417
83333.3293717884
83333.3293440525
83333.3294396081
83333.3295599475
83333.3296208191
83333.3296406308
83333.3296573183
83333.3296653657
83333.3296642703
83333.3296582962
83333.3296509293
83333.3296439459
83333.3291885128
83333.3292921442
83333.3294497611
83333.3295540047
83333.3296021511
83333.3296280388
83333.3296402318
83333.3296434652
83333.3296411291
83333.3296362705
83333.3296310473
83333.3296265417
83333.3291688951
83333.3293040212
83333.3294405224
83333.3295342443
83333.3295871291
83333.3296101986
83333.3296190314
83333.3296211743
83333.3296193696
83333.3296159296
83333.3296127789
83333.3296103349
83333.3296003462
83333.3295993732
83333.3295975419
83333.3295961642
83333.3295952971
83333.3295816264
83333.32958163
83333.3295812467
83333.3295810644
83333.32978612
83333.3298063953
83333.3298292368
83333.3295812055
83333.329594739
83333.3295811702
83333.3296085238
83333.3296229603
83333.32963816
83333.3296542698
83333.3296713613
83333.3296895721
83333.3297093053
83333.3297321031
83333.3297582772
83333.3297858341
83333.329811259
83333.3298298261
83333.3298372395
83333.3298334732
83333.3298206224
83333.3297680142
83333.3297853531
83333.3297846216
83333.3298058939
83333.3298062489
83333.3298030569
83333.3298211542
83333.3298298131
83333.3298292283
83333.3298213381
83333.3298161944
83333.3298426655
83333.3298539202
83333.3298493973
83333.3298342358
83333.3297814774
83333.3298269499
83333.3298602501
83333.3298700587
83333.3298586823
83333.3298374285
83333.3297250512
83333.3297855213
83333.3298465388
83333.3298730206
83333.3298719058
83333.3298551041
83333.3298295112
83333.3296327102
83333.3297002716
83333.3298088175
83333.3298639691
83333.3298702953
83333.3298579764
83333.3298377102
83333.3295753595
83333.3296244278
83333.3297554031
83333.329840286
83333.3298602893
83333.3298511513
83333.3298340735
83333.3298126201
83333.3295922177
83333.3296109158
83333.3297083715
83333.3297817917
83333.3298388118
83333.3298387298
83333.3298232847
83333.3298072147
83333.3297845202
83333.3295785529
83333.3295940945
83333.3296404623
83333.3297167891
83333.3297865315
83333.3298014332
83333.3297992032
83333.3297911465
83333.3297766061
83333.329754197
83333.3297317904
83333.329757773
83333.3297850501
83333.3298102408
83333.3295696855
83333.3295773447
83333.3295741647
83333.3296037876
83333.3296481389
83333.329695572
83333.3297257141
83333.329745628
83333.3297517625
83333.3297430696
83333.329726279
83333.3297089065
83333.3295398498
83333.3295449627
83333.329543101
83333.3295402603
83333.3295449237
83333.3295819911
83333.3296252331
83333.3296718234
83333.3297088291
83333.3297199284
83333.329714414
83333.3297017385
83333.3296889879
83333.3294986767
83333.3295018349
83333.3295172306
83333.3295199293
83333.3295126507
83333.3295441
83333.3295952053
83333.3296342133
83333.3296679771
83333.3296906052
83333.3296957056
83333.329689959
83333.3296803593
83333.3296709671
83333.3294937974
83333.329450262
83333.3294578251
83333.3294662046
83333.3294621408
83333.3295075696
83333.3295818467
83333.329624757
83333.329643744
83333.3296624987
83333.3296732394
83333.3296733137
83333.3296678711
83333.3296608575
83333.3296539344
83333.3296056588
83333.3295122177
83333.3294525217
83333.3293742315
83333.3293311334
83333.3293966844
83333.3295072889
83333.3295843614
83333.3296142889
83333.3296351623
83333.3296488351
83333.3296533901
83333.3296517547
83333.3296475148
83333.3296425118
83333.3296378024
83333.3292546132
83333.3293690577
83333.3294858753
83333.3295573221
83333.3295991381
83333.3296208614
83333.3296303336
83333.3296328113
83333.3296315031
83333.3296284737
83333.329625338
83333.3296225678
83333.3292503571
83333.329364295
83333.3294726315
83333.3295475198
83333.3295860226
83333.329603088
83333.3296107568
83333.3296131129
83333.3296124313
83333.329610791
83333.3296092921
83333.3296080983
83333.32959478
83333.3295949103
83333.3295946245
83333.3295943769
83333.329594349
83333.3295782521
83333.329579314
83333.3295798642
83333.3295803965
83333.3297683595
83333.3297845818
83333.3298026052
83333.3295943152
83333.3295809244
83333.3296072658
83333.3296203878
83333.3296339218
83333.3296480066
83333.329662717
83333.3296781346
83333.3296945476
83333.3297128359
83333.329734315
83333.3297577268
83333.3297806703
83333.3297999954
83333.3298116648
83333.3298143713
83333.329808621
83333.3297965325
83333.3297536839
83333.3297671431
83333.3297669793
83333.3297836946
83333.3297838589
83333.3297818302
83333.3297985496
83333.3298030899
83333.329802266
83333.3297968638
83333.3298009355
83333.3298173432
83333.3298236762
83333.3298198175
83333.3298090747
83333.329778536
83333.3298129592
83333.3298350428
83333.3298406727
83333.3298314166
83333.3298146867
83333.3297288096
83333.3297772406
83333.3298226979
83333.3298471872
83333.3298467784
83333.3298324877
83333.3298116856
83333.3296632874