/*--------------------------------*- C++ -*----------------------------------*\
  =========                 |
  \\      /  F ield         | OpenFOAM: The Open Source CFD Toolbox
   \\    /   O peration     | Website:  https://openfoam.org
    \\  /    A nd           | Version:  12
     \\/     M anipulation  |
\*---------------------------------------------------------------------------*/
/*   Windows 32 and 64 bit porting by blueCAPE: http://www.bluecape.com.pt   *\
|  Based on Windows porting (2.0.x v4) by Symscape: http://www.symscape.com   |
\*---------------------------------------------------------------------------*/
FoamFile
{
    format      ascii;
    class       surfaceScalarField;
    location    "800";
    object      phi;
}
// * * * * * * * * * * * * * * * * * * * * * * * * * * * * * * * * * * * * * //

dimensions      [0 3 -1 0 0 0 0];

internalField   nonuniform List<scalar> 
28758
(
-8.78432304929077e-05
7.13880731688907e-06
2.93202795541255e-05
-0.00010086191189648
4.43865875803078e-06
8.58002690254366e-06
-4.63321195068994e-05
-1.77185079690788e-06
-5.96949044554229e-05
1.59072564336254e-05
-0.000114371231610674
8.84346665734306e-06
4.66585449810755e-06
0.000105030616329266
-0.000108324428859841
5.30252109319861e-06
2.42995971023381e-06
-9.17334183851943e-05
2.66030844930696e-05
1.40154573784561e-05
-1.52220792335709e-05
7.16216757692605e-05
2.29890523354257e-06
-5.6376366240182e-06
-1.55538960735036e-06
4.33342595303752e-06
1.08775026785644e-06
4.00422421655519e-06
4.00809910635554e-06
2.25729803163747e-06
6.00091814854843e-06
2.02597196566451e-06
-0.000180324895871293
8.41595658911807e-05
-3.31562154183104e-06
-0.000112640442887612
6.81931282137554e-06
1.87535671239804e-05
0.000160756136564024
-0.00019470762522444
-3.14082642920751e-06
4.23948456561564e-05
2.15789613199268e-06
-4.75151328850963e-06
3.07610800223178e-06
1.94747070548674e-06
-0.000107163536328434
1.76334084059396e-05
2.74528900144397e-05
-6.83793611693346e-06
1.14821273843485e-05
1.15291642777287e-05
2.63270964366381e-06
9.7927263219128e-05
4.49740968218728e-05
-1.88138711091697e-05
4.77095126971352e-05
1.97994772730544e-05
-1.30143139501586e-06
-8.52944786333881e-06
1.51252407459766e-06
1.06172623595291e-05
-2.71585416522637e-06
3.30798567836289e-07
8.29666227368021e-07
-3.12861236765955e-06
-7.5654930070355e-06
-6.95481024002104e-06
-4.63153101744993e-06
1.44761344373519e-06
-1.55368157908701e-07
4.52225091047843e-06
9.23356711791333e-08
6.13644178566596e-06
1.38206833847508e-06
0.000221478903876736
-5.23754708580141e-05
-4.28764303806345e-05
-1.52961529498508e-05
4.03256289728985e-05
-9.85384490538357e-05
3.25364964753183e-05
2.91800191437004e-05
-0.000104307413408371
-2.65298373772087e-07
1.61627450032622e-05
8.99503186026872e-05
-9.09029007896877e-05
-6.45027478922414e-06
4.26203450937436e-06
-1.26829375006074e-06
9.67247912343939e-05
-0.000101352698939251
-4.29984161331132e-06
5.25909073160993e-05
1.09800878721886e-05
1.77560930430646e-05
7.36838498787311e-06
5.41951757639129e-06
-3.99997810123902e-07
3.95371463704521e-06
-1.6062458614158e-06
-1.3512316195263e-05
-6.08275791929422e-05
9.47385780125341e-05
-2.76527163716222e-06
-2.86735183800937e-05
-9.73415873174894e-05
-3.3915157244494e-05
0.000173870839162286
7.93308711266294e-06
1.79732503962452e-06
9.33184162702129e-06
5.34230603052782e-06
7.76352235516472e-05
9.60550322902215e-06
6.75750704399246e-06
5.06309510734661e-05
2.17249403615436e-05
1.71040386481299e-05
-1.70916438844994e-06
7.24208127670787e-05
5.38832064632672e-05
-8.57297564635136e-06
5.67798885960626e-05
-3.39980664400242e-06
-4.8732184291523e-05
-2.68144088526313e-05
6.56701806520467e-05
7.03862709311759e-06
1.6501869715293e-05
-2.63678843107235e-06
1.93752709460829e-06
-1.65868827593904e-06
-2.91704452642625e-06
-2.99734857168596e-06
4.84067138808647e-06
-1.35550981606126e-05
-8.05795293203158e-06
-4.19613250866451e-06
-1.92901129532571e-06
-5.44999109162165e-06
3.90025594968398e-06
1.7075032313513e-07
1.24078939765158e-05
7.29429407942921e-06
-8.61426160120862e-07
2.18134829568989e-05
-9.34370149850572e-05
-9.56279408210361e-05
-9.60104203054979e-05
-2.57367820023387e-05
-1.20321280213712e-05
-9.00813085995441e-05
-4.74458843187216e-06
1.07135409757262e-05
1.08803687640204e-05
-8.08954662842299e-05
1.58823500706606e-06
-3.80007402880258e-05
4.2162774379943e-06
8.94856752091522e-05
-9.45215615357433e-05
-1.25820081875227e-05
1.11676196583566e-05
9.18219304431682e-05
-0.000104584630553007
-1.79999443815199e-06
1.45248858641561e-05
-5.34605977261384e-06
0.000193292872949667
-0.000141883057003402
-2.73880088958387e-05
-5.1449124633124e-07
4.32776304532776e-06
5.05640875057995e-05
-2.29623729106553e-05
3.46901658289305e-05
-9.62178452039412e-05
9.61856412898092e-05
-8.07912873916774e-06
-0.000100948985964734
7.33575194705564e-05
2.47984215494544e-06
0.000111140238587541
9.21592106037932e-06
2.22316234720351e-06
-5.99855652965843e-06
8.36027658524754e-05
1.72237730365783e-05
1.04209643963081e-05
6.93658918305672e-05
4.60587577262154e-06
6.45282561606103e-06
7.31372497116243e-05
2.01281935934308e-05
6.28780062774824e-06
3.98918526380759e-05
-4.12166832477325e-06
1.06673763432518e-06
4.33466591764705e-05
2.29179511372802e-05
-2.287376684872e-05
8.08274687973181e-05
8.82733923461244e-05
-6.22853961127849e-06
7.65231926481347e-05
-1.29357147920123e-05
-1.03791287617092e-05
6.12599503377718e-05
-5.70406334001194e-06
-4.22569149745579e-05
4.13551732578016e-05
2.94706810129154e-05
-1.22606942665705e-06
1.07528640833743e-06
-1.02130139352892e-05
-5.14629287549232e-06
-2.04924703343606e-06
5.24039088679889e-06
8.40674509858074e-06
-8.28815301343511e-06
-6.06779229753523e-06
-1.24780807918399e-05
-1.75405140442988e-05
-0.000101235327019435
-2.25575669463413e-05
3.53455397313519e-06
-0.000112019413821527
-8.08916330778752e-06
-1.2527712349524e-06
-2.40457753036997e-06
-0.000116008902474513
-1.11678017096471e-05
-9.36777165151486e-05
-7.28424259216416e-07
8.64140131587014e-05
-0.000100397723022805
-1.08685451619662e-05
1.22702482520549e-05
0.000147931763204677
-0.00014216966408288
-7.08580983449328e-06
1.0691335917449e-05
-1.04452314733197e-05
0.000136665302182469
-0.000133518136227246
-5.56505972214282e-06
3.77683084263976e-05
-1.15521703818424e-05
2.91656840417699e-06
3.62614383220979e-05
4.80499756503817e-05
-1.10881391972292e-05
-6.5242454547627e-05
5.28487392100198e-05
7.74822546325134e-05
-0.000130806559392456
0.000117281992378983
-4.9997908883234e-06
-1.34781929226343e-05
8.05097947458083e-05
1.33838574353762e-05
-4.82839791644225e-06
9.09119837701541e-05
7.94014620129812e-06
-7.57687039949808e-06
0.000164958537915087
1.42266941695132e-05
5.54250854034683e-06
7.47253244545646e-05
-4.61413838931331e-06
4.71831665792061e-06
7.39376992112099e-05
1.53852949819641e-07
3.19264082233982e-06
6.91132028722677e-05
6.16138828721141e-05
3.33883848783898e-06
4.86894058042076e-05
-1.83649248013721e-05
3.89824540240513e-06
3.65410551877747e-05
-1.15934305188669e-05
-7.00570178248955e-06
4.01211524543261e-05
2.83730569181084e-05
-2.53616023552417e-05
3.3749817382202e-05
5.0904143024793e-05
-5.10577717095805e-06
-1.95587094070025e-05
-2.0271704028605e-06
6.13590730877983e-05
-1.93856502378547e-05
-7.34341919460864e-06
3.02995617972614e-05
-1.49614755032818e-06
-1.74232730525548e-05
3.83532989167857e-05
3.20711292526417e-05
2.10865856394751e-06
4.92505881192086e-06
1.07648764354586e-06
1.24691532203907e-07
-2.71817730363609e-07
5.21632055729499e-06
-1.29618768448966e-05
-0.000107342423837763
-1.85712704768812e-05
2.95840648699195e-06
-0.0001425333015984
-1.04193584846479e-05
6.22838908513758e-06
-4.34302992896827e-06
-0.000133273953033291
-8.32172573755251e-06
-0.000131107687213883
-4.77032270107828e-06
2.46909701785747e-05
-1.10262239929726e-05
-7.72453125317698e-06
-1.6808756551674e-05
0.000245408811036128
-0.000231567875011652
-8.30615153499544e-06
-3.50343896844414e-07
-1.12103812931603e-05
0.000139411533812485
-0.000122771464661125
-3.03411515235444e-07
2.7771336826212e-05
-9.26009277322276e-06
2.23383077368813e-06
9.96865612232371e-06
3.4601206374456e-05
-8.07205754169252e-06
-1.71713824814236e-05
1.97176578892578e-05
4.37551770693502e-05
5.04633178965944e-05
5.97084163695784e-05
-3.9778845472857e-06
-0.000136679357726547
0.000115295872156819
5.17331632248192e-06
-9.28415489140354e-06
3.22249651373427e-05
-1.17280328948314e-05
-1.70622423918051e-05
8.84627663106894e-05
4.28087324930845e-06
-1.32885563341104e-05
0.000256303390797302
8.20096327154603e-06
-7.54271196698118e-06
0.000108195591928507
-4.19838575767458e-06
-1.2636829864184e-05
0.000187132756012145
3.12107505132415e-06
3.03577484530911e-06
9.38305701520228e-05
5.9964524496306e-05
-1.30658610505099e-06
9.16565647616391e-05
-1.22858142066755e-05
-3.01450894257901e-06
9.26248984017332e-05
-1.63885769426611e-05
3.07816541745652e-06
4.58470036308861e-05
1.33361888259444e-05
-1.18355284893985e-05
4.77457812655397e-05
5.08053370391282e-05
5.18233962660344e-07
-2.51783545874435e-05
3.01305927619161e-06
4.57594403790132e-05
-3.26235377177422e-05
1.50429980534582e-06
3.09667890931516e-05
-1.12867841260196e-05
-1.17843105924746e-05
3.10467171817809e-05
2.54371988528871e-05
-1.16629964358978e-05
1.72187636729581e-05
3.81456493812199e-05
3.68472130851203e-06
-3.00724487756102e-05
4.16667608265529e-06
3.04024906108136e-05
-2.33885399028639e-05
-2.86768177389291e-06
3.48746532265561e-05
-5.5168260631424e-06
-8.64025676199224e-06
2.44384969846221e-05
1.76406507095423e-05
1.29795180566037e-06
2.75121579063533e-07
-5.86510957632131e-07
1.47491885948964e-06
-5.74694607735338e-06
9.99480354904446e-06
-2.15530143969996e-05
-9.9692634699642e-07
-6.57403395222434e-06
-2.20265339151264e-05
-0.000230347872557864
-8.09240950282593e-06
-5.88544484583978e-07
3.93339153137849e-06
-0.000120083392073904
-8.71479921371903e-06
-0.000133908242907903
-3.60804332754841e-06
2.33401193381932e-05
-8.85726472342618e-06
-8.44990045201756e-07
-2.13623936865245e-05
5.36705230196119e-05
-7.44236363740869e-05
1.0164171300565e-05
-1.4525966461447e-05
-2.50927361365776e-05
0.00020042972163986
-0.000173813929841821
-2.17680992238789e-06
2.0660817497918e-05
-9.30822021777456e-06
1.93311197897985e-06
4.52988368441133e-06
2.65837584017391e-05
-5.77253016053577e-06
-1.37301855591437e-05
1.16670659454018e-05
2.51948475118676e-05
1.59449150196549e-05
3.8368101505598e-05
-2.6766579656005e-06
5.12722733258085e-05
5.66423699029324e-05
3.40334284562115e-06
-9.87819874333452e-05
6.37519005343629e-05
1.51106680968935e-05
1.02225075715327e-06
3.30362375937389e-05
-2.00025236189143e-05
-1.21516840280565e-05
3.52195094443701e-05
-7.90510155794803e-06
7.65544765087447e-06
4.51798369255043e-05
-2.41813559601869e-05
-1.76167840253638e-05
0.000103282601793323
-4.74576181217734e-06
-1.62985693249985e-05
0.000263078993490076
1.16700990381764e-06
-1.08037585955961e-06
0.000160441614144502
5.23052181173674e-05
-9.34528204028395e-06
0.000126000831270567
-9.76654105183893e-06
-1.62293381862033e-05
0.000204457698829003
-8.30849667748397e-06
5.28275147668586e-06
8.76021262317307e-05
7.14493523912392e-06
-1.68773527611544e-06
4.78829914717086e-05
5.32060016876206e-05
-6.25685336675704e-06
0.000112596921320748
-1.41652678744682e-05
-8.69771281844382e-06
0.00011583967413126
-2.37898148279166e-05
4.1329392088561e-06
4.52320682789385e-05
-1.84022787749572e-05
-5.81014641309272e-06
3.14999055075798e-05
2.36078994050129e-05
-5.97938934477214e-06
2.26185553053008e-05
3.84480814101139e-05
1.46764140666076e-06
-4.08953604183434e-05
7.02115974516212e-06
3.02216316587596e-05
-3.47328649010475e-05
-9.42968163936463e-07
2.81872505238429e-05
-1.03520319793427e-05
-7.65529587289482e-06
2.37454762670586e-05
1.79255270822959e-05
-8.63732227633382e-06
1.26860854412175e-05
2.48965981274725e-05
8.91702611205093e-06
-3.62684937406866e-05
3.11921385523551e-06
3.21702290615905e-05
-2.46787621520186e-05
-2.8274910728286e-06
2.38807933096984e-05
-9.01387137519351e-06
-1.08251191952729e-05
1.56145706709856e-05
8.94573525484288e-06
-2.27377875916345e-06
-7.45137793270946e-06
-2.31563269076721e-06
3.30289460995128e-06
-1.85307940113047e-05
-1.30808334229115e-05
-1.09064324198225e-05
1.24346165228181e-05
-4.72652623500611e-06
-2.31393875316987e-05
-9.78335675974471e-05
7.53323391715121e-06
-1.42422441986327e-05
-8.52891074791134e-06
-0.000172595153897301
-1.9932074389715e-06
-0.000121887704276608
1.09687684591691e-05
3.21902408087766e-05
-2.1379119032999e-05
2.94923120070176e-06
-1.46053404964759e-05
2.25868807733994e-05
-4.32543792419163e-06
5.29166176580415e-06
-3.47513268095664e-05
-2.77484090772445e-05
9.337299818556e-05
-9.03029927184423e-05
7.97562751171704e-06
1.55865581153928e-05
-9.05830128610054e-06
1.54587103846167e-06
2.67348208092659e-06
2.04823313260754e-05
-5.88027540788708e-06
-1.24577702434213e-05
6.01804084808208e-06
1.58408633130781e-05
6.10675200578327e-06
2.85328747954684e-05
-2.04405225002827e-06
1.20593591818577e-05
3.84043405556983e-05
3.50201105402227e-06
2.36177751706404e-05
3.41584038728476e-05
9.37906639650244e-06
-5.146107918628e-05
2.66911593092616e-05
1.21321798786523e-05
5.74737152861503e-06
4.32509980485627e-05
-1.57858783129103e-05
-4.87760716843235e-06
3.44622944697759e-05
-8.70013554462233e-06
3.64654815915934e-06
3.28218978245997e-05
-2.62286436982539e-05
-1.2639475186748e-05
3.75848155953906e-05
-7.34261256257874e-06
4.60854021552167e-06
4.35650893758366e-05
-2.71974625484576e-05
6.16926640452675e-06
5.66542495454994e-05
5.2877496278799e-06
-1.45880082462257e-05
0.000115378775649162
-6.85344503876792e-06
-1.06954060460643e-05
0.000263814755172799
-1.10154544921608e-05
6.92190145513242e-06
0.000155634453480152
4.33501643870167e-06
6.50664881284537e-06
3.50822022247879e-05
3.26463919346224e-05
-9.80064237098563e-06
0.000140785162995081
-1.12405411674667e-05
-1.72544044088854e-05
0.000216666704484304
-1.34188533165137e-05
7.05874210061341e-06
9.26879870681676e-05
-1.63201596004786e-05
7.14534806001105e-06
3.17979416182879e-05
1.02744870899102e-05
-1.28383266393124e-06
2.36926162694389e-05
3.6877191960971e-05
-9.7239970249919e-06
0.00013145626916491
-1.20000965601103e-05
-1.1264891949196e-05
0.000138636444315659
-2.42295028760941e-05
7.11111564456812e-06
5.48484095952334e-05
-3.34961125404288e-05
1.99500895511278e-06
2.53509489776682e-05
-1.5191301000932e-05
-6.65356174852417e-06
2.48583299496598e-05
2.0366385899585e-05
-3.825641479362e-06
1.37330568554078e-05
2.601009444323e-05
9.47400917439175e-06
-4.6844353511708e-05
3.34716685338263e-06
2.41407360004315e-05
-3.09143029617981e-05
-3.62666540572978e-06
2.27047196309808e-05
-8.51210132520249e-06
-8.43742567358573e-06
1.71573192330415e-05
1.1066602211921e-05
-8.4715364805488e-06
7.11491498821099e-06
1.64689398661653e-05
2.69977892462422e-06
-3.50830823368157e-05
-4.58139502060129e-07
2.29929604788215e-05
-2.37688668735037e-05
-6.13406394197566e-06
1.4802323595702e-05
-9.25488521947404e-06
-1.0818577229882e-05
7.92507292659086e-06
4.161193530786e-06
9.74290420724499e-06
2.20008381182933e-06
-8.50536684210492e-06
-1.35024630055415e-05
-4.9209779130573e-06
-3.00746619380909e-05
-2.47562676931401e-06
-1.1936155141184e-05
-1.28967204128443e-07
-1.40405230047506e-05
1.17793735185853e-05
6.64055791134965e-06
-3.83515196573602e-05
-3.12015233176501e-05
-7.97794661787119e-05
4.4425517995874e-06
-8.29666049256254e-05
1.12727753123234e-05
9.97669929897637e-05
-9.71199268474147e-05
-2.32406631177301e-06
2.62623653399475e-06
9.77847852438558e-06
1.98350576780107e-06
4.46200015897709e-06
-2.55376633041393e-05
-3.60374242984797e-05
2.34025538269812e-05
-1.35372763081725e-05
-6.035528554828e-07
1.19673670441489e-05
-8.77014256596574e-06
1.40192678317061e-06
1.69650067004987e-06
1.59662481262577e-05
-6.23871630160741e-06
-1.11867260600294e-05
2.88319883545306e-06
1.09464842819898e-05
3.61535383700226e-06
2.12329892834484e-05
-2.19573469599697e-06
4.18807359007864e-06
2.95924077786325e-05
2.57981436757862e-06
2.39150242858665e-06
2.7354548593874e-05
7.9143707450496e-06
1.38058627941796e-05
1.51099980321747e-05
7.15436219498402e-06
-4.53289240548307e-05
1.76850794918875e-05
3.73860070644572e-06
1.27761922613635e-05
7.91729869144796e-05
1.35651840343992e-05
1.28583440238391e-06
4.39285861113811e-05
-6.8410246890167e-06
1.10699078078418e-06
1.95950693774916e-05
-2.30629134203926e-05
-1.34230551471874e-05
3.86309862441783e-05
-3.38510918152331e-06
2.04133364535818e-07
4.14435586752806e-05
-1.29173864440832e-05
-1.02333534939739e-05
2.40340637264175e-05
-1.04575379296638e-05
-1.35063169000368e-05
3.87714976965652e-05
-2.26836730035939e-06
5.10334310577842e-06
4.98393418166424e-05
-2.941560415419e-05
3.88009828064846e-06
5.21918240141361e-05
-1.96932338524278e-05
-5.21297271294367e-07
1.73254464844976e-05
8.79610925524207e-06
-1.00861170770235e-05
0.000121857341882819
-6.19309118588659e-06
-8.14988770177171e-06
0.000263804550340955
-1.59477571903384e-05
1.23542927721682e-05
0.000155069150546673
-1.57457016317638e-05
1.11885024786528e-05
2.98709000346566e-05
5.50315984303931e-06
4.00237298225366e-06
1.50916178363921e-05
1.46600672108462e-05
-1.04973897417861e-05
0.000150479741919398
-8.92118477078308e-06
-1.68131347224854e-05
0.000223786112348835
-1.28117051501872e-05
9.95837023081603e-06
0.000102220734897503
-2.5798853376295e-05
1.05818258479594e-05
2.74021185092393e-05
-2.05111490558457e-05
-5.66147264759684e-06
2.3271022131294e-05
9.70400199390908e-06
2.31478441407222e-06
1.38483558593811e-05
2.10764951256498e-05
-1.30875122104331e-05
0.000145183292423476
-7.75146842245068e-06
-1.32517332520162e-05
0.000159015195059304
-2.07813063926427e-05
9.20360596530597e-06
7.07202284353553e-05
-3.98309173819553e-05
5.9827807017711e-06
2.30878058680755e-05
-3.3868581753646e-05
-4.38800516898511e-06
2.07986758861003e-05
-1.03703034424378e-05
-4.13290289643832e-06
1.80687763315311e-05
1.1726142776123e-05
-3.61752875939894e-06
8.10091727009118e-06
1.66705210141034e-05
2.82766923349729e-06
-4.35152342596999e-05
-3.10454800142227e-06
1.93705066439422e-05
-2.49336798723778e-05
-5.71127601940559e-06
1.55954322409546e-05
-7.37299812834796e-06
-7.9262696631252e-06
9.32723332143907e-06
5.96197647751688e-06
-7.92126645575664e-06
3.11816544087567e-06
1.1781808838735e-05
-1.16379344288548e-06
-3.20997349806652e-05
-2.52263320524368e-06
1.44655312267439e-05
-2.17279168472867e-05
-7.02566727283934e-06
6.60459481095723e-06
-8.70272956269861e-06
-9.76691627003977e-06
3.14655360473708e-06
1.74841448102815e-06
2.14296135140949e-05
1.07261980369641e-06
-5.34517804793921e-06
-3.70809861747337e-05
3.22237707753096e-06
-2.48582581036115e-05
-2.82624943677826e-07
-8.32292960584198e-05
-1.01064416966688e-05
-3.9131506073642e-06
9.50449534333317e-06
5.07865273226201e-06
-1.99996042203752e-05
-4.15533410419882e-05
-7.59874568179466e-06
1.70584545847279e-06
-7.97244801175885e-05
4.11499808424079e-06
5.85562896320791e-05
-4.63009548487353e-05
-1.70257396919934e-05
2.44634312456292e-06
0.000101171686755665
-0.000115602847675761
7.21584385686096e-06
1.43035528207803e-05
-3.78942333577863e-05
1.30075883302447e-05
-8.97617639516607e-06
7.72160369922509e-06
9.12844057028733e-06
-8.3387901531159e-06
1.32876576469885e-06
1.26986660120011e-06
1.25117494414709e-05
-6.58550095652695e-06
-1.03358131144968e-05
1.81455209715939e-06
7.9947338311468e-06
2.08082802444748e-06
1.63306081736338e-05
-3.41716177243574e-06
3.54356680641465e-06
2.22414582966879e-05
1.61165689366433e-06
3.65755868681969e-06
2.15672516711796e-05
4.70955800372756e-06
4.89452785565063e-06
1.10848146915484e-05
7.04502081590797e-06
1.72159411676744e-05
8.00890770945997e-06
-3.85406537490761e-07
-3.03525826297805e-05
1.02152572514412e-06
-4.82457539941582e-06
3.03607643848794e-06
6.64909584420153e-05
1.80544235522738e-06
1.21208637359734e-05
5.77904363649797e-05
1.05475203260805e-05
6.43835798560764e-06
8.29838065060782e-05
2.64216910951261e-05
-6.93264981002916e-06
4.34286014815597e-05
-5.99041945782936e-06
-2.39101470572952e-06
2.79958759947473e-05
-1.26466842557701e-05
-1.6445832903896e-05
1.33195300040165e-05
-1.71623784438766e-05
-1.48968782280843e-05
4.19928907782619e-05
-1.97134495099246e-06
-2.89326432925799e-06
4.86774303150754e-05
-2.62236373074952e-06
-9.17775843467409e-06
3.18616454493048e-05
-7.68711252739845e-06
-1.2118688013833e-05
1.44808434450893e-05
3.87494231908319e-06
-1.43873606893032e-05
4.09431520225556e-05
2.12959139595582e-06
8.39051519589502e-07
6.18487844888013e-05
-2.32667501306631e-05
-1.59659074167324e-07
6.33142619868477e-05
-2.80240904896857e-05
-5.29809231975026e-06
1.96118393918934e-05
-5.4930337127887e-06
3.62797749397578e-07
1.43936008104968e-05
2.93661017262579e-06
-6.17018468432373e-06
0.000120584960890709
-3.05482319858784e-06
-6.32632422684745e-06
0.000260251115930249
-1.31264652767937e-05
1.39956664709003e-05
0.000158801934862285
-2.37178375674808e-05
8.85353033694373e-06
3.21935680616061e-05
-1.63400775468158e-05
-4.43869672278142e-06
2.01558302168915e-05
-7.83828716673839e-07
3.33947916371908e-06
9.25636359543409e-06
8.03657171958828e-06
-1.24307475697033e-05
0.000155221839126719
-5.39886180507136e-06
-1.70636253855169e-05
0.000225971614346917
-7.29479328341135e-06
1.11184701714633e-05
0.000115676235814959
-2.81820695842175e-05
1.13453976263571e-05
3.02658509655923e-05
-3.40251970488343e-05
-7.4812053932827e-06
2.03113819239788e-05
-1.44583043345565e-05
-7.25749244797609e-07
1.51093641066313e-05
5.03584503169815e-06
1.18256705119092e-06
7.1399476847257e-06
1.26800209996048e-05
-1.64759898766724e-05
0.000154337642014441
-3.31533331576071e-06
-1.60242034126793e-05
0.000174883431281663
-1.41669828711644e-05
8.67788741956897e-06
9.09794216710655e-05
-4.18242189255389e-05
5.86299622214105e-06
2.54925566471156e-05
-4.5270992875461e-05
-5.21127599538739e-06
1.66817619708376e-05
-2.76449369505113e-05
-4.26486274675952e-06
1.45273618752192e-05
-8.27530146779822e-06
-3.73448618653936e-06
9.68252924396262e-06
5.95274860223175e-06
-4.04162237608963e-06
3.61984450501053e-06
1.12518683515158e-05
-4.57232133524786e-06
-3.61261486844717e-05
-3.73969710754973e-06
1.27585408675748e-05
-2.08797283122368e-05
-5.59387723894205e-06
7.61372190950961e-06
-7.09127350333513e-06
-7.30434140793579e-06
3.60952395888192e-06
3.00804814166067e-06
-7.56895349900981e-06
1.70343816970993e-06
8.58136100759581e-06
-5.15014281684457e-07
-2.91841128757321e-05
-3.13129247437103e-06
4.76940169721142e-06
-1.86838988663454e-05
-7.22511047453511e-06
1.24161284953889e-06
-7.77258692393728e-06
-9.18718022715521e-06
1.23414704576249e-06
5.36642974891963e-07
3.15528112063044e-05
-2.285016412155e-06
-3.75120995706488e-06
-3.60114419138291e-05
5.39638401155948e-06
5.46629551391146e-06
-1.86476601352428e-05
-4.50769125817649e-05
-1.84961545963511e-05
7.16566997027176e-06
-0.000122925230285585
8.79272770779114e-06
-3.04839444633961e-07
-3.78164474510881e-05
3.94968052817029e-06
6.59683536011868e-06
-5.70491777932942e-05
-7.00484974698195e-06
5.75226152932602e-05
-4.489778288238e-05
-2.74452221389911e-05
-2.20534895889668e-06
0.00012781919044918
-0.000123709777312544
-1.06171617615991e-05
1.61699331233253e-05
-1.56668051357609e-05
0.000182109282624679
-0.000168382049188277
2.39647190486594e-05
6.87919411495892e-06
-7.99950721749802e-06
1.16048098269659e-06
1.14882619505395e-06
9.63277606350868e-06
-6.60865696924639e-06
-9.43942507391238e-06
1.68520764026909e-06
5.70969550255202e-06
1.44019283447484e-06
1.2554459380949e-05
-4.24954101988878e-06
2.54955117032545e-06
1.66703626110586e-05
-3.95619644934975e-07
2.48239631877158e-06
1.71267672649625e-05
3.56974916137395e-06
1.74418434499011e-06
1.01991374373249e-05
3.85105401804822e-06
7.17511129314602e-06
5.65094055356416e-06
2.22787075890244e-06
1.27520539022216e-05
-3.48722712131461e-06
-8.62870713873436e-06
-2.65473126163389e-05
3.25785868721713e-06
2.79807677500089e-06
1.89566920881611e-05
4.90464218670062e-05
-7.4444293236986e-06
1.58100160898525e-05
5.81593851408626e-05
4.64241683817051e-06
2.58851450955426e-08
0.000110150165573035
2.58869310289498e-05
-1.04522923629619e-06
5.10862623840743e-05
8.16756134889028e-07
6.82171812072527e-06
7.14396987301488e-05
1.28788959198219e-05
2.53732001673576e-05
9.9218780616785e-05
6.74931600060639e-05
-1.13809551618342e-05
4.72610389274886e-05
-7.3483565261386e-06
-8.74682292333419e-06
3.67146436548093e-05
-8.85562109762132e-06
-1.73214200113063e-05
1.98347796388428e-05
-1.10182787770966e-05
-2.36010219206548e-05
1.28717128955108e-05
-5.79970865431442e-06
-1.46303609024558e-05
4.28458854921785e-05
-6.09991194919151e-07
-4.55980590687311e-06
5.00150058038619e-05
2.08995494113873e-06
-1.27440281313941e-05
3.9190882679614e-05
2.63276875916199e-06
-1.51943793824353e-05
2.0176010302531e-05
-3.48599153143801e-06
-2.71579542272143e-06
1.56653882732079e-05
-1.53674297464409e-06
-1.27472284741057e-05
4.23677771859315e-05
5.15241986998771e-06
-1.98091347460599e-06
7.3132899735199e-05
-1.34999355147458e-05
-8.9972922571609e-07
8.12810384004461e-05
-2.63381297835536e-05
-1.25421075662332e-05
2.46428451889022e-05
-1.16594611931824e-05
-7.5269328368005e-06
1.77632462089137e-05
-5.77444392923641e-06
1.37568763410571e-06
6.7413891479986e-06
-9.67950887392154e-08
-4.28752325038212e-06
0.000112148584641211
2.93151944865844e-07
-5.57324149969246e-06
0.000251094418567146
-5.38851006789292e-06
1.28721972948967e-05
0.000166543745730056
-2.26220032754673e-05
6.02651708951955e-06
3.99917630217356e-05
-2.61971520661119e-05
-1.13785101174939e-05
2.20901476079795e-05
-1.43770845855912e-05
-4.05786023400317e-07
1.12465872333225e-05
-3.09400928275891e-06
2.17842256696277e-06
3.95677605151381e-06
5.56633595459955e-06
-1.50788323494374e-05
0.00015600423235345
-2.17955136222256e-06
-1.84154721058743e-05
0.000222538404917045
4.25617382541978e-07
9.46070702907652e-06
0.000132595291597203
-2.4996668634398e-05
9.6430028262296e-06
3.85625565512497e-05
-4.02587794274978e-05
-9.81561147745257e-06
1.96555056350899e-05
-2.87649922040917e-05
-3.72101028877652e-06
1.19984586565846e-05
-1.18912625670371e-05
-6.4414860979546e-07
7.19315057070804e-06
1.8923018435632e-06
-7.07422104034971e-07
3.39776401709796e-06
8.49762232737739e-06
-2.03943392521797e-05
0.000158309955115804
1.8667562335539e-07
-1.96381781711126e-05
0.0001844758079882
-5.19079586113921e-06
4.20415760418635e-06
0.000114149810118618
-3.85967057136285e-05
2.21356504023418e-06
3.31648247673729e-05
-5.24186781676833e-05
-7.70520645654937e-06
1.43555366740577e-05
-3.98118871169625e-05
-4.52312134238008e-06
9.95021346758867e-06
-2.2284363857505e-05
-3.81210421311202e-06
7.02870475403557e-06
-7.40324777438127e-06
-4.27053889847427e-06
4.00974868480738e-06
2.529040795868e-06
-4.54717441650511e-06
1.79595235447163e-06
7.87432752060545e-06
-3.32828891531907e-06
-3.00245208991358e-05
-3.43397524346323e-06
4.67855214210187e-06
-1.76418763161015e-05
-5.81215071954803e-06
1.73603560167538e-06
-6.63074469401593e-06
-6.98863785685735e-06
1.06909224526908e-06
1.44386242115417e-06
-7.19894824962586e-06
1.46060535494511e-06
6.02910517871291e-06
-2.85019713260544e-07
-2.53939154058009e-05
-4.26932229046187e-06
-1.7381536428063e-06
-1.52683884795344e-05
-7.34522686394381e-06
-8.46425098701237e-07
-6.70937928519396e-06
-8.56399420168441e-06
9.13946911743754e-07
-2.17359214295099e-07
3.93200883186222e-05
-8.56221636346381e-06
7.7059635519616e-07
9.44800252907519e-07
3.91627659162703e-06
1.05466710565111e-05
-2.4523670007205e-05
-5.47196597363878e-05
-2.30157727714177e-05
1.43414952982963e-05
-0.000122746858780393
-2.99993281378788e-06
1.79954151865569e-05
-2.58943247045015e-05
-0.00015575678683593
1.95610664380097e-05
-8.49899440801002e-05
2.55434616551045e-05
-3.13428518262012e-05
7.20390838982077e-06
-3.30627999356119e-06
9.42235824485286e-05
-8.87702533062944e-05
-2.68640207596511e-05
8.58817970653623e-06
9.7507655389938e-06
0.000153228736639875
-0.000128429039323913
5.58419229047869e-06
5.18587756240529e-06
-7.83810400394953e-06
8.91845811616001e-07
1.0137177307226e-06
7.33094684172373e-06
-6.71140747789303e-06
-8.62191272749177e-06
1.50641576496052e-06
3.94099963784861e-06
1.12769212734017e-06
9.60640162759496e-06
-4.78829018503053e-06
1.72585168527747e-06
1.23442792186729e-05
-1.64930585927825e-06
1.99506244195781e-06
1.33156204380021e-05
1.42046745886094e-06
6.94716992002634e-07
1.0219659910619e-05
2.85451386726639e-06
1.42015269562396e-06
6.71013916711578e-06
1.37170121654509e-06
5.95234740466247e-06
-5.70481284347888e-07
-6.64122618805044e-06
1.35010442336441e-05
-1.12390559488227e-05
-7.63283774879946e-06
-9.40783883003573e-05
6.2058054264994e-05
4.45691761680589e-05
-5.12336748186866e-06
1.1978145903514e-05
1.43783884515883e-05
-2.27647714421448e-06
1.97100171700625e-05
4.14556047481733e-05
3.69081235037814e-06
8.1801909446357e-05
-7.92977953059502e-06
1.29329022365192e-05
6.06171111323772e-06
5.0865317916215e-05
1.87126235161716e-07
1.02809581157071e-05
9.28706549262636e-05
1.84626807924216e-05
0.000132686772638268
2.59766861311371e-05
4.58254016636542e-05
-8.05389366699533e-06
5.27604323113214e-05
-5.00122959241389e-06
-2.62715197590135e-06
6.74850101455873e-05
-1.34822472570359e-06
1.17093672639235e-05
6.58946273363918e-05
1.71722520266624e-05
7.33896991635582e-06
3.34761485719569e-05
1.65780474088359e-05
-1.2305246927008e-05
5.09554534033372e-05
-6.01952634944744e-06
-1.25604176038047e-05
4.40763265766581e-05
-6.7094246213074e-06
-1.98224263626516e-05
2.86073931630394e-05
-1.05498370853886e-05
-2.31671754035075e-05
1.8783043958863e-05
-8.95682182850928e-06
-1.01709175438611e-05
1.16950872427765e-05
-4.08732979196967e-06
-1.34410033407959e-05
4.20126871763139e-05
1.52697337898722e-06
-6.00770452391445e-06
4.79747114383877e-05
5.45710388694915e-06
-1.22716133486805e-05
4.74401246213538e-05
5.21259447655945e-06
-2.10586182986415e-05
3.11187163170993e-05
2.06572842278882e-07
-6.84830878884211e-06
1.7999572886829e-05
-6.49879729067573e-06
-1.28904392511712e-06
6.42410194189559e-06
-3.87595953245646e-06
-9.71843080192132e-06
4.10636080861835e-05
6.73507638548993e-06
-1.76135544881233e-06
7.78778754345467e-05