/*--------------------------------*- C++ -*----------------------------------*\
  =========                 |
  \\      /  F ield         | OpenFOAM: The Open Source CFD Toolbox
   \\    /   O peration     | Website:  https://openfoam.org
    \\  /    A nd           | Version:  12
     \\/     M anipulation  |
\*---------------------------------------------------------------------------*/
/*   Windows 32 and 64 bit porting by blueCAPE: http://www.bluecape.com.pt   *\
|  Based on Windows porting (2.0.x v4) by Symscape: http://www.symscape.com   |
\*---------------------------------------------------------------------------*/
FoamFile
{
    format      ascii;
    class       volVectorField;
    location    "800";
    object      U;
}
// * * * * * * * * * * * * * * * * * * * * * * * * * * * * * * * * * * * * * //

dimensions      [0 1 -1 0 0 0 0];

internalField   nonuniform List<vector> 
10107
(
(0.00432308925001952 0.00688809664978218 0.00917471811075121)
(0.00313134388276473 -0.0292724803902603 0.0148392897950976)
(0.0198847953078396 0.011653276458101 -0.00225482369397182)
(0.00388334626875532 -0.018204561468585 0.011127619130747)
(0.00436746133522197 -0.0353187466673288 0.0054232510288479)
(0.00536122042982968 -0.0344934063668487 0.00879352757261212)
(0.00565388451046854 -0.0351955151218643 0.00336718202446227)
(0.0195391770843258 -0.0131439695949852 0.00235500508035454)
(0.00565587279223993 -0.0151078566928869 -0.0132728694925793)
(-0.00630806703385451 -0.0177128879102257 -0.010603861795878)
(0.00572591853134324 -0.0330832455416599 -0.0072384194507709)
(0.0172193984422651 -0.0146456398033993 0.0219923291250366)
(0.00494134798942018 -0.0445231976364894 0.0018698512005048)
(0.0105070753246668 -0.0394865508933506 -0.0108109817560539)
(-0.000530298682327004 -0.0202852368948202 0.00586797127743239)
(0.0114367736820228 -0.0294168973683758 -0.000569535833005796)
(0.00330792052428712 -0.0296930042119003 -0.00457445824733445)
(0.00694050950773287 -0.0361055366844055 -0.013001926933996)
(0.0138846886930915 -0.0240671054613971 -0.00254290148994168)
(0.0044628129447964 -0.0264981707499411 0.00683653655936558)
(-0.00849296539107273 -0.0134865635192428 -0.0043374961251978)
(-0.00296848318208775 -0.0160346968141506 0.00188085789453517)
(0.00765890353341095 -0.00478214670821222 -0.00605747156938339)
(-0.0134190963987891 -0.010338980263607 -0.00561195558543708)
(-0.0129141332572451 -0.0109859975292251 0.00474240476939713)
(0.00466836404833482 -0.0465042949038258 7.38904530018207e-05)
(0.0148526101021171 0.201124048291152 -0.0064076846036197)
(0.0197269716936364 -0.00507388436584341 -0.0345482814623467)
(0.00759229072551836 -0.0331431176243325 0.00159065226023014)
(0.0103945292212938 -0.0209024670395603 0.00317988609677553)
(0.00193460814376243 -0.0362084792779403 -0.00563157251667808)
(0.0022326519574542 -0.028045180276752 -0.00259889057676329)
(0.00779267642356864 -0.0201497283305388 0.00842819384396769)
(0.000733854363283046 -0.0146985869934581 0.00311420702214083)
(-0.0101853191832318 -0.0128461352463656 0.00876910699982787)
(0.0183269615275198 -0.00686569867906535 -0.00822282158774475)
(0.0187124507038864 -0.0293547989700678 0.0122418922735004)
(0.00261818591296669 -0.0242727831782297 0.00197656876365044)
(-0.00200573126972288 -0.0329663817307343 -0.00467986549988723)
(0.00214500254169304 -0.0381341274671319 -0.00887916756528786)
(0.00198012293424575 -0.0264103980215586 -0.0141444024525385)
(-0.000574680288073116 -0.0257808227047972 -0.000248896647256014)
(0.00170584461856559 -0.0335671946595195 -0.00337423131713353)
(-0.00163962033152464 -0.0325416339050015 0.00613136806248697)
(-0.0104522190870758 -0.0194577216870582 0.000580190743126869)
(-0.0172561699093429 -0.0227094802036077 0.0110067016200978)
(0.00180062448878104 -0.0417814839261583 0.00469432014559539)
(-0.00127807124143001 -0.0376276021682106 0.00651838944124259)
(-0.00583616849494651 -0.0294451157629546 0.00980859526376973)
(-0.00665906880395428 -0.0323204982764821 -0.00358153526022848)
(-0.0156317223672606 -0.0059665345058852 0.0028300632507702)
(0.00137636492414187 -0.011794598622022 0.000274313384092843)
(-0.00184753295259429 -0.0346702792655271 -0.00126566665720823)
(-0.00588531701452395 0.115522690933585 -0.0156552320249087)
(-0.000867212611517507 -0.0342385699457591 -0.000998919703241813)
(0.00164738907306348 -0.0334019160996825 -0.00236316310213619)
(0.0138738404817559 -0.0345606145780551 0.0130012789620628)
(0.0150912352247198 0.00438682504207009 -0.00949650452498142)
(0.00448400548654556 -0.0294546364155261 -0.0106450527417385)
(-0.0013463190923776 -0.0296441765115084 -0.00664017893676502)
(0.0184164788422497 -0.0308633998308906 0.00695569048151978)
(-0.0170688521061877 -0.00432998032099311 0.0118078997010044)
(0.0165555577980995 -0.00600723124593468 -0.00100515459128223)
(0.0148724916999389 -0.00887281417809965 0.00360420162354609)
(0.015185307936609 -0.0318334701761796 0.0184639674551454)
(-0.00961797921791729 -0.0191798764998614 0.00420369325406885)
(-0.00357323996501055 -0.0362959164566303 -0.00697168429879391)
(0.00305995584472766 -0.0344303720574208 -0.0124911642970502)
(0.000145916805930787 -0.0354929147611798 -0.00969650979220267)
(-0.00606845312743664 -0.0266575638523418 -0.00907623608302639)
(-0.00307915593895259 -0.0238354102771169 -0.00722404989845287)
(-0.00598647679422252 -0.0204466772012916 -0.00788237758550688)
(0.0141493000905209 -0.0251315967447363 0.00475886314234727)
(-0.00522786128424071 -0.0429313478354157 -0.00128742891650858)
(-0.00724887403597467 -0.0338656123296944 0.00236431087134502)
(0.00922223085216377 -0.0193369673132565 0.00660564504232566)
(-0.0226485480493719 -0.00875039751665815 0.0115738566495421)
(-0.00680726810126606 -0.0324344364311161 0.00726599005977412)
(0.00256988440004977 -0.0529320187031765 0.0095748684647695)
(-0.00809597841832856 -0.0241280622271028 0.00111170508160343)
(0.00962606563043566 0.0237332469601144 -0.00818736578028305)
(-0.000250598277446562 -0.0359518355591443 0.000516810546116553)
(-0.00352987847261985 -0.0391922033776743 -0.0019626268309268)
(-0.00186976636843589 -0.0400192544831496 0.00207977258172545)
(0.00454026398169162 -0.0258884878225253 -0.00277151883247285)
(-0.00162460009731864 -0.0329462554063452 -0.00219710907771181)
(0.00794648395663689 -0.035788437023799 0.00710622477339496)
(0.01333555535192 -0.000836239702594173 0.00500781544196822)
(5.80002762912889e-05 -0.0248579120882529 0.00238609087971202)
(-0.000129934973176819 -0.0568837522731149 -0.00694397716341522)
(-0.00132750542000651 -0.0265902127616287 -0.00510370690601654)
(0.0144457975507467 0.0019891801220612 -2.32226640103721e-05)
(0.00612844880994568 -0.000989004877354846 0.00186439721835131)
(0.0295486267143069 -0.0104798501450364 0.0119617371694787)
(0.00717647535998599 -0.0212207740495367 0.00520976035777452)
(-0.00723255810655037 -0.0318399779764145 0.00403947278688619)
(-0.00350731719817008 -0.0292841275251902 0.00240029446858107)
(-0.00156126350978963 -0.0414817981018657 -0.0091341066633381)
(-0.00334407333432381 -0.0662348613314165 -0.00583781619979366)
(-0.00267342217363246 -0.036972888358153 -0.00529542943448531)
(-0.0105037588113165 -0.0292750665208115 -0.00822109256567705)
(-0.0025504485296628 -0.021601129535396 -0.00515561460684855)
(-0.00787677232132179 -0.027583855790268 -0.0014491435807579)
(-0.0125603923080692 -0.0177956477618048 -0.00775874777709722)
(0.00247549862429106 -0.0164627163404643 -0.00014749385354395)
(0.00989655191957417 -0.00159207158635204 0.00390041024274623)
(-0.00859552366152924 -0.0550048954440702 0.00117168513223883)
(-0.0145163925680553 -0.0345928745887347 -0.00187911777909692)
(-0.00472880856903015 -0.0101633213196735 -0.00443226234732287)
(0.00889823722700961 -0.00839282591067337 0.000387992804332626)
(0.0105080252890303 -0.00386431835833462 0.00400072592455668)
(-0.00200059423778742 -0.033929971668762 0.00141627950689923)
(-0.00249124410459717 -0.0366154550940217 -0.000975864236997729)
(0.00294714893874607 -0.0258931379951453 0.00219678191506138)
(0.00403428712997775 -0.0286056742664646 0.00865517443895282)
(0.000253596528058363 -0.0575453272021057 -0.00404159063755504)
(0.000120784810707514 -0.0396405503001281 -0.0023066828722828)
(0.00208619494167216 -0.0237878242543473 -0.000108448965498791)
(-0.0100879230209147 0.00905868869479918 0.0065946408483337)
(-0.00176448541887689 -0.108701185305294 0.0104516341011143)
(-0.00136681434571694 -0.0335087535327212 -0.00798871264668953)
(0.0100969314575544 0.00163300641744367 0.00101206163478167)
(0.009688418944861 0.0025638566284822 0.00071503706375225)
(0.0152648823606658 0.000439668187466325 0.0017299220743768)
(0.0117660620230496 -0.0147852238994581 0.00553958619576657)
(0.00572130996767891 -0.0354921614117268 -0.0059890953728668)
(-0.00646667415218981 0.00713951215463497 0.00881324193121571)
(-0.00471669442219126 -0.0374356739801426 0.00494061576998281)
(-0.00507441815999094 -0.114009488729638 0.0105236200930192)
(-0.00460897904084792 -0.0543426320385995 -0.00225934518550912)
(-0.00632553624705362 -0.0885912788515374 -0.000539217324331053)
(-0.00253089868627213 -0.0313357563775504 -0.00931138011109311)
(-0.00493620994670173 -0.0481026963521767 0.000401290588586524)
(-0.011335559438834 -0.0410334697098268 -0.00243180190533145)
(-0.0082643911555939 -0.0183061306927627 -0.00350221427097518)
(0.0112681403276888 -0.0102798560873678 0.00485731992296134)
(-0.0104914044197968 -0.0351724273018825 0.000335309246728183)
(-0.0184868250446078 -0.0220148099819448 -0.00639114245345064)
(-0.00989393304367189 -0.013697137404485 -0.00435295414407771)
(0.00411044723383817 -0.00736771319095074 0.000313902916222847)
(0.0119279339526334 0.000692077715296694 0.000338999380637519)
(-0.0195088449554126 -0.0346209855124913 -0.00508963094317729)
(-0.0143814033009838 -0.0119969223973441 -0.00876108744876859)
(-0.00511659362095136 -0.00978559233163945 -0.00404144404331107)
(0.0029071334390676 -0.00287684814555693 -0.00140335975184739)
(0.000543156146349867 -0.0240971255808224 -0.00226334950506876)
(-0.00140202967863938 -0.0382731867126897 -0.00155360192135289)
(0.00011891214409364 -0.0594128597989722 -0.00367343098589184)
(0.0156425854536295 -0.0302916431127341 0.0112530173334586)
(-0.00995238381767091 0.017179755868334 0.00493074410824177)
(-7.48738064896457e-05 -0.101648790426696 0.0102405108725788)
(0.000704834684915859 -0.0373479569486079 -0.0022062098895887)
(0.00218429712739659 -0.0434427798340439 -0.000194781649306241)
(-0.00562439744160106 0.0112931257843252 0.0173707491111943)
(-0.0145716219199099 0.00130182732341573 -0.00515514108729129)
(-0.00250761127871097 -0.0647141600081969 -0.00177069111545254)
(0.00561840675888756 0.00120098985240971 0.000574119670109003)
(0.00874592086890251 0.00141140337101492 -0.000358358010094626)
(0.00769225022657681 0.00166480976334876 0.00131850609874463)
(0.00884993339385202 -0.00186817956015787 0.00226335227499861)
(0.00954242458921513 -0.0219611979314306 -0.0064188087369434)
(-0.00160864317204182 -0.00264043682319908 -0.0216247940835526)
(-0.00491797213494444 0.0027255987577782 0.0191327788594226)
(-0.0013307649348583 0.00533037034676271 0.0111585585984793)
(-0.0199970749821619 -0.00205815596955185 -0.00674017383526276)
(-0.00425906430441714 -0.0508813564568761 0.00635364922270564)
(-0.00758447721061052 -0.132601675436403 0.0105569244371617)
(-0.00400133160227257 -0.0609619072663561 -0.00378917222686245)
(-0.00534638549407989 -0.0686269691124655 0.00310832076793669)
(-0.00724567545242724 -0.102966989947979 0.00379718980217296)
(-0.00606181038804004 -0.0361898414170342 -0.00797183619812811)
(0.0094015052559269 -0.0139648170639185 -0.00738812224272176)
(-0.00563787072572639 -0.061532048676077 0.00442249188244535)
(-0.0110728198291249 -0.0556696758639368 0.00238076743559675)
(-0.0113709538405737 -0.0184828422506696 -0.00275179844923024)
(0.00437698406933012 -0.0116710026328396 0.00112434912987916)
(0.0125822531980937 -0.00364931720992936 0.00051122591596117)
(-0.0209975866407282 -0.0285698505202496 -0.00585695272362112)
(-0.0196057927938886 -0.0130314277105566 -0.00728831216957363)
(-0.00928656576501471 -0.00910812003227687 -0.00413644846264721)
(0.00146469626174616 -0.00336945029600072 -0.00221047944624159)
(0.0066545058068771 0.001241581186958 7.20553447048468e-05)
(-0.0192794812039478 -0.0154681429378807 -0.00976879255008849)
(-0.0119766222984661 -0.0118604666509685 -0.00610741917054484)
(-0.00656663209301379 -0.00546981499729002 -0.00304900343315067)
(0.000791358585219684 -0.000963747758070857 0.000212547239470407)
(-0.000360707936037445 -0.0449511583198135 0.00076244142055651)
(-0.00176067720731759 -0.0366545792828495 -0.00224836492540003)
(0.00114082930165163 -0.100626086999888 0.00834835464387705)
(-0.00732703152637107 0.0190948213202919 0.0134898936422594)
(-0.00455168964843621 0.0193808685064956 0.0142042920515935)
(-0.0107045218355811 -0.00361737427625867 0.000132606203888099)
(-0.00416650850148381 -0.0750792558751237 0.00464054158824922)
(0.00495116962661457 -0.0248857837336104 -0.0157250039589733)
(-0.0030261278123455 0.00790548154050289 0.0114066770400367)
(-0.0157681903175781 0.0105393342302315 0.00404151669538401)
(-0.00992073946435676 -0.00517997578505769 -0.00764069601968465)
(0.0028859886379137 0.000683086904890532 0.000270883423837706)
(0.0050664643274386 0.00115440975725904 0.000280690746309658)
(0.00276511707313946 0.00172090191460043 0.00114636720417083)
(0.00950770324747572 0.000332736798986856 -0.000413711750266105)
(0.00972634501898929 -0.00304946052551208 -0.00622987861780953)
(-0.0043284514732514 -0.00174027103621127 -0.0139969618264391)
(-0.0173157686388202 0.00865985312507548 -0.0128059644559043)
(-0.00344825061378732 -0.00320161589501762 0.0120443718316056)
(-0.00274008919918217 0.000526620920975071 0.0203242593247889)
(-0.0164799957460849 0.00495292971699831 0.0077292730039612)
(0.000645604327007435 -0.0014905575983949 0.0113765814769214)
(-0.0175421482720702 -0.00459062269962311 -0.0037314675993437)
(-0.0198556557559888 -0.00866212288776405 -0.0096282867575284)
(-0.00388653514222849 -0.0625108338654692 0.00688664063164271)
(-0.00798627180328818 -0.137262134509967 0.0109775754402556)
(-0.00819556168338504 -0.0687320544242648 -0.00497730804271462)
(0.00296049121719691 -0.00248247154833735 -0.0130613496111577)
(-0.00534771118483001 -0.0802006203772663 0.00644732796431065)
(-0.0066909428919713 -0.113409988840622 0.00706895584838856)
(-0.00738700592365451 -0.0399255764313872 -0.00635822115496322)
(-0.00174304241042691 -0.0104894799343673 -0.0069704174858446)
(0.00952154564119982 -0.00429039932107715 -0.00491511863204232)
(-0.00522685588797307 -0.073817866366377 0.00708063190760622)
(-0.00973562354937057 -0.0690637034183023 0.00514649509319817)
(-0.0141003797485115 -0.0220825557378584 -0.00325680866167184)
(-0.00965330277519393 -0.009574451754712 -0.00281314342161482)
(0.00206848270117265 -0.00596844248543871 -0.00217421177851751)
(0.00702496321223651 0.000374150329530461 -0.00110776679369501)
(-0.0239875896835913 -0.0144356869701997 -0.00837085597337497)
(-0.0174304750413448 -0.00931334929342777 -0.00619684658222638)
(-0.00867403462567142 -0.00567003700267117 -0.00351222342621574)
(0.000182261490433255 -0.00139495580620135 -0.000817193325278407)
(0.00213696018473207 0.00159114519737122 0.000436026353135169)
(-0.0158303529733948 -0.0135314989441647 -0.00565027071947524)
(-0.0107777731506902 -0.00734882237465311 -0.00388430332906371)
(-0.00527904948423406 -0.00298461296278143 -0.000994760323151099)
(-0.00122901952998881 0.00021701740183664 0.00081052694273571)
(-0.00752406491815065 -0.0251866227975524 -0.00194985658615084)
(-0.00572585243983956 -0.0669772438506881 0.00341399244372849)
(-0.00368703092705287 -0.0186314754336753 0.0273113660444812)
(-0.0114605800154937 0.0373946019947503 0.00786402594876425)
(-0.00557474498820127 0.0137662009534595 0.00934348774374703)
(-0.0158167351138653 0.0228644705406604 -0.000472170280815786)
(-0.00883542027244332 -0.00566123320403109 -0.00853453337094444)
(-0.0116984483357007 -0.000274908138636031 -0.0137455832854693)
(-0.0020208682531633 -0.00831219334231766 -0.000183753392962312)
(-0.0106602926226094 0.0151109041041619 0.0127921165984769)
(-0.0152147973468731 0.0143832605848074 0.00539242568990713)
(0.00169299002922114 0.000269632015683575 0.000137864832710792)
(0.00255572195093167 0.000726048131892309 7.29307888075856e-05)
(0.000414160852553519 0.00114198820785924 0.000862498448904259)
(0.00462990042094729 0.000835455898222936 -0.000703177058452215)
(0.00837196871529659 0.000315813552758206 -0.00359080520389942)
(0.00104405507302969 0.000128027709336108 -0.00899855871356788)
(-0.0179786626215279 0.00475262711902787 -0.00808536307740561)
(-0.0208481447383408 0.00979961215939232 -0.00174855925872804)
(0.00171938146726002 -0.0177659541546287 -0.00152363345922377)
(-0.0018632045142584 -0.00896310171565123 0.0123952496437889)
(-0.0113520906076096 0.0048495366332662 0.0131386263285277)
(-0.00200350646021019 -0.00484219853080213 0.0200468306933064)
(-0.0095484491469572 0.00301583169737366 0.0116577076375924)
(-0.0178866718009529 0.00441676212810657 0.00801104450162604)
(0.0019923364170038 -0.00743737379130088 0.00935351796118282)
(-0.0153320638652978 -0.0104151910770902 -0.00427362080321804)
(-0.0211679123034532 -0.011076133715697 -0.00912606831146869)
(-0.0150768532093759 0.00604807359932908 -0.00581509860417284)
(-0.00365698204634038 -0.0699775237809936 0.00685669555233721)
(-0.00684467086886337 -0.140450480220673 0.0111768467515625)
(-0.00974916251978987 -0.0692894903576238 -0.00517767661486473)
(-0.00712550668873104 -0.00570665479564683 -0.0123547175923116)
(-0.00360141762770363 0.00145988794218045 -0.0060741310638965)
(-0.00473446698188963 -0.0879858105041084 0.0086950072948136)
(-0.00591508544689145 -0.119174403568951 0.00874591197704049)
(-0.00757392872230744 -0.0439058319117653 -0.00532849634088818)
(-0.0125160184296247 -0.00868901379732487 -0.00566907341250948)
(-0.00525553802337958 -0.00487248882613101 -0.0029783824430281)
(0.00320422786065323 -0.000505942635973529 -0.00384462544820203)
(-0.00424323431768946 -0.0835925002091853 0.00909865266496207)
(-0.00758332870855016 -0.0804966814924973 0.00703995158217137)
(-0.015399311423004 -0.0284747480568347 -0.0035437148444381)
(-0.0182159478166977 -0.00826456816907595 -0.00427031023897666)
(-0.0111862112358589 -0.00554207038935443 -0.00317593687217374)
(-0.000515331220223453 -0.00264052537900335 -0.00185688923104486)
(0.00197323130024425 0.00080529204678022 -0.000679758154040327)
(-0.0221233573659972 -0.00907524864588902 -0.00553806616664629)
(-0.0139962871888427 -0.00640386238529332 -0.00380995444394933)
(-0.00602825531193088 -0.00325805396462193 -0.00163934951480088)
(-0.00134361780453784 7.52326156795936e-05 -7.7798217479769e-05)
(0.00018625685926055 0.00121905976695673 0.00040740373940949)
(-0.0137244955604066 -0.00963779739273279 -0.00321451382590549)
(-0.00923311193354415 -0.00413720486275019 -0.00203129752033051)
(-0.00544906896695846 -0.000984106593508812 -2.83406502766133e-05)
(-0.00223988246468711 0.000602682615802092 0.000918520175910451)
(-0.00964218700549319 -0.0166201314149821 -0.00664012656101611)
(-0.00924928326872311 -0.00228461856792984 0.00682176374307597)
(-0.0178688323053071 0.0238314056302636 0.00105779517256411)
(-0.00918175551149388 0.0310626650928706 -0.00172510799172687)
(-0.00896646927661092 -0.00379882706341071 0.00120721968593851)
(-0.00861268572127003 0.0219820197357863 0.00996202052509231)
(-0.0159473279510684 0.0172917157567483 0.00247182615974798)
(-0.0188147177019311 0.00355076009844444 0.00145033716639995)
(-0.00432921653140989 7.1817337966372e-05 0.00787676853924353)
(-0.000391449719834167 -0.0254421703226978 -0.00361413695178876)
(-0.00970117490310544 0.0149407304358055 0.0145092779533779)
(0.00103857808240149 6.32752936448919e-05 0.000110082004413837)
(0.0014290020655572 0.000399616803835162 5.22547515964488e-05)
(-0.000418176311382792 0.000535264527458559 0.000640383283227802)
(0.00237189023360516 0.000522041627162578 -0.000397649065098667)
(0.00329687892014826 0.000258240133559539 -0.00248717120275759)
(0.00079273502715593 0.000601116120382354 -0.00563919300276348)
(-0.00642173690426666 6.52439224339077e-05 -0.00701381604407761)
(-0.0205499528454078 0.00276813833963394 -0.00201372804963953)
(-0.0200292233633297 0.010900747757938 0.00838727922725158)
(-0.00416722574818235 -0.007339285259209 0.0022428904259104)
(0.00209387826046247 -0.0194252108526052 0.0024015030736679)
(0.00258816954711468 -0.0249243469896932 -0.000221979363723001)
(-0.00133534375362565 -0.013431847989244 0.0142564414566286)
(-0.00582451451645168 0.00237615691513869 0.0105467523763295)
(-0.0127520962416036 0.00433301664304338 0.0154018266895238)
(-0.000829392935469533 -0.0106654798034039 0.0178987084060582)
(-0.00477286515213343 -0.00402346757300031 0.0119750616379351)
(-0.0122201307824342 0.00212758493556469 0.008746218248521)
(-0.013698251400553 0.00535106342693652 0.00500447026848022)
(0.00245778042512985 -0.0139894565248552 0.00632264646464516)
(-0.0105669136605099 -0.0202533458239306 -0.00473664517245683)
(-0.0189813007767193 -0.0180460346815379 -0.00826623202831708)
(-0.0158935956001527 0.000778241658148196 -0.00499726242075112)
(-0.00940623451459509 0.000778967194085221 -0.00403154911963139)
(-0.00266766242389031 -0.0729592361131053 0.00672981404840429)
(-0.004991356449539 -0.1411260199554 0.0109299652602005)
(-0.00890123533213677 -0.0710146887615719 -0.00535003096309246)
(-0.013330834033113 -0.00811675348921563 -0.0102593111330349)
(-0.00985749510003421 -0.00211260932809179 -0.0023864774775164)
(-0.00331256078846496 -0.000244342000176725 -0.00472018951218661)
(-0.00383819674087555 -0.0924515312552441 0.0105509713591486)
(-0.00403173573435632 -0.122051890559511 0.0100749698845298)
(-0.00664651186212623 -0.0495427565327331 -0.00437372063072381)
(-0.0175514171415177 -0.00919092175830069 -0.0048459181717447)
(-0.0136043440085751 -0.00447618897309643 -0.00160067934490696)
(-0.00403883303141186 -0.00250379026781793 -0.00315922704113738)
(-0.000374187293365599 0.000234018306394714 -0.00235072204744503)
(-0.00313526676199155 -0.0900696014101206 0.0108720803600223)
(-0.00479199766690526 -0.0905048770818053 0.00886083896749468)
(-0.0150305084650358 -0.0367250484815229 -0.00255451098172737)
(-0.0225144975375346 -0.00868095469795145 -0.00357088249205107)
(-0.0168097519252191 -0.00495299385450776 -0.00248569145263374)
(-0.00765982015988243 -0.00323722391562416 -0.00209305546171111)
(-0.00188636746290251 -0.000428993390235451 -0.00115754387482595)
(-0.000362465481526469 0.000902016023653712 -0.000331481597011462)
(-0.0183536425439857 -0.00654669620052596 -0.00283553407516485)
(-0.0105362572042221 -0.00353036090850149 -0.00215346493712039)
(-0.00557522244298537 -0.000947708060832405 -0.00059372107830773)
(-0.00234459514951806 0.000774066197394666 0.000327688327796606)
(-0.000644005036589043 0.000738985223945929 0.000335230218416578)
(-0.0117290518858248 -0.00640631322501467 -0.00209083666089361)
(-0.00879561178746683 -0.00146578858556508 -0.000891546048614845)
(-0.00526853578309708 0.000175886333915705 0.000537939504045409)
(-0.00258407133377608 0.000490075180939632 0.000936272070127967)
(-0.0130897976175249 -0.0163732745129413 0.00995413801554151)
(-0.016156576769174 0.0134382158187963 0.00673360750226879)
(-0.0157226233644925 0.0311800023841105 -0.000919939335554674)
(0.00250860863355492 0.00827922224432613 0.00651406865356799)
(-0.00698833634191278 0.00410257498619671 0.0114913006907976)
(-0.00317515959402178 -0.0268158019051288 -0.00597614173862216)
(-0.00888714703138569 0.0144180539039144 0.0147053282007912)
(-0.0207637913204647 0.00162773042801927 0.011375495339311)
(-0.0039020603140623 0.0018078512809493 0.00978470144929652)
(0.00135444370040238 -0.0357629989067489 0.00282010680699925)
(0.0137370781150827 -0.0216115096219319 0.00532194984512317)
(0.000530898136076106 -6.62041214260787e-05 0.000129718269982173)
(0.000750301913780172 0.000195499346422548 5.24268079215055e-05)
(-0.000864323053881436 6.0463605519692e-05 0.00043150950663122)
(0.00104813476993717 0.00031903235226763 -0.000204805279719899)
(0.00163431817004821 0.000108608612191089 -0.00133722141450779)
(-0.000288235908567517 0.00010628561835339 -0.00378740374167097)
(-0.00631625127541594 0.000741726508434119 -0.00485153771206604)
(-0.00865051375875864 -0.0016144436505366 -0.00384258025441465)
(-0.0210978087175288 0.00755134364997095 0.00374301502754321)
(-0.0124019944752074 0.013305314865689 0.0167950237886306)
(-0.00239427453864827 -0.00140425653443634 0.00236872723079997)
(-0.00226559800092467 -0.015931763465433 -0.000712444512751371)
(-0.000884647269329331 -0.0377631942366806 0.00323014987194755)
(0.000859427124298457 -0.0208081537172835 0.00644849745879829)
(0.00373837779193117 -0.0283471417058932 0.00412155150282865)
(0.00930841053785745 -0.0258176202330233 0.0126578458049433)
(-0.00149848169549023 -0.019150473452307 0.0140441970466469)
(-0.0026241331696278 -0.005308524481735 0.0111646111997314)
(-0.00892868615193368 0.00152886241336008 0.0132117402211215)
(-0.0127977923757506 0.00580998564779702 0.0125559282746606)
(-0.000474902798213514 -0.0156673126221013 0.0156171989869515)
(-0.00153476992130332 -0.00895892733479501 0.00968211070099555)
(-0.00664215359661812 -0.00249273129442492 0.0101973620870183)
(-0.0111464509276605 0.00194318277725992 0.00723136258030111)
(-0.0106413702422257 -0.000114677558648721 -0.000704810889180579)
(0.00245333830380653 -0.0197886234698671 0.00349875327827793)
(-0.00577043889287339 -0.031660310088849 -0.00486798322636714)
(-0.0141243650120378 -0.0282164647134059 -0.00765953278617948)
(-0.014036569621215 -0.00139199117557968 -0.001725659437293)
(-0.0115699774183506 -0.00114162337898791 -0.000645781977504396)
(-0.00845995036969618 0.000515713446804614 -0.00382439756718818)
(-0.0017380502434095 -0.0704762500527319 0.00705041913952466)
(-0.00281065450140488 -0.138581796022152 0.0108054757862134)
(-0.00630857069789774 -0.0742610226136329 -0.00487940902515181)
(-0.0150532187286133 -0.0110601787566892 -0.00737313594417992)
(-0.0127500076825723 -0.0035295460158945 0.000294325054183259)
(-0.00779484650578233 -0.000953371185249577 -0.00284782148577107)
(-0.00436081105495741 0.000586979328074565 -0.00305743912587134)
(-0.00307430203892064 -0.0941200032569702 0.0119845648227711)
(-0.00198615476404296 -0.121821406602929 0.0114636635202208)
(-0.00464973341601924 -0.056749109023553 -0.00290758827883665)
(-0.0192893451401466 -0.0117883567148773 -0.00308979234391501)
(-0.0171652279034012 -0.00452457822797173 5.82131197553232e-05)
(-0.0101651794190685 -0.00202729134781276 -0.00190920779711667)
(-0.0042824996366085 -0.000258910912682341 -0.00200997542923037)
(-0.0018889633681509 0.000556536368734947 -0.0012391275622278)
(-0.00214735653676324 -0.0938093726841258 0.0128065646436421)
(-0.00207650993455037 -0.0973460661044375 0.0107780518071339)
(-0.0125260527644334 -0.0468997377180347 -0.000162247706606587)
(-0.0244556186404258 -0.010676670176141 -0.000790218420766049)
(-0.020928710312767 -0.00460489557540587 -0.000656081046940104)
(-0.0126763577723085 -0.00235762597824261 -0.00182307051714328)
(-0.00661958337887769 -0.000647813007123572 -0.00121994209373701)
(-0.00305496798731757 0.000671123330496448 -0.00033843430985149)
(-0.00128566839327538 0.0006567348534869 -0.000162596774515675)
(-0.0139534963511704 -0.00390790813275592 -0.0019159438917005)
(-0.00907569885647978 -0.000981913118527116 -0.000965420822987937)
(-0.00530542092251724 0.000427610300147093 0.000151547373989788)
(-0.00269486094259947 0.00076270094744237 0.000506061895966271)
(-0.00115516705211167 0.000282831461772885 0.000196929818141903)
(-0.0110540089847479 -0.00238099692658361 -0.00137528793899943)
(-0.00793986613692521 0.000340200038499611 -7.49414931437462e-05)
(-0.00475252581284724 0.000469261979344263 0.000866851287189654)
(-0.00265351950521542 7.30529035539752e-05 0.000761188180214008)
(-0.0152256594193435 0.00270577482418085 0.00828883576013165)
(-0.021977256303423 0.0274041420648809 0.0088015516246567)
(-0.0011105583090364 -0.026713943712318 -0.00353181797846473)
(0.00111096951127141 0.00860832255014883 0.0174141395711203)
(-0.00817171480632701 0.00219004119944815 0.0104842125794249)
(0.00432086925864971 -0.0371827660974892 1.64206202952538e-05)
(-0.000101616992157308 -0.0320301186089601 -0.00210476987308067)
(-0.00826916231290287 0.00619758913686056 0.0155728018325437)
(-0.00878953365638236 0.00790104861027678 0.00820601625642683)
(-0.00423549527693787 -0.0306886756328236 0.00815874613257657)
(0.000126776831133301 -0.0487728146660029 -3.06605017206182e-05)
(0.000146126307375164 -0.000108931221292898 0.000183659479017334)
(0.000280642009706069 2.31444525462876e-05 0.000131289451248248)
(-0.00108482324456339 -0.000167973010656739 0.000227636067828894)
(0.000355692482911763 0.000184275918903824 -9.57633504747846e-05)
(0.000407024830829902 0.000100601525429358 -0.000740706561734869)
(-0.000623863801540768 -2.72787628704642e-05 -0.00204098382331561)
(-0.00392811740034914 3.42005355490308e-05 -0.00327944030963225)
(-0.00950405489728454 0.000340807257495581 -0.0031182809632685)
(-0.0101941149636867 -0.00156525088460823 0.0010945618380563)
(-0.01770040933553 0.00845119573985973 0.0105244932671881)
(0.00533820724516948 -0.0128590770496638 0.00670936527374686)
(-0.0021046970835166 0.0116825873018603 0.000193911771628199)
(-0.004023942146248 -0.0123772717499282 0.00101295653201375)
(-0.00206775881334494 -0.0296207394303791 0.00775237071376132)
(-0.0013623303144761 -0.0175562691973518 0.0018929231135304)
(-0.0016550168873355 -0.0424788624617206 0.00271288231580019)
(-0.000108450815001708 -0.0512873807909984 -0.000258282543452503)
(-0.000318572460641079 -0.02501092238012 0.00848439321309303)
(0.00189179743608823 -0.0294566895355593 0.00817182919442808)
(0.000372609123732507 -0.0215807755905146 0.0122432607305846)
(-0.00160733096347338 -0.00254366932257184 0.0132153784212396)