/*--------------------------------*- C++ -*----------------------------------*\
  =========                 |
  \\      /  F ield         | OpenFOAM: The Open Source CFD Toolbox
   \\    /   O peration     | Website:  https://openfoam.org
    \\  /    A nd           | Version:  12
     \\/     M anipulation  |
\*---------------------------------------------------------------------------*/
/*   Windows 32 and 64 bit porting by blueCAPE: http://www.bluecape.com.pt   *\
|  Based on Windows porting (2.0.x v4) by Symscape: http://www.symscape.com   |
\*---------------------------------------------------------------------------*/
FoamFile
{
    format      ascii;
    class       volScalarField;
    location    "100";
    object      nut;
}
// * * * * * * * * * * * * * * * * * * * * * * * * * * * * * * * * * * * * * //

dimensions      [0 2 -1 0 0 0 0];

internalField   nonuniform List<scalar> 
10228
(
9.05923611093883e-07
9.37541339175689e-07
8.30877295718949e-06
1.09602327469383e-05
1.14671061248511e-05
1.00284890352957e-06
8.42343601360659e-06
2.28507578926611e-05
0.000141836266841863
3.1517882646396e-05
0.000142413121021715
1.19016042557015e-05
3.22236108541236e-05
9.22201392104094e-07
8.52367459805182e-06
2.20944668357383e-05
3.73554934828314e-05
0.000275006025889351
0.000302281616504085
5.27886204027768e-05
0.000305354492990728
0.000274212568811487
0.000143324670192701
1.18148122348507e-05
3.34349377412698e-05
5.61508979772356e-05
9.24416523688643e-07
8.34509617379845e-06
2.19752961680563e-05
3.732091288024e-05
5.58856147353695e-05
0.00037288904586885
0.000619357733049882
0.000426682154650584
7.74217098891831e-05
0.000621711180751464
0.00030864273598244
0.000433542865625619
0.000274186077883559
0.000372869443051984
0.000142100616425606
1.12003910487275e-05
3.37014730955281e-05
5.87026104792609e-05
7.97511355506821e-05
7.37091309918247e-07
7.87037214044943e-06
2.16183198736369e-05
3.72953538539898e-05
5.39186532264954e-05
7.03533327220307e-05
0.00045665719231293
0.000862964390686902
0.000909694241013093
0.000525994345359288
7.16375770795987e-05
0.000622150122684888
0.00086418511544696
0.000914601341808183
0.000438986073703147
0.000307557259706744
0.000531577172655716
0.000271532816067231
0.000372475219926828
0.000454113854771477
0.000136787511143031
9.61144021282012e-06
3.18778178902732e-05
5.93496613120681e-05
6.74504731717353e-05
7.30905069076275e-05
5.93939431312174e-07
6.72241886392834e-06
2.03209385543229e-05
3.65402607996371e-05
5.30903574685113e-05
6.91523219681686e-05
8.18786764310884e-05
0.000521603590106153
0.0010503064294058
0.00132176047709188
0.00113567121074079
0.000575431330344715
7.74505142100551e-05
0.000861521075635577
0.000915909361043478
0.000615599143474862
0.00132400761970727
0.00104984249292576
0.00114142047476735
0.000526073576742631
0.000439485284878174
0.000297389173279876
0.000582599015186126
0.000262464863880098
0.000368199780129432
0.000452118811913228
0.000518898497981475
0.000125229403518023
8.36246785283302e-06
2.7964702082148e-05
5.69956839787055e-05
8.16039623294652e-05
7.43887437801359e-05
7.86982156627545e-05
1.90870560277883e-07
4.65288963779147e-06
1.77449920709658e-05
3.42742881533841e-05
5.16714989940738e-05
6.84800003034506e-05
6.68884217147326e-05
7.13919234681886e-05
0.000569420771869945
0.0011947992260006
0.00164600123022017
0.00170173697637266
0.00130068845978373
0.000625187685129509
8.21200695210796e-05
0.00104430163820745
0.000849375838315936
0.00131907507247884
0.00114172970680006
0.000907189604444729
0.000595443090702869
0.00164577419891912
0.00170455575533126
0.00119344008742475
0.00130830606645493
0.000589451260672731
0.000539200818487578
0.000427239232481811
0.00027430992571523
0.000633021799347751
0.000243999834810642
0.000355567089281981
0.000445769868159675
0.00051770277006026
0.000551939753251842
0.000103986100630802
3.13111756575124e-06
2.62978544524352e-05
5.11094237497028e-05
8.11653585833558e-05
7.4989783560842e-05
8.0150449491278e-05
8.36034271080446e-05
1.933453435297e-08
1.62060028211486e-06
1.25416616829891e-05
2.99297124662168e-05
4.82255707745821e-05
6.64528034847715e-05
8.16668799302232e-05
7.07582087681239e-05
7.44499005750602e-05
0.000584298691591538
0.00130320776352053
0.00189784736273621
0.00216879997840593
0.00200321130662071
0.00143439589402577
0.000668129740006913
8.63752677799499e-05
0.00163534432192706
0.00118694190151727
0.00102731952949836
0.00129951242785904
0.000819970619091503
0.00169862097779319
0.00131285178096848
0.00113536472074058
0.000878930550195487
0.000553195200035089
0.00216792214670903
0.00189589252166644
0.00200695389795273
0.00129887077970656
0.00144351468967271
0.000592304517285262
0.000641936505350737
0.000529644015067168
0.000397229427944245
0.0002330417537707
0.00067692777780749
0.000207714945300426
0.000330196397376981
0.000429460820130298
0.000510342029087274
0.000567064107925957
0.000582665287947426
5.16840429390176e-05
3.28009719843131e-07
9.55913970532727e-06
4.90125054935338e-05
7.53334606159096e-05
7.41639601750667e-05
8.07623895978553e-05
8.52426266003705e-05
8.79189200448904e-05
1.37861986565423e-07
5.17804814885084e-06
2.18054616705905e-05
4.1875144144111e-05
6.19496143044766e-05
7.96256351220705e-05
7.07951456368882e-05
7.38155380350435e-05
7.70933905077582e-05
0.000610029190689315
0.0013803640508688
0.00209272730067954
0.00254029312558415
0.00260285777719312
0.00224576670299604
0.0015455219808419
0.000705145326227402
8.99372039570228e-05
0.00215395808132116
0.0018817232463285
0.00160654857479456
0.00129641957543457
0.00116708441053401
0.000989878961198559
0.00167628926084069
0.00125504715152597
0.000761760763856005
0.00200218332473026
0.00145069831079253
0.00130684877090911
0.00110680768179207
0.000818908960638648
0.000466143453054248
0.00260147932539302
0.00253632326398801
0.00208975299001184
0.00225067384630051
0.00137986668311288
0.00155605613801378
0.000584223270092016
0.000645114178455006
0.000687111070589424
0.000501985063445508
0.000345834188384387
0.000714726107629288
0.000120704086823981
0.000278774654330058
0.000397445093198435
0.000491074271846783
0.000562986337993361
0.000584740273990064
0.000609205585716227
3.00546982809307e-06
6.78719139933663e-07
2.43474334545458e-05
7.27616838868292e-05
7.25018141177757e-05
8.00011045346942e-05
8.59844798116575e-05
8.96964446432547e-05
9.16061890116076e-05
4.90699244254916e-07
9.54721621257732e-06
3.06214483184048e-05
5.38205990072496e-05
7.47902296799283e-05
8.64568697237133e-05
7.35201243157817e-05
7.64899776122558e-05
7.93460132244802e-05
0.000633033137448532
0.00144804973201471
0.00224464156260197
0.00283361846353657
0.0030911300419107
0.00295868940278734
0.00244447994095344
0.00163897342775499
0.000736746183951371
9.29829413129608e-05
0.00251574128009909
0.00211814338797309
0.0025861092012427
0.00184620251798934
0.00207422785127815
0.00154800357110786
0.00137493559898707
0.00127714914634988
0.00112352538696136
0.000917941549994233
0.001980784021363
0.00162684287556264
0.00117062169526237
0.000644669845786744
0.00224780617056129
0.00156545020914091
0.00144727879884323
0.00128220683984382
0.00104682395435741
0.000701090152113119
0.000281624189442152
0.00308521366838061
0.00295745827450697
0.00282774268412929
0.00224195076068548
0.0024507273006283
0.00144790374818232
0.00165080356734984
0.000638499346913951
0.000566924241388973
0.000691422970457314
0.000726060891599087
0.000459910645670132
0.000747084040927146
1.08850955394447e-05
0.000167368440824715
0.000334878563939306
0.000454198339945093
0.000541465545418085
0.000597395991047763
0.000608458138622671
0.000632399784094505
6.44322807316842e-06
8.98150860976348e-07
1.64865760287188e-05
6.47888066603588e-05
8.57750023187301e-05
7.82570182983452e-05
8.52924595650255e-05
9.05733884377804e-05
9.35267991200784e-05
9.47419507256244e-05
8.1932578179893e-07
1.40549946112775e-05
3.96365881908447e-05
6.57010344255094e-05
6.84211634331358e-05
7.30219561893593e-05
7.61873349473745e-05
7.87564294665301e-05
8.12165198588815e-05
0.000652576347244514
0.00150583510505048
0.00236882360546657
0.00306684543210159
0.00348315420629334
0.0035519101571345
0.00325156721057191
0.0026094834042146
0.00171795213479318
0.000763636481963566
9.55526517493758e-05
0.00280275117757605
0.00306067748315232
0.00246910869688209
0.00254867516460297
0.00204963905709986
0.00294238318414187
0.00177643475112398
0.00203483905141404
0.00222500246169494
0.00144190812751194
0.00144117243546971
0.00135927923286416
0.00122977489402559
0.00104086457650923
0.000775022304754327
0.00193467433980193
0.00222936011658207
0.0015386902271607
0.00102051821522038
0.000384768806976467
0.00245003095769615
0.00166215955591595
0.00156468972409265
0.00142715591591321
0.00123625185057375
0.000941368020038618
0.000543198081015265
2.4178342756706e-05
0.00347420300150376
0.00354501697687949
0.0032510806860192
0.00306004828829432
0.00236604970258256
0.00261705938989109
0.00150580906867488
0.00173090530263442
0.000685979754984459
0.000623692728311003
0.000556424909438008
0.000731490310898463
0.000759437451239
0.000411482516110494
0.00077459926106843
1.69319914637764e-05
0.00020543586505908
0.000383152345245041
0.000503339653659912
0.000561663102412424
0.000604201810814243
0.000631357279155086
0.000652076459357228
4.42839209363842e-06
1.48005047112093e-06
1.59725107968582e-05
5.47911926807478e-05
7.85139044301375e-05
7.61861145610356e-05
8.35907822412956e-05
8.99636582847279e-05
9.45242368265113e-05
9.67797435299049e-05
9.73901889917075e-05
1.3651530631033e-06
1.86920539455409e-05
4.88746167109075e-05
7.62006986429067e-05
7.13187752949374e-05
7.54707256641404e-05
7.84698555917668e-05
8.06445330520845e-05
8.27779633248216e-05
0.000668927467943753
0.00155447385848266
0.00247176781772924
0.00325565034430007
0.0037983338328269
0.0040356132189963
0.00393529072085084
0.00349451253042327
0.00274762759502811
0.00178474799967636
0.000786400706936185
9.77279668523036e-05
0.00274829395690869
0.0034430247135921
0.00303214284002048
0.00351896114999661
0.00300933125561432
0.00238449071892032
0.00290657646669535
0.00248106844150925
0.00193510064501029
0.00323732822232625
0.00165178896604113
0.00195709494131561
0.00218345472330684
0.00234775305703386
0.00125211854428132
0.00149858087108601
0.00142027916137375
0.00130767831075245
0.0011410085830936
0.000878373427248923
0.000467838278117464
0.00185871600000204
0.00218925549430727
0.00243485039200411
0.0014023591366994
0.000749274157941715
3.13913032508064e-05
0.00261846100535628
0.00174393626031076
0.00166367221272206
0.00154808667964152
0.00139064314598986
0.00117433895050405
0.000824085442450235
0.000290579214252762
1.75184687615343e-05
0.00378765017612921
0.0040248304490659
0.00392841840529983
0.00349502219648996
0.00324829498584931
0.00246891618897428
0.00275637059202368
0.00155456570186677
0.00179862329662763
0.000672569654681844
0.000726968821644063
0.000605250912753885
0.000523634243555328
0.000765832704129101
0.00078781707977829
0.000362999167507786
0.000797873921942835
2.54132543757404e-05
0.000238515816446301
0.000425976891509982
0.000542796223261268
0.000588214188307453
0.000625378083619691
0.000651118508886806
0.000668532608585299
9.87941360370742e-06
1.17694138657139e-06
1.2436724081849e-05
4.3699003085591e-05
0.000146374969329473
7.25319843127855e-05
7.37814949187333e-05
8.15123444411953e-05
8.83067093721486e-05
9.39889134482081e-05
9.78767742358461e-05
9.95247177942391e-05
9.96222380690907e-05
1.93204633756494e-06
2.37130551524913e-05
5.7813922281582e-05
8.20986136038475e-05
7.37459266644776e-05
7.7734583501059e-05
8.03754349779618e-05
8.22115131807745e-05
8.40714769411701e-05
0.00068252522889797
0.00159509018115191
0.00255734221264973
0.00341040614301
0.00405393939792282
0.00442849384152178
0.00450046163020338
0.00425491923516853
0.0036973300847284
0.00286370095311089
0.00184112387254697
0.000805597898240919
9.95578248409137e-05
0.00297213749663491
0.00265112404194205
0.00338096433948801
0.00375202917677896
0.00399061377008117
0.00321828406816924
0.00390258904347331
0.00346736622265914
0.00292260779931229
0.00224598329689315
0.00320432096314923
0.0028445244730723
0.00237670413928563
0.00175754622386281
0.00348294976240299
0.00143024323615415
0.00181886706784818
0.00210013371553836
0.00230309333313001
0.00244974041833805
0.000909802921008743
0.00154721226633677
0.00147589934965875
0.00137246479399668
0.00122117583002009
0.000964273126660443
0.000535181325328242
4.52961472812092e-05
0.00175337555506964
0.0021262227735555
0.00240003946199599
0.00260615836827214
0.00121717274143903
0.000408705421910085
2.36693642454633e-05
0.00275959581417729
0.00181303250990613
0.00174729440805779
0.00164956834325947
0.00151677814346149
0.00134237406159705
0.00109850010805084
0.000696198686347955
0.000281075516804103
2.60133654029351e-05
0.00441543841772307
0.00404221507786475
0.00448917642545894
0.00424860318385686
0.00369880205704913
0.00340265247176836
0.00255442622529749
0.00287339949749931
0.00159526670308998
0.00185573876380039
0.000655009987987415
0.000714363289026889
0.000762034596386696
0.000582913621801694
0.000490642603810305
0.000795008913851157
0.000811797931255156
0.00032676066817223
0.000817470701686926
3.38564723889736e-05
0.000268643016410202
0.000462980162920559
0.000573137679930352
0.000609246714767841
0.000644894925621649
0.000667678557609934
0.000682189429795385
9.05206906080925e-06
9.34347616578308e-07
1.02926763489537e-05
3.41283595456058e-05
0.000142631067513749
6.54419981275918e-05
7.15363912513171e-05
7.93242029473031e-05
8.6257920994148e-05
9.23693011990478e-05
9.74000960237738e-05
0.000100700859203793
0.000101832345716577
0.000101495401854888
2.7233600777613e-06
2.85238573171267e-05
6.56928996727061e-05
7.07478149089666e-05
7.59618606540855e-05
7.96370542118965e-05
8.19534205109413e-05
8.35053360745082e-05
8.51359437737514e-05
0.000693759691618178
0.00162879715142158
0.00262836919083316
0.00353800765771914
0.0042629688920706
0.00474876498259505
0.00496399601556784
0.0048907579861939
0.00452225430333207
0.00386721466463376
0.00296123263167752
0.00188853419496474
0.000821703885129373
0.00010108771813269
0.00286550625432804
0.00315385869462488
0.00368209962009105
0.00249340612400086
0.00327866091987582
0.00392654765674525
0.00400352358012384
0.00437572468961328
0.00445429259602909
0.00337106469534653
0.00422383991847914
0.00385286279284849
0.00338496375469979
0.00279237796507011
0.00203249151592994
0.00314810513111633
0.00345276282133089
0.00275395371916678
0.00223228981827695
0.00151113636176071
0.00368832966762385
0.00157338741636258
0.00103627244126144
0.00195317737262718
0.00221608295880799
0.00240275717392831
0.0025346262424973
0.000502796020175041
0.00158785077306777
0.00152372045086897
0.00142632256648784
0.00128445755688188
0.00103471155810482
0.000594123364135114
5.74423901724486e-05
3.44351634846907e-05
0.00204309481439513
0.00162380681538565
0.00234570852422909
0.00257526420606006
0.00274962102889772
0.00100387288690599
0.000392528270272496
4.03520666023799e-05
0.00287811528285632
0.00187125846199915
0.00181785272199838
0.00173497671567978
0.00162118517059468
0.00147519821054261
0.00128578102329556
0.00101854601628116
0.000641293965792275
0.000274352444088285
2.31535084568433e-05
0.00473433942557458
0.00495015818763066
0.00425050396549475
0.00487973202411031
0.00451661095055299
0.00386948973364574
0.00352992266066171
0.00262538314134544
0.00297168579595056
0.00162902210148021
0.00190373447685988
0.000635337723457381
0.000697532655873671
0.000749935475249844
0.000791764286253087
0.000561188519955132
0.000461878889099843
0.000819628285678726
0.00083196103074453
0.000306282648559932
0.000833890221570443
4.33633439392015e-05
0.000294488123648159
0.000493211387150136
0.000578959430596775
0.000628267839896218
0.000661371491440439
0.000681409517482156
0.000693454991523192
7.64869697707034e-06
7.25808727821841e-07
8.19952954929303e-06
2.88789389250885e-05
0.000131183284698723
5.82382354455441e-05
8.32446907204058e-05
7.70505432677917e-05
8.40941849919521e-05
9.03369982976037e-05
9.58075827742077e-05
0.000100267519073569
0.000103070445645578
0.000103765273857025
0.000103058560054509
3.43732498878057e-06
3.29928481995011e-05
7.27163138484596e-05
7.27862400327063e-05
7.78232729969008e-05
8.12121230094064e-05
8.32541328581394e-05
8.45671892047789e-05
8.60035276528832e-05
0.000702974566550333
0.00165659177473678
0.00268709874300981
0.00364333815646666
0.00443476117762148
0.00501114923458905
0.00534422949788591
0.00541685149291255
0.00521856610418044
0.00474622236147695
0.00400954629502993
0.00304297169939547
0.0019282092045962
0.000835131451386658
0.000102356478386499
0.00269302344678088
0.0035676021541014
0.00303975726043262
0.00330310870253624
0.00392765072572884
0.00430240024254104
0.0022514725984391
0.00312680064303665
0.0038271370831154
0.00439120097254905
0.00420952518956707
0.00469086370867041
0.00490920373476434
0.00484543603370862
0.00349708858950173
0.00449308423321347
0.00417654357496146
0.0037761132315215
0.00326880517578148
0.00261344373245857
0.00173865487017766
0.00340121952561996
0.00306831838333648
0.00366053153505758
0.00263597858734583
0.00205257105808043
0.00123491886171939
0.00386035455245748
0.00168970723972409
0.00114121412569305
0.000577825577520247
0.0020614949881406
0.00231168039767686
0.00248588246660291
0.00260508541769899
0.000479936016341574
0.00156379435174249
0.00162154536399014
0.00147244025740144
0.00133132766504302
0.00108852700992258
0.000641739388349185
7.12414065477919e-05
4.36968078966454e-05
5.67814180171168e-05
0.00227513756658977
0.0019446789571678
0.00148569189831434
0.00252630038056931
0.00272150940125711
0.00286994778714021
0.000913228377717381
0.000375905251850948
3.9191246902592e-05
0.00297758424704879
0.00192014222322332
0.00187722351535003
0.00180682134222082
0.00170833748078846
0.00158296634839201
0.00142681185006601
0.00122631480074714
0.000955440756322677
0.000616061575451449
0.000255781076272453
1.96622192107531e-05
0.00499574835464821
0.00532888370001546
0.00540316107557923
0.00442169078746793
0.00520802906919428
0.00474116349902979
0.00401244828929012
0.00363496167494847
0.00268404058000559
0.00305401566595026
0.00165684362544489
0.00194387220038697
0.000678654199464968
0.000614663885576441
0.00073347506480872
0.000779995849125097
0.000816800079439638
0.000552290095354081
0.000434589128730114
0.000840297878266849
0.000848833054399899
0.000284423844017584
0.000847565389878165
5.14677003854836e-05
0.000314071727546365
0.000517631132074628
0.000596036738974392
0.000644167349206034
0.000675028966552798
0.000692727087026036
0.000702684636732107
6.040727708287e-06
5.26414662082847e-07
2.37920430121963e-05
6.1957630704735e-06
0.000115935539248515
5.03409926939448e-05
7.85852992157552e-05
7.47015584456308e-05
8.17857096529871e-05
8.81703434247512e-05
9.37860031181818e-05
9.86918321416854e-05
0.000102668733165443
0.00010505223009371
0.000105376235240694
0.000104353428414269
4.14831896144723e-06
3.71729815630149e-05
7.87642673163519e-05
7.4469919011735e-05
7.93677337487615e-05
8.25114211956179e-05
8.43201122524711e-05
8.54312645696516e-05
8.67027058322203e-05
0.000710466815423096
0.00167934546240798
0.00273540003402129
0.00373009768019586
0.00457613209483629
0.00522679091079241
0.00565686407898795
0.00585112564375593
0.00579909233464103
0.00549382215777596
0.00493374014887334
0.00412851876109428
0.00311117109815386
0.00196120719502919
0.000846240295318092
0.000103399394341793
0.00242885422185422
0.00285530696928213
0.00339832754750638
0.00418943856178504
0.00380348964433001
0.00318271197608118
0.00342627540007514
0.00412898792472914
0.00461059948804044
0.00483617189284688
0.00192131326089194
0.00291937328869595
0.00368896770412938
0.00429699480316023
0.00478438818920287
0.00494949040657369
0.00437889921911707
0.00528382157160051
0.00536254222935732
0.00517470495172666
0.0036011127823457
0.00471871905962021
0.00444801585534834
0.00410470857448543
0.00367181867487775
0.00311916977711558
0.00239175863292715
0.00141482959706546
0.00361239791437435
0.0033286396017123
0.00296714954676063
0.00383441526683498
0.00249604808259034
0.00186223272454177
0.00111687185511273
0.00400436344543382
0.00178312607587519
0.00122719663945856
0.000643741601065202
0.000550355515007505
0.00214952502467408
0.00239129329826635
0.0025549215205874
0.00266333298950536
0.000456879350471414
0.00159700848174627
0.00151087068682731
0.00164931666075343
0.00137362550128192
0.00113400551483044
0.0006603178180659
8.18929190160768e-05
5.42994162113603e-05
7.22494216441888e-05
5.51346014050879e-05
0.00246255924097314
0.00219215417953565
0.00183961938008771
0.00138249222926839
0.00267583901948271
0.00284378523369302
0.00297079371153991
0.000858576072110127
0.000348274862503858
3.32182058194535e-05
0.00306084610776436
0.00192700340304714
0.00196099173576474
0.00186712306904689
0.00178125905661953
0.00167184185925641
0.00153809128095313
0.00137423137790377
0.00117186531596189
0.000903237641308639
0.000580320950683528
0.000230854177511309
1.57662350134509e-05
0.00564045394920969
0.00521058978865984
0.00583591706395306
0.00578585269748742
0.00456254042803612
0.0054837308410072
0.00492912353346468
0.00413189694347993
0.00372146636418552
0.00273227517259032
0.00312267864032318
0.00167961371701994
0.0019772377203612
0.000714834478035115
0.000658158063748276
0.000593843863275416
0.000763725061791359
0.00080524687471482
0.000837782330321729
0.000526276562398109
0.000404694989271464
0.000857572598211657
0.000862872339029882
0.000258298384626883
0.00085887284124862
5.76717685369897e-05
0.000332128821715809
0.000537409814297498
0.000609782363581589
0.000657617348067852
0.000686300381438867
0.000701994811978666
0.000710183766227755
4.52022384129837e-06
3.64998561070549e-07
4.22710464577988e-05
1.87547998818764e-05
4.41491609958549e-06
9.88835354426219e-05
7.00239240972152e-05
7.19572256921141e-05
7.92375785090905e-05
8.58294204169829e-05
9.16162082278923e-05
9.66751739157895e-05
0.000101102473463798
0.000104674073025948
0.000106702453554375
0.000106709851867533
0.000105416911377465
4.89287956452538e-06
4.0873002374035e-05
6.71599634372967e-05
7.60360401314441e-05
8.06451066710308e-05
8.35760409418518e-05
8.51870023071666e-05
8.61275810523927e-05
8.72593686818351e-05
0.000716494057786111
0.00169781642833657
0.00277485683662046
0.00380124280102098
0.00469226384603652
0.00540409313444978
0.00591427123314815
0.00620971667450349
0.00628110650603422
0.00612110807793588
0.00572451981983199
0.00509030815903731
0.00422754365964206
0.00316774085311785
0.00198845456021886
0.000855357959733101
0.000104248003266744
0.00257319487965277
0.00316786510397186
0.00206997459737936
0.00298815779694752
0.00362010107627898
0.00403308951336932
0.0044868681832503
0.00472791571378924
0.00399697818852197
0.00330062226434793
0.00352796528942191
0.00429460331095548
0.00486382640810081
0.00520336625672968
0.0052912938705239
0.00156062292269889
0.00266388043407487
0.00351218297049384
0.00417111069744628
0.00469509843059027
0.00511572947073706
0.00559237513396557
0.00516213003450608
0.00451827518461884
0.0057910869962946
0.00574611108172083
0.00545131087659997
0.0036867939832722
0.00490751712177593
0.00467540958491269
0.00437988989399316
0.00400874853984982
0.00354168581067534
0.00294248853819247
0.00215910508843389
0.00127461525487936
0.00378865343932179
0.00354439308465745
0.00323724908331645
0.00284862523725201
0.00397980706744701
0.00234723301311135
0.00172196994533687
0.00104353737251262
0.00412461883880354
0.00186014264531742
0.00129342434297528
0.000698031203458249
0.000605997081433387
0.00052334893658757
0.00222275240451007
0.00245727076828179
0.00261199637021472
0.00271124413997679
0.000422294697850733
0.00162441381517303
0.00154296031838626
0.00140845360401946
0.00167205195927995
0.00117161064899247
0.000686565436318955
7.12440443246361e-05
6.35694889449905e-05
8.37583190121739e-05
7.05556341600586e-05
4.70582125874543e-05
0.002615792903418
0.00238704788851399
0.00210113894841114
0.00174130730884676
0.00129951787378643
0.00280013241790457
0.00294598761614462
0.0030551035429223
0.00080422315225977
0.000314700882503292
2.67243824179424e-05
0.00313024795689321
0.00196856060200169
0.00191758419041881
0.00199493236395222
0.00184223515231655
0.00174565736270057
0.00162847567443511
0.00148796296256764
0.00131944241559415
0.00111447871645956
0.000849613612192743
0.000536040157005142
0.000203009749423611
1.20890295373164e-05
0.0058969792846798
0.00619345602343953
0.00538720043018961
0.0062663889996552
0.00610829301452146
0.00467822469930297
0.00571474697900886
0.00508600192705374
0.00423127952665571
0.00379239552802197
0.00277167508684558
0.00317961261156394
0.00169809502384104
0.00200477752827472
0.000694273478245556
0.000745147577383736
0.000635774232955328
0.000569476882946381
0.000789069308981244
0.000826367889482646
0.000855294941031565
0.000494124482753871
0.00037069404679481
0.000871935476590416
0.000874475276102889
0.000228637459342877
0.000868147174141693
6.42049771053487e-05
0.000347459729124123
0.00053600178876869
0.000624322319913737
0.000668685172865391
0.000695536126661944
0.000709524483214952
0.000716215758920797
3.20663008734477e-06
2.3877285691297e-07
6.02934572452463e-05
3.405094514594e-05
1.39700737082823e-05
2.87780018806576e-06
8.08733114382464e-05
6.86119344206473e-05
7.63741754305698e-05
8.32093761596799e-05
8.92533137912798e-05
9.45019365180068e-05
9.90861268757984e-05
0.000103112786463665
0.000106342607259048
0.000108068220585895
0.000107805480553842
0.000106282073818071
5.58744354695056e-06
4.37936087588077e-05
8.38270401558928e-05
7.72730861884682e-05
8.16878732145642e-05
8.44422639964183e-05
8.58860249370227e-05
8.66803137280278e-05
8.76958169107056e-05
0.000721292368772604
0.00171266453668253
0.0028068278508529
0.00385922174612078
0.00478727216404477
0.00554956243454382
0.0061260568606096
0.0065057633472779
0.00668083227312761
0.0066446457107589
0.00639154857198653
0.00591718705440368
0.00522045029822681
0.00430949365138841
0.00321433347906417
0.00201076107823754
0.000862765359394944
0.000104930268357615
0.00269143585136687
0.00337089980181139
0.00219098841230441
0.00383368674569439
0.00288506697560266
0.00167919298461243
0.00380196744625752
0.0030975042367357
0.00431564869737747
0.00458386621750766
0.00473141603387321
0.00508389800367102
0.00518786928669349
0.00415615391140027
0.00339791846888157
0.00361174741072163
0.00443092353827842
0.00507213706646543
0.00550616466766699
0.00571225637568686
0.00567686791353518
0.00139865135544644
0.00239705871290449
0.00330442699572744
0.00401532118704896
0.00457814052953584
0.00503027889948884
0.00539400766486363
0.00584651165128351
0.00614556213299293
0.00533694705322321
0.0046327641491751
0.00622244824398657
0.00606941382367518
0.00568301542230632
0.00375706952190478
0.00506501163991304
0.00486548443390085
0.0046098637810596
0.0042893518601965
0.00389039278761401
0.00339021497666455
0.00275570706250586
0.00198801173903092
0.00118783017752228
0.00372345511340751
0.00393564279967148
0.0034584865594764
0.00312971124794937
0.00271907749137772
0.00410107439971622
0.00220947534193151
0.00161041040391661
0.000973654132207994
0.00422462431327492
0.0013484929066583
0.00192202527851872
0.000745594672507924
0.000625181956560255
0.000574759099367795
0.000484510241983412
0.00228305225309145
0.00251190449076824
0.00265898002886329
0.00275040041316316
0.000381623916165185
0.00164687911787923
0.0015694709504016
0.00143912288923158
0.00119789811805215
0.00169051412328107
0.000709095462338034
7.39070471165194e-05
7.27023788665797e-05
7.2844395168816e-05
8.16002393227357e-05
6.09696085717999e-05
3.80391884278171e-05
0.00254382101790774
0.00274204863133345
0.002301945897746
0.00200641461318301
0.00164685805120267
0.00121910136459862
0.00290355900950239
0.00303124599979664
0.00312531263640786
0.000742751506619177
0.000278237056895791
2.06844239127542e-05
0.00318777508609391
0.00200306810125378
0.00195965010663965
0.00189312257368676
0.00202294048262897
0.00180708558982832
0.00170290366693943
0.00157911544874932
0.00143288769285184
0.00126042551497615
0.00105177049776356
0.000788837773324126
0.000485082577200234
0.000173137472717265
8.8182867441112e-06
0.00610799177755345
0.00648862197065164
0.00666511543431251
0.00553207410637019
0.00663039695524435
0.00637902634833961
0.00477285673513757
0.00590760896807114
0.00521635281407946
0.00431349771223369
0.00385019675633049
0.00280359995796756
0.00322649164100532
0.00171294830967767
0.00202732380417865
0.000671322620991624
0.000724461218111205
0.000770486500380948
0.000610666622725511
0.000540876055361491
0.000810227026900838
0.000843970670781888
0.000869843772968565
0.000457387148457599
0.000331971284201113
0.00088380175299117
0.00088399131752561
0.000195705991262527
0.000875684332336892
6.99631483948106e-05
0.000358778834662234
0.000568102798924344
0.000635093732705459
0.000677584493040555
0.000703046405112413
0.000715582739402285
0.00072101133299492
2.09732015902924e-06
1.27877898513181e-07
7.54131776640235e-05
4.9473321063553e-05
2.59717274677788e-05
9.51559293476027e-06
1.59147976414176e-06
6.19015705354953e-05
7.31664575911586e-05
8.02358226419774e-05
8.65876224734205e-05
9.21229360236762e-05
9.6907774244335e-05
0.000101094057548069
0.000104784043566711
0.000107723317750337
0.000109190642893119
0.000108696088613046
0.000106976912861909
6.18659917586813e-06
4.60624839015314e-05
8.68050302693921e-05
7.81506194574879e-05
8.25407108206988e-05
8.51409184419639e-05
8.64401414935431e-05
8.71149960046843e-05
8.80320746971697e-05
0.000725048522689067
0.00172445354107735
0.00283248589137042
0.00390610608000467
0.004864539443658
0.00566841078975627
0.00629981572978321
0.00674972861455424
0.00701184364672428
0.0070805574029355
0.00695072965925978
0.00661767093816103
0.00607729346933396
0.00532799492669537
0.00437684266215476
0.00325240048515166
0.00202886507105702
0.000868718489488052
0.00228937996705309
0.00353734286077748
0.00278754496132932
0.00409757131301946
0.00306592888254829
0.00177785783758085
0.00440615576581154
0.00360007275099327
0.00259027238081305
0.001490487976341