/*--------------------------------*- C++ -*----------------------------------*\
  =========                 |
  \\      /  F ield         | OpenFOAM: The Open Source CFD Toolbox
   \\    /   O peration     | Website:  https://openfoam.org
    \\  /    A nd           | Version:  12
     \\/     M anipulation  |
\*---------------------------------------------------------------------------*/
/*   Windows 32 and 64 bit porting by blueCAPE: http://www.bluecape.com.pt   *\
|  Based on Windows porting (2.0.x v4) by Symscape: http://www.symscape.com   |
\*---------------------------------------------------------------------------*/
FoamFile
{
    format      ascii;
    class       volScalarField;
    location    "100";
    object      omega;
}
// * * * * * * * * * * * * * * * * * * * * * * * * * * * * * * * * * * * * * //

dimensions      [0 0 -1 0 0 0 0];

internalField   nonuniform List<scalar> 
10228
(
2.93334415774853
2.96064319258036
2.96350813983652
2.47469008983647
2.44248103211299
2.94198163215907
2.99299455672107
2.95665653589876
1.06678427769613
2.45215098310825
1.06557057358443
2.4044775775588
2.42539279675091
3.02238242449047
3.00033405126374
3.03463607644713
3.04377591124882
1.00085224545461
0.922549509608753
2.50624199840298
0.913952535444536
1.00326374008093
1.05780424963097
2.3786467035682
2.36519228612206
2.41877600948943
2.97390843456781
2.99901588693287
3.04482624752959
3.07872551391626
3.01839252174946
1.04455524132166
0.730991290628503
0.933678498873495
2.47352033303656
0.727015642250909
0.89930529336103
0.91905454436963
0.996831313600918
1.0436755327293
1.04683475394766
2.35771550848452
2.31066630402846
2.33138962150574
2.40498329726222
3.05610419993074
2.9847058675185
3.02105751304886
3.07319465690437
3.08920022828655
3.05712723308698
1.08760101297701
0.707615086565203
0.676219075996616
0.971168779490533
2.98071169267879
0.719216708640624
0.704733129844136
0.671227461811286
0.900775188866801
0.883272109611256
0.959199287727552
0.984140508786367
1.03510617738475
1.08955808556166
1.0330457613181
2.37667448793753
2.29353925530468
2.2653554747599
2.71346923738101
2.93176208226745
3.07772629892005
2.99655492036684
3.0025463543276
3.04315669480242
3.09233607255872
3.10441322146061
3.04133952911207
1.13468099265422
0.720286626535487
0.611841791823464
0.677401454272521
1.06265640545233
3.19832377380464
0.698399800730807
0.662936770571402
0.709207248312234
0.609295259656143
0.718022375343063
0.672624138485376
0.959596329840685
0.879788908954631
0.87078089601104
1.048174090083
0.968867973043665
1.02085808459177
1.08125709586017
1.13626281127796
1.02030685916095
2.29336258109869
2.31908787530369
2.2440395238172
2.24625407100867
2.86945835732234
3.14717807741198
3.41256773533604
3.07763158978861
3.00140512122358
3.02299098617712
3.06385963023852
3.10290312143972
3.6346669998301
3.63915955310186
1.18609935041749
0.744255247586772
0.599558731075991
0.585358565185753
0.703608173208039
1.13085555492974
3.39241713592793
0.712201077499116
0.689998350220168
0.604150746802058
0.665304508919039
0.653040818625704
0.699469041267322
0.597857625708519
0.583185204669182
0.741957905972283
0.698208762643626
1.02809709327228
0.918006698716567
0.865772896082783
0.866858325139706
1.11535575542641
0.951723422468054
1.00550019067017
1.06678872451233
1.1247340149255
1.21605748271197
1.00835648349859
2.34880711927163
2.19723128411419
2.26653116136666
2.22078910154788
2.79788318901086
3.08262950620811
3.33797892938992
3.96112726185701
3.38727566003355
3.08930598533613
3.03247251255776
3.04876269410822
3.07801138174501
3.10403926920519
3.6717513405033
3.78910559618705
1.27627283530008
0.774014416265145
0.605934167701695
0.554600897152752
0.586056444748252
0.733214684228703
1.18992167886273
3.5592327257268
0.593923911686097
0.735543692203656
0.70447028059762
0.597837590192414
0.68220323276645
0.578615218148218
0.689015253599494
0.65401459981357
0.644780393132941
0.694995640030044
0.553497538222583
0.60442321321482
0.583878337045892
0.772841968116987
0.727360500131542
1.00415926808121
1.09261971616702
0.898241739848798
0.86315227676484
0.88711531358684
1.17344727448954
0.938561554445361
0.992511042146629
1.05246588697291
1.10920395480367
1.17145264726186
1.27434853024229
1.11336515701311
2.47411472882944
2.42132770044612
2.14804542246507
2.22757321367142
2.7352720956128
3.01249732017409
3.27159015884929
3.50267062780765
3.98454539997751
3.38429181846274
3.13374544459249
3.07185547127727
3.06829439164568
3.08139288514158
3.6568306123832
3.81904030416276
3.92046060291007
1.32837177489749
0.807834392360345
0.620163875573152
0.547859925774358
0.5404600080781
0.596990036941227
0.762011701074327
1.24137087788849
3.70309237984067
0.550520607141521
0.600774850174549
0.589156825087809
0.763285090907841
0.727600339570319
0.698119253752231
0.572784815647674
0.592951887445581
0.681407101432022
0.579175704816775
0.71732771557316
0.678096389295669
0.644653211033218
0.643416859008237
0.719301314458812
0.53958485235297
0.547125508879912
0.618624891270691
0.594658436273847
0.804425663863503
0.755785502320297
0.983608062057992
1.06921116568553
1.14960871359816
0.889545728058254
0.882591258477637
1.22416247203333
1.0600488731306
1.00055585507845
1.04383779286118
1.09585007974984
1.14854951205672
1.25478179879174
1.32471422143663
2.42304838411072
3.34281394003908
2.40073356072367
2.16214924801986
2.66908225278473
2.94724035133756
3.20077440623496
3.43467004762624
3.64426708211414
3.93584024790839
3.43956732638239
3.18913254764056
3.09753974814673
3.07484171849469
3.07704669536246
3.80224235640169
3.95044840672903
4.03157182981567
1.3707775002854
0.835533175974972
0.637354074546375
0.551662909455652
0.523552332313841
0.539968823675147
0.611484203819174
0.78862747895464
1.2861922644511
3.82630845474574
0.544809307452941
0.546815680196984
0.536887792454537
0.596578652045882
0.61465659713184
0.586376221343715
0.795806615904234
0.753691514435701
0.721984303311551
0.700598783225522
0.573216013101299
0.568027556658781
0.595331156651163
0.714972528211852
0.589661367474596
0.745184567626187
0.705901350721259
0.667944218774388
0.640689687832726
0.66499952375617
0.942600604323087
0.523170674977737
0.539083833358639
0.550998275840139
0.635587010144017
0.608970388950966
0.831894327806307
0.782096617361253
1.04851066614603
0.964353108354563
1.12564594991361
1.19943904349768
0.887757734168507
1.26829858473092
2.34197553591902
1.1333257548756
1.05933094265908
1.08909992932874
1.13677530484944
1.19876953794799
1.30998049373743
1.36680280999271
3.32881084425849
4.55077481046686
2.34602068617911
2.14776741119003
2.23452782965404
2.88369647987351
3.13615804362921
3.36305000182151
3.57483443497038
3.76567067820978
4.03451152542943
3.49230021699271
3.21861890817565
3.10691491441224
3.60043702812532
3.73949779108306
3.9330983530664
4.0619814111803
4.12482346537633
1.4065979279665
0.859039326996865
0.653861955870582
0.560024785446456
0.519702581804034
0.515148068049984
0.545602312053934
0.626712438041431
0.812613370785391
1.32502956337763
3.93142398615493
0.548868326571417
0.521350126442006
0.5421008769365
0.533289426280182
0.544585962591386
0.536313410978547
0.594984828874016
0.610406955751847
0.631566997691909
0.592036213124012
0.823961817700354
0.783264742580612
0.748075712157612
0.726332359965005
0.739844658614075
0.567696850247265
0.583280928260505
0.56815921590689
0.622004477779304
0.946726200215495
0.603654764535056
0.771042036768559
0.733219022288024
0.695023508025645
0.659971956892849
0.648503876123206
0.757971180662743
3.01866887263268
0.519469751035979
0.514833673251714
0.544622104450352
0.559346894513715
0.652050336597235
0.624039402363312
0.855316765223549
0.805831085145638
1.10475594259304
1.02929031788796
0.925488319153416
1.17487121012596
1.24282349548096
0.908923523280536
1.30656174551682
2.4284526135421
1.19729839505735
1.10805627528003
1.12733930493209
1.21331332659154
1.28492182024605
1.35237161461599
1.40241660921644
5.01509193282196
3.10207749963617
2.27411150516158
2.15460844671457
2.26153344129887
2.81596197884365
3.07419296643369
3.29889274285047
3.50243336251344
3.69496232665628
3.8692405257212
4.01735566160841
3.52454771597719
3.22905710121138
3.10562995456102
3.65560607018865
3.86834479301253
4.04435290920788
4.15569775800203
4.20251549730027
1.43687348797419
0.879192635345929
0.668871974822354
0.56983080733803
0.522040374542271
0.505408988083337
0.514575091271554
0.553823094567799
0.641413226489595
0.83388220140019
1.3584754530552
4.02047781996846
0.546600975518748
0.518003213977128
0.557291502865957
0.513058373056055
0.518947598856806
0.541349299948362
0.532419087999705
0.530352755050712
0.547923884736674
0.541653330552918
0.602846144973921
0.609320971834811
0.627086715740089
0.64811695118053
0.624313822166251
0.847457595990459
0.81364365139493
0.778283486614378
0.752443124165485
0.769462126142815
0.976730440708308
0.564592232203327
0.576872639826665
0.596825120763944
0.580299646904834
0.734957563103309
3.30360537831067
0.618445613338225
0.794410911709139
0.758621959906582
0.721742304033424
0.685187831320008
0.654195127333055
0.67583771070149
1.13726739354704
4.65865405731481
0.521848119826782
0.505284916112553
0.514210162594569
0.552742712863204
0.569156914040914
0.667045934521436
0.638613997609731
0.875390772328182
0.826894338754406
1.08543869818457
1.1537595697628
1.00795017394943
0.918108786082264
1.21771739917257
1.28044396664492
0.921465329260174
1.33952181021294
2.4111239428683
1.25139490591701
1.14767483073755
1.16412369943849
1.25956393182783
1.32964487372098
1.38771330147873
1.43253038666373
3.1831489081328
2.94984523647159
2.3626617732365
2.19628630523527
1.11377431915224
2.26525913964641
2.74162426254935
3.00684773481529
3.23830529913815
3.43846193449085
3.62179377388139
3.79741095107218
3.95703927771186
4.06598075623168
3.52954906525851
3.22834343679974
3.10042318490173
3.77603949235329
3.97815957044653
4.13790736338743
4.2338823526503
4.26676934520724
1.46227603555486
0.896414376742303
0.682208916236415
0.579680031759836
0.527174390065028
0.50319828500507
0.500198965133973
0.517868707144255
0.562885160513353
0.655012159342413
0.852500667483094
1.38703866497479
4.09539534310848
0.555257068743219
0.54670374816295
0.516216528094337
0.520543158345535
0.503935736083861
0.567181453626544
0.512299307214203
0.510443429194518
0.517554124293809
0.546899251550244
0.537367560640162
0.528526099449168
0.530274022700742
0.564741660103035
0.549571956191518
0.639170238020185
0.618369131977005
0.626189133307274
0.643912949880678
0.66316198218027
0.747807502976176
0.867460365788656
0.837597890372922
0.80551008632301
0.778686388811486
0.797819948774326
1.01376122386146
3.2413170644985
0.56614902759663
0.571440660481921
0.589667708881016
0.611235406087967
0.616912175967878
1.12677615036363
5.05110430682481
0.632801039415296
0.815181803691151
0.781629858466094
0.74669686348006
0.710841604590435
0.675977292827706
0.655035300384112
0.726732284911717
1.03466106938395
3.14514132987044
0.503134583879379
0.527007889418154
0.500044411450872
0.517430789243113
0.561724185798911
0.579021951642475
0.680373386771993
0.652115130813041
0.89254606275215
0.845343687239333
1.06478989204014
1.13441150333192
1.19638786588529
0.987197751324558
0.905304232866
1.25487871912122
1.31286780765143
0.898932082820058
1.36768690489688
2.41955515316451
1.29387350517164
1.18107049001686
1.20066532519735
1.30280455322943
1.36482202632788
1.4175591672746
1.45782490186139
2.97338144938118
2.90893689857734
2.35450589973612
2.2845954383097
1.04195779728277
2.24531975468491
2.65442098591639
2.93033794138162
3.1724268556325
3.37878136160108
3.55782500163066
3.72352986209258
3.8842425456254
4.03091858162472
4.0453313293927
3.52946218240698
3.2236314044868
3.66196634102265
3.88303659547802
4.07057283651297
4.21599386476638
4.29858547213292
4.31944548447625
1.48339997754018
0.911004540439348
0.693863629130562
0.588941385409473
0.533386204973026
0.504786005401258
0.494404677497889
0.499789846988348
0.522973485322145
0.571892591076411
0.667258079878785
0.868603729304212
1.41121342303863
4.15791069863898
0.555894345631947
0.565377999693116
0.519116932014868
0.553700029556182
0.51577329619245
0.501994655042629
0.525814266659479
0.501983587238195
0.498591004416933
0.577126209228741
0.515353096226906
0.509322540312858
0.508056598506139
0.519496323392006
0.567050651428569
0.532642982602309
0.5449367113749
0.525798887509531
0.53580740120251
0.608128575693851
0.558391329013714
0.657492053743831
0.770962042852969
0.635570509004868
0.643049318499831
0.659156083516596
0.676519820234303
1.15076549537151
0.884540505362034
0.857637027431451
0.829490599668129
0.804760020259003
0.82502083669322
1.0458485747894
3.25604549847162
4.9713936525135
0.567537610978395
0.574448882754791
0.582750800906351
0.603524493427452
0.625301406300187
0.684376287907888
1.05651238332505
3.26181748758348
0.64613771777333
0.833399004812207
0.802122577503991
0.769384444820422
0.73518826922004
0.699733870990831
0.667322424116137
0.656721757456278
0.718064469082795
0.972068252386513
2.99384101504179
0.504755224958412
0.494316151088592
0.533248581379442
0.499571814224845
0.522474204854132
0.570672093754033
0.588302460767673
0.69202092344827
0.664285186998243
0.907084258334627
0.861308260396282
1.04146534610368
1.11370323182655
1.17703050033109
1.23336113086263
0.960070687834434
0.880705943581697
1.28692338432931
1.3405929567198
0.869429186624848
1.39153563475534
2.40950399993545
1.32922731260285
1.21160291368819
1.27104437647786
1.33751553762649
1.39434900224281
1.44264935863441
1.47887365302044
2.9119638633319
2.89675869102122
2.34949397922304
2.27707425850259
1.00656720643116
2.23193093840036
2.22179422334675
2.84354767447773
3.09683723260863
3.31396176681554
3.49868238976615
3.65947088501865
3.8097241826049
3.95730450108258
4.09257876337649
4.05121084068223
3.52439149501707
3.21878733967125
3.76425283655704
3.97348089217865
4.14774672857145
4.28063958335428
4.35165003150048
4.36220104866871
1.50078859136382
0.92323317773608
0.703894474685098
0.597327276025028
0.539783340244979
0.508215182161594
0.49318014433665
0.491115869519179
0.501909447529135
0.528775631964845
0.580376164270684
0.678066532855632
0.882368375302104
1.43148068870251
4.20962448351936
0.563859920462454
0.51930828586752
0.566447823600061
0.575533133515125
0.524654970961273
0.500436317426632
0.576223008907792
0.519084486458157
0.500545353158584
0.496300929744512
0.532153342037248
0.503728941008521
0.493072235677632
0.497964750440963
0.586481671193105
0.520257756262999
0.512036232601834
0.506046928342383
0.507119044947504
0.52768406683723
0.615211968536089
0.53959249847252
0.528168756275738
0.553491189097147
0.525105746541862
0.549009546052424
0.684022171589343
0.567222650627694
0.676699577915281
0.795030501048093
1.18652956147224
0.652962418468716
0.658628551146306
0.672652314527876
0.688193913917835
1.09278344537739
0.874700909707591
0.899023540938559
0.849649120432524
0.831163454727169
0.853256846411486
1.07842349222191
3.22613162856628
5.00221093169546
3.26659509009907
0.576065657338845
0.565017371405958
0.58582170158487
0.595703835332991
0.617211950852924
0.638431439294147
0.686204354826196
1.00350931530948
3.01153699434461
0.658187400505653
0.849180925379446
0.820129596206556
0.789655640285675
0.757529000940455
0.723137272428922
0.687644362076076
0.656571036429351
0.645739576195261
0.691272379340098
0.936983842113895
2.94835620943578
0.50821628458731
0.493123675601691
0.490963536755466
0.539675662136614
0.501635539814895
0.528232496239704
0.579112805213291
0.59670622753559
0.702045652276394
0.675034262254386
0.919271244290246
0.874959947490538
1.0898740182345
1.01398308688328
1.15633547321116
1.21399758073293
1.2652554120159
0.907951093897594
0.854467850243589
1.31434253352955
1.36408646379113
0.842067303743344
1.41153672864829
2.40534948758315
1.36504538315018
1.24079778162436
1.30704502374421
1.36699609928339
1.41920564848802
1.4635431131942
1.49620880702055
2.91093425878155
2.91778076839671
2.27198643331627
2.34871472552772
0.978784027915926
2.22726843844899
2.21335306371686
2.74805411819614
3.01084328232492
3.2391279339567
3.43446249039136
3.60064863685813
3.74553846286335
3.88223978334671
4.01828850104185
4.14358712020403
4.04343377968761
3.52029816492115
3.21532818855446
3.8511533218642
4.04871406572306
4.21165083469255
4.33368413629315
4.39473164035436
4.39651954179814
1.51494699433489
0.933363222086608
0.712401422813405
0.604720542564546
0.545892821807108
0.512414599309316
0.494384835219991
0.487612724558997
0.490898455973368
0.505290490597114
0.534650578484815
0.588095898728766
0.687447490951651
0.893999243770922
1.44830922247301
4.25200468595792
0.588149088222025
0.575220651336688
0.523596445474222
0.499615905342346
0.525330839974673
0.577014529871686
0.585073352606504
0.531217491870632
0.502456203174676
0.49117676139886
0.627847218750366
0.52914436212043
0.500834190391589
0.493923219269597
0.495332181470636
0.507292727359849
0.538670795387736
0.492004859375142
0.489566540484791
0.499896205532976
0.594953227208175
0.525918306254284
0.516680727941227
0.50809224781849
0.50318333354312
0.508587892124166
0.544187118460781
0.6970097568886
0.547725840568659
0.534031877259359
0.524203455523352
0.562140754923581
0.526369606171924
0.565965982807479
0.69217549897971
0.575585051347544
0.696018904795365
0.819408931406099
1.21743071456542
1.13112565489532
0.669399524255893
0.672447844644057
0.684441679939116
0.698244683996206
1.04458736187913
0.889190032641435
0.866941884659365
0.911169265259416
0.852069570360339
0.877553040756991
1.14067203283343
3.21860275019408
4.9571536637421
3.27286443279374
3.03146650644804
0.58759227986848
0.569153224677521
0.561693032301721
0.582619922665001
0.608858718820178
0.630097216245312
0.650339977512
0.667362953152384
0.970643000260025
2.97893409739132
0.668849981435711
0.8357555970511
0.862690693595459
0.807513980228891
0.777603333815633
0.745022537211299
0.709712736957554
0.673449282344534
0.639409776694043
0.627180568092168
0.666366735946169
0.908153686676316
2.95214327410365
0.49435788175895
0.512447966987018
0.487488364997018
0.49068837287248
0.545812663077643
0.504977207464881
0.534078447231855
0.586801966539374
0.604114484482985
0.710546895816212
0.68436849162392
0.929367212419226
0.886498987648971
1.13241781160003
1.06231219064462
0.980762013341171
1.19332962922993
1.24589132476533
1.29256116979823
0.87763212695779
0.829212351851519
1.33759474398949
1.38380421571521
0.815463300582526
1.42814716166259
2.3976017814397
1.39286034322262
1.26729759537262
1.33852470773264
1.3913382641608
1.43989378118913
1.48076341707972
1.51032811258259
2.92377496751797
2.93308967880842
2.22375396954262
2.26884822549948
2.34633921772024
0.950435391958558
2.20906938710183
2.6513039385134
2.91450388258751
3.15333325371411
3.35993221660517
3.53675877173338
3.68691218649391
3.81792758183655
3.9427748924069
4.06874962090291
4.18538200559751
4.04239437736319
3.51740055558508
3.78451273756379
3.91807871130221
4.11124472607166
4.26413472358993
4.37677641183835
4.42931550432205
4.4237271787615
1.52634315798694
0.941652314810086
0.71951291707849
0.611100030220321
0.551468691943372
0.516780140186664
0.496816797519287
0.486999177827848
0.485530650518295
0.492374275220786
0.509196457092843
0.540244449217623
0.594945194139985
0.695468739164409
0.903716356714348
1.46213862610421
4.28636952437784
0.600973858149107
0.53505029888674
0.642577394237678
0.586530738895471
0.53038389055287
0.500788271600762
0.502101695183704
0.489396972258463
0.532297566487476
0.586921938000006
0.593705824139569
0.537928254238931
0.506239157880711
0.490376178927244
0.487319640053516
0.714134497613454
0.548019648236623
0.503838704119411
0.492166999480549
0.492248748017502
0.496998437876804
0.493338267362698
0.511616558883261
0.544888660452952
0.486211407946418
0.489156586257537
0.503145099760015
0.602420966836303
0.531702994679062
0.522165551757527
0.512281788739448
0.50401981777056
0.501064098243309
0.512388391095482
0.56481849929321
0.709434943290471
0.55610916090233
0.541516022744838
0.528342651443843
0.520413366710035
0.570388158484311
0.52726708723599
0.567445484709716
0.677182597719998
0.583224948728122
0.713702176531641
0.845483353592435
1.24966028839638
1.17245517424158
1.08331185220991
0.683963557258899
0.68455583007186
0.694597861988058
0.706769421843978
1.01277166182315
0.901336219639096
0.881515649920924
0.870231939200718
0.921234751267563
0.898787770305983
1.17683722921957
3.80459026449668
4.94180733080082
3.26037498497836
3.03632537510818
2.99925132074685
0.600013043364341
0.578763674243291
0.560950232390134
0.553211850510456
0.569727314322537
0.621440355022587
0.641855729335924
0.660910288710812
0.645372689990974
0.942317729870326
2.98634313211537
0.678123540525453
0.849152343826079
0.823044195525728
0.874121059611812
0.795353989798867
0.764875016432121
0.731036459400063
0.694302633061804
0.655983548647967
0.619986219669235
0.606129609814933
0.641332454246748
0.877061066641583
2.96197195455537
0.496820213645852
0.486899994283984
0.516843434842439
0.485344142813732
0.492123347702603
0.551411996099678
0.508858637735985
0.539654299404104
0.593629690355591
0.610505841462676
0.717653030781874
0.692353146165209
0.937628927470683
0.896141971552064
1.10477145124783
1.16937801334516
1.03078001224743
0.94616821880096
1.22524654510641
1.27320544969701
1.31573307167091
0.85051932600161
0.80318073660781
1.35712681227936
1.40019125782422
0.787097191719364
1.44180121008973
2.39307377959013
1.41619710233422
1.32831633570523
1.35899863142133
1.41167822222243
1.45694959634061
1.4948000102266
1.52169366536632
2.93200931974705
2.92380103322977
2.20706772240039
2.22026898787758
2.26504132159882
2.34583502975879
0.918759926996833
2.6025058542369
2.80794620526203
3.05612482634364
3.273919260805
3.46228144298751
3.62320828579318
3.75943081499169
3.87835828986611
3.99288179812518
4.1101030147016
4.21926491698021
4.04128860432204
3.51588389296065
3.21226386870012
3.97772530776213
4.16273295268298
4.30681875316587
4.41139061939317
4.4567406378567
4.44498088581316
1.5353906805465
0.948348629277817
0.725374204919816
0.616502767926079
0.556397077951092
0.520969578130557
0.499775384687447
0.487975400479474
0.483416046490782
0.485475205943957
0.494725447883993
0.513188965832064
0.54536355748366
0.600899708067466
0.702234500336728
0.911747325680259
1.47339091675408
4.31393319925942
0.613510938168294
0.542945515349456
0.657852970981958
0.504936870316524
0.555754982639168
0.73289235744542
0.537991582074124
0.597113678604147
0.503951437054179
0.488440058078169
0.506257211644299
0.489032276668774
0.484804006992457
0.539353421117136
0.59588014987369
0.601312584014022
0.544312992789659
0.510748516096856
0.491917366279302
0.484219595044145
0.486634902942499
0.731643775070868
0.571400963060787
0.509461821871773
0.49137083133232
0.489200024878218
0.493432416587945
0.500068636342143
0.495888790786573
0.485715965776338
0.516094231057989
0.550558423331556
0.483926464265037
0.490496555521277
0.506970444019794
0.60886332397724
0.537245308116619
0.527843849724975
0.517480950833376
0.507481810144426
0.49998330386895
0.499383474823786
0.516054737050885
0.56954127404667
0.696454936218543
0.54952774228859
0.56420044601055
0.534917151221215
0.522263130762604
0.515698134569993
0.577962036045578
0.522987650947362
0.558093033540254
0.657114355411781
0.590024351688931
0.868470138693364
0.730126912760883
1.27648748691529
1.25918221383942
1.12506561184972
1.05075329292871
0.696822163840927
0.694966403489688
0.703210340240433
0.713896158071675
0.984557720955461
0.911398886028031
0.893722907155382
0.884684471915338
0.92062928346066
0.929475321888619
1.2063874831541
3.93995450001893
4.91093010801365
3.9593076109696
3.02802348486956
3.00410436515963
3.00760912225152
0.590306907562353
0.612220280856675
0.568667840104939
0.550126743810094
0.540254559113853
0.552554910715387
0.633034344823191
0.65234073857233
0.670127169123946
0.622272169159865
0.911169551931145
2.99479239867607
0.686067083756991
0.860503353291836
0.836383411579305
0.810831626229227
0.883682315249857
0.782520354954567
0.75063503134126
0.715124885425218
0.676472294370213
0.635861002066867
0.599151006887023
0.583722843790172
0.614430229534453
0.840968883787525
2.96529566700496
0.499807646761651
0.487903213092854
0.4832504390215
0.521058793434761
0.485244348757637
0.494449394420937
0.556359593054399
0.512837605844129
0.544763014477753
0.599569181250027
0.61591774345811
0.723509573883004
0.699090464778148
0.944304274136042
0.904111771444865
1.07327346847877
1.14161882706951
1.2012611968581
0.995591277647497
0.910591078739502
1.25258333417229
1.29639533500403
1.33521265009649
0.821300068797131
0.775435576829883
1.37337479992399
1.41367046225816
0.756098268906733
1.45290642342884
2.39028609475708
1.43995156453875
1.305838594771
1.37846280945699
1.42877891709488
1.4708654909346
1.506108027927
1.5307249295785
2.93583886583162
2.95713776434728
2.20611034491874
2.20380049189387
2.2154500971396
2.26804300318133
2.36559470856337
0.884539438228466
2.69502687894315
2.94645746845602
3.17573298036318
3.37587870784877
3.54867073918237
3.69583545765765
3.81996157508065
3.92839348258688
4.03396509196155
4.14364344221417
4.24647143726953
4.0415613632379
3.51515610646832
3.21179707473268
4.0274783290786
4.204692568214
4.34114734096147
4.43886431191012
4.47816545770279
4.4612976274017
1.54248212438349
0.953688097220483
0.730137185076817
0.621000849181789
0.560644907565686
0.524796852285022
0.502845381470266
0.489768433569275
0.483180550267087
0.482117837995427
0.486569345082343
0.497450950945924
0.517008323556426
0.54991448656918
0.605987677062765
0.707870297153194
0.918311364606951
1.48244372677292
0.672708823248995
0.551480090341444
0.625413726906095
0.508993221802959
0.565121567540758
0.750849127939798
0.488634089792206
0.511943195062457
0.581356504756738
0.758630058496709
0.545600559939281
0.508653764688261
0.606688699976695
0.488683047557277
0.48249464081639
0.490915500209785
0.511076001912018
0.482113941400896
0.483613863528452
0.546032959888571
0.603759760372198
0.550125149150423
0.607871594054213
0.515385066938085
0.49464173087727
0.483920108114007
0.481649299483158
0.487789181908475
0.720233422751432
0.578907909540988
0.515147442913169
0.491219060864544
0.486356918435408
0.489601793015575
0.496199656036323
0.50378770919399
0.486801877240329
0.498955240639068
0.481919596847017
0.520381358836707
0.55556626102583
0.48372688323405
0.492765622718224
0.510921556879354
0.614318498067814
0.542340138537255
0.533330628788792
0.522995064514351
0.512263271506371
0.502421393756884
0.495775239711585
0.496993693281791
0.514489970907897
0.562508778453479
0.677043343779033
0.542457398739392
0.557419173338898
0.571692557510627
0.527758367494241
0.51527928313021
0.508584852900946
0.584729612622493
0.513760601557834
0.543548473284973
0.635285970488289
0.595950361983736
0.892085268945229
1.30479452659907
0.744427861440053
1.30679934094157
1.21001803881971
1.08771907969621
1.02180370188504
0.707750499415802
0.703781034453443
0.710408021925077
0.719771449542843
0.953266108417672
0.919640129896034
0.903923485619613
0.897122146870707
0.933097646735232
1.23130748085909
0.936137674524419
4.04403866275351
4.89532847186856
4.13136229208217
3.62730278188774
2.99546181130858
3.01213344477139
3.01563607774666
0.579411729895301
0.602105727681047
0.623631126978634
0.556818742988541
0.536701009401161
0.524610041444735
0.533558576072672
0.643439242954785
0.661515712648896
0.678039568226315
0.597518263021907
0.874915711745628
2.9947625174394
0.692777824894872
0.87001139038971
0.847704423150454
0.824153213530272
0.797955139834376
0.891591356525377
0.768161968460009
0.734489730384542
0.697059775844333
0.656228423575882
0.613625361556624
0.577150537593194
0.560207836866256
0.585437567029228
0.800540641719669
2.96780581388503
0.502903137611486
0.489722794008576
0.483038661863538
0.481904483885613
0.524907653350832
0.486310971641101
0.497161536669383
0.560622862871287
0.516650910171831
0.549308663159872
0.604646845630224
0.620422935766825
0.728268649596369
0.704704158535441
0.949625930041807
0.910627116110966
1.03777143162356
1.10992158814998
1.17337855705378
1.22856631163551
0.956494865395527
0.853839874573394
1.27579891898235
1.31590155684068
1.35143129073633
0.792852213500851
0.745451620312741
1.38675173490631
1.42463712137843
0.724446292076492
1.46184903128266
2.38919053843879
1.45225814946537
1.32008413905348
1.39846001007278
1.44261354685057
1.48208962128669
1.51510229524975
1.53779903610244
2.9510659589547
2.91143612923146
2.62742587651372
2.20312084357587
2.19825999168993
2.21803832303274
2.29446168428478
2.39560718893061
0.852883813291569
2.82298193874048
3.06399720194573
3.27671849413324
3.46183762808909
3.621192852837
3.75643588861513
3.87008732071608
3.96944215271664
4.06730903987301
4.17060103119789
4.04174786257808
3.51485085449415
3.80225021103024
4.06828725876052
4.23848901941761
4.36842358544143
4.46034740041691
4.49461817817257
4.47353218843271
1.54793638579891
0.957877915125714
0.733951465710608
0.624685485881143
0.564229007162235
0.528173190665606
0.505784255353675
0.491907357643221
0.483996525831697
0.480870987919137
0.48218446379826
0.488265809588381
0.500241059279687
0.520507944598787
0.553868718272857
0.610270988088567
0.712511199410653
0.923616657079475
0.687143085266261
0.768500847627892
0.574953028139086
0.514422173823504
0.559940490004362
0.636030079762103
0.48964591756416
0.51708790500443
0.592435073277246
0.781324843663475
0.489643681323172
0.480550131852352
0.519189070596808
0.591516919817658
0.748848018480109
0.552756882264629
0.513927106079715
0.491048608088611
0.615068223587967
0.480365438118556
0.480483659359978
0.48213356522433
0.493919927691271
0.515972236523214
0.479019411591962
0.484450318308
0.552091978976533
0.610541652913049
0.555252911380358
0.519807576300943
0.613423366620918
0.497856723330347
0.485169344291671
0.479828795969699
0.48125632691929
0.489948174550543
0.69985779944221
0.573616757339589
0.515622813921807
0.490522700129794
0.483518691792889
0.485658556104932
0.491919011150393