/*--------------------------------*- C++ -*----------------------------------*\
  =========                 |
  \\      /  F ield         | OpenFOAM: The Open Source CFD Toolbox
   \\    /   O peration     | Website:  https://openfoam.org
    \\  /    A nd           | Version:  12
     \\/     M anipulation  |
\*---------------------------------------------------------------------------*/
/*   Windows 32 and 64 bit porting by blueCAPE: http://www.bluecape.com.pt   *\
|  Based on Windows porting (2.0.x v4) by Symscape: http://www.symscape.com   |
\*---------------------------------------------------------------------------*/
FoamFile
{
    format      ascii;
    class       volScalarField;
    location    "100";
    object      p;
}
// * * * * * * * * * * * * * * * * * * * * * * * * * * * * * * * * * * * * * //

dimensions      [0 2 -2 0 0 0 0];

internalField   nonuniform List<scalar> 
10228
(
83333.3231574812
83333.3231574995
83333.323156707
83333.3231580679
83333.3231580808
83333.3231575232
83333.323156722
83333.3231548122
83333.3231573162
83333.3231596154
83333.3231573209
83333.3231581028
83333.3231596311
83333.323157554
83333.3231567412
83333.3231548135
83333.3231515077
83333.3231552132
83333.3231591007
83333.3231625971
83333.32315907
83333.3231552245
83333.3231573308
83333.3231581342
83333.323159653
83333.3231626306
83333.323157586
83333.323156759
83333.3231548195
83333.3231514847
83333.3231467359
83333.3231517469
83333.3231569582
83333.3231622437
83333.3231671071
83333.3231569335
83333.3231590621
83333.3231622239
83333.3231552238
83333.3231517395
83333.3231573485
83333.3231581735
83333.3231596819
83333.3231626568
83333.3231670961
83333.3231576277
83333.3231567703
83333.3231548194
83333.3231514773
83333.323146741
83333.3231405479
83333.3231469278
83333.3231532481
83333.3231602224
83333.3231667463
83333.3231726695
83333.3231569046
83333.3231532163
83333.3231601769
83333.3231622141
83333.3231590737
83333.3231667229
83333.3231552215
83333.3231517418
83333.3231469406
83333.323157371
83333.3231582227
83333.3231596925
83333.3231626695
83333.323167048
83333.323172614
83333.3231576805
83333.3231567816
83333.3231548126
83333.3231514709
83333.3231467585
83333.3231406413
83333.3231334863
83333.3231407659
83333.3231482236
83333.3231563786
83333.3231647879
83333.3231723209
83333.3231788985
83333.3231531869
83333.323160118
83333.3231568865
83333.3231563225
83333.3231481987
83333.323164729
83333.3231666746
83333.3231622092
83333.3231590757
83333.3231722688
83333.3231552265
83333.3231517488
83333.3231469698
83333.323140832
83333.3231574059
83333.3231583023
83333.3231597336
83333.3231625491
83333.3231669573
83333.3231724651
83333.323178832
83333.323157763
83333.3231567651
83333.323154802
83333.3231514721
83333.3231467794
83333.3231407533
83333.3231335538
83333.3231259457
83333.3231336877
83333.3231419761
83333.3231511082
83333.3231609089
83333.3231704186
83333.3231785827
83333.3231858537
83333.3231481903
83333.3231531663
83333.3231562481
83333.3231646341
83333.3231600563
83333.3231568748
83333.3231510634
83333.3231608314
83333.3231419947
83333.3231703369
83333.3231721494
83333.3231665848
83333.3231621004
83333.3231590873
83333.3231785265
83333.3231552627
83333.3231517586
83333.3231470074
83333.3231409392
83333.3231337513
83333.323157411
83333.3231583897
83333.3231598409
83333.3231624778
83333.3231668091
83333.3231722686
83333.3231786972
83333.323185788
83333.3231578508
83333.3231567333
83333.3231547621
83333.3231514819
83333.3231468339
83333.3231408397
83333.3231336585
83333.3231259251
83333.3231177796
83333.3231260703
83333.32313482
83333.3231446724
83333.3231554729
83333.3231665671
83333.3231768098
83333.3231855674
83333.3231935473
83333.3231510098
83333.3231420433
83333.323148201
83333.323156161
83333.3231531546
83333.3231607052
83333.3231701947
83333.3231645005
83333.3231599474
83333.323156888
83333.3231554114
83333.3231446724
83333.3231664594
83333.3231348733
83333.3231767123
83333.3231719566
83333.3231784062
83333.3231663937
83333.3231619759
83333.3231590891
83333.3231854978
83333.3231552955
83333.3231517784
83333.3231470656
83333.323141042
83333.3231338734
83333.3231260914
83333.3231572455
83333.323158428
83333.3231601152
83333.3231624624
83333.3231665927
83333.3231721589
83333.323178488
83333.3231856627
83333.3231934711
83333.3231568096
83333.3231547016
83333.3231514813
83333.3231468974
83333.3231410072
83333.3231338411
83333.3231259626
83333.3231178326
83333.3231092256
83333.3231179151
83333.3231270673
83333.3231373723
83333.3231488452
83333.3231610614
83333.3231730769
83333.3231839118
83333.3231932849
83333.3232019027
83333.3231553055
83333.3231446687
83333.3231509494
83333.3231349694
83333.323142115
83333.3231482259
83333.3231605295
83333.3231560475
83333.3231531483
83333.3231662771
83333.3231765529
83333.3231699819
83333.3231642858
83333.32315979
83333.3231568681
83333.3231609659
83333.323148825
83333.3231374109
83333.3231729395
83333.3231271247
83333.3231837903
83333.3231717692
83333.3231781959
83333.323185371
83333.3231661256
83333.3231618017
83333.3231931974
83333.3231551929
83333.3231517762
83333.3231471228
83333.3231412059
83333.3231340503
83333.3231261687
83333.3231179634
83333.3231573257
83333.3231598937
83333.323162797
83333.3231663993
83333.3231719053
83333.3231782846
83333.3231854681
83333.3231933423
83333.323201825
83333.3231547448
83333.3231514721
83333.3231469655
83333.3231411857
83333.3231341165
83333.3231261657
83333.3231179147
83333.3231092876
83333.3231002492
83333.3231093494
83333.3231188218
83333.323129443
83333.3231413451
83333.3231542843
83333.3231675884
83333.3231803073
83333.3231917202
83333.3232016667
83333.3232108838
83333.3231487715
83333.3231551487
83333.3231608013
83333.3231446641
83333.3231374614
83333.3231508679
83333.3231272275
83333.3231351065
83333.3231422263
83333.3231482457
83333.3231660328
83333.3231603034
83333.3231558898
83333.3231530712
83333.3231727188
83333.3231836131
83333.3231763115
83333.3231697174
83333.3231639781
83333.3231595052
83333.3231564218
83333.3231542343
83333.323167455
83333.3231413679
83333.3231295013
83333.323180144
83333.3231188879
83333.3231915712
83333.323177955
83333.323171476
83333.3231851714
83333.3231930565
83333.3231658348
83333.3232015688
83333.3231552688
83333.3231518037
83333.3231471892
83333.3231413757
83333.3231343145
83333.3231263645
83333.3231180536
83333.3231094038
83333.3231586258
83333.3231623641
83333.3231636891
83333.3231664983
83333.3231717421
83333.3231780183
83333.3231852204
83333.3231931476
83333.3232016912
83333.3232108064
83333.3231515188
83333.3231470391
83333.3231413608
83333.3231344433
83333.3231264179
83333.3231180777
83333.3231093837
83333.3231003065
83333.3230908597
83333.3231003554
83333.3231101659
83333.3231210134
83333.3231331995
83333.3231465855
83333.3231607275
83333.3231748752
83333.323188213
83333.3232001717
83333.3232106725
83333.323220464
83333.3231413649
83333.3231541169
83333.323148668
83333.323160553
83333.3231549336
83333.3231672377
83333.3231446525
83333.3231375193
83333.3231295818
83333.3231507345
83333.3231189957
83333.323127394
83333.3231352994
83333.3231423412
83333.3231482631
83333.3231657332
83333.3231724356
83333.3231599908
83333.3231556059
83333.3231529838
83333.3231798932
83333.3231913714
83333.3231833655
83333.323176016
83333.3231693659
83333.3231635746
83333.3231588055
83333.323156561
83333.3231465778
83333.3231606361
83333.3231747121
83333.3231332427
83333.323121085
83333.323188028
83333.3231102328
83333.3232000044
83333.3231849139
83333.323177661
83333.3231712544
83333.3231928479
83333.3232014161
83333.3231661941
83333.3232105695
83333.3231519152
83333.3231472985
83333.3231415495
83333.323134625
83333.3231266265
83333.3231182227
83333.3231094951
83333.3231004122
83333.3231609183
83333.3231636514
83333.3231646549
83333.3231667011
83333.3231717137
83333.3231777925
83333.3231849314
83333.32319289
83333.3232014888
83333.3232106678
83333.323220387
83333.3231471207
83333.3231415167
83333.3231347741
83333.3231267822
83333.3231183075
83333.3231095416
83333.3231004
83333.3230909106
83333.3230810834
83333.3230909447
83333.3231010957
83333.3231121583
83333.3231245198
83333.3231381974
83333.3231528579
83333.3231679751
83333.3231828359
83333.3231967396
83333.3232092315
83333.3232202762
83333.3232306228
83333.3231413252
83333.3231465162
83333.3231332755
83333.3231604585
83333.3231539104
83333.323148504
83333.3231669325
83333.3231602508
83333.3231546288
83333.3231744548
83333.3231445964
83333.3231375788
83333.3231296829
83333.3231211802
83333.3231505253
83333.3231103385
83333.3231191577
83333.3231276175
83333.3231355286
83333.3231424708
83333.3231483947
83333.3231653425
83333.3231720988
83333.3231795865
83333.3231595496
83333.3231551976
83333.3231529987
83333.3231877503
83333.323199787
83333.3231911078
83333.3231830643
83333.3231756656
83333.3231689857
83333.3231632943
83333.3231593428
83333.3231587024
83333.323138215
83333.3231528145
83333.3231678515
83333.3231826521
83333.3231245972
83333.323112244
83333.3231965423
83333.3231011628
83333.3232090565
83333.323184607
83333.3231925784
83333.3231773955
83333.3231712426
83333.3232011931
83333.3232104073
83333.3231662763
83333.3232201701
83333.3231474916
83333.3231417486
83333.3231349468
83333.3231269957
83333.323118472
83333.3231096522
83333.3231005059
83333.3230910008
83333.3231625376
83333.3231645192
83333.3231653894
83333.3231670799
83333.3231635484
83333.3231716355
83333.3231776281
83333.3231846404
83333.3231925764
83333.3232012159
83333.323210455
83333.3232202431
83333.3232305446
83333.3231416411
83333.3231350131
83333.3231273208
83333.3231186995
83333.3231097995
83333.3231005483
83333.3230909988
83333.3230811291
83333.323070955
83333.3230811487
83333.3230916104
83333.3231029082
83333.3231154079
83333.3231292527
83333.3231442374
83333.3231599746
83333.3231759143
83333.3231914107
83333.3232058588
83333.3232188801
83333.3232304554
83333.3232413412
83333.3231332875
83333.323141229
83333.3231463691
83333.3231381963
83333.3231526867
83333.3231246483
83333.3231676275
83333.3231601812
83333.3231536409
83333.3231482464
83333.323174113
83333.3231665803
83333.3231598496
83333.3231541909
83333.3231823655
83333.3231444965
83333.323137621
83333.3231297963
83333.323121299
83333.3231123416
83333.3231503629
83333.323101268
83333.3231104948
83333.323119393
83333.3231279231
83333.3231357923
83333.3231427401
83333.3231484817
83333.3231648639
83333.3231716913
83333.3231792356
83333.3231874209
83333.323159076
83333.3231556998
83333.3231550081
83333.3231962449
83333.3232088251
83333.3231995051
83333.3231907949
83333.32318271
83333.3231752916
83333.3231687076
83333.323163188
83333.3231609528
83333.3231602473
83333.3231442257
83333.3231292964
83333.323159899
83333.3231757703
83333.3231912154
83333.3231154948
83333.3231029965
83333.3232056553
83333.3230916793
83333.3232186997
83333.3231842869
83333.32319225
83333.3232009033
83333.3231771914
83333.3231711093
83333.3232101701
83333.3232199997
83333.3231662507
83333.3232303471
83333.323141991
83333.3231352316
83333.3231274925
83333.323118872
83333.3231099096
83333.3231006598
83333.3230910942
83333.3230812017
83333.3231635154
83333.3231651413
83333.3231659366
83333.3231675802
83333.323164369
83333.3231715134
83333.3231774731
83333.3231843601
83333.3231922267
83333.3232008739
83333.3232101631
83333.3232200181
83333.3232303942
83333.3232412604
83333.3231351413
83333.3231276584
83333.3231192589
83333.3231102308
83333.3231007742
83333.323091137
83333.3230812119
83333.3230709968
83333.32306051
83333.3230710036
83333.3230817436
83333.3230932651
83333.3231059072
83333.323119857
83333.3231350244
83333.3231511478
83333.3231678078
83333.3231844733
83333.3232005648
83333.3232155502
83333.3232290962
83333.323241191
83333.3232526029
83333.3231332523
83333.3231246861
83333.3231381098
83333.323141047
83333.323146155
83333.3231524669
83333.3231293034
83333.323144142
83333.3231597214
83333.3231155677
83333.3231755145
83333.3231673046
83333.3231598488
83333.323153267
83333.3231478738
83333.3231737356
83333.3231819959
83333.3231661469
83333.3231593423
83333.3231537737
83333.3231909083
83333.3231376492
83333.3231444915
83333.3231299205
83333.3231214434
83333.3231124701
83333.3231030997
83333.3231508903
83333.3230917853
83333.3231014258
83333.3231107312
83333.3231197411
83333.3231283079
83333.3231361457
83333.3231429066
83333.3231502869
83333.3231712224
83333.3231643844
83333.3231788263
83333.3231870555
83333.3231958951
83333.3231589918
83333.3231570861
83333.32315648
83333.3232053433
83333.3232184575
83333.3232085261
83333.3231991717
83333.3231904264
83333.3231823187
83333.3231749449
83333.3231684578
83333.3231636865
83333.323161915
83333.3231612939
83333.3231350267
83333.3231511059
83333.3231199068
83333.3231677116
83333.3231843182
83333.3232003635
83333.3231059914
83333.3230933531
83333.3232153425
83333.3230818107
83333.323228911
83333.3231839724
83333.32319188
83333.3232005452
83333.3232098579
83333.3231769857
83333.3231709215
83333.3232197483
83333.3232301685
83333.3231668049
83333.3232410799
83333.3231354991
83333.3231278584
83333.3231194204
83333.3231103395
83333.3231008901
83333.3230912428
83333.323081292
83333.3230710533
83333.3231641923
83333.3231656147
83333.3231663682
83333.3231679457
83333.3231649782
83333.3231715371
83333.3231772396
83333.3231840956
83333.3231918517
83333.3232004726
83333.3232097897
83333.3232197049
83333.3232301554
83333.3232411022
83333.3232525183
83333.3231278019
83333.3231196332
83333.3231106812
83333.3231011036
83333.323091334
83333.323081342
83333.3230710752
83333.3230605488
83333.3230497817
83333.3230605452
83333.323071533
83333.3230832528
83333.3230960292
83333.3231100591
83333.3231253253
83333.3231416716
83333.3231587965
83333.3231762733
83333.3231936075
83333.3232102738
83333.3232257943
83333.3232398606
83333.3232524667
83333.3232643947
83333.3231331481
83333.3231379524
83333.3231246952
83333.3231156252
83333.3231292627
83333.3231439839
83333.3231407744
83333.3231458356
83333.3231521772
83333.3231594513
83333.3231199354
83333.3231349847
83333.3231509723
83333.3231675003
83333.3231060781
83333.3231840411
83333.3231751591
83333.3231669365
83333.3231594265
83333.3231527894
83333.3231475631
83333.3231816002
83333.3231732937
83333.3231905168
83333.3231656364
83333.3231588297
83333.323153762
83333.3232000413
83333.3231300542
83333.3231377399
83333.3231450293
83333.323121623
83333.3231126254
83333.3231032315
83333.3230934584
83333.3231521494
83333.3230919425
83333.3230819151
83333.3231016475
83333.3231111012
83333.3231201974
83333.3231286952
83333.3231363646
83333.3231445015
83333.3231516196
83333.323178361
83333.3231707504
83333.3231641009
83333.323186637
83333.3231955105
83333.3232049758
83333.3231596024
83333.3231581334
83333.323157627
83333.3232150182
83333.3232286594
83333.3232181425
83333.3232081696
83333.3231987772
83333.323190005
83333.3231819154
83333.32317463
83333.3231684444
83333.3231643287
83333.3231626156
83333.323162051
83333.3231253339
83333.3231416449
83333.323158735
83333.3231101088
83333.3231761663
83333.323193446
83333.3232100686
83333.3230961093
83333.3230833387
83333.3232255825
83333.3230715969
83333.3232396703
83333.3231914789
83333.3231836617
83333.3232001247
83333.3232094657
83333.3232194129
83333.3231767232
83333.3231709796
83333.3232299022
83333.323240893
83333.3231672156
83333.3232523521
83333.3231281144
83333.3231198401
83333.3231108332
83333.3231012386
83333.323091453
83333.323081434
83333.3230711396
83333.3230605915
83333.3231646854
83333.3231659855
83333.323168239
83333.3231667131
83333.3231654392
83333.3231715562
83333.3231769678
83333.3231838171
83333.3231914568
83333.3232000199
83333.3232093386
83333.3232192981
83333.3232298192
83333.3232408483
83333.3232523513
83333.3232643054
83333.3231197848
83333.3231110417
83333.3231014773
83333.3230915959
83333.3230815227
83333.3230711999
83333.3230606233
83333.3230498176
83333.3230388024
83333.3230498068
83333.3230610152
83333.3230729071
83333.3230857972
83333.323099888
83333.3231152055
83333.3231316612
83333.3231490734
83333.323167093
83333.3231853163
83333.3232032853
83333.3232205176
83333.3232365726
83333.3232511561
83333.3232642697
83333.3232767067
83333.3231329787
83333.3231246565
83333.3231376962
83333.3231437442
83333.3231291527
83333.323115653
83333.3231061485
83333.3231199222
83333.3231348748
83333.323150762
83333.3231405726
83333.323145421
83333.3231517927
83333.323159117
83333.3231671945
83333.323125316
83333.323110151
83333.323141557
83333.3231585668
83333.3231759326
83333.3230962018
83333.3231931532
83333.3231836614
83333.3231747676
83333.3231664944
83333.323158925
83333.3231523228
83333.3231476231
83333.3231901026
83333.3231811491
83333.3231727873
83333.3231996314
83333.3231651202
83333.3231585778
83333.3231543898
83333.3232097335
83333.3231218333
83333.3231302219
83333.3231383054
83333.3231461636
83333.3231128323
83333.3231033876
83333.3230935927
83333.3230834428
83333.3231532106
83333.3230820686
83333.3230921538
83333.3230716978
83333.3231019723
83333.3231115648
83333.3231206077
83333.3231288829
83333.3231378459
83333.3231456565
83333.3231527504
83333.3231861582
83333.323177873
83333.3231703654
83333.3231642094
83333.3231950719
83333.3232045696
83333.3232146348
83333.3231603064
83333.3231589229
83333.323158483
83333.3232252462
83333.3232283285
83333.3232394093
83333.3232177621
83333.3232077432
83333.3231983153
83333.3231895412
83333.3231815164
83333.323174386
83333.3231686117
83333.3231648204
83333.3231631393
83333.3231625936
83333.3231316472
83333.323115218
83333.3231490277
83333.3231670206
83333.3230999363
83333.3231852032
83333.3232031191
83333.3232203083
83333.3230858735
83333.323072989
83333.323236356
83333.3230610753
83333.3232509607
83333.3231996476
83333.3231910498
83333.3231833356
83333.3232089943
83333.3232189853
83333.3232295428
83333.3231764841
83333.3231710457
83333.323240611
83333.3232521563
83333.3231675244
83333.323264151
83333.3231200791
83333.3231112649
83333.3231016657
83333.3230917315
83333.3230816302
83333.323071275
83333.3230606737
83333.3230498492
83333.3231650532
83333.3231662819
83333.3231716026
83333.3231684784
83333.3231669948
83333.3231657905
83333.323176622
83333.3231834414
83333.3231910445
83333.3231995198
83333.3232088158
83333.3232187979
83333.3232293778
83333.3232404877
83333.3232520813
83333.3232641285
83333.3232766122
83333.3231112027
83333.3231018901
83333.3230919308
83333.3230817518
83333.3230713757
83333.3230607435
83333.3230498868
83333.3230388351
83333.3230276033
83333.3230388199
83333.3230502231
83333.3230622628
83333.3230752433
83333.3230893727
83333.3231047074
83333.3231212081
83333.3231387638
83333.3231571357
83333.3231759735
83333.3231948976
83333.323213482
83333.323231278
83333.3232478689
83333.3232629698
83333.3232765898
83333.3232895374
83333.3231245786
83333.3231373602
83333.3231328836
83333.32311566
83333.3231289536
83333.3231434109
83333.3231346817
83333.3231504714
83333.3231198485
83333.323106189
83333.3230962815
83333.3231101537
83333.3231252427
83333.323141395
83333.3231583191
83333.3231406885
83333.3231450391
83333.3231513344
83333.3231587004
83333.3231668312
83333.3231756006
83333.3231315923
83333.3231152113
83333.3230999846
83333.3231489042
83333.3231668289
83333.3231849531
83333.3230859669
83333.3232028125
83333.3231927538
83333.3231832498
83333.323174311
83333.3231659859
83333.3231584266
83333.3231521415
83333.3231482405
83333.323199197
83333.3231896344
83333.3231806342
83333.3231722607
83333.3232093069
83333.3231647262
83333.3231587554
83333.3231551589
83333.3232199603
83333.3231130769
83333.3231220566
83333.3231308195
83333.3231393732
83333.3231472059
83333.3231035848
83333.323093749
83333.3230835773
83333.32307309
83333.3231540959
83333.3230718459
83333.3230822718
83333.3230924302
83333.3230611716
83333.3231023936
83333.3231120112
83333.3231207603
83333.3231303946
83333.3231389387
83333.3231467464
83333.3231536986
83333.3231945645
83333.3231856345
83333.3231774108
83333.3231701534
83333.32316447
83333.3232041035
83333.3232142056
83333.3232248473
83333.3231608849
83333.3231595191
83333.3231591124
83333.3232360073
83333.3232390621
83333.3232279235
83333.3232506896
83333.323217301
83333.3232072351
83333.3231977885
83333.3231890485
83333.3231811394
83333.3231742178
83333.3231687733
83333.3231651911
83333.323163528
83333.3231629866
83333.323121198
83333.3231387329
83333.323104722
83333.3231570791
83333.3231758946
83333.3230894196
83333.3231947796
83333.323213311
83333.3232310636
83333.3230753158
83333.3230623397
83333.3232476465
83333.3230502786
83333.3232627686
83333.3231991177
83333.3232084467
83333.3231905994
83333.3231829501
83333.3232184632
83333.3232290796
83333.323240227
83333.3231761967
83333.3231711026
83333.3232518581
83333.3232639458
83333.3231677595
83333.3232764656
83333.323111513
83333.3231021239
83333.3230921001
83333.3230818772
83333.3230714673
83333.3230608035
83333.3230499254
83333.3230388579
83333.3231653314
83333.3231665185
83333.3231763469
83333.3231716398
83333.3231686851
83333.3231672279
83333.3231660628
83333.3231829619
83333.3231905969
83333.3231989746
83333.323208224
83333.3232182082
83333.3232288291
83333.3232400113
83333.3232516958
83333.323263842
83333.3232764251
83333.3232894398
83333.3231020857
83333.3230923104
83333.3230820479
83333.3230715957
83333.3230609181
83333.3230499987
83333.3230388978
83333.3230276325
83333.3230162135
83333.3230276151
83333.3230391876
83333.3230513519
83333.3230644006
83333.3230785452
83333.3230938668
83333.3231103628
83333.32312797
83333.3231465395
83333.3231657879
83333.323185391
83333.3232049869
83333.3232241775
83333.323242539
83333.3232596702
83333.3232752917
83333.3232894241
83333.3233028901
83333.3231156458
83333.3231287002
83333.3231245697
83333.3231430139
83333.3231370739
83333.3231330504
83333.3231196973
83333.3231062146
83333.323134402
83333.323150096
83333.32312509
83333.3231411482
83333.3231579951
83333.323110107
83333.3230963327
83333.3230860527
83333.3231000005
83333.3231151629
83333.3231314674
83333.3231487051
83333.3231665539
83333.323141299
83333.3231449352
83333.3231508911
83333.3231582206
83333.3231663927
83333.3231752144
83333.3231846002
83333.3231211608
83333.3231386456
83333.3231047229
83333.3230894701
83333.3231569296
83333.3231756857
83333.3231945153
83333.3230754081
83333.3232129909
83333.3232023953
83333.3231923216
83333.3231827749
83333.3231737893
83333.3231654655
83333.32315807
83333.3231523629
83333.3231490393
83333.3231987044
83333.3232088502
83333.3231890962
83333.3231800793
83333.3231717849
83333.323219517
83333.3231645718
83333.3231590984
83333.3231558373
83333.3232307019
83333.3231133357
83333.323103821
83333.3231226508
83333.3231319054
83333.3231403909
83333.3231482188
83333.3230939315
83333.3230837349
83333.3230732227
83333.3230624366
83333.3231547968
83333.3230613139
83333.3230720468
83333.3230825253
83333.3230927984
83333.3230503683
83333.3231028571
83333.323112194
83333.323122238
83333.3231315314
83333.3231399831
83333.3231478353
83333.3231544376
83333.3231939924
83333.3232035574
83333.3231850944
83333.3231770204
83333.3231700711
83333.3231647275
83333.3232137071
83333.3232243936
83333.323235592
83333.3231613372
83333.3231599679
83333.3231595772
83333.3232472842
83333.3232503253
83333.3232386319
83333.3232274263
83333.3232624865
83333.3232167436
83333.323206644
83333.3231972071
83333.3231885453
83333.3231807642
83333.3231740455
83333.3231688909
83333.3231654666
83333.3231638228
83333.3231632751
83333.323110355
83333.3231279488
83333.3231464927
83333.323093883
83333.3231657246
83333.3231853068
83333.3230785909
83333.323204864
83333.3232240011
83333.3232423184
83333.3230644689
83333.323051423
83333.3232594407
83333.3230392378
83333.3232750829
83333.3231985425
83333.3232078271
83333.3232178482
83333.3231901134
83333.323182479
83333.3232285074
83333.3232397282
83333.3232514491
83333.3231759467
83333.3231711374
83333.323263631
83333.3232762497
83333.3231679464
83333.3232892932
83333.3231023827
83333.3230925304
83333.3230822084
83333.3230717187
83333.3230609915
83333.3230500461
83333.3230389269
83333.3230276487
83333.3231655443
83333.3231667086
83333.3231823572
83333.3231761028
83333.3231716803
83333.3231688698
83333.3231674134
83333.3231662783
83333.3231901185
83333.3231983829
83333.3232075642
83333.3232175315
83333.3232281751
83333.3232394148
83333.3232511842
83333.3232634315
83333.3232761221
83333.3232892444
83333.3233027915
83333.3230925158
83333.3230823866
83333.3230718603
83333.3230611548
83333.3230501609
83333.3230389985
83333.3230276886
83333.3230162393
83333.3230046597
83333.3230162212
83333.3230279386
83333.3230402043
83333.3230532999
83333.3230674376
83333.3230827183
83333.3230991682
83333.3231167627
83333.3231354086
83333.3231549073
83333.3231749772
83333.3231953095
83333.3232155609
83333.3232353558
83333.3232542884
83333.3232719668
83333.3232881202
83333.3233027865
83333.323115693
83333.3231195117
83333.3231062297
83333.3231340721
83333.3231285122
83333.3231247819
83333.3231496644
83333.3231426428
83333.3231370494
83333.3231336881
83333.3231099908
83333.3231248601
83333.3230963702
83333.3231408203
83333.3231575906
83333.3231312606
83333.3231150443
83333.3231484222
83333.3231662042
83333.3230999733
83333.3230861151
83333.3230894976
83333.3230754971
83333.3231046902
83333.3231210655
83333.3231384841
83333.3231567035
83333.323175389
83333.3231421208
83333.3231451935
83333.3231505987
83333.3231577394
83333.3231658908
83333.3231747537
83333.323184192
83333.3231941437
83333.3231278858
83333.3231103276
83333.3231463814
83333.323093889
83333.3230786426
83333.3231655563
83333.3231850833
83333.3232045855
83333.3230645592
83333.3232236665
83333.3232125559
83333.3232019406
83333.3231918225
83333.323182229
83333.3231732363
83333.3231650162
83333.3231579915
83333.323152772
83333.3231498351
83333.3231981318
83333.3232083273
83333.3232190359
83333.3231884985
83333.3231795263
83333.3231714217
83333.3232302411
83333.3231645771
83333.3231594593
83333.323156402
83333.3232419415
83333.3231040813
83333.323113912
83333.3230941504
83333.3231237349
83333.3231329065
83333.3231414647
83333.3231490617
83333.3230839136
83333.3230733839
83333.323062566
83333.323051514
83333.3231553444
83333.3230505011
83333.3230615113
83333.3230723072
83333.3230828607
83333.3230932575
83333.3230393192
83333.3231030409
83333.323113526
83333.3231233814
83333.3231325389
83333.3231411043
83333.3231487251
83333.3231550065
83333.3231933734
83333.3232029292
83333.3232131159
83333.3231845672
83333.3231766864
83333.3231700142
83333.3231649346
83333.3232238601
83333.3232351128
83333.3232468517
83333.3231616848
83333.3231603124
83333.3231599273
83333.323259063
83333.3232621045
83333.3232498695
83333.323238098
83333.3232268184
83333.3232747889
83333.3232160869
83333.3232059785
83333.3231965858
83333.3231880235
83333.3231803561
83333.3231738714
83333.3231689639
83333.3231656755
83333.3231640606
83333.3231634921
83333.3230991625
83333.3231167452
83333.3231353759
83333.3231548516
83333.3230827359
83333.3231749083
83333.3231952201
83333.3230674814
83333.3232154323
83333.3232351731
83333.3232540601
83333.3230533637
83333.3230402689
83333.3232717286
83333.3230279834
83333.3232879046
83333.3231979183
83333.3232071394
83333.3232171436
83333.3232278273
83333.3231895829
83333.3231819436
83333.323239107
83333.3232509145
83333.3232631969
83333.3231757064
83333.3231711654
83333.3232759179
83333.3232890661
83333.3231680957
83333.3233026534
83333.3230927929
83333.3230825905
83333.3230720331
83333.3230612512
83333.3230502195
83333.3230390357
83333.3230277101
83333.3230162504
83333.3231657118
83333.323166848
83333.3231893775
83333.32318178
83333.3231758962
83333.3231717273
83333.3231690221
83333.3231675428
83333.3231664468
83333.3231977593
83333.3232068342
83333.3232167681
83333.3232274185
83333.3232386993
83333.3232505412
83333.3232628852
83333.3232756875
83333.3232889275
83333.3233025908
83333.3230825699
83333.3230722474
83333.3230614528
83333.3230503791
83333.3230391421
83333.3230277779
83333.3230162887
83333.3230046821
83333.322992967
83333.3230046646
83333.3230165042
83333.3230288487
83333.3230419701
83333.32305608
83333.3230712944
83333.3230876632
83333.3231051925
83333.3231238311
83333.3231434442
83333.3231638118
83333.323184663
83333.3232057017
83333.3232266018
83333.3232470048
83333.3232665176
83333.3232847572
83333.3233014786
83333.3231063018
83333.3231159326
83333.3231194002
83333.3231245931
83333.3231098551
83333.3230964023
83333.3231404462
83333.3231337755
83333.3231285459
83333.3231254356
83333.3231492423
83333.323157128
83333.3231424367
83333.3231373466
83333.323134535
83333.3230998882
83333.3231148573
83333.3231309808
83333.3230861665
83333.3231480602
83333.3231657731
83333.3231382402
83333.3231208948
83333.3231046006
83333.323156393
83333.3231750157
83333.3230894865
83333.3230755719
83333.3230786792
83333.3230938694
83333.3230646493
83333.3231102549
83333.3231277545
83333.3231461933
83333.3231653086
83333.3231847674
83333.3231430044
83333.3231456617
83333.3231505948
83333.3231573439
83333.3231653678
83333.3231742229
83333.3231837051
83333.3231937121
83333.3232041955
83333.3231166986
83333.3231352909
83333.3230991419
83333.3231547221
83333.3230827464
83333.3230675348
83333.3231747251
83333.3231949822
83333.323215139
83333.32305345
83333.3232348225
83333.3232232129
83333.3232120761
83333.3232014113
83333.3231912421
83333.3231816312
83333.3231727028
83333.3231647083
83333.32315807
83333.3231532506
83333.323150537
83333.323207712
83333.3231974808
83333.3232184786
83333.3232297338
83333.3231878668
83333.3231790122
83333.3231711525
83333.3232414622
83333.3231646244
83333.323159787
83333.3231568587
83333.3232536662
83333.3230944095
83333.3231046264
83333.3231150116
83333.3230841302
83333.3231247123
83333.323133912
83333.3231424305
83333.3231497409
83333.3230735734
83333.323062728
83333.3230516367
83333.3230403524
83333.323155778
83333.3230394398
83333.3230506852
83333.3230617817
83333.3230726408
83333.3230832985
83333.323093458
83333.3230280562
83333.323104271
83333.3231146847
83333.3231243578
83333.3231335424
83333.3231421147
83333.3231494292