/*--------------------------------*- C++ -*----------------------------------*\
  =========                 |
  \\      /  F ield         | OpenFOAM: The Open Source CFD Toolbox
   \\    /   O peration     | Website:  https://openfoam.org
    \\  /    A nd           | Version:  12
     \\/     M anipulation  |
\*---------------------------------------------------------------------------*/
/*   Windows 32 and 64 bit porting by blueCAPE: http://www.bluecape.com.pt   *\
|  Based on Windows porting (2.0.x v4) by Symscape: http://www.symscape.com   |
\*---------------------------------------------------------------------------*/
FoamFile
{
    format      ascii;
    class       surfaceScalarField;
    location    "100";
    object      phi;
}
// * * * * * * * * * * * * * * * * * * * * * * * * * * * * * * * * * * * * * //

dimensions      [0 3 -1 0 0 0 0];

internalField   nonuniform List<scalar> 
29052
(
-2.39056066508713e-08
5.59562492770205e-07
-5.35664851068635e-07
-6.83542853317079e-07
-3.86007411839429e-08
6.98136348214488e-07
-1.62596843711256e-08
8.24427325124627e-07
-2.48672893978668e-07
-1.69471239019061e-08
2.5763990285463e-07
-7.76420538008147e-07
3.40351155989978e-07
-3.01597302204698e-08
-1.01082059211392e-06
-7.61331625431404e-07
-4.78130845287076e-08
7.70451769792591e-07
-3.29584105902066e-07
-2.01186811168594e-08
1.03147756011739e-06
-2.98506649578004e-09
9.28521321843566e-07
-1.01127390817357e-07
-4.65517384102937e-09
1.86176516717677e-07
-1.72599536286079e-07
-1.21449388403913e-08
1.08339874965513e-07
-8.72642685604857e-07
-2.63874833780201e-07
2.7876705673204e-07
-8.84182279783917e-09
3.87972765996633e-07
-4.00773382127297e-08
-1.13949979603156e-06
1.5623677677192e-07
-1.82884108256719e-08
-1.160982134385e-06
-8.60422852776406e-07
-5.19361520670446e-08
8.64466592585753e-07
-3.75175694693865e-07
-2.27165073519726e-08
1.14812004622548e-06
-1.50438054988318e-07
-3.10664178415056e-09
1.18197970249004e-06
5.35631964784264e-09
9.74465983074459e-07
-5.13241691850096e-08
-1.89705878545911e-09
1.71792711221411e-07
-8.48635593433612e-08
-1.70274813265402e-09
9.33370235962772e-08
-1.55911344667671e-07
-1.36259968999424e-08
6.03600174828696e-08
-9.193952160779e-07
1.47661548870763e-07
-5.75813614247478e-09
-2.51262476190609e-07
-1.39196454545107e-07
-1.28031815912455e-09
2.66881991787044e-07
-3.13033657854116e-07
3.29534984708429e-07
-1.25944693454311e-08
4.44263918694339e-07
-5.24962487684511e-08
-1.29239952075387e-06
1.87827187619031e-07
-2.42862028323833e-08
-1.3213894122233e-06
9.1778657609409e-08
-1.03113748529103e-08
-1.25611652026677e-06
-9.33228738475789e-07
-5.79664145263464e-08
9.39167176572482e-07
-4.29236626736017e-07
-1.96802640366399e-08
1.29056629110068e-06
-1.82238449776409e-07
-2.55548189687709e-09
1.3297635651158e-06
-8.67492782310593e-08
3.74769072200163e-09
1.2702879591226e-06
3.36116474766619e-10
1.00884584931547e-06
-3.47298584476728e-08
1.41876577547373e-09
1.73679963434431e-07
-5.46450486379228e-08
-3.16058731900732e-10
8.37501347794939e-08
-7.49647232964595e-08
-1.6935295016391e-09
6.48386639116167e-08
-1.58706985993031e-07
-1.11908140557391e-09
4.94593705011754e-08
-9.67748993022989e-07
-1.23782570266209e-09
1.3924121794233e-07
-1.29862794158999e-07
1.81278169105282e-07
-3.04232420802567e-07
-8.03512922501296e-09
1.05555061936447e-07
-4.89821097696802e-09
-2.61851509172011e-07
-1.70761449132786e-07
-2.48071347351322e-09
3.19230990883084e-07
-9.30179705743383e-08
2.61865726203325e-10
2.74286482693472e-07
-3.65184565761395e-07
3.84342430545618e-07
-1.67917760259247e-08
4.95967081329981e-07
-6.55712720226249e-08
-1.41622911974876e-06
2.22986593427702e-07
-2.08640735137831e-08
-1.51886579949526e-06
1.1676387861695e-07
-7.70396721407039e-09
-1.44080789658079e-06
7.80591552221613e-08
4.68878098456375e-09
-1.34001972140817e-06
-1.000485464933e-06
-6.43187292179158e-08
1.00676036388603e-06
-4.7698994787782e-07
-1.64472108783423e-08
1.41280595593298e-06
-2.16413024985135e-07
-1.68594656914343e-09
1.50604577511044e-06
-1.03853281408353e-07
1.92155280209137e-09
1.43538976659813e-06
-5.49904565605977e-08
-5.07610351767923e-09
1.33064722078949e-06
-2.74692521686069e-08
1.07087300575457e-06
-3.45708752386479e-08
-4.02177578353317e-10
1.8006965205961e-07
-4.07320614697041e-08
8.03240014047569e-10
8.08776784041106e-08
-5.25793135863484e-08
-3.05990366433996e-10
6.17646101842198e-08
-7.1587451150792e-08
2.44488853825666e-10
5.34014676929832e-08
-1.62902977790925e-07
1.24784460964633e-08
4.98727255268103e-08
-1.03010899173003e-06
1.74301584667162e-07
-1.62702632703064e-07
-2.33002580938482e-09
7.54634391617025e-10
-9.19155808302892e-08
1.38180204113577e-07
-9.27903381907373e-10
1.04039222988508e-07
-1.27731918182503e-07
1.32721464212358e-07
-3.19394827866086e-07
-5.71046996389719e-09
2.16532925426626e-07
-3.58194031485609e-07
-8.60834013721151e-09
8.82569191910079e-08
9.44197444711501e-11
-2.71913863536046e-07
-2.0213666972791e-07
-5.41339746871972e-09
3.72965485264243e-07
-1.15333841303339e-07
-4.7455713207583e-10
3.31423428327249e-07
-6.88761554874289e-08
-1.40166783374758e-09
2.8915510506798e-07
-4.08952655332425e-07
4.3282812468079e-07
-2.17569084686839e-08
5.49601891089264e-07
-7.94153818573015e-08
-1.53636329084096e-06
2.55814569878495e-07
-3.90429196475966e-08
-1.65394443780288e-06
1.47267040343921e-07
1.30009681350339e-08
-1.68689137585136e-06
9.80682456014605e-08
1.51787405152479e-08
-1.54940508857147e-06
7.76408655579326e-08
2.24626999400749e-08
-1.42767804570417e-06
-1.02578668117201e-06
-8.94811946820947e-08
1.05086429934973e-06
-5.19954516610772e-07
4.89032885249186e-09
1.5052448349662e-06
-2.45245150733411e-07
6.87713508070789e-10
1.65563155512645e-06
-1.21120976891254e-07
-2.70261070001053e-09
1.63173496933182e-06
-6.67835137131208e-08
-1.32549930895945e-08
1.510322201839e-06
-4.86425997986629e-08
-3.31501785856886e-08
1.38494048757309e-06
-2.20807384233087e-08
1.12717893520077e-06
-3.42367287351191e-08
-5.09012829296255e-09
1.8638275392091e-07
-3.58051903240635e-08
1.02636951964278e-09
8.14553232142172e-08
-4.23387595873994e-08
5.92789812768224e-10
5.90428515734946e-08
-5.04527564249575e-08
-9.13180985963165e-11
5.25377537521619e-08
-7.06343075466044e-08
2.76647159868656e-09
4.89515423248719e-08
-1.64758533693959e-07
1.3823673141606e-08
4.11662726081713e-08
-1.08510750671142e-06
1.74755306928028e-07
6.91181208374899e-10
-1.1572902843921e-07
1.32271242131272e-07
-1.61742419352995e-07
-1.44366559129344e-09
2.08895604632295e-07
-1.93508860245136e-07
-3.33020587038828e-09
8.8457668253695e-10
1.01941862602857e-07
-9.01149956631049e-08
1.38954154889071e-09
-7.26058248590655e-08
1.41541653377663e-07
8.61451450812199e-10
8.8052881587485e-08
-1.28485991713097e-07
1.11388121680216e-07
-3.32950329456786e-07
3.16924344102091e-10
1.62060976151481e-07
-3.76969434918595e-07
-1.74533790972994e-09
2.46915443549347e-07
-3.97826327262936e-07
-1.08603863077843e-08
8.0098536808238e-08
5.82542827076479e-09
-2.77444959591409e-07
-2.27175982494921e-07
-8.84527297254608e-09
4.18157146634853e-07
-1.36086529826924e-07
-1.43328629586345e-09
3.88861680866097e-07
-8.55834753960185e-08
-2.1738564116321e-09
3.50975390617168e-07
-5.89190575239447e-08
-6.96735922190957e-09
3.01291888866999e-07
-4.51467733163034e-07
4.76788928508912e-07
-1.74934689985725e-08
6.93335129409184e-07
-7.65499532586319e-08
-1.72213869507557e-06
2.92951746226882e-07
-9.44018782791165e-08
-1.77401729555916e-06
1.68313781414614e-07
1.26365018310789e-08
-1.82193827246026e-06
1.23593543434465e-07
2.84721850818792e-08
-1.82381407907164e-06
9.31691967572988e-08
3.65544503186181e-08
-1.65669765607427e-06
6.39476292125965e-08
2.69051555422833e-08
-1.50474559843454e-06
-1.10492949310036e-06
-9.4414505349306e-08
1.1097997646466e-06
-5.43796504062665e-07
2.2047898395915e-08
1.57739752752829e-06
-2.70425218261301e-07
2.44901291319497e-08
1.75182284520987e-06
-1.36072124359992e-07
-6.46709323191912e-09
1.79542499930441e-06
-7.87259726989538e-08
-2.2065159684875e-08
1.71923095330948e-06
-5.68303683730199e-08
-3.7813912015347e-08
1.57178285652733e-06
-5.35865853216529e-08
-3.43867457277531e-08
1.45080938941172e-06
-2.28212639575601e-09
1.15690685012891e-06
-2.74572170054254e-08
-3.03276931995903e-09
1.8956937475573e-07
-3.44007087263052e-08
4.02638022724233e-10
8.26642921564651e-08
-3.74184240473447e-08
8.73527447281435e-10
5.79822322107956e-08
-4.21529957817105e-08
5.69718883719064e-10
5.08173897501172e-08
-4.93039211181868e-08
1.09594876950478e-09
4.76424578706264e-08
-7.0423268592537e-08
3.33648578429066e-09
4.36729725233539e-08
-1.70610559700638e-07
1.49212196120237e-08
3.67444694637772e-08
-1.13678786382591e-06
-9.06612630736094e-08
1.79475463559326e-07
1.74173855105308e-09
2.09533436602673e-07
-1.36652219014913e-07
6.10102474620796e-10
1.30430746236683e-07
1.21196671378445e-09
-1.1422199754703e-07
1.1179621226839e-07
-1.63208808594878e-07
1.91315524067753e-09
1.60074427262913e-07
-1.92781663776386e-07
-1.92072555766266e-10
2.3692368030215e-07
-2.15690313155957e-07
-4.83504304518915e-09
1.60239607706888e-09
-7.30732405581454e-08
1.01676708464577e-07
1.15454482346955e-09
8.6661757841737e-08
-8.9312431682301e-08
1.27809410389423e-10
-6.21057209182912e-08
1.44998358412746e-07
2.77618191060716e-09
7.88949812178664e-08
-1.28966872811135e-07
9.98742462390475e-08
7.52008846746011e-09
-3.41362710211986e-07
1.36118051026862e-07
-3.92401526025576e-07
3.20554140850097e-09
1.86274284848169e-07
-4.185044467624e-07
9.4976950360216e-10
2.77297447655951e-07
-4.35854324032391e-07
-1.08503844141073e-08
7.08529361139895e-08
6.17800550260608e-09
-2.8720397095299e-07
-2.48917587926327e-07
-1.20786879396309e-08
4.58475056338843e-07
-1.51285774764732e-07
-1.67938333155793e-09
4.33584197749066e-07
-1.00012181687242e-07
-3.38608411097487e-09
4.11339901260013e-07
-7.19234046075849e-08
-8.28798199269776e-09
3.6737291562512e-07
-5.50930384981697e-08
-7.36114852443106e-09
3.0711232107578e-07
-4.75093842426814e-07
5.53147088891625e-07
5.39096982058341e-08
8.9519381903325e-07
-9.21878544460818e-08
-1.98465461397217e-06
3.86634734115401e-07
-1.1755498832495e-07
-2.08569698023568e-06
1.9925697067484e-07
-7.80640088970554e-09
-1.95288229425159e-06
1.41696101259553e-07
4.14360370023535e-08
-1.97663921463213e-06
1.04549988014016e-07
3.10706023555025e-08
-1.9229151945e-06
7.80199643272812e-08
3.7972057674511e-08
-1.74580613387158e-06
5.60450663254771e-08
2.93175576866475e-08
-1.57521731347363e-06
-1.04364641345178e-06
9.49164198373384e-07
-4.94562486561155e-07
-7.07708002729211e-08
1.69705785722153e-06
-2.8203659584806e-07
4.72487593853324e-08
1.836609838999e-06
-1.52912330806166e-07
1.6887156980515e-11
1.8982064890791e-06
-8.59967570293963e-08
-2.61091421333957e-08
1.88542468350484e-06
-6.45952956963062e-08
-5.14637361392615e-08
1.79744287551648e-06
-6.22707650602016e-08
-5.39786283166283e-08
1.65361492465546e-06
-5.05306108885837e-08
-2.46357257367308e-08
1.52366325162771e-06
-1.09552133935858e-08
1.19245095323258e-06
-2.45978416780787e-08
1.27574896916815e-09
1.92761363060341e-07
-3.19346306391474e-08
-2.20341999812737e-10
8.35047458521165e-08
-3.50225942795251e-08
7.60634351234437e-10
5.79021045330168e-08
-3.81002109650096e-08
7.58206232025355e-10
4.98152957629269e-08
-4.19101761392073e-08
7.11650048323576e-10
4.6780023229525e-08
-4.91543214934193e-08
1.15321526673358e-09
4.43033523437477e-08
-7.22087679583449e-08
3.16656757249523e-09
4.03506338980786e-08
-1.77391324008324e-07
1.61558955821413e-08
3.42240837034314e-08
-1.18717852660105e-06
-9.13818580670356e-08
1.30254652433617e-07
2.4955528259606e-09
-7.64878791312897e-08
1.84292282976164e-07
-1.30958509715827e-10
-1.05374578066211e-07
2.14704078628013e-07
1.92870162338584e-09
1.57071436447131e-07
-1.34636281773375e-07
2.19347938839941e-09
2.35819246322701e-07
-1.50354386534461e-07
7.76681869383622e-10
1.1020459954017e-07
1.80098532489637e-09
-1.13280782609558e-07
9.95940789994627e-08
-1.64123195596106e-07
3.96612749374821e-09
1.3508556473564e-07
-1.93804811606442e-07
3.96062441166746e-09
1.82530186370238e-07
-2.15025149107181e-07
2.87895588471109e-09
2.64914432629817e-07
-2.37057047210809e-07
-4.32322744358338e-09
1.66569546173037e-09
-7.31609110957607e-08
8.5838536996241e-08
1.78473557177476e-09
-6.36128521798327e-08
1.02155986262832e-07
1.41719116188936e-09
7.82108464668114e-08
-8.93366397069982e-08
-8.44285227472821e-10
-5.62516995524234e-08
1.46776817779998e-07
2.76591368575457e-09
7.20501355604335e-08
-1.31780758106515e-07
1.18365215103085e-07
4.20254186733076e-09
-4.02914832975715e-07
8.82501773367582e-08
7.6937525479464e-09
-3.53124662427308e-07
1.55224378935943e-07
-4.36983074768413e-07
8.13619753436797e-09
2.18418683168799e-07
-4.58451045839504e-07
4.3554291291789e-09
3.2233290581701e-07
-4.35545895587131e-07
6.43929791578624e-08
5.50170433165627e-09
-2.97897089593609e-07
-2.6655795079265e-07
2.25649901980546e-08
5.02986447993197e-07
-1.6188562565285e-07
-1.21682573667e-09
4.66957279585006e-07
-1.08350604870785e-07
-3.47008921248687e-09
4.56000056507862e-07
-8.19687597342048e-08
-1.12548352981308e-08
4.31664542537697e-07
-6.66207331566679e-08
-1.21598819764672e-08
3.76506080906603e-07
-5.10945598338639e-08
-3.71762967022907e-09
3.1265623430899e-07
6.18054739135674e-07
-9.80614497994928e-08
1.06398377861818e-06
-2.19995615948858e-06
3.3013466692839e-07
-2.53663151639023e-06
2.41839035819841e-07
-2.63615391541668e-07
-2.07179314666787e-06
1.69959865659568e-07
3.76215922209851e-08
-2.11906321188546e-06
1.25801375146496e-07
4.62827963692725e-08
-2.11768857187264e-06
8.9655830927237e-08
3.85515488425288e-08
-2.01318083134845e-06
6.80090723400061e-08
3.98761765452868e-08
-1.82440292815866e-06
5.159085740855e-08
3.19705481527448e-08
-1.6426481126085e-06
-8.49166325656093e-07
1.72745920882328e-06
-2.92829884289424e-07
-1.27725194996949e-08
2.04984805359413e-06
-1.69010606433386e-07
1.1034906385696e-08
1.99455228528665e-06
-8.91727316526222e-08
-2.78521560592659e-08
1.98907271092098e-06
-6.3928974378724e-08
-5.79647098598762e-08
1.95582366158734e-06
-6.6506525272944e-08
-8.41727355981326e-08
1.89411960264504e-06
-6.18585739959242e-08
-5.03197185701514e-08
1.74112852183569e-06
-3.96860955981003e-08
-2.58451643662744e-08
1.57821194989657e-06
-1.24142701298505e-08
1.22841458803742e-06
-2.35569617780191e-08
-9.36026048711276e-10
1.98758206921452e-07
-2.96675650043703e-08
1.00394321958306e-10
8.48269936371566e-08
-3.33590088782065e-08
3.2156356518675e-10
5.8492608234652e-08
-3.59358676198027e-08
6.81187519521154e-10
4.97371201379913e-08
-3.87043996882219e-08
8.00815323849536e-10
4.64308772989038e-08
-4.23631662153466e-08
7.40747470419357e-10
4.47286530068316e-08
-5.03216286290259e-08
8.59639444920022e-10
4.24830703094317e-08
-7.52021545080416e-08
2.77941760175824e-09
3.8927042890778e-08
-1.84880072943454e-07
1.69760449730772e-08
3.29863031065377e-08
-1.23715089360008e-06
1.09163886542567e-07
2.77280191977252e-09
-9.14522887794699e-08
-7.8447897236903e-08
3.08857327404026e-09
1.30907825197157e-07
-1.05900094778162e-07
1.56139090476206e-07
3.9488065573196e-09
-6.858852587768e-08
1.87098727451535e-07
-1.68769790637757e-09
-8.74267302796921e-08
2.20309425690135e-07
-2.83819924476314e-10
-1.13357792308442e-07
2.3983468815539e-07
2.91335629588135e-09
1.31583875643184e-07
-1.33422578565583e-07
4.08456993394192e-09
1.76916580141175e-07
-1.4799568948859e-07
5.44101322429658e-09
2.58334298569268e-07
-1.61976804623293e-07
7.44097807559027e-09
9.84481352218826e-08
2.6767860670925e-09
-1.13397589286492e-07
9.06155035931618e-08
-1.67344059526593e-07
3.61772471020131e-09
1.18627720985138e-07
-1.94695586784197e-07
4.58916187882692e-09
1.53024933484287e-07
-2.15330365024068e-07
6.46034846793603e-09
2.07509856579325e-07
-2.39081951647945e-07
1.58041411485761e-08
2.95288662957317e-07
-3.14316791429065e-07
7.04678884072963e-08
1.67778921181173e-09
7.79371060056633e-08
-7.37663072561902e-08
1.83938617759688e-09
-6.46969495886266e-08
8.57620397284338e-08
1.2170042617385e-09
-5.78373193093452e-08
1.02843437082846e-07
1.25359787525798e-09
7.30104724677484e-08
-9.08119865794525e-08
-4.66212487157916e-10
-5.21538033394715e-08
1.48399174531044e-07
2.13301032622588e-09
6.74854536873131e-08
-1.3614985692741e-07
1.34651940676029e-07
-4.4746958470568e-07
5.81873656486608e-09
1.04038527717447e-07
5.70623432611779e-09
-4.15322620774557e-07
7.97188071812532e-08
6.30500086893151e-09
-3.65649661102078e-07
1.83100820165702e-07
-4.76661226335712e-07
1.31869147910333e-08
3.01548999644166e-07
-4.73215292586904e-07
6.06889144280159e-08
5.00562817717881e-09
-3.09230627890223e-07
-2.15307658667083e-07
-8.32670274797041e-08
6.46300145981037e-07
-1.73375167580837e-07
-6.25859115235887e-09
5.12364983814398e-07
-1.12785056721898e-07
-8.52522969849114e-10
4.87926247449699e-07
-8.53902845884584e-08
-9.87692017770529e-09
4.76066894155943e-07
-7.48672785050363e-08
-1.65400623318233e-08
4.44388089710269e-07
-6.24042498950352e-08
-9.7281403845339e-09
3.83047951143048e-07
-4.56307745430509e-08
-3.65234829854728e-09
3.21305529773849e-07
1.43842536687734e-06
-1.32178222790705e-06
8.02730050863999e-07
-2.67268897824802e-06
-6.67669012224591e-07
-2.13646464923417e-06
1.80422200317883e-07
-6.21785956657367e-08
-2.15244424790415e-06
1.52713715554206e-07
3.08750694881071e-08
-2.25640631484738e-06
1.01857098090179e-07
4.61764320190706e-08
-2.22719984404215e-06
8.01431382341647e-08
4.33187367545433e-08
-2.09679968829773e-06
6.22628451513969e-08
4.49985904801191e-08
-1.89972061572837e-06
4.88924733863965e-08
3.46866492942314e-08
-1.70927784100432e-06
-6.84830785137748e-07
2.39942049401064e-06
-2.1547342045546e-07
-1.52638908896753e-08
2.29154682301194e-06
-1.03098906450821e-07
-3.30335590085563e-08
2.10279136481961e-06
-6.37665950042481e-08
-6.26189491952301e-08
2.05745718617868e-06
-6.06423947292202e-08
-9.37473213069748e-08
2.02600936088281e-06
-6.75931912416744e-08
-7.73049705616682e-08
1.98867199419352e-06
-4.90721402434092e-08
-4.02581237638699e-08
1.80458834245268e-06
-3.44078138724784e-08
-2.57058726660429e-08
1.62588463985483e-06
-1.15099524091686e-08
1.26243386605673e-06
-2.25183065033195e-08
-1.97705501666823e-09
2.05159968558378e-07
-2.79900946235068e-08
-1.95525301120098e-10
8.74054086154517e-08
-3.20520695605971e-08
1.38416530513351e-10
5.97438022676784e-08
-3.47495279362216e-08
5.54498193447801e-10
5.04666889297466e-08
-3.72209188127698e-08
6.98717186943372e-10
4.68668878215015e-08
-3.9839831169447e-08
8.13606926653362e-10
4.53060625653053e-08
-4.37549124352227e-08
6.47096488864655e-10
4.40827671355241e-08
-5.25696068969349e-08
5.76512767949849e-10
4.21175700761198e-08
-7.89701696359926e-08
2.501888775336e-09
3.85974228966806e-08
-1.92999750463153e-07
1.7602528261202e-08
3.24562687663323e-08
-1.28721719964417e-06
1.08960588424114e-07
-7.97245185811805e-08
3.31676346960653e-09
1.29535821359197e-07
-1.05524207836641e-07
4.44166119374456e-09
9.80707201904737e-08
2.71353312628872e-09
-9.21129621203233e-08
-8.95774673727711e-08
4.84813518481518e-09
1.56527043187228e-07
-7.07118410253166e-08
2.40663898047595e-09
1.31837929778848e-07
-1.13472517855305e-07
1.74363729024191e-07
6.61140239462154e-09
-6.33509464525921e-08
1.89060345751208e-07
-1.48440565823658e-09
-7.74878158398091e-08
2.24206346554283e-07
-2.96885082731884e-09
-9.1637408361834e-08
2.4554529254501e-07
2.47116648443687e-10
-1.17733661741326e-07
2.61220596177704e-07
4.97020005659326e-09
1.16477135967582e-07
4.46612845518834e-09
-1.33065516843172e-07
1.47088698721231e-07
-1.45695899154557e-07
7.71611363556049e-09
1.95609486987432e-07
-1.6087000530031e-07
1.62264615244909e-08
2.983242439817e-07
-1.82744621837802e-07
1.37657308104191e-08
9.1260951679102e-08
2.25450236417575e-09
-1.15046980281749e-07
8.44279582884279e-08
-1.7235513941876e-07
2.43228093985752e-09
1.06930056755167e-07
-1.97692050712171e-07
3.71776541636741e-09
1.32463456710106e-07
-2.14269570076681e-07
5.71206940703012e-09
1.72969461135735e-07
-2.34563388665716e-07
1.20638586203043e-08
2.40172713558766e-07
-3.11894175203445e-07
7.47471219614397e-08
3.95828906540165e-07
-3.60384421349897e-07
-1.32085007034345e-07
1.80878406770088e-09
7.82067655173371e-08
-6.60788614821818e-08
1.52032373713827e-09
7.38339016812713e-08
-7.52989621382934e-08
1.99264573025768e-09
-5.97523484877396e-08
8.62365445862509e-08
8.88570199719417e-10
-5.40566837130149e-08
1.0399322760993e-07
8.55382333476276e-10
7.00622880303116e-08
-9.36002412438507e-08
-4.94272256483056e-10
-4.85682822878024e-08
1.51632125782088e-07
1.53085554897367e-09
6.50992736375778e-08
-1.41518312939306e-07
1.15983472563103e-07
-4.59635403932404e-07
3.7290886558263e-09
1.53694934823874e-07
-4.77912831238359e-07
6.07240367839035e-09
9.37109910593542e-08
5.66763058784264e-09
-4.28264936869615e-07
7.45927397426191e-08
5.78563317053995e-09
-3.78770089603334e-07
2.66310600620174e-07
-4.96723885638538e-07
-4.92181414895368e-08
5.87799628206165e-08
4.72074954754116e-09
-3.21345893893971e-07
-1.0077058071603e-06
1.67794622181141e-06
-2.23971359471728e-07
-3.9689122616622e-08
6.88195382322508e-07
-1.23424320438944e-07
-6.98060948503738e-09
5.38785772140409e-07
-8.59681003543978e-08
-8.09989137189521e-09
5.0832476353147e-07
-7.49958826312467e-08
-1.68669838084677e-08
4.90728322707183e-07
-7.052567810361e-08
-1.40400705707631e-08
4.51615007765388e-07
-5.54866123424048e-08
-7.01461786919881e-09
3.92809891168659e-07
-4.14750237645493e-08
-4.02456634040862e-09
3.30409040885266e-07
8.62347999261589e-07
-1.3894325560219e-06
-1.88943449576278e-06
8.62185460852777e-07
-1.64547731479906e-06
-6.43388317499912e-07
-1.9883027802534e-06
5.37597856619509e-08
-1.47285844920118e-07
-2.10516029338779e-06
1.79345483731224e-07
6.55805632329848e-09
-2.30751677362691e-06
1.15649410709472e-07
4.03571212888764e-08
-2.36627252352963e-06
8.96582244700341e-08
4.73025047754406e-08
-2.32087623058803e-06
7.27478564948385e-08
5.43730812370001e-08
-2.17894772600875e-06
5.86895449243211e-08
5.06508018243563e-08
-1.9744000298556e-06
4.73189298577716e-08
3.69595072680698e-08
-1.77597953857491e-06
-5.49824847337805e-07
2.9339082678121e-06
-1.83402749816787e-07
-2.99184724534573e-08
2.47178514554656e-06
-7.37660663799917e-08
-6.627720167408e-08
2.18017770280755e-06
-5.59636899429238e-08
-1.01529317893696e-07
2.12117377281409e-06
-6.77198580766165e-08
-1.10508038970173e-07
2.12690807113893e-06
-5.56119370042088e-08
-5.71693731449535e-08
2.06116761302594e-06
-4.12847061266333e-08
-4.02173370572074e-08
1.86035300979686e-06
-3.15703028514276e-08
-2.36738614195947e-08
1.66959372139219e-06
-1.04846206444701e-08
1.29419245407729e-06
-2.12852857804013e-08
-1.92516502103735e-09
2.11497896883238e-07
-2.69392461094419e-08
-3.58148496582115e-10
9.07362684329323e-08
-3.09641796211014e-08
-1.50660601035552e-11
6.17591614989103e-08
-3.4053277752038e-08
3.9691014919069e-10
5.1962198351793e-08
-3.66429217738454e-08
6.71221342666001e-10
4.80003648374381e-08
-3.90264039111787e-08
7.13425182116189e-10
4.64412157373891e-08
-4.16891725099261e-08
7.14531541883203e-10
4.56244719043756e-08
-4.60119446369049e-08
5.10469481728453e-10
4.46410214265993e-08
-5.56044332289008e-08
3.12082607629044e-10
4.2698553917639e-08
-8.33845381824531e-08
2.31770681508282e-09
3.89601529638888e-08
-2.01827611183888e-07
1.81750127623328e-08
3.23331252833322e-08
-1.3377288060295e-06
3.72172034031053e-09
-7.29670898437316e-08
1.09484227850615e-07
9.82218137764747e-08
-8.13095900282951e-08
3.24019889623447e-09
1.28772382112584e-07
-9.07188216869207e-08
5.21822642075387e-09
1.14968017972419e-07
-1.06144187730349e-07
4.83914661749799e-09
1.42964197677639e-07
-1.12911155906137e-07
8.00043681713724e-09
9.21309793405237e-08
2.37013255905892e-09
-9.38352815355424e-08
-9.4169214103304e-08
7.49451218971507e-09
1.74244130193221e-07
-8.00877452879554e-08
4.01980589308578e-09
1.57510920554006e-07
-6.56924182395785e-08
1.96467261038009e-09
1.33101082594423e-07
-1.18301234665049e-07
1.91297165504502e-07
1.14845123441307e-08
-5.87045431533846e-08
1.92735609254092e-07
-9.54795218883592e-10
-7.146108093485e-08
2.26519810944103e-07
-2.86697855247432e-09
-7.98114903222075e-08
2.50424752601638e-07
-3.03942459830421e-09
-9.24097094333147e-08
2.67253408618231e-07
6.50609348797424e-10
-1.27924098742063e-07
3.06358467907355e-07
1.42571375567731e-09
1.27984562740805e-07
6.98033273697366e-09
-1.43735509081392e-07
1.07013751716416e-07
3.40875205174885e-09
-1.34307330839742e-07
1.61012230028077e-07
-1.55065149225859e-07
1.38627247584271e-08
2.29610129753172e-07
-1.82831332618249e-07
2.68672951760346e-08
4.83328150673058e-07
-2.83335274664927e-07
-1.43919016494632e-08
8.70418018576857e-08
1.35192114299608e-09
-1.1815963464548e-07
8.08623112135496e-08
-1.7857257410129e-07
1.47636759897942e-09
9.89211026741467e-08
-2.0262731845929e-07
2.15278056031315e-09
1.17205921824663e-07
-2.15657175362398e-07
3.87778428024722e-09
1.44882627833123e-07
-2.26486945955011e-07
6.44089025600694e-09
2.02921279263823e-07
-2.56425824827692e-07
1.99745003012021e-08
3.02387468920311e-07
-4.17690425711025e-07
-1.04275509434135e-07
9.7438434727261e-07
-1.25189106706297e-06
1.95390258813326e-09
7.90390622094487e-08
-6.1869030935733e-08
1.67175942310568e-09
7.48686456618355e-08
-6.8074204892438e-08
1.18735997017357e-09
7.20996923269792e-08
-7.78110286779293e-08
1.87904581480491e-09
-5.66378537359089e-08
8.73337566914925e-08
7.51505989168531e-10
-5.14368389992616e-08
1.06092245265715e-07
4.56298774441652e-10
6.89655230921158e-08
-9.7414553738669e-08
-5.53525571013908e-10
-4.56621188678448e-08
1.56010961141106e-07
1.06205131340816e-09
6.4286940236708e-08
-1.4777798584614e-07
1.03049693162036e-07
4.62744754609365e-09
-4.71999858938263e-07
1.25578830380482e-07
-4.86550656242478e-07
2.42386371194316e-09
1.8216704971041e-07
-4.93290091855585e-07
-2.03848874772552e-10
8.6979806302984e-08
5.70818289613935e-09
-4.4243045019654e-07
7.17673487402556e-08
5.70915054928564e-09
-3.92846592046723e-07
3.80072935430812e-07
-4.40327494063941e-07
-7.00609114959514e-09
5.80355819428143e-08
4.61300614449187e-09
-3.34368643864116e-07
-8.03715019590032e-07
1.89206142907574e-06
-1.88404507320633e-07
-3.89607095990683e-08
7.25137591565608e-07
-9.38774948275339e-08
-1.01958759296109e-08
5.60965802013423e-07
-7.24356490936524e-08
-1.71631663876688e-08
5.25076944529514e-07
-7.13913483598603e-08
-1.97037195504537e-08
5.00048901487745e-07
-6.31676446369934e-08
-9.68150353074554e-09
4.61820757690799e-07
-4.99265312189277e-08
-6.25130680006662e-09
4.03665346475922e-07
-3.87024609303045e-08
-3.68796277357571e-09
3.39292350678178e-07
7.72048044953055e-07
-1.19615138695485e-06
-1.43440001739046e-06
8.72287749452737e-07
-1.08342327641933e-06
-6.43268900381794e-07
-1.94297275702146e-06
5.08368929026186e-07
8.55135689248498e-08
-1.64922564632868e-07
-2.05622105890632e-06
1.76119493484791e-07
2.32437531434905e-08
-2.29800305010739e-06
1.30302338757421e-07
3.14121968488943e-08
-2.42891041949225e-06
9.6709829519685e-08
4.81081053598493e-08
-2.4638125744094e-06
8.0434272910513e-08
6.04849658518009e-08
-2.40744938313891e-06
6.80105179229767e-08
6.51384327947656e-08
-2.26146475785495e-06
5.64682605314403e-08
5.56359195495323e-08
-2.04957054300635e-06
4.64815582755388e-08
3.89697248247086e-08
-1.84327988957157e-06
-4.77387866683894e-07
3.38130864310635e-06
-1.48085464867652e-07
-5.0826403515724e-08
2.6043828189561e-06
-6.05177817800281e-08
-9.28490831833785e-08
2.23199201543987e-06
-6.26395078385679e-08
-1.42950636415867e-07
2.21622174386111e-06
-6.39271454763157e-08
-1.08959045282651e-07
2.24259494128845e-06
-4.7168202500723e-08
-5.92293853671283e-08
2.12732416738631e-06
-3.70030559169584e-08
-3.69222689135737e-08
1.91058388989325e-06
-2.9308310192305e-08
-2.15888803501943e-08
1.70998165776524e-06
-9.554814446445e-09
1.32376847246718e-06
-2.00300854991631e-08
-1.70046256580165e-09
2.17873940548432e-07
-2.59683834926754e-08
-4.42910364917253e-10
9.44154029893022e-08
-3.01770449230526e-08
2.40589865826262e-10
6.42977162939636e-08
-3.374446553584e-08
6.46928548117547e-10
5.38958857843539e-08
-3.66347373183161e-08
6.51907984118145e-10
4.97547452058275e-08
-3.90501242073598e-08
6.73260519881271e-10
4.81266121587984e-08
-4.13855484257981e-08
6.33280071111838e-10
4.75230295075052e-08
-4.4221659191485e-08
5.51735693725383e-10
4.7046293244408e-08
-4.89698164819889e-08
3.45617806753455e-10
4.60470860543215e-08
-5.92993427834999e-08
1.80128093402705e-10
4.38692990222864e-08
-8.8475178648532e-08
2.22941198524145e-09
3.97007640213451e-08
-2.11431400354334e-07
1.87924503454783e-08
3.24506201440994e-08
-1.38898013538307e-06
1.2906289924064e-07
5.8057184239601e-09
-8.24651015694931e-08
3.61227047477626e-09
9.89900008537231e-08
-7.53955420638712e-08
3.93349065229675e-09
-6.88248290898119e-08
1.10560161535444e-07
9.31598721973533e-08
-8.35717019571853e-08
2.90305800092281e-09
1.14522420749982e-07
-9.24658033885617e-08
5.43026050341645e-09
1.41381615385009e-07
-9.55256143662953e-08
8.15378612028813e-09
1.06978776528168e-07
-1.07724570642657e-07
3.98306466960511e-09
1.24814218426403e-07
-1.12605116610361e-07
7.70046091685956e-09
1.54421647868972e-07
-1.16873725014719e-07
1.31593379037284e-08
8.93430855130746e-08
1.66469550388266e-09
-9.66161904634082e-08
-9.54152603459584e-08
1.11674381098056e-08
1.90625258997525e-07
-8.33100703647543e-08
6.51052277695925e-09
1.75248355252188e-07
-7.4160081030421e-08
3.26787565855315e-09
1.58903279259202e-07
-6.21608675696438e-08
1.8739976815603e-09
1.35431705550499e-07
-1.27510235301076e-07
2.25267990676647e-07
1.54068158123554e-08
-5.48650713487007e-08
1.97886642653113e-07
-7.69076344306195e-10
-6.63171983381107e-08
2.30300888784179e-07
-1.59094943747595e-09
-7.34496494338368e-08
2.53537996336065e-07
-3.92702915960873e-09
-7.86717744278134e-08
2.73259786946017e-07
-2.81459622653099e-09
-9.88196442723547e-08
3.15110317837431e-07
-3.16917344026738e-09
-2.05832807897024e-07
5.17923747466074e-07
-1.57581022439176e-08
1.36022313183618e-07
9.74351390709502e-09
-1.48971737071327e-07
1.15616368609609e-07
4.9453105016145e-09
-1.4368578179666e-07
1.01306241056385e-07
1.90562082500464e-09
-1.3724874696073e-07