/*--------------------------------*- C++ -*----------------------------------*\
  =========                 |
  \\      /  F ield         | OpenFOAM: The Open Source CFD Toolbox
   \\    /   O peration     | Website:  https://openfoam.org
    \\  /    A nd           | Version:  12
     \\/     M anipulation  |
\*---------------------------------------------------------------------------*/
/*   Windows 32 and 64 bit porting by blueCAPE: http://www.bluecape.com.pt   *\
|  Based on Windows porting (2.0.x v4) by Symscape: http://www.symscape.com   |
\*---------------------------------------------------------------------------*/
FoamFile
{
    format      ascii;
    class       volVectorField;
    location    "100";
    object      U;
}
// * * * * * * * * * * * * * * * * * * * * * * * * * * * * * * * * * * * * * //

dimensions      [0 1 -1 0 0 0 0];

internalField   nonuniform List<vector> 
10228
(
(-4.24823509280651e-06 -5.80446648681321e-05 6.91670811292534e-05)
(-9.48666355376582e-06 -6.88978108709032e-05 8.09090821158597e-05)
(-2.37655409908828e-06 -3.06047963223211e-05 0.000135392049149554)
(-3.01541821086109e-06 -0.000112552568682931 3.92550977504223e-05)
(-8.4499061111289e-06 -0.000140925757209411 4.76365187582322e-05)
(-1.13477480106536e-05 -7.33933763853376e-05 8.55864330693825e-05)
(-5.42611899963577e-06 -3.9982241724164e-05 0.000163310152439852)
(-3.4366847712559e-06 -1.42322582095395e-05 0.00015055164479765)
(-1.49058024575962e-06 -2.04044596085775e-05 3.00209413934564e-05)
(-9.57772209865279e-07 -0.00012511013662268 1.84220370279855e-05)
(-3.92370785868459e-06 -3.3793945075294e-05 4.46714773982762e-05)
(-1.15876210201395e-05 -0.000147217113492658 4.92049517793865e-05)
(-8.00949545053247e-06 -0.000160693337510539 2.10042888424289e-05)
(-1.3110201591079e-05 -7.46359723777939e-05 8.69697402226332e-05)
(-6.1604154038722e-06 -4.28993487835527e-05 0.000168329217786652)
(-1.46675952275338e-06 -1.99645375927569e-05 0.000184412992800125)
(-2.18342156887553e-06 -7.64317562163974e-06 0.000164929784284148)
(-1.30869412082206e-06 -6.64911971267503e-06 2.55659350039019e-05)
(-1.05957973414385e-06 -1.58843411416629e-05 1.20451864783709e-05)
(-1.6337593807645e-06 -0.000137062845744188 1.02312317015259e-05)
(-3.34954099015119e-06 -2.92278741065132e-05 1.89364065043328e-05)
(-1.75595979438751e-06 -1.36509863521906e-05 3.94219361842825e-05)
(-5.10809702811095e-06 -3.67797839854479e-05 4.75555216212756e-05)
(-1.27618231507266e-05 -0.000152315923623324 5.11161918440075e-05)
(-1.00596267253263e-05 -0.000166850206281528 2.16700441437162e-05)
(-7.99977998994925e-06 -0.000174939595464487 1.21493801907273e-05)
(-1.59422829885811e-05 -7.77724274204769e-05 9.26411488345923e-05)
(-7.19532708066929e-06 -4.55083632932272e-05 0.000174137045083851)
(-1.08874964327964e-06 -2.283632644719e-05 0.000190152415767541)
(3.72754841269164e-07 -1.40383118669165e-05 0.000201937379944578)
(-2.90880783789641e-06 -6.17266726730264e-06 0.000165579546384863)
(-1.18513024041455e-06 -3.7496129898766e-06 2.42431089244418e-05)
(-9.41331696184503e-07 -4.50597931743667e-06 1.02748956433274e-05)
(-6.65413525032136e-07 -1.50511010603449e-05 7.03577019640973e-06)
(2.65712445877268e-07 -0.00013384029812955 6.97404295926006e-06)
(-1.73588724864524e-06 -1.12444315151898e-05 1.69723280305843e-05)
(-4.29460642764738e-06 -3.18159507535166e-05 1.99611383784112e-05)
(-2.90277004589626e-06 -2.86095278705637e-05 1.15079709604843e-05)
(-2.04104186249807e-06 -1.48742914096204e-05 4.19045858329089e-05)
(-1.02094214310678e-06 -8.33620796370319e-06 3.82990110908517e-05)
(-6.07542918205786e-06 -3.85190151969865e-05 4.97544212249117e-05)
(-1.52477025575542e-05 -0.000154842210563843 5.38056256343381e-05)
(-8.61532898524582e-06 -0.000172255403761275 2.31096668220739e-05)
(-8.20041481765234e-06 -0.000179018551679177 1.40153665255268e-05)
(-2.08133200583505e-06 -0.000177359211227879 1.01015732873306e-05)
(-2.02054026553276e-05 -7.58657817550149e-05 9.49466997983623e-05)
(-9.05658777643601e-06 -4.69467201430095e-05 0.000181192325070268)
(-1.55954246958817e-06 -2.55906658500038e-05 0.000196629724990622)
(8.76666715088067e-07 -1.83379313775759e-05 0.000206627726824983)
(-1.82292214833548e-06 -1.16758099975016e-05 0.00020858040525769)
(-4.65256558335357e-06 -6.47073385194286e-06 0.000161569836713016)
(-1.40621194846639e-06 -3.28925208043042e-06 2.28789025375044e-05)
(-9.23843550341646e-07 -3.27475177380568e-06 9.45440271504067e-06)
(-7.05546077446263e-07 -3.78289961298493e-06 7.23965565989015e-06)
(-1.88445527227344e-07 -1.39005436198121e-05 5.49383416892488e-06)
(2.15581852016226e-06 -0.000156294994581276 6.01988329663514e-06)
(-1.98887281764699e-06 -1.21578360715898e-05 1.79894158046999e-05)
(-1.1027304182688e-06 -7.61083625087669e-06 1.61667069496548e-05)
(-1.48217225406831e-06 -1.03352140811947e-05 1.17263717540998e-05)
(-3.6739571461632e-06 -3.09514314791694e-05 1.23039883977066e-05)
(-4.40657579500121e-06 -3.29413287014322e-05 2.0707677901615e-05)
(-1.62301754307146e-06 -2.799615986825e-05 9.28440204518232e-06)
(-2.39617190801568e-06 -1.54405637518222e-05 4.37233117822551e-05)
(-7.39209638766138e-07 -9.07566661139046e-06 4.05543207430815e-05)
(-1.30239416983316e-06 -6.78142796693121e-06 3.75210139845281e-05)
(-7.70626843526103e-06 -3.9075062196005e-05 5.19415600629698e-05)
(-2.02209627768177e-05 -0.00016008577756485 5.75852710497383e-05)
(-9.54467190871861e-06 -0.000172728179013931 2.42734203514137e-05)
(-3.00829952232188e-06 -0.000185776021577781 1.64778247697216e-05)
(-2.46007176832626e-06 -0.000185323785945452 1.12561977595829e-05)
(3.88043312500117e-06 -0.000203908993125066 9.94703709217053e-06)
(-2.78966590877565e-05 -7.62558926063922e-05 0.000100858812746342)
(-9.79621485381477e-06 -4.72756875011072e-05 0.000190611797888957)
(-2.35298034205451e-06 -2.68523387367712e-05 0.000203992838331084)
(4.96633691181262e-07 -2.20008877931335e-05 0.000213668027624482)
(-2.71984745651523e-07 -1.61474258942567e-05 0.000214623221887226)
(-6.82727653823699e-06 -1.11024089537654e-05 0.000208362420225217)
(-2.3306835176361e-07 -3.38760980758846e-06 0.000172788809033137)
(-1.67499384878458e-06 -4.0583819808915e-06 2.01165026856972e-05)
(-8.47905023497726e-07 -3.74786148499882e-06 8.6128319649893e-06)
(-6.86285143632421e-07 -3.23481355353258e-06 7.34688757990144e-06)
(-4.45746446626113e-07 -3.0506513841115e-06 6.51513992982613e-06)
(1.13850021794344e-07 -1.48658045093955e-05 5.27751419569002e-06)
(9.6060464808924e-07 -0.000161701254336789 4.85599202075045e-06)
(-8.25004824832043e-07 -7.98825989101949e-06 1.70974521066656e-05)
(-1.7587415188138e-06 -1.11190809738706e-05 1.23954397497778e-05)
(-2.05798330354905e-06 -1.21804049969139e-05 1.8514195056724e-05)
(-9.33197730772483e-07 -7.40770846655504e-06 1.18063295427443e-05)
(-8.53484185067802e-07 -6.9954661158034e-06 1.54097971843691e-05)
(-1.00344607832675e-06 -9.6712036551893e-06 1.03059373700116e-05)
(-2.37201881161401e-06 -3.03880532577513e-05 9.93217325416949e-06)
(-2.92381877770131e-06 -3.17541443442173e-05 1.30584736606669e-05)
(-4.99178235280787e-06 -3.2430616481361e-05 2.13239349995081e-05)
(-2.45837476578014e-07 -2.95827854440604e-05 8.82418641243697e-06)
(-3.19272288864281e-06 -1.52226814041185e-05 4.52012685290812e-05)
(-4.70855276768469e-07 -9.27983631876272e-06 4.19479969390524e-05)
(-2.88947485111265e-07 -7.55257230693584e-06 3.98631737155175e-05)
(-1.80099566148066e-06 -7.0427803800765e-06 3.52773427883637e-05)
(-8.59649468108248e-06 -3.98718008941022e-05 5.47648398508767e-05)
(-2.44443029320871e-05 -0.000168363658078145 7.15225162716659e-05)
(-1.48122014649609e-05 -0.000177531459927455 2.55202355437232e-05)
(-8.12899695496179e-07 -0.000187885424342729 1.63341262178975e-05)
(-9.24606608095091e-07 -0.000200888687154697 1.37725315835958e-05)
(3.35019566736996e-06 -0.000211404207488262 1.102977122528e-05)
(3.20983597871449e-06 -0.000213404786201928 8.18661444502713e-06)
(-3.33232786947098e-05 -7.27669895124474e-05 0.000103747820976473)
(-1.10377249370143e-05 -4.47233218993247e-05 0.000207251395056995)
(-1.95850868456959e-06 -2.65866005069741e-05 0.000213536193779176)
(-5.90010576491754e-07 -2.33429410295203e-05 0.000220905188067231)
(-6.41395284127907e-08 -2.00266437613225e-05 0.000222786903111804)
(-3.17713157437283e-06 -1.39210924920011e-05 0.000216773235377204)
(-1.2535479904023e-06 -8.09735684826819e-06 0.00020875681000296)
(3.76012505666175e-06 -1.59444847876505e-06 0.000181650948230426)
(-4.33625265413495e-07 -4.20289046649524e-06 1.85735386172589e-05)
(-6.58103584922659e-07 -4.6720283013417e-06 7.5741963483547e-06)
(-5.66912888599876e-07 -4.15434236291446e-06 7.08600669897188e-06)
(-4.94091007429302e-07 -3.05576258263149e-06 7.19694245078308e-06)
(-3.02517917765714e-07 -3.03222773914873e-06 6.58889020052416e-06)
(-3.15786960284658e-08 -1.52281142992916e-05 5.34372962619661e-06)
(2.04603235957542e-07 -0.000168127387735272 4.84429194632967e-06)
(-1.92072909602553e-07 -7.2819923301053e-06 1.62439273225147e-05)
(-4.72697143091432e-07 -7.58613613585633e-06 1.73015817916993e-05)
(-7.41513844352373e-07 -7.63122323028941e-06 1.2329107763092e-05)
(-1.3588905315915e-06 -1.03307450377073e-05 1.08831780036628e-05)
(-1.56482514947218e-06 -1.08006919876392e-05 1.26627135239961e-05)
(-2.21083997099806e-06 -1.13479223727344e-05 1.86848486980305e-05)
(-6.12230434672598e-07 -7.36420823977806e-06 1.1542931586221e-05)
(-6.70418145719606e-07 -7.20417271731814e-06 1.09397684558695e-05)
(-6.35922447690936e-07 -7.35835138172587e-06 1.43702482078304e-05)
(-5.86856798674055e-07 -9.75445639473418e-06 1.00203250459162e-05)
(-1.14955173663432e-06 -3.21153922214315e-05 9.39076551193649e-06)
(-2.28399738942613e-06 -3.15886521792107e-05 1.05970016577788e-05)
(-2.40048387174555e-06 -3.1546972118517e-05 1.32208273898223e-05)
(-5.4625222651456e-06 -3.23669815165787e-05 2.21181552013201e-05)
(-3.83450361207755e-07 -3.04126210124334e-05 8.49750375539234e-06)
(-3.51452274056392e-06 -1.44066704279145e-05 4.71091651151821e-05)
(-4.8292431136353e-07 -8.67892293872768e-06 4.26475880075882e-05)
(5.07296966682173e-07 -7.66794226730402e-06 4.13158102749854e-05)
(-1.30017150655683e-07 -7.50922657778283e-06 3.83213989380507e-05)
(1.96945696407295e-07 -6.6554907205951e-06 3.34846775918693e-05)
(-2.35855325328301e-06 -4.06679845269014e-05 6.06720686765023e-05)
(-3.88000124686772e-05 -0.000213964059523029 0.000109681481859534)
(-2.62769171862984e-05 -0.000180415794186563 3.33368389336125e-05)
(-5.26503585770888e-06 -0.000192462554355107 1.57493603225585e-05)
(1.47414444392215e-06 -0.000199722600041427 1.55154158030199e-05)
(-1.21047379245201e-06 -0.000220711048278136 1.20394521009828e-05)
(3.53197006674286e-06 -0.000224548178217279 9.97214525754155e-06)
(1.88394418126632e-06 -0.000221945272852407 7.53709781739723e-06)
(-1.79780742980341e-05 -6.2949207302445e-05 8.69311850450099e-05)
(-2.4742003962212e-05 -3.50881450856791e-05 0.000237975724992577)
(-2.26264138454581e-06 -2.63209190071561e-05 0.000233968325598328)
(-1.22432499691674e-06 -2.15799370910187e-05 0.000230205058452749)
(-1.44353038076302e-06 -2.14108083347322e-05 0.000230551114902162)
(-1.84314998977085e-06 -1.71825178659375e-05 0.000226474144875443)
(-1.39746760203194e-06 -1.14973466154333e-05 0.000217008630616337)
(5.55125368839743e-06 -5.85498934140219e-06 0.000231712873347751)
(1.96621535868897e-06 -2.52768793817119e-06 0.000192323332710208)
(9.55076416108308e-07 -4.20229090712996e-06 1.95386395688844e-05)
(-1.95707052951412e-07 -5.26877324312373e-06 6.82996613344632e-06)
(-3.42670488508363e-07 -5.31689779512627e-06 6.81888709239651e-06)
(-4.08898759487893e-07 -4.39767740461001e-06 7.41942747692339e-06)
(-4.1411415670602e-07 -3.23649078960334e-06 7.62881225767712e-06)
(-3.57372523329267e-07 -3.22413811047373e-06 7.03673075602344e-06)
(-3.19981471339589e-07 -1.55014001374915e-05 5.76990857608221e-06)
(-2.52855554756905e-07 -0.000175522266095259 4.80276723706651e-06)
(-1.02147844149701e-07 -7.43659463349014e-06 1.19321466867751e-05)
(3.27411274997283e-07 -7.50665437230142e-06 1.52064686946521e-05)
(5.48185634404522e-07 -6.71659294041277e-06 1.62677331446764e-05)
(-3.14306961459274e-07 -6.91319197322429e-06 1.22659653892915e-05)
(-1.4401614938877e-07 -6.48224524125396e-06 1.6937152894522e-05)
(-5.82786657327238e-07 -7.30955605986779e-06 1.14064235617563e-05)
(-1.0563473635086e-06 -1.04265616237444e-05 1.05289637865824e-05)
(-1.31236613955271e-06 -9.87272385503679e-06 1.10348112351685e-05)
(-1.15515422524777e-06 -9.73246075612305e-06 1.24423288726197e-05)
(-1.70646247142667e-06 -9.95259618305272e-06 1.91774595622052e-05)
(-4.32644780739636e-07 -7.61959561076431e-06 1.11509755003267e-05)
(-2.89069938378351e-07 -7.97525423895684e-06 1.12182596433524e-05)
(-4.88229199841732e-07 -7.38780719269956e-06 1.10127989965315e-05)
(1.35422314850897e-07 -7.5296615895864e-06 1.35594628267966e-05)
(-6.29185360093767e-07 -1.00017146841273e-05 1.01143094477351e-05)
(-2.49082276861197e-06 -3.30840745351732e-05 9.54167227388883e-06)
(-1.19865896954522e-06 -3.34887113746453e-05 9.26101107430526e-06)
(-1.66603092266812e-06 -3.1876659730615e-05 1.10024590151916e-05)
(-2.41903986431566e-06 -3.15259575581112e-05 1.38583903095839e-05)
(1.72469135084305e-06 -2.9046230302794e-05 2.26234348275399e-05)
(-8.83573478643952e-07 -3.11051693425046e-05 8.50555980047658e-06)
(-8.53829680102639e-07 -1.29261175038313e-05 5.10154858542954e-05)
(-2.72561496505377e-07 -7.16562514885634e-06 4.35108991605795e-05)
(7.57754269392705e-07 -6.78927911356679e-06 4.17431194932366e-05)
(1.18086946816211e-06 -7.42542426027777e-06 4.01418891281465e-05)
(1.39467870605834e-06 -7.18432403708138e-06 3.68348563377657e-05)
(2.39147680361491e-06 -6.31361996984988e-06 3.54590937738546e-05)
(-1.1594609679769e-05 -2.01525247852915e-05 8.13551172020437e-05)
(-4.94949928318746e-05 -0.000208039945978336 0.000101804621889004)
(-1.00465344362703e-05 -0.000251150065418183 4.31666133738984e-05)
(-2.18198078213687e-05 -0.000190443827075808 1.17500170737505e-05)
(2.74662231558773e-06 -0.000203636013483891 1.49690571063625e-05)
(-7.62216412571001e-07 -0.000226335469521071 1.47765748237067e-05)
(1.46801028071545e-06 -0.000233821548034066 1.1058694502145e-05)
(2.26604851653503e-06 -0.000233063875610321 8.44099529481611e-06)
(1.31650694140831e-06 -0.000231103243516367 7.26998453863315e-06)
(-2.23464499749761e-05 -4.54393437940839e-05 0.000234226331779782)
(-1.43114054885321e-05 -2.44416737678319e-05 0.000280216785697474)
(-3.02654605893215e-06 -1.81728724015509e-05 0.000250443975324191)
(-2.52523540994705e-06 -2.02083632883355e-05 0.000240356897265489)
(-3.86801553261252e-06 -1.75436883423434e-05 0.000235636448574817)
(-2.85973880754007e-06 -1.31709495360031e-05 0.000229183503539716)
(1.73274084339279e-06 -9.1370919023965e-06 0.000241318868506266)
(1.35984644564956e-06 -5.71850190281226e-06 0.00024317483019299)
(9.87834313090994e-07 -3.18145364530877e-06 0.000197264010490356)
(7.28973308581116e-07 -5.01930173332062e-06 2.19238374741019e-05)
(2.68993261943974e-07 -5.80575609171775e-06 7.11602310200918e-06)
(-4.59270450032332e-08 -6.35649046351955e-06 6.75040215787942e-06)
(-2.0405306118157e-07 -5.88733717937447e-06 7.65257136690433e-06)
(-3.57175054109112e-07 -4.8959958427057e-06 8.28234771227739e-06)
(-4.46643440268506e-07 -3.67415827512093e-06 8.45775229193443e-06)
(-4.79040762334546e-07 -3.68086782093735e-06 7.74972230526082e-06)
(-5.37145329134138e-07 -1.64728768488761e-05 6.53406612347261e-06)
(-2.85735088620095e-07 -0.000183225060502671 5.1483099392192e-06)
(-4.98635491363307e-08 -7.60744456517534e-06 1.14943546501528e-05)
(4.3715550560148e-07 -7.95551221059252e-06 1.15163594445746e-05)
(5.68769797506975e-07 -6.60270111750132e-06 1.16109139270383e-05)
(1.17481709147088e-06 -7.63123359244776e-06 1.44139954581685e-05)
(1.30994108404233e-06 -6.85418071216534e-06 1.52367287457826e-05)
(1.15867446688149e-06 -5.33938945407994e-06 1.55322500770406e-05)
(-2.83652990234063e-07 -6.46727961849992e-06 1.12717665647702e-05)
(2.77390171186953e-07 -5.49674495782506e-06 1.16701526489402e-05)
(7.50276883944693e-07 -4.67538813132198e-06 1.65313656089607e-05)
(-5.4597077035177e-07 -7.46675425121283e-06 1.14448958631632e-05)
(-1.17861969563296e-06 -1.07554868750008e-05 1.06535761566112e-05)
(-1.41151978749652e-06 -9.92899313307513e-06 1.04976543467479e-05)
(-9.3462764099166e-07 -8.94329452351141e-06 1.07885303237808e-05)
(-1.26771125229691e-07 -8.57797714510157e-06 1.26895986321523e-05)
(3.57210971564206e-06 -8.88299758748587e-06 2.16880488882722e-05)
(-3.33986550578765e-07 -8.11286319643273e-06 1.16441856964953e-05)
(-1.37747743691338e-07 -8.58426565788065e-06 1.13246489598252e-05)
(1.70968307900217e-07 -8.57804624784719e-06 1.10639948217072e-05)
(-5.23041918273692e-07 -7.81123299356549e-06 1.15188847365945e-05)
(9.55072699100396e-07 -7.6976177840722e-06 1.40182942905567e-05)
(-8.52422778676351e-07 -1.05236337229923e-05 1.0489756238101e-05)
(-2.6304585646125e-06 -3.36126220654813e-05 1.00374121827338e-05)
(-2.28327072272611e-06 -3.46433671063191e-05 9.40183182099145e-06)
(-1.79492620451556e-06 -3.42402988143979e-05 9.10719201159991e-06)
(-1.08297370042656e-06 -3.2581292952652e-05 1.15323686158079e-05)
(-5.63738743549312e-06 -2.89825670278073e-05 1.49504308812865e-05)
(-1.17971696271157e-06 -3.24294575543461e-05 8.937512691639e-06)
(-5.44651226654291e-06 -9.75850659079798e-06 7.32195388381336e-05)
(-5.32845361516145e-07 -5.28331357345399e-06 4.67633191876614e-05)
(8.94976998909729e-07 -5.1463379590116e-06 4.17846997318127e-05)
(1.36523006225235e-06 -6.11171113374008e-06 4.09696804954853e-05)
(2.27143658198457e-06 -6.91112662172436e-06 3.8997976034816e-05)
(2.9184530161989e-06 -6.89041859718913e-06 3.86174818305885e-05)
(1.88630904758424e-06 -6.64836306429856e-06 3.81386636582426e-05)
(-5.69309705139539e-05 -0.000122423942462149 0.000200139203115373)
(-0.000120467312637968 -0.000285694478422799 9.89900896904693e-05)
(-4.53719443625748e-05 -0.000236285992961504 -1.55479857595649e-05)
(-5.23206202988666e-06 -0.000201901175842965 8.47339107984271e-06)
(2.68423520213938e-06 -0.000232884807587965 1.55552875028993e-05)
(1.36058554250187e-06 -0.000239018929809118 1.20921140881415e-05)
(2.31356471796952e-06 -0.000242995960073332 9.38053658244074e-06)
(1.56522776507979e-06 -0.000241904919857966 7.87769374514803e-06)
(9.99069034703773e-07 -0.000240563956008937 7.31174990675617e-06)
(-1.63189257168101e-05 -4.79694518679675e-05 0.000329413637487642)
(-1.07288268243921e-05 -2.06711786167171e-05 0.000310481074041099)
(-4.99200570259035e-06 -1.83394297403384e-05 0.000263714112538875)
(-5.36804660679454e-06 -1.69626693961657e-05 0.000246443021613914)
(-5.23587127119218e-06 -1.30984794294696e-05 0.000237625478741811)
(-1.53011004678609e-06 -9.90148828221689e-06 0.000249482249683508)
(2.83891752714148e-07 -7.26489385532475e-06 0.000251189226646236)
(1.02053018121439e-07 -4.94256205229599e-06 0.000250658119023718)
(6.26771843082938e-07 -3.59556493827928e-06 0.000202304675236047)
(5.14000911897293e-07 -5.40079285861721e-06 2.31874411425293e-05)
(3.9608048680414e-07 -6.70636219322627e-06 8.08395824740029e-06)
(2.11619929072098e-07 -7.34882871561855e-06 7.15738188102711e-06)
(2.80684906971364e-08 -7.34571941024094e-06 8.04268810014617e-06)
(-1.83928804903389e-07 -6.70239832340662e-06 8.93995514454318e-06)
(-3.85130410247222e-07 -5.63311088250016e-06 9.54190155729985e-06)
(-5.23012094638515e-07 -4.40632044809577e-06 9.58786303846406e-06)
(-5.64933093791926e-07 -4.56917053283034e-06 8.81280337384961e-06)
(-6.47228298345727e-07 -1.77646248065159e-05 7.33705671799704e-06)
(-2.48262993019697e-07 -0.000191096813611214 5.57269119341677e-06)
(4.18661934621125e-07 -8.51613098229311e-06 1.15918963432598e-05)
(5.01188747983193e-07 -6.65610468101655e-06 1.11007037788993e-05)
(-8.43592335938035e-08 -8.06043929477183e-06 1.19752863238913e-05)
(1.25940072913704e-06 -7.08896691390507e-06 1.10761230722173e-05)
(9.93644083146963e-07 -8.48808700955404e-06 1.12963558386785e-05)
(1.33228160881767e-06 -5.0087804925025e-06 1.06447774339718e-05)
(1.93625140135426e-06 -7.7555764776839e-06 1.48126907918991e-05)
(2.14456051752138e-06 -6.96312406304594e-06 1.44363760847094e-05)
(1.99067332592954e-06 -5.2238993331896e-06 1.44849535882674e-05)
(1.87836553192859e-06 -3.3391605819924e-06 1.44659312518152e-05)
(-4.98128398003278e-07 -6.59274907290113e-06 1.1219577134305e-05)
(1.89108507082277e-07 -5.04029292523802e-06 1.0619417264667e-05)
(1.43077194167031e-06 -3.76198371570027e-06 1.1053854437749e-05)
(2.24329588091977e-06 -3.32471817520218e-06 1.74894366889095e-05)
(-7.12536369620034e-07 -7.88655391494592e-06 1.19199210665517e-05)
(-1.53135235168983e-06 -1.123426085748e-05 1.09570770544466e-05)
(-1.64737909699341e-06 -1.02901943411576e-05 1.05706840379394e-05)
(-1.4305389268307e-06 -8.92296159905942e-06 1.02932961374211e-05)
(-1.53126142049221e-07 -8.1449624845251e-06 1.07020911604255e-05)
(4.17614561394595e-06 -8.92208297690968e-06 1.57885409842762e-05)
(3.74824118162271e-06 -8.39802779080004e-06 2.77489208739763e-05)
(-8.67592991912039e-08 -9.40315910529339e-06 1.22426058651752e-05)
(-3.63870220739069e-07 -8.818904029667e-06 1.25923251052982e-05)
(2.17502909774685e-07 -9.61548636466276e-06 1.16157614653484e-05)
(6.11836513758362e-07 -9.20515098991092e-06 1.1447008129128e-05)
(-6.7276435810443e-07 -8.52507397986855e-06 1.2343782528141e-05)
(1.11920422232722e-06 -8.21876888551023e-06 1.51239657330628e-05)
(-1.02963945240284e-06 -1.14837145411978e-05 1.12524788668471e-05)
(-2.85204026362283e-06 -3.45433426512815e-05 9.37248121911019e-06)
(-1.98524496304353e-06 -3.41697850465228e-05 1.03604102204717e-05)
(-2.63378726560074e-06 -3.54674609919235e-05 9.26328309580487e-06)
(-2.21301327160196e-06 -3.54412883532155e-05 9.37596145833549e-06)
(-4.30405022769493e-06 -3.49204408849e-05 1.32033145064775e-05)
(-1.37463434964464e-06 -3.41056217949233e-05 9.51008310065407e-06)
(-3.83166000900556e-05 -8.58037594647651e-05 0.000228208289198639)
(-3.26601669581642e-06 -9.01964318818802e-06 7.12684528243615e-05)
(6.41349363030067e-07 -3.71672521952695e-06 4.47363424886403e-05)
(1.31817053709227e-06 -4.4407131928702e-06 4.10170680840688e-05)
(2.28287087047057e-06 -5.74419800324717e-06 3.98805606486433e-05)
(3.29012801177385e-06 -6.55833307583562e-06 4.01339072466882e-05)
(2.67711007405789e-06 -6.82136319855328e-06 4.07767727804311e-05)
(1.53412978696864e-06 -6.63565251184195e-06 3.9891349798677e-05)
(-8.88363529077103e-05 -0.000119607493647493 0.000133767754878074)
(-0.000128088272121518 -0.00028864696938076 0.000101521143449689)
(-8.59317387263827e-06 -0.000217395308108675 1.62054459674904e-05)
(-4.43363925855746e-06 -0.000204767061369844 -7.89783288538289e-06)
(8.01408727221287e-07 -0.000236531924699773 1.48987037885921e-05)
(3.0113532692889e-06 -0.000245208314638833 1.26280654151407e-05)
(2.6241423893533e-06 -0.000249834671036269 1.00389125993023e-05)
(2.08137896736379e-06 -0.000251575280746127 8.28655208849105e-06)
(1.29755208033829e-06 -0.000251221858615708 7.78111783047089e-06)
(8.39292449112562e-07 -0.000250220504520187 7.56617100666656e-06)
(-1.09796326584325e-05 -3.96911944642741e-05 0.000420318280047175)
(-1.02479189954158e-05 -2.10659896983328e-05 0.000335079829676657)
(-7.4832414257776e-06 -1.5668936069348e-05 0.000271633308852649)
(-8.79651816102445e-06 -1.23920225051934e-05 0.00025020959370609)
(-2.77032780736002e-06 -9.6321097431751e-06 0.000242465925664663)
(-1.5585216931023e-06 -7.43436026960551e-06 0.000261060195674583)
(-6.43786232372772e-07 -5.71055904273315e-06 0.000260195532472326)
(2.02762079098661e-08 -4.81985542768863e-06 0.000257114194653969)
(3.87906471397244e-07 -3.87141371301062e-06 0.000207860636357393)
(5.28151460142055e-07 -5.81759921697666e-06 2.44581487927903e-05)
(4.30178332946168e-07 -7.47561538737451e-06 9.05799370757159e-06)
(3.3686556979038e-07 -8.46508544989428e-06 7.96531778953458e-06)
(2.16436087779702e-07 -8.77408778753984e-06 8.70978094723356e-06)
(2.01246179139337e-08 -8.51364164907947e-06 9.71216181487034e-06)
(-2.2039556390564e-07 -7.74710661742696e-06 1.06078393450737e-05)
(-4.43364314513728e-07 -6.63626869834244e-06 1.11239135452654e-05)
(-5.8380366971e-07 -5.47417756498999e-06 1.10436960749976e-05)
(-6.19217641670795e-07 -5.71492463436706e-06 1.00297031475373e-05)
(-7.06757799546682e-07 -1.94282041681853e-05 8.15834011466006e-06)
(-1.84207942093748e-07 -0.000199406570939303 6.01102461094952e-06)
(8.58162883229592e-07 -9.48373763626514e-06 1.18138185588523e-05)
(3.413995275287e-07 -9.29560321502729e-06 1.25050716679128e-05)
(1.11759552758751e-06 -7.55513225585091e-06 1.10551811476838e-05)
(2.58666385416227e-07 -7.07221848806898e-06 1.15498818148937e-05)
(1.14844427064033e-06 -5.04843938246954e-06 1.00929516884223e-05)
(-2.47219604741887e-07 -8.73581099485887e-06 1.28801215809553e-05)
(2.08426657447782e-06 -5.42235387885177e-06 9.95204266725765e-06)
(1.87874911903566e-06 -7.63051385830891e-06 1.07598639734036e-05)
(1.45029623582376e-06 -9.05604272165281e-06 1.16156236200591e-05)
(2.40459811521417e-06 -3.00256815631171e-06 9.43888793097674e-06)
(2.09481270416316e-06 -8.07880294565155e-06 1.58076715276418e-05)
(2.80562614802224e-06 -7.08217234333841e-06 1.45848280883111e-05)
(2.7832232387704e-06 -5.42270213078117e-06 1.36429946229938e-05)
(2.6308214631251e-06 -3.098694599202e-06 1.32190725870545e-05)
(2.73875839501912e-06 -1.54711656661291e-06 1.51515165104962e-05)
(-3.01458159567716e-07 -5.08779226577336e-06 1.046992651557e-05)
(-8.47243394934661e-07 -6.96592174337493e-06 1.16106507342386e-05)
(1.06552332158653e-06 -3.43747605668418e-06 9.81576783209783e-06)
(3.63641798894888e-06 -2.79600180406149e-06 1.12793646311265e-05)
(3.55296361431614e-06 -6.77730569607681e-06 3.06099145664225e-05)
(-9.81815391837689e-07 -8.54208336864338e-06 1.26660247350287e-05)
(-1.83410075880935e-06 -1.20928100579419e-05 1.1585710158093e-05)
(-2.10707805581131e-06 -1.06905667064631e-05 1.07934781017175e-05)
(-1.96569485273193e-06 -9.00523855179447e-06 1.00628326511476e-05)
(-1.07367508447933e-06 -7.7951355256386e-06 9.88562216244117e-06)
(1.03872443297064e-06 -8.7394006957511e-06 1.22113158026642e-05)
(3.75991393923121e-06 -1.36793146532284e-05 2.38687388207215e-05)
(-6.69357629430666e-05 -7.67996769573911e-05 0.000144551126992937)
(2.10790721569966e-07 -1.07983149987131e-05 1.2910600276633e-05)
(-1.24101184214801e-07 -1.04072956983614e-05 1.35970410533635e-05)
(-4.769525936422e-07 -9.77711404135116e-06 1.38850211012147e-05)
(5.38883359121848e-07 -1.06814276083731e-05 1.21819021749215e-05)
(8.28343916707834e-07 -1.00360120894355e-05 1.22356494642813e-05)
(-8.16054406731133e-07 -9.57880942400208e-06 1.35262124576281e-05)
(1.14447915221217e-06 -8.70526402223857e-06 1.61881171045637e-05)
(-1.16827374398883e-06 -1.27372521345072e-05 1.22406648254343e-05)
(-3.21344907864744e-06 -3.53303689800513e-05 9.03771879607441e-06)
(-2.74087269101309e-06 -3.43132953166601e-05 9.10394295769698e-06)
(-2.07466720323369e-06 -3.43976904807156e-05 1.11293335854459e-05)
(-3.05830061666163e-06 -3.64505362258268e-05 9.37254729786453e-06)
(-2.47947124890003e-06 -3.70398316415499e-05 9.84466241346706e-06)
(-7.45809950115929e-07 -2.9438020075529e-05 1.60696904484602e-05)
(-1.50412147023342e-06 -3.61714733243915e-05 1.01533788419037e-05)
(-1.4911592496356e-05 -6.59411916495695e-05 0.000271099501537135)
(-1.2611093721569e-06 -8.27337701567124e-06 7.06590492954459e-05)
(1.11154695171215e-06 -3.06690573078634e-06 4.38299193295927e-05)
(1.50284316227527e-06 -4.01486054625761e-06 4.03200050424501e-05)
(3.6160071378232e-06 -5.64624497058909e-06 3.92482362177699e-05)
(3.07876886686218e-06 -6.42075741405088e-06 4.18950575474524e-05)
(2.36101801396532e-06 -6.60425971961433e-06 4.28768801677875e-05)
(1.38413178085191e-06 -6.7693244575281e-06 4.14073076971499e-05)
(-0.000106950107809013 -0.000114591916762079 0.000153768177827202)
(-0.00013398559538479 -0.000162062502709076 0.000104392656607134)
(-3.03428507783161e-05 -0.000216449225790253 5.53179580361327e-05)
(1.33749395811246e-05 -0.000203935398444281 -1.10540088929964e-07)
(5.68712798578282e-06 -0.000235749143117997 1.28216657436259e-05)
(2.55115556204628e-06 -0.00024867165698103 1.29411026235486e-05)
(3.26423417905112e-06 -0.000255702680844216 9.98689578403728e-06)
(2.76871339025265e-06 -0.000259260489275373 8.44054363896469e-06)
(2.02260891862328e-06 -0.000260636446140955 7.88010368958427e-06)
(1.23018860819752e-06 -0.000260907649271476 7.92115396280708e-06)
(7.91077582239807e-07 -0.00026031256377363 7.92344256058967e-06)
(-9.02329208807623e-06 -3.73536590525894e-05 0.000484817813147749)
(-1.16069302625748e-05 -1.90219931397298e-05 0.000353302427768496)
(-1.11477160348548e-05 -1.12243297475488e-05 0.000276063394130332)
(-1.01199944104576e-05 -9.62257186489517e-06 0.00024967037419374)
(-3.99372533106149e-06 -7.3580298776052e-06 0.000264760900900824)
(-2.91430640956237e-06 -5.68061004371663e-06 0.000270104580977117)
(-4.1137611254993e-07 -5.08400890347196e-06 0.000267405673942413)
(-2.38283601228503e-08 -4.86393865936764e-06 0.000263671712327027)
(2.69798197618251e-07 -3.9666695274899e-06 0.000213653002105223)
(5.05650594034018e-07 -6.0990356806087e-06 2.60769872600115e-05)
(4.31430352549062e-07 -8.10177263696882e-06 1.01758526956389e-05)
(3.76051971875996e-07 -9.52912146824726e-06 8.95250043144027e-06)
(3.06503852197586e-07 -1.01964414348576e-05 9.63835652549767e-06)
(1.78899737070965e-07 -1.02914587603889e-05 1.06656552317644e-05)
(-3.50126845212229e-08 -9.86737784676146e-06 1.174216006682e-05)
(-2.7540299846712e-07 -9.02565083248191e-06 1.26003222647741e-05)
(-4.92521990832566e-07 -7.9215888702899e-06 1.29918362800368e-05)
(-6.24641100830106e-07 -6.80709711099883e-06 1.2674064821952e-05)
(-6.57303115733097e-07 -7.17821566264472e-06 1.12939732939353e-05)
(-7.40911140370861e-07 -2.15367195694637e-05 8.95386784487665e-06)
(-1.31300455659657e-07 -0.000208198569169428 6.40067684671356e-06)
(1.61661579501647e-06 -8.5367199853845e-06 1.11687510953693e-05)
(7.23437091355545e-07 -1.06305777707528e-05 1.30968239975603e-05)