/*--------------------------------*- C++ -*----------------------------------*\
  =========                 |
  \\      /  F ield         | OpenFOAM: The Open Source CFD Toolbox
   \\    /   O peration     | Website:  https://openfoam.org
    \\  /    A nd           | Version:  12
     \\/     M anipulation  |
\*---------------------------------------------------------------------------*/
/*   Windows 32 and 64 bit porting by blueCAPE: http://www.bluecape.com.pt   *\
|  Based on Windows porting (2.0.x v4) by Symscape: http://www.symscape.com   |
\*---------------------------------------------------------------------------*/
FoamFile
{
    format      ascii;
    class       volScalarField;
    location    "600";
    object      k;
}
// * * * * * * * * * * * * * * * * * * * * * * * * * * * * * * * * * * * * * //

dimensions      [0 2 -2 0 0 0 0];

internalField   nonuniform List<scalar> 
10123
(
3.48984006399506e-06
3.80378177053083e-06
3.59172961210833e-05
3.59045895043171e-06
4.09915582465659e-06
3.80445358643495e-05
3.91719165227839e-06
6.65592872124098e-05
3.6086217209148e-05
3.74676085694862e-06
4.34881281803035e-06
4.00354158988487e-05
4.22340267755501e-06
7.00527090860708e-05
3.82191871386209e-05
4.09094624876452e-06
8.9424053514091e-05
6.65607596151568e-05
3.63379241894171e-05
3.80552188940418e-06
4.57801637016172e-06
4.18779400955142e-05
4.48114318194978e-06
7.33498521661565e-05
4.02150532086314e-05
4.41044028798926e-06
9.40071276815514e-05
7.00502815560531e-05
3.84760385286242e-05
4.15851671058994e-06
0.000108258046886522
8.93260024247369e-05
6.63452896799243e-05
3.62349704879114e-05
3.7006689151407e-06
4.79222978095247e-06
4.35921806024323e-05
4.71849017879898e-06
7.64496147770613e-05
4.20615284617743e-05
4.67931688935585e-06
9.8353348009137e-05
7.33436580089499e-05
4.04751015032007e-05
4.48461319982643e-06
0.000113786520179395
9.39014583847735e-05
6.9815620896991e-05
3.83623258182613e-05
4.0486730735659e-06
0.000124717155736332
0.00010806255001154
8.88031736510333e-05
6.56797370044538e-05
3.55196851927448e-05
3.47820663529522e-06
4.99288230491282e-06
4.51869669950361e-05
4.94100249520154e-06
7.93559605341501e-05
4.37786579102965e-05
4.92670689057711e-06
0.000102461359839295
7.64394245384012e-05
4.23237247962006e-05
4.75813748161038e-06
0.000119045185811704
9.82396018886866e-05
7.30904347905785e-05
4.03490635929212e-05
4.36868145570559e-06
0.000131103466023985
0.000113579138185151
9.3344952680222e-05
6.91070442801616e-05
3.76091120242151e-05
3.81075433128257e-06
0.000139552920783806
0.000124413778386703
0.000107300968206155
8.77011898662129e-05
6.43864124208518e-05
3.42538959356064e-05
3.20698290411714e-06
5.18264395897377e-06
4.666861414093e-05
5.14957499025001e-06
8.20731296905281e-05
4.5376081759144e-05
5.15867585712908e-06
0.000106328927798012
7.93415407315731e-05
4.40419918636143e-05
5.00914885086308e-06
0.000124029117797106
0.000102339672605957
7.61682359572939e-05
4.21846207949852e-05
4.6359457303988e-06
0.000137189104180944
0.000118825163738008
9.76504497825854e-05
7.23404378594906e-05
3.95575206272946e-05
4.11476255727024e-06
0.00014674017186653
0.000130782814384281
0.000112771790451107
9.2176172065149e-05
6.7740341911748e-05
3.62795089572974e-05
3.51922600827354e-06
0.000153166212395021
0.000139158796848368
0.000123433589181317
0.000105843417176928
8.5921400020843e-05
6.24757813515574e-05
3.26211792813487e-05
2.9188904621172e-06
5.36533095479285e-06
4.80483187178776e-05
5.34649005606533e-06
8.46064125799628e-05
4.68600709115271e-05
5.37687057159758e-06
0.000109955936593023
8.20546018275993e-05
4.56402585208198e-05
5.24389461885147e-06
0.000128731822545417
0.000106199584201793
7.90529589772234e-05
4.38894592561805e-05
4.881254219327e-06
0.000142965169523492
0.000123796772036605
0.00010171919826583
7.53784583362253e-05
4.13553445332614e-05
4.3673571300049e-06
0.000153594948764219
0.000136850350120274
0.0001179732544202
9.64177763658069e-05
7.09028903189929e-05
3.81649620986886e-05
3.80315710422486e-06
0.000161117478030766
0.000146323742572911
0.000129744995480512
0.000111227539622072
9.02929080000051e-05
6.57263845493318e-05
3.45657287782858e-05
3.20871556145244e-06
0.000165802628064162
0.000152711263422286
0.00013799454206361
0.000121667264520625
0.000103640913646904
8.34823025570968e-05
6.0057132471505e-05
3.07429081754173e-05
2.61840051363462e-06
5.54924340979234e-06
4.935261902615e-05
5.53557906038869e-06
8.69639920563258e-05
4.8241559928718e-05
5.58246240591912e-06
0.000113344515762015
8.45839324460291e-05
4.71256026446541e-05
5.46506354947128e-06
0.000133149541514144
0.000109819332628962
8.17495178596428e-05
4.54742552554235e-05
5.10910102451213e-06
0.000148421550184491
0.000128487728741304
0.000105549299859468
7.82250922897594e-05
4.30235403426133e-05
4.59940513089468e-06
0.000160105077533528
0.000142608824666349
0.000122902169806455
0.000100425558434828
7.38730405806768e-05
3.9901766846213e-05
4.03771121282016e-06
0.000168701518509174
0.000153155429846144
0.000135756444248308
0.000116345941818727
9.44358749007761e-05
6.87897063415403e-05
3.6370848986392e-05
3.47104405404152e-06
0.000174495942413722
0.000160636330109187
0.000145091097620161
0.000127873889201786
0.000108896162204097
8.77161135928791e-05
6.31766813677173e-05
3.25924938272482e-05
2.88380207462336e-06
0.000177616853521673
0.000165310067294109
0.000151407907305791
0.000135971139836583
0.000119097651659313
0.000100734797607114
8.04558157363247e-05
5.72120919759868e-05
2.86569111810243e-05
2.30541302216359e-06
5.72347776240961e-06
5.05270642535359e-05
5.72538020728598e-06
8.9144682423911e-05
4.95459860774827e-05
5.77962774107427e-06
0.000116499534144663
8.69370760788093e-05
4.85077110203745e-05
5.67432120501414e-06
0.000137281245296262
0.000113201078699623
8.42632769022282e-05
4.69474196383413e-05
5.32438123002822e-06
0.000153551527169683
0.000132894364822924
0.000109140920480378
8.08854742232352e-05
4.45730739838892e-05
4.81428053516795e-06
0.000166257610940174
0.000148048476374741
0.000127552633722802
0.000104197763004543
7.66549359571041e-05
4.1511636617485e-05
4.25270002269867e-06
0.000175904151148336
0.000159643227213981
0.000141461248136878
0.000121195691281476
9.83497060467592e-05
7.16646817075009e-05
3.80302931890164e-05
3.68622299672487e-06
0.000182782552298586
0.000168193496584116
0.000151856411379236
0.000133784984707417
0.000113891541643558
9.17276560819185e-05
6.61168238357585e-05
3.43050021416464e-05
3.12282488468076e-06
0.000187041871735111
0.00017397418643942
0.00015925556619775
0.000142946840444639
0.000125152605258776
0.000105822981020124
8.45230161319393e-05
6.01806007681682e-05
3.03942908028915e-05
2.54465918011611e-06
0.000188700946180225
0.000177099299737405
0.000163903802770027
0.00014918018899716
0.000133091708270249
0.000115783466871035
9.71895470892748e-05
7.68991030189555e-05
5.39780032799187e-05
2.63635875540866e-05
1.98348374931056e-06
5.88667702450837e-06
5.15982465311954e-05
5.90535834127141e-06
9.11452084855113e-05
5.07253430188732e-05
5.97712361288822e-06
0.000119416196148151
8.91156401237622e-05
4.98113931422196e-05
5.87511943790533e-06
0.000141128482123445
0.000116349653684482
8.66010479890558e-05
4.83183705225169e-05
5.52783065284816e-06
0.000158351514496832
0.00013701569530612
0.000112496318696459
8.33652924116243e-05
4.60131945610925e-05
5.01660412485242e-06
0.000172043611282248
0.000153162685465766
0.000131921146747053
0.000107734738023067
7.92539746741648e-05
4.30057432971954e-05
4.45148376178776e-06
0.000182710612329059
0.000165774572652229
0.000146850077012311
0.000125771162117319
0.000102032756752074
7.4355952054989e-05
3.95662658399711e-05
3.88255446689478e-06
0.000190647955657098
0.000175370262676324
0.000158280831959598
0.000139394252972444
0.000118624232324093
9.55163877786074e-05
6.88744963630798e-05
3.58751765337095e-05
3.31726882936418e-06
0.00019601406134007
0.000182231074151218
0.000166737898046307
0.00014959664071867
0.000130918934745118
0.000110658948547352
8.83749929056266e-05
6.29765232386387e-05
3.2004431079573e-05
2.75814230833543e-06
0.00019885617291571
0.000186492468925114
0.000172482821842762
0.000156892917940246
0.000139895270442535
0.000121645115369259
0.000102077590557363
8.07719863883907e-05
5.67755053665981e-05
2.79777912876929e-05
2.19538923518595e-06
0.000199104688514704
0.00018816409303016
0.000175612533132523
0.000161513001207513
0.000146043674923662
0.000129426255649257
0.000111788113395068
9.3046881416577e-05
7.28401410117397e-05
5.03667150897741e-05
2.38648051693065e-05
1.65958189584923e-06
6.03964125972723e-06
5.25843897126851e-05
6.07356133769e-06
9.29781184274338e-05
5.18008404237543e-05
6.16442667855143e-06
0.000122100145907887
9.11141730238732e-05
5.09956239320958e-05
6.07458368161357e-06
0.000144687578777641
0.000119260760316056
8.87685054769528e-05
4.96098512664353e-05
5.72297841733065e-06
0.000162820435758217
0.000140853247450605
0.000115620417509304
8.56711390319947e-05
4.73528160688514e-05
5.20750750308744e-06
0.000177457891685421
0.000157947919162148
0.000136006833518494
0.000111038863514666
8.1676078090914e-05
4.43933569279257e-05
4.63806251390411e-06
0.000189110597472077
0.000171540622500748
0.00015191650757491
0.000130069064599902
0.000105485571349051
7.68692029551218e-05
4.09903108938601e-05
4.06380125681468e-06
0.000198076935748733
0.000182152274045526
0.000164352277639635
0.000144692732568688
0.000123088853389057
9.90808097364335e-05
7.14537032362718e-05
3.73260264532784e-05
3.49406734187429e-06
0.000204520890610516
0.000190068027576317
0.000173843424557811
0.00015591130708995
0.00013639060563616
0.000115240004695776
9.20117420395319e-05
6.55969029009978e-05
3.34750827264823e-05
2.93025042533376e-06
0.000208503682284966
0.000195432504505731
0.000180657834145673
0.000164246707153499
0.00014638105324444
0.00012722700584158
0.000106722558825363
8.44402097974415e-05
5.94098358304189e-05
2.94704809846966e-05
2.38207639920738e-06
0.00020999525995464
0.000198284735548335
0.000184913450251451
0.000169944287316059
0.000153565624310938
0.000136012555371872
0.000117420440593298
9.77055194928962e-05
7.6495281194594e-05
5.29757865539187e-05
2.53447482448049e-05
1.8428342841215e-06
0.000208852497604699
0.000198551232035088
0.000186609364634721
0.000173086404664124
0.000158160936526368
0.000142077037228285
0.00012504025992432
0.000107147210461535
8.83275224516538e-05
6.82927386862548e-05
4.6381911906881e-05
2.11691851636859e-05
1.34121102293129e-06
6.18218385177403e-06
5.34918295779711e-05
6.2308788928965e-06
9.46524311539665e-05
5.2789948199994e-05
6.33914512548106e-06
0.00012455782904851
9.29451209403914e-05
5.20738689902777e-05
6.26396062424555e-06
0.000147962719388101
0.000121939614802911
9.07564600326846e-05
5.07877337189582e-05
5.91596324836066e-06
0.00016695496668152
0.000144403516615721
0.000118509565697869
8.78104388905797e-05
4.86135408592707e-05
5.3904646981689e-06
0.00018249645115763
0.000162403196053766
0.000139811423136693
0.000114114853194736
8.39278456363575e-05
4.56829520941028e-05
4.81377667260001e-06
0.000195097987701879
0.000176936043842702
0.000156657134958532
0.000134088683878538
0.000108710642070319
7.92104547192907e-05
4.23116816214522e-05
4.23380518257193e-06
0.000205058834961542
0.00018852932415212
0.000170062097010151
0.000149674240953402
0.000127282344452771
0.000102421628185273
7.3860850769353e-05
3.86693139777498e-05
3.65687707516197e-06
0.000212548462412921
0.000197470238356599
0.00018055827572735
0.000161879158382982
0.000141558998705189
0.000119561022204855
9.54319593025954e-05
6.8046481898885e-05
3.48308066502318e-05
3.08672551064109e-06
0.000217636014239301
0.000203908758297836
0.000188417146314517
0.000171230441181554
0.00015254011195519
0.000132523384184288
0.000111121830617806
8.79014786634665e-05
6.18761104964894e-05
3.08315278315653e-05
2.5304316673535e-06
0.000220312063698138
0.000207897692421432
0.000193765274107021
0.00017797920085032
0.000160738192887158
0.000142291336344153
0.000122783423490215
0.000102131325827965
7.99559213225728e-05
5.54306632845454e-05
2.67081447783947e-05
2.00234228090609e-06
0.000220488379438227
0.000209404119258553
0.000196630472767545
0.000182227146265561
0.000166383744919666
0.000149359272558812
0.000131370406112597
0.00011251810157666
9.27297002655646e-05
7.17080431795126e-05
4.8786202805827e-05
2.2503879222331e-05
1.4951841071343e-06
0.000217955727763709
0.000208284382369429
0.00019693612127978
0.000183966162251063
0.000169549316849229
0.000153934001052518
0.000137350225964876
0.00011996761501111
0.000101877300901619
8.30453236172462e-05
6.32632493304142e-05
4.20239257178463e-05
1.82882345459889e-05
1.03485050801286e-06
6.31358482198589e-06
5.43216528187256e-05
6.37738372406573e-06
9.61741815051888e-05
5.36990556312295e-05
6.50239141167523e-06
0.000126795458296565
9.46175450836264e-05
5.30640709011636e-05
6.44046064481654e-06
0.000150958759022728
0.000124392634465556
9.25772554522256e-05
5.18572195457121e-05
6.09926307521502e-06
0.000170758058726733
0.000147670560085399
0.000121168221695683
8.97725418319373e-05
4.97647767399472e-05
5.57133387272646e-06
0.000187157014260569
0.000166525159391475
0.000143331435266968
0.000116960750259849
8.60169774272589e-05
4.68960036817511e-05
4.98227882678759e-06
0.000200666811369286
0.000181957674147671
0.000161071219710387
0.000137831905460292
0.000111712545824994
8.13863315745226e-05
4.35387287602088e-05
4.39368815928619e-06
0.000211587237104077
0.000194495240249189
0.000175405021500045
0.0001543355511309
0.000131204164169865
0.000105541437873588
7.61020896350816e-05
3.99147064973758e-05
3.80941840202533e-06
0.000220087040447317
0.000204427137641417
0.000186872410094017
0.000167491785708309
0.000146418196917016
0.000123619181898339
9.863658788987e-05
7.0330808152381e-05
3.60839254340926e-05
3.23017099836857e-06
0.000226242861724376
0.000211907710225839
0.000195746396337427
0.000177830615055588
0.000158361130247754
0.000137525998393501
0.000115270606770054
9.11550563552991e-05
6.41790446670154e-05
3.20826234671964e-05
2.66515245565397e-06
0.000230056926000629
0.000216997428665384
0.000202158277330556
0.000185606259902213
0.000167550461671283
0.000148253982513525
0.000127871618522086
0.000106321860597804
8.3219870718224e-05
5.77264910318395e-05
2.79477540603379e-05
2.12623650734791e-06
0.000231470679810588
0.000219683789612448
0.000206149010867726
0.000190927992250202
0.000174221506365513
0.000156304087192144
0.000137404921424245
0.000117631282828588
9.69108766427905e-05
7.49399643753969e-05
5.10457686332446e-05
2.37288341109924e-05
1.62739187402025e-06
0.00023035014754137
0.000219878941896389
0.000207681584166591
0.00019381423247036
0.00017846389967761
0.000161895262261079
0.000144350804407782
0.000126006974561886
0.000106957205316993
8.71653925664285e-05
6.64185358685803e-05
4.42080356435274e-05
1.9468757277592e-05
1.15991925415565e-06
0.000226420120786353
0.000217375125249385
0.000206614790936489
0.000194188955032708
0.000180266872329763
0.000165094564550607
0.000148907562304898
0.000131898224162741
0.000114222714983062
9.59884535499491e-05
7.72079560781804e-05
5.77520962958325e-05
3.72869282072057e-05
1.522699732845e-05
7.44623351019197e-07
6.43265644946789e-06
5.50728711645857e-05
6.51253460347253e-06
9.75468245846686e-05
5.45301729355733e-05
6.65435278715821e-06
0.000128818377005948
9.61373404247142e-05
5.39734162609948e-05
6.60515714230879e-06
0.000153681029286117
0.000126625968139323
9.42399927972542e-05
5.28380683729657e-05
6.27015313505849e-06
0.000174233913713474
0.000150659211494432
0.000123602707656625
9.15689686870066e-05
5.08082419685845e-05
5.74308776891692e-06
0.000191441730230893
0.000170316728759847
0.000146570770653994
0.000119579314803402
8.79328390993394e-05
4.80033942183028e-05
5.14829048715129e-06
0.00020581568948589
0.000186602468544454
0.00016515532524169
0.000141295464382557
0.000114490536657009
8.34044739299279e-05
4.46923872158707e-05
4.54680430743085e-06
0.000217655702827879
0.000200044498271208
0.000180378453517329
0.000158676168761539
0.000134856304370923
0.000108444829596849
7.81841479109557e-05
4.10707084355831e-05
3.95267454837969e-06
0.000227130859236102
0.000210932292486805
0.000192779513885556
0.000172744077391067
0.000150965169882966
0.00012741411971183
0.000101628352101183
7.24561301810613e-05
3.72446935594596e-05
3.36398089583274e-06
0.000234316986777073
0.000219419683382198
0.000202635169681842
0.00018403737506687
0.000163835965152213
0.000142229227419598
0.000119166337390852
9.42022205553281e-05
6.63247783375773e-05
3.32364383302279e-05
2.78845788454431e-06
0.00023922598118121
0.000225573947014273
0.000210079288115776
0.000192811361230855
0.000173989226483735
0.000153889576047481
0.000132677202079677
0.000110272720898841
8.62863000637988e-05
5.98677247369448e-05
2.90843302364739e-05
2.23838423597481e-06
0.00024181612791529
0.00022939396124987
0.000215160165231328
0.000199179140875211
0.00018166270481537
0.000162900799477927
0.000143135595547284
0.000122481704226022
0.000100867828276043
7.79862749720984e-05
5.31554409993074e-05
2.48351464491095e-05
1.72730356665284e-06
0.000241994814838959
0.000230821224457839
0.000217860388963454
0.00020317095471723
0.00018695215787729
0.000169485566714765
0.000151027683677583
0.000131763862570788
0.000111792150143063
9.10769769103822e-05
6.94021532270635e-05
4.62576287887627e-05
2.05466122819041e-05
1.26539502634931e-06
0.000239587656251564
0.00022972386072129
0.000218093085047691
0.000204747469489242
0.000189870299217916
0.000173725499385418
0.000156562093509711
0.000138580031157188
0.000119939532813639
0.000100750331559181
8.10226634318922e-05
6.06286154561464e-05
3.9237206048603e-05
1.62483864207166e-05
8.41607646587355e-07
0.000234244100437927
0.000225829800136277
0.00021565697136487
0.000203774755102141
0.000190345831360663
0.000175610640883761
0.000159802564964847
0.000143118734676295
0.000125734778620946
0.000107814830852312
8.94905846905958e-05
7.08175660818571e-05
5.17507768379614e-05
3.21506098934446e-05
1.19796291473141e-05
4.74786263246886e-07
6.53640382952917e-06
5.57410429114202e-05
6.63510298962303e-06
9.87709122587631e-05
5.52822989262806e-05
6.7945633591846e-06
0.000130630898506712
9.75077965845166e-05
5.4804185075927e-05
6.75858461286788e-06
0.000156135002013173
0.000128644944955547
9.5750585789644e-05
5.37380729230051e-05
6.42976218082504e-06
0.00017738773877156
0.000153374776745188
0.000125819118585494
9.32089414544313e-05
5.17649672588427e-05
5.90291009030572e-06
0.000195354608487259
0.000173782085629699
0.000149534198219231
0.00012197697947399
8.96863699893295e-05
4.90063079703785e-05
5.30590250393141e-06
0.000210546539681393
0.000190872720339507
0.000168912281611624
0.000144483010280568
0.000117046299496041
8.52546802291456e-05
4.5745074872007e-05
4.69682796780718e-06
0.000223263258813521
0.000205175343659749
0.00018497893684594
0.000162692648136197
0.000138235779726129
0.000111131437676457
8.01145468566812e-05
4.21562984917506e-05
4.08933775847906e-06
0.00023367377990067
0.000216979422138016
0.00019827525759935
0.000177633776150106
0.00015519960064511
0.000130947923834637
0.000104411953036586
7.44295424931842e-05
3.83215898254226e-05
3.48936253628638e-06
0.000241854239834995
0.00022643885299315
0.000209077052775038
0.000189844430570217
0.000168959693029178
0.000146630254859016
0.000122808849942609
9.70458569124414e-05
6.83198601696235e-05
3.43033880087296e-05
2.90269320258251e-06
0.00024781638871031
0.000233620006889387
0.00021751872026821
0.000199584205827823
0.000180044838486793
0.000159190275586666
0.000137194898263506
0.000113981666977973
8.91565697824144e-05
6.18602525329219e-05
3.01295432671099e-05
2.34078500137544e-06
0.000251530806507963
0.000238530963613415
0.000223654108341065
0.000206967477612412
0.000188693370343514
0.00016913653272942
0.000148551988546919
0.000127062037261469
0.000104597009541083
8.08460877905779e-05
5.51197201587129e-05
2.58478925651438e-05
1.81697211408454e-06
0.000252928576266221
0.000241129735378869
0.000227476622938667
0.000212030965864117
0.000195003837247385
0.000176693378446221
0.000157370525546748
0.000137230567418176
0.00011637740930741
9.47772215473313e-05
7.22116431389691e-05
4.81666129727923e-05
2.15117437194587e-05
1.34255751220173e-06
0.000251891598635528
0.000241325261539317
0.000228927589875334
0.000214753211038249
0.000198998866324657
0.000181946931360878
0.000163861715753221
0.000144953164126286
0.00012538807060486
0.000105280753262023
8.46421345718817e-05
6.33458297706419e-05
4.10635775610624e-05
1.71728510201991e-05
9.21618033725511e-07
0.000248202313812198
0.000238946338804328
0.00022787932196773
0.000215050588112201
0.000200639678713144
0.000184907225970886
0.000168101275926373
0.000150426882909791
0.000132063954085926
0.000113179733525965
9.39080182712257e-05
7.43055105672605e-05
5.43313724748523e-05
3.3855851591043e-05
1.28374672188444e-05
5.43399668370878e-07
0.000241369075483484
0.000233647513763926
0.000224069896768771
0.000212735067745491
0.000199804203110756
0.000185510617627867
0.000170081821079472
0.000153712292015642
0.000136581112241441
0.000118868124145665
0.000100751151142849
8.23866806023102e-05
6.38663093741995e-05
4.52343225057813e-05
2.65727123689246e-05
8.54278804715877e-06
2.40823270429201e-07
6.61878420201983e-06
5.63155333561362e-05
6.74172493696417e-06
9.98468849914051e-05
5.59512274403747e-05
6.921813345651e-06
0.000132236389000433
9.87300496138094e-05
5.55556680352526e-05
6.90026962879307e-06
0.000158325927757112
0.000130453826567314
9.71124123950951e-05
5.45602337210416e-05
6.57827075902866e-06
0.000180225403257736
0.000155822679288258
0.00012782269923979
9.46984637222339e-05
5.26428860009386e-05
6.05206683704004e-06
0.000198901101114812
0.000176926415339529
0.00015222695490151
0.000124159756161755
9.12868404423701e-05
4.99251744328514e-05
5.4524757427412e-06
0.000214863554607916
0.000194772444508642
0.000172346213636132
0.00014739922747147
0.00011938628248049
8.69476015318633e-05
4.66970323682591e-05
4.83953678907679e-06
0.000228412142367866
0.000209889689096682
0.000189208723189654
0.000166387707967818
0.000141346053887469
0.00011360280387796
8.18835172156481e-05
4.31478317699647e-05
4.22218621175185e-06
0.000239715579295713
0.00022256742268043
0.00020335681714955
0.000182157282196642
0.000159118132926383
0.000134217809676205
0.000106987074898475
7.62585880549054e-05
3.93302245486971e-05
3.60837615350844e-06
0.000248849659038769
0.000232959184591484
0.000215066131128014
0.000195248199068366
0.000173730243620921
0.000150728901083893
0.000126200374884083
9.96908130888141e-05
7.01711991112704e-05
3.52917231428772e-05
3.00906798311772e-06
0.000255826619003936
0.000241131401706551
0.000224470745376815
0.000205918321008965
0.000185711132467474
0.00016415136314388
0.000141422133476328
0.000117448758911839
9.1833610010253e-05
6.37109165119529e-05
3.10935217379856e-05
2.43509830725449e-06
0.000260618697116334
0.000247091855047374
0.000231623574070239
0.00021428341329572
0.000195303278586871
0.000175001876282148
0.000153646623005478
0.000131367411949713
0.000108096564968414
8.35207568078583e-05
5.69448465762828e-05
2.67751980959493e-05
1.89812733351238e-06
0.000263171408615872
0.000250810556789969
0.000236526505482069
0.000220384162299781
0.000202605657772071
0.000183504857959316
0.000163366873044826
0.000142397226694788
0.000120706274938009
9.82626129045823e-05
7.48462864368082e-05
4.99399643672031e-05
2.23903900635184e-05
1.4107805148409e-06
0.000263400301223714
0.000252219639350699
0.000239136626955942
0.00022420897495194
0.000207646072497513
0.00018974810349379
0.000170794989907987
0.00015100776665329
0.000130561194505576
0.00010957528836678
8.80637683049256e-05
6.59007970488993e-05
4.27586464483114e-05
1.79896490615329e-05
9.77571362385587e-07
0.000261164304089373
0.000251203265768515
0.00023936540520103
0.000225700043114498
0.000210401073774076
0.000193749322986633
0.00017600951959575
0.000157397527725458
0.000138100467431647
0.000118291388595287
9.81088667180345e-05
7.76120955931094e-05
5.67656217852272e-05
3.54478020336769e-05
1.36034543712392e-05
5.99201452332055e-07
0.000256188019528618
0.000247548220361895
0.000237048173004742
0.000224737221977046
0.000210793055697435
0.00019547253848701
0.000179019455732679
0.000161636541831884
0.000143506945792358
0.000124813406837453
0.000105737125528017
8.6436075241409e-05
6.70077446916427e-05
4.75038021925245e-05
2.80255541228398e-05
9.22962313533747e-06
2.8168230694559e-07
0.000224650690757298
0.000247820260853015
0.000240771665917469
0.00023185395273716
0.000221078318300899
0.000208653343720268
0.000194810604112905
0.000179770189777081
0.000163720331550643
0.000146836921333606
0.000129301665472795
0.000111304256358652
9.30351770003129e-05
7.46674891128279e-05
5.63258103132931e-05
3.81528455238929e-05
2.05161270881679e-05
5.02401866888797e-06
8.09004027625246e-08
6.68651397293289e-06
5.67822568665231e-05
6.82461043867751e-06
0.000100772706312753
5.65264484591407e-05
7.0316830047465e-06
0.000133637846127465
9.9804159636975e-05
5.62235490403972e-05
7.02870200150901e-06
0.000160258792534629
0.000132056009058209
9.83269763342782e-05
5.53037788948497e-05
6.71531026272905e-06
0.000182753077877579
0.000158008156210487
0.000129617709784016
9.60411771581365e-05
5.34443356660093e-05
6.19092297543491e-06
0.000202087675140914
0.000179755554405585
0.000154654369627166
0.000126132875413588
9.27403512575264e-05
5.07681375906506e-05
5.58927805814512e-06
0.000218772709591991
0.000198307069596041
0.000175462230176495
0.000150049232712904
0.000121516489322152
8.84923985787422e-05
4.75687734584281e-05
4.97203413137633e-06
0.000233107127564364
0.000214191727342831
0.000193071772991181
0.000169765379541883
0.000144191705051295
0.000115865335247289
8.35014417736624e-05
4.40421470350567e-05
4.34948663223303e-06
0.000245259248803349
0.000227698476657641
0.000208026218489121
0.00018631673226927
0.000162723393779523
0.00013722720918463
0.000109355441452529
7.79339917856484e-05
4.02562032148382e-05
3.72254113844849e-06
0.000255304276372519
0.000238980336639287
0.000220600994504916
0.000200245231452755
0.000178144021718376
0.000154521920193111
0.000129338273628264
0.000102137001185396
7.18868065712445e-05
3.62141955863119e-05
3.10927478228352e-06
0.000263253895585136
0.000248103162918743
0.000230929476721761
0.000211808470860939
0.000190984766640941
0.000168770899629811
0.000145358888908327
0.000120676408298761
9.43225139745189e-05
6.54267505392627e-05
3.19831415339396e-05
2.52206956043827e-06
0.000269081118557242
0.000255075073824558
0.000239064321401098
0.000221121077342462
0.00020148592050701
0.000180490820828604
0.000158415029343228
0.000135395561197272
0.000111366837501703
8.60136258647988e-05
5.86375673390487e-05
2.76271100980491e-05
1.97243379088222e-06
0.000272736647278724
0.000259867261828671
0.000245006873263372
0.000228223063137891
0.000209747908967191
0.000189909873192364
0.000169007626427644
0.000147256812811172
0.000124774354442021
0.000101531662456215
7.73078524282821e-05
5.15840337026519e-05
2.31911639577378e-05
1.4716686096837e-06
0.000274152145810205
0.000262426775392051
0.00024872575469572
0.00023311020096866
0.000215801169866073
0.000197115507171875
0.000177348301450526
0.000156731935108258
0.000135449741197471
0.000113628136005681
9.12843157626726e-05
6.82930854529466e-05
4.43277152164227e-05
1.87265327649315e-05
1.02589846618017e-06
0.000273233605957039
0.00026266990988577
0.000250154494846054
0.000235739028105165
0.000219630609831507
0.000202129133227954
0.0001835161533824
0.000164019508778914
0.000143835092807943
0.000123143306603235
0.000102088897242706
8.07348165350757e-05
5.90497288193275e-05
3.69170311471967e-05
1.42656104985509e-05
6.35850904573193e-07
0.00026981621158243
0.000260458780417933
0.000249181401906299
0.000236025235903312
0.000221180934377518
0.000204927033656812
0.000187525509384352
0.00016919078519423
0.000150113611255439
0.000130482796130717
0.000110485440729743
9.02841216577335e-05
6.99823162367866e-05
4.96404233760836e-05
2.9374920289901e-05
9.83121100389556e-06
3.14232887185515e-07
0.00026356660269246
0.000255523945550278
0.00024560214608307
0.000233815532222523
0.000220343002334338
0.000205439699039717
0.000189344403103217
0.000172254180394549
0.00015434872442655
0.000135812130813057
0.000116836604375185
9.76156459518741e-05
7.83268560734065e-05
5.91027429200842e-05
4.00993340447399e-05
2.1709844579502e-05
5.52571674515063e-06
9.67782200560533e-08
0.000229644727076425
0.000224155022380579
0.000253716312464259
0.00024722861980233
0.000238954939818077
0.000228806948238789
0.000216902966284277
0.000203521653409879
0.000188881857097807
0.000173164278923506
0.000156538282618021
0.000139181707892039
0.000121284051619941
0.000103041554026849
8.46534035743164e-05
6.62967663568782e-05
4.81303165251796e-05
3.04303809166533e-05
1.39783271698781e-05
1.95201962029879e-06
1.49523548709261e-08
5.717480824115e-05
6.89278213467605e-06
0.000101548210657753
5.69897500080653e-05
7.11498672784141e-06
0.000134837893894461
0.000100728184756397
5.67959728180071e-05
7.13891784328246e-06
0.000161938493597416
0.000133454507870601
9.93939008518694e-05
5.59636563526632e-05
6.83953631621435e-06
0.000184977077163459
0.000159936191624711
0.0001312076147337
9.72387838017475e-05
5.41685966212065e-05
6.31913975157106e-06
0.000204921459758986
0.00018227566022341
0.00015682161288601
0.000127900624041256
9.40508100433971e-05
5.1537629504556e-05
5.71667866411008e-06
0.00022228122382751
0.000201483033671744
0.000178266071194814
0.00015243824726476
0.000123442121398985
8.98956178494102e-05
4.83683525099936e-05
5.09559856998021e-06
0.000237354903953136
0.000218087393561159
0.000196573426962787
0.00017283064512925
0.000146777748147038
0.000117924992246561
8.49776862266135e-05
4.48600834563691e-05
4.467454134331e-06
0.000250310416422802
0.000232377309119537
0.000212287595025481
0.000190115975147657
0.000166019302939363
0.000139980636733423
0.000111523430504686
7.94653451759523e-05
4.10877261864721e-05
3.83400323259001e-06
0.000261222236218415
0.000244505227803709
0.000225683720799082
0.000204837515409396
0.000182203057200863
0.00015801191399295