/*--------------------------------*- C++ -*----------------------------------*\
  =========                 |
  \\      /  F ield         | OpenFOAM: The Open Source CFD Toolbox
   \\    /   O peration     | Website:  https://openfoam.org
    \\  /    A nd           | Version:  12
     \\/     M anipulation  |
\*---------------------------------------------------------------------------*/
/*   Windows 32 and 64 bit porting by blueCAPE: http://www.bluecape.com.pt   *\
|  Based on Windows porting (2.0.x v4) by Symscape: http://www.symscape.com   |
\*---------------------------------------------------------------------------*/
FoamFile
{
    format      ascii;
    class       volScalarField;
    location    "600";
    object      nut;
}
// * * * * * * * * * * * * * * * * * * * * * * * * * * * * * * * * * * * * * //

dimensions      [0 2 -1 0 0 0 0];

internalField   nonuniform List<scalar> 
10123
(
1.41469771536511e-06
1.54196396370782e-06
7.20689268009284e-05
1.5075302602107e-06
1.66170362309063e-06
7.55862902211049e-05
1.64471843193368e-06
0.000280277573355504
7.43985059920601e-05
1.63828748036234e-06
1.76290883279874e-06
7.88032465906574e-05
1.77329075059352e-06
0.000290167637473267
7.80075251186596e-05
1.788777832836e-06
0.000550262810945909
0.000284314685946637
7.74366363141318e-05
1.71720710925669e-06
1.85582023621825e-06
8.17099542737502e-05
1.88150782385522e-06
0.000299178937579656
8.13067103396307e-05
1.92849123101711e-06
0.000567727173514336
0.000294306279897392
8.11628548645847e-05
1.87648656767011e-06
0.000827962332341377
0.000553408567441921
0.000289166796264668
7.92985242260003e-05
1.69195095306329e-06
1.94265875383281e-06
8.43691140674432e-05
1.98115895200865e-06
0.000307381313118462
8.42880499575703e-05
2.04605694484721e-06
0.000583640988354422
0.00030340960924109
8.45651346402363e-05
2.02365024875924e-06
0.000853883935747185
0.000570947908824132
0.00029928117127842
8.31031271529849e-05
1.8510620636979e-06
0.00108896289803273
0.000829054194313784
0.000556374593988622
0.000291746425561636
7.88758351515229e-05
1.59098707113552e-06
2.0239993799897e-06
8.68066888738346e-05
2.07458713127496e-06
0.000314865552634678
8.70137050499378e-05
2.15422538968332e-06
0.000598149478236397
0.000311694068755929
8.76376496433514e-05
2.14707098001073e-06
0.000877529646036845
0.000586927749423007
0.000308493069882557
8.65713641555881e-05
1.99737594553303e-06
0.00112407507070356
0.000854997669090615
0.000573976951451303
0.000301930921182003
8.26785900578548e-05
1.74310150263361e-06
0.0013234330454335
0.00108790076629465
0.00082842454039085
0.000556436386797134
0.000290090330818073
7.6567360580499e-05
1.46308479464416e-06
2.10092507426002e-06
8.90420542306315e-05
2.16216253918547e-06
0.000321686245647547
8.95117696378242e-05
2.25565502380009e-06
0.000611370454316168
0.000319250179613862
9.04444186624585e-05
2.26033092563237e-06
0.000899100715545621
0.000601493732475033
0.00031687258703331
8.96992662247726e-05
2.119563932703e-06
0.00115613109230571
0.000878659059098213
0.000590008647807134
0.000311201176806095
8.61386921881141e-05
1.88216349704277e-06
0.00136842070148533
0.00112295905734732
0.000854322807224032
0.00057402040214965
0.000300235381457787
8.02984121500693e-05
1.60553849125262e-06
0.00152849360421945
0.00132083326930804
0.00108352740335821
0.000824084288003623
0.000551671137911739
0.000284525482289921
7.32917444182597e-05
1.32987648357889e-06
2.17498202181943e-06
9.11006164487541e-05
2.24483181827335e-06
0.000327883306711262
9.18014156129392e-05
2.35106452684909e-06
0.000623389876429558
0.000326135269779383
9.30161878843553e-05
2.36626059128739e-06
0.00091874885109966
0.00061476455592219
0.000324511756818799
9.2553566799394e-05
2.23171382967217e-06
0.00118537347798142
0.000900241950141521
0.000604616719330528
0.000319627752781461
8.92541111302101e-05
1.99770066878228e-06
0.0014094911698342
0.0011549605433557
0.000877935996100618
0.000590029479699041
0.000309462565531671
8.3686344895584e-05
1.73507700610432e-06
0.00158410629448326
0.00136568540044744
0.00111839290489523
0.000849801645071499
0.000569097475090864
0.000294520764960335
7.69155003710842e-05
1.46192760848936e-06
0.00170427683640292
0.00152507404988152
0.00131353094781353
0.00107448505938285
0.000814614980952654
0.000542046081037869
0.000276365908043816
6.95572457238396e-05
1.19282264148332e-06
2.24953388116944e-06
9.30517198413628e-05
2.32423674654424e-06
0.000333498430476088
9.39082051497861e-05
2.44095084667769e-06
0.000634270495674335
0.000332389287057918
9.53749696598025e-05
2.46606440051869e-06
0.000936598352293959
0.000626828490060268
0.000331472299788581
9.51666695428768e-05
2.33588709836487e-06
0.0012119941060819
0.000919899172560147
0.000617922283602504
0.000327305381547986
9.20938262814658e-05
2.10384167289422e-06
0.00144691903690989
0.00118415126080757
0.000899470074220548
0.000604610649789766
0.00031784284069714
8.67309724333787e-05
1.84208166679168e-06
0.00163481397767625
0.00140662670446807
0.0011502122049504
0.000873245039579737
0.000584958755793637
0.000303603886851515
8.01971445734186e-05
1.58145136925279e-06
0.0017714398006633
0.001580472035285
0.00135802371486678
0.00110894762057325
0.00083996646773582
0.000559166459793237
0.000286125190762509
7.30537659895619e-05
1.31372976218327e-06
0.00185181187729522
0.00170049660087276
0.00151586445211697
0.00130053491538052
0.00105983978252345
0.000799792592904463
0.000528465922775609
0.000266460190985996
6.5440780160565e-05
1.05039402165959e-06
2.32016452180561e-06
9.46202385533639e-05
2.4039250304004e-06
0.000338439030390654
9.59009368831669e-05
2.52717506710754e-06
0.000644066751618551
0.000338049565495835
9.75446353846774e-05
2.56049323018444e-06
0.000952749833215221
0.000637750661359883
0.000337797627561057
9.75647503278617e-05
2.43431910170091e-06
0.00123616484244032
0.000937756545670573
0.000630017879471644
0.000334299426420992
9.46912031156966e-05
2.20212831305078e-06
0.00148094440049943
0.00121072416040896
0.000919079962889078
0.000617887412516984
0.000325473284056516
8.95030839351339e-05
1.94016112035898e-06
0.00168092301634804
0.00144393632595724
0.00117923344204748
0.000894619807603791
0.000599399438414226
0.000311845134355794
8.31397739167334e-05
1.67948578487803e-06
0.00183252102755271
0.00163097984981843
0.00139863395752813
0.00114039808189281
0.000863075433587173
0.000574746293317439
0.000294991136926177
7.62122001055386e-05
1.42262134034649e-06
0.00193171907830237
0.00176736271210801
0.001570727777523
0.00134436316004548
0.00109364860001702
0.000824585636788543
0.00054515697586469
0.000275927448926606
6.8783134811063e-05
1.15940171678641e-06
0.00197216166533866
0.001847897807075
0.00169013346581804
0.00149995418560511
0.00128117570726111
0.00103930224926394
0.000779979031542917
0.000511589859325691
0.000255022677336371
6.08775563021447e-05
9.0371768148037e-07
2.38632168801818e-06
9.60045163809366e-05
2.47950376051911e-06
0.000342679941829241
9.75229662872996e-05
2.61352603529054e-06
0.000652703769248805
0.000343054583918617
9.95922636623423e-05
2.65110431449591e-06
0.000967288477583653
0.000647589414110169
0.000343521102760109
9.97721526288773e-05
2.52733677831957e-06
0.00125803749546207
0.000953917264688068
0.000640974549531581
0.000340658648234431
9.70748005522996e-05
2.2946787903969e-06
0.00151179921092237
0.0012348515328474
0.000936894350673591
0.000629956259483826
0.000332422252093023
9.20364152797382e-05
2.03085260501097e-06
0.00172273448526097
0.00147785476162635
0.00120565047057594
0.00091408181439649
0.000612543995299785
0.000319343766061736
8.58150023539475e-05
1.76893258819739e-06
0.00188786747603869
0.0016769088859563
0.0014356418228433
0.00116908214902752
0.000884143152760406
0.000588925867584395
0.000303027929791646
7.90363893687228e-05
1.51119778960208e-06
0.00200409856791217
0.00182817281409993
0.00162075132814162
0.00138437286675345
0.00112450752770103
0.000847188364705567
0.000560342332373437
0.000284521547321863
7.18046694220174e-05
1.2566723823807e-06
0.00206633874702
0.00192741152549451
0.00175627222236892
0.00155385769399039
0.00132399620541998
0.00107220652789224
0.000804039861757135
0.000527741890235252
0.000264143211711507
6.40461950909469e-05
1.0002691721835e-06
0.00206627590284914
0.00196824331084305
0.00183685210758556
0.00167219442040331
0.00147673405786925
0.00125513104862694
0.00101280552872347
0.000755386303717026
0.00049156709421482
0.000241966544112883
5.58193390966853e-05
7.56029032127297e-07
2.4483309351525e-06
9.72904254916533e-05
2.55011535894418e-06
0.000346486766552519
9.89541608622397e-05
2.695434515329e-06
0.000660383624819417
0.000347355744588016
0.000101283067780473
2.74110219255649e-06
0.000980261891379481
0.000656271172351361
0.000348619295373073
0.000101849648266512
2.61656079878795e-06
0.0012777455203454
0.000968469594248392
0.000650859307104421
0.000346417094297892
9.92683396052247e-05
2.38199990709759e-06
0.00153970360606134
0.00125668643163956
0.000953021053163455
0.000640893412722804
0.000338741888452122
9.4359508064427e-05
2.11597647356696e-06
0.00176055833382807
0.00150861309446501
0.0012296364586251
0.000931761969829448
0.000624491446223962
0.000326170017432243
8.82572742113158e-05
1.85151493236232e-06
0.00193786394801522
0.00171855990086943
0.00146928676400371
0.0011951922277252
0.000903324100208041
0.00060182896001521
0.000310333650440594
8.15990997599596e-05
1.59173535893659e-06
0.00206935984273416
0.00188327900081643
0.00166624552294242
0.0014208389657353
0.00115265597903734
0.000867794943399676
0.000574158231794586
0.00029230414873511
7.44958293349559e-05
1.33508540200933e-06
0.00215117494792178
0.00199943871740714
0.00181643439918112
0.00160302372409343
0.00136310073792375
0.00110224986366013
0.000825980065949508
0.000542439336358189
0.000272418952463484
6.69041274095202e-05
1.08533073751496e-06
0.00217660399896084
0.00206190415024836
0.00191540914216971
0.00173703054561394
0.0015292088464485
0.00129661120419235
0.00104457582350165
0.000778560422883999
0.000507083621905694
0.000250684926831674
5.87922054031994e-05
8.39512707315435e-07
0.00213516076242242
0.00206247761296521
0.0019568557184537
0.00181758070560315
0.00164601520746362
0.00144584242638827
0.00122206839079391
0.000980117294921557
0.000725870788922932
0.000468210148592772
0.000227112106807231
5.0247615185422e-05
6.11070410708437e-07
2.50611304898701e-06
9.84950765955018e-05
2.61617175486937e-06
0.000349985329051884
0.000100280404183747
2.77181923680382e-06
0.000667314253543995
0.000351214002572696
0.00010276608835966
2.82654879659623e-06
0.000991902713932962
0.000663991869449651
0.00035299732279657
0.000103592356866848
2.70478677758014e-06
0.00129543056707345
0.000981455371400602
0.000659591908718902
0.000351569177031532
0.000101328529267793
2.46568621784629e-06
0.00156483372218942
0.00127636516599738
0.000967556584228795
0.000650767040703856
0.000344467313025842
9.64953311667885e-05
2.19613825790347e-06
0.0017946986110326
0.00153642809258965
0.00125134676883521
0.000947771999517592
0.000635320668428596
0.000332377407235766
9.04947990239418e-05
1.92897538433918e-06
0.00198292569327262
0.00175624105691446
0.00149979818883793
0.00121890089433726
0.00092074934015993
0.00061355532696313
0.000316980689318408
8.39354086116381e-05
1.66590807878211e-06
0.00212800830439046
0.00193306446140517
0.00170750732791681
0.00145399618084792
0.0011782818297793
0.000886556138901468
0.000586726573954475
0.000299373310449766
7.69318371606049e-05
1.4063753422873e-06
0.00222718309472162
0.0020643932700683
0.00187096784542009
0.00164775347134284
0.00139875488954112
0.00112966243399072
0.000845984394583134
0.000555805451567658
0.000279904094831646
6.94444023615738e-05
1.15292196355698e-06
0.00227529954602128
0.00214628803431826
0.00198659954206046
0.00179604352718331
0.00157710171381834
0.00133451246129355
0.00107359619590796
0.000799697013691349
0.00052120147322169
0.000258589762299761
6.14632106283892e-05
9.12179585844581e-07
0.00226384117212521
0.00217212919498647
0.00204927144799019
0.001894418703835
0.00170891701524173
0.00149644425748441
0.00126190765705101
0.0010105448023464
0.000748012959395184
0.000482992042808469
0.000235369981266749
5.30008019849063e-05
6.81223446366811e-07
0.00218016102603468
0.00213163685205031
0.00205108193982624
0.0019368740339065
0.00178932732842444
0.0016111681467147
0.00140679078068482
0.00118141076066747
0.00094071885744317
0.00069097134987311
0.000441100707598809
0.000210217975421676
4.41545602717239e-05
4.72118349297154e-07
2.55938186552952e-06
9.96180052446899e-05
2.67768400258794e-06
0.000353224320020144
0.00010151768751896
2.84320369405478e-06
0.000673629355518215
0.000354756760385992
0.000104134822717822
2.9061982445021e-06
0.00100240462864757
0.000670956856751681
0.000356911868012228
0.000105101891342151
2.78858536779102e-06
0.00131133011188968
0.000993106262866897
0.000667352142981978
0.000355993645946521
0.000103067541227349
2.54841677354645e-06
0.0015874202769461
0.00129402174153994
0.00098052599133822
0.000659512745025067
0.000349595220804736
9.84991678454069e-05
2.27301057229051e-06
0.00182539828971501
0.00156148917629161
0.00127092259057158
0.000962213828040079
0.000645098308996933
0.000338001229839517
9.25504778859355e-05
2.00181552312417e-06
0.00202346408182313
0.00179025403500093
0.00152739142442103
0.00124036441099163
0.000936531767432764
0.00062418475597956
0.000323023929559428
8.60743470284102e-05
1.73540337614441e-06
0.00218060594120985
0.00197794125851031
0.00174484007671915
0.0014840696906765
0.00120155437757183
0.000903601011262652
0.000598146791778352
0.000305800350903602
7.91488543043402e-05
1.47173573534182e-06
0.00229504446976862
0.00212277666464805
0.0019202478276154
0.00168833449796043
0.00143118477293405
0.00115462497949534
0.000864198333157732
0.00056795966230921
0.00028669475329411
7.17378426845349e-05
1.214300742412e-06
0.00236304517687257
0.00222190988665836
0.00205082733203804
0.00184956592058343
0.00162070007397497
0.0013690886702819
0.00110008571427996
0.000818970562842495
0.00053403591960426
0.000265730123707293
6.38292247837512e-05
9.68617909219384e-07
0.00237800910727308
0.00227024598793871
0.00213258815118416
0.00196411455265638
0.00176622268982262
0.00154266498354382
0.00129833266699294
0.00103835087579853
0.000768213777115562
0.0004964404114416
0.000242850268195162
5.54642371645071e-05
7.41459901564876e-07
0.00232959025043094
0.00225943209750104
0.00215911705866976
0.00202704844637248
0.00186361086934522
0.00167154828089459
0.00145512850426178
0.00121933784033112
0.00096960654154976
0.000711935594698867
0.000455046097138124
0.000217955762645045
4.66668629766255e-05
5.29177496369946e-07
0.00220326746005976
0.0021770968788814
0.00212061667077146
0.00203103833156827
0.00190746050427228
0.00175155926940099
0.00156704033862272
0.00135875481909163
0.00113228518410377
0.000893778142125919
0.000649895807949849
0.000409564853088559
0.000190917371364486
3.75034149332283e-05
3.40602518614195e-07
2.60765365148032e-06
0.000100654244258885
2.73443137793931e-06
0.000356218456714008
0.000102669447803792
2.90964971757095e-06
0.000679401422808043
0.000358031992552887
0.000105409842337486
2.98052067468721e-06
0.00101190938564095
0.000677300143614213
0.000360498517681354
0.000106490073383121
2.86672119385433e-06
0.00132564327711884
0.00100361553226203
0.000674343498807804
0.000359931661627005
0.000104564291469997
2.62697889098907e-06
0.00160771460622031
0.00130989454174738
0.00099215718657216
0.000667272153494033
0.000353996568800377
0.000100193412272654
2.3487456463568e-06
0.00185296783039429
0.0015840089463844
0.0012884833781709
0.000975101157608899
0.000653772199306971
0.000343035870709112
9.447750518908e-05
2.07157344809572e-06
0.00205982862850759
0.0018208447173881
0.00155226277534042
0.00125972738926301
0.000950774216419287
0.000633782592461496
0.00032849929429493
8.803899753047e-05
1.80066020638385e-06
0.00222771111567791
0.00201831794199612
0.00177853843109501
0.00151127186111896
0.00122262781110828
0.000919041191685136
0.000608499192683253
0.000311642107058618
8.11769999632191e-05
1.53270629691696e-06
0.00235552624712602
0.0021751453591641
0.00196467803144781
0.00172506085360082
0.00146060779849652
0.00117730094823826
0.000880747445393489
0.000579001027091036
0.000292863261208921
7.38202721533824e-05
1.27048451197087e-06
0.00244077571287841
0.00228944321358603
0.00210857948540213
0.00189795663733203
0.00166027707241044
0.00140055450159871
0.00112421630202182
0.000836520043185825
0.000545701277617916
0.000272199917923446
6.59601997453411e-05
1.019704851642e-06
0.00247861173443673
0.00235750751249068
0.00220730118471947
0.00202704717682158
0.00181824412144614
0.00158477655015436
0.00133158434432736
0.00106374244129856
0.000786633277298726
0.000508659594703909
0.000249594279223687
5.76306262798226e-05
7.86979771522674e-07
0.00246096279015385
0.00237286190390093
0.0022558790726924
0.00210844898696194
0.00193107801407082
0.0017266189140996
0.00149932028022225
0.00125403668135386
0.000996016134478323
0.000731065049673287
0.000467730674582887
0.000224956036193226
4.89012722005526e-05
5.77297827453518e-07
0.00237578923509139
0.00232537436391256
0.00224631667298516
0.0021361677910034
0.00199430766750971
0.00182252620330342
0.00162439746494598
0.00140448501114232
0.00116804875342043
0.00092093560830375
0.000669534089238749
0.000422568835227067
0.000198079650158979
3.97603567601532e-05
3.84965230677289e-07
0.00220730191931469
0.00220086265650561
0.00216689041605378
0.00210123289410554
0.00200145621227905
0.00186793105300388
0.00170351475651436
0.00151260820633107
0.0013005698076063
0.00107351246345873
0.000838104948357489
0.000601435654608388
0.000372533667172674
0.000168569407665949
3.01625731538616e-05
2.17073006315733e-07
2.64970669529266e-06
0.000101586846351213
2.78589875835289e-06
0.000358955681733196
0.000103730902054304
2.9709580838391e-06
0.000684663873532796
0.000361055125734679
0.00010659442398163
3.04975397265526e-06
0.00102051185561226
0.000683095183541673
0.000363809586591501
0.000107780343509832
2.93969780674957e-06
0.00133852756113837
0.00101312529979218
0.000680704257780118
0.000363531161451544
0.000105940957006491
2.70008317820048e-06
0.0016259343368751
0.00132418273349582
0.00100264335097664
0.000674249981107953
0.000357903110968893
0.000101649495600674
2.42065426110738e-06
0.0018776934573188
0.00160424228680178
0.00130426679588176
0.00098665232170144
0.000661457099297063
0.000347353247715639
9.61112593244374e-05
2.13992622211992e-06
0.00209240871888214
0.00184831551210114
0.00157460855893757
0.00127709538821593
0.000963484983302214
0.000642297126146434
0.000333398141688944
8.98776952218125e-05
1.86291286681289e-06
0.0022698136302775
0.00205454026783861
0.00180886136140403
0.00153580013227836
0.00124164592150157
0.000932977453536012
0.00061784856966831
0.000316936808118565
8.30392047625293e-05
1.58982907959574e-06
0.00240938635039391
0.00222205255803849
0.00200466009232277
0.00175821816509208
0.00148722998976219
0.00119783971558623
0.000895740884199546
0.000589010635628495
0.000298468365320548
7.57219130380162e-05
1.32253601771289e-06
0.0025095409654208
0.0023496459339223
0.00216039806816163
0.00194160341261349
0.00169611271119844
0.00142911652904421
0.00114614388375732
0.000852466797085462
0.000556294653139528
0.000278069216366231
6.78899866423654e-05
1.06635656769329e-06
0.0025669394158235
0.00243483461630733
0.00227405925635495
0.00208367643307785
0.00186531707600999
0.00162303458692262
0.00136186436979685
0.00108688165854061
0.000803404513092143
0.000519758134429657
0.000255694111892495
5.95783342331394e-05
8.27832708484393e-07
0.00257560233062965
0.00247286068257372
0.00234201133851447
0.00218152964426085
0.00199207574710278
0.00177667047232538
0.00153962252418012
0.00128573473120879
0.00102014106809883
0.000748506373595723
0.000479245786914989
0.000231249800759663
5.08477934615082e-05
6.12500688661686e-07
0.00252606469306614
0.00245581161260555
0.00235803251915736
0.00223049220002188
0.00207284464597253
0.00188708043893177
0.00167677403321591
0.00144632955466477
0.00120078692863778
0.000945770314433532
0.000687454200143215
0.000434391796970852
0.000204544392125839
4.17468268422634e-05
4.21563205412304e-07
0.00240488399182468
0.00237190394243738
0.00231246423118736
0.00222318329036878
0.00210228960450194
0.00195048192270765
0.00177053635720397
0.00156651871052984
0.00134338390888338
0.00110687257822729
0.000863335655935725
0.000619595876492811
0.000384491625705678
0.000175106459420423
3.21437766613543e-05
2.48443500505632e-07
0.0021953838968741
0.00220574340301461
0.00219193256987797
0.00214895651587317
0.00207256678162673
0.0019614458702081
0.0018173183816839
0.0016439713975264
0.00144646541629247
0.001230763438726
0.00100354743904449
0.000772025016258184
0.000543793627316967
0.000328295321817068
0.000142006622654709
2.18953694535588e-05
1.08669468157572e-07
2.68309492018746e-06
0.000102373395286758
2.8306485756904e-06
0.000361413993946859
0.000104685811408244
3.02660361457404e-06
0.000689423385264542
0.000363820007594302
0.000107684330895133
3.11368886281487e-06
0.00102826927249881
0.000688376452071069
0.000366862230355581
0.000108979510289317
3.00759684027692e-06
0.00135010131502876
0.00102173061632582
0.000686510787749542
0.000366849557657105
0.000107221543583482
2.76831288030045e-06
0.00164226066518053
0.00133704386292795
0.00101212830280242
0.000680590568064606
0.000361469406836288
0.00010298682932313
2.48752294986104e-06
0.00189982560897665
0.00162240708973378
0.00131847206728077
0.000997059349058529
0.000668357794237647
0.000351179332134292
9.75094754177479e-05
2.20494973576937e-06
0.00212154947833765
0.00187295253208703
0.00159468390081612
0.00129270222150015
0.000974872317711442
0.000649833470649291
0.000337595378650428
9.14499385229869e-05
1.92343669625721e-06
0.00230740770341364
0.00208699449761691
0.00183608760408068
0.00155783705724921
0.00125870498853162
0.000945414184908615
0.000626138426880675
0.000321676573745145
8.47761970282454e-05
1.64404984121946e-06
0.00245729988459411
0.00226398223752766
0.00204053430521864
0.00178806895436595
0.00151124440885816
0.00121638058493658
0.00090927638104692
0.000598053668493109
0.000303551027727867
7.74651276496614e-05
1.37099941114352e-06
0.00257036563216085
0.00240326817623397
0.00220682468130697
0.00198089296381498
0.00172848023814894
0.00145497113387441
0.00116601136025807
0.00086691733226288
0.000565897115926279
0.000283397711687332
6.96472782745311e-05
1.10932421333822e-06
0.00264442329308223
0.00250326231497744
0.00233359668094651
0.00213451858472718
0.00190780612518868
0.00165770130449442
0.0013893666089216
0.00110791616428481
0.000818644289049484
0.00052982991904295
0.000261218559120669
6.13348888586701e-05
8.64809282157623e-07
0.0026752745147296
0.00256069501632192
0.00241839414861558
0.00224689533832173
0.00204702736832702
0.0018220120872204
0.001576272116027
0.00131462009482764
0.0010421332543476
0.000764383557404947
0.000489693602067116
0.000236927240541974
5.25880032530398e-05
6.4362527800464e-07
0.00265587284113002
0.00256970317290007
0.00245663492669016
0.00231458665551649
0.00214347471534657
0.00194553746316669
0.0017244406532519
0.00148452992535889
0.0012307133753625
0.000968460779641811
0.000703787288643044
0.000445108875978018
0.000210331243552415
4.34521168141641e-05
4.47157095360438e-07
0.00257554028083985
0.00252100667445403
0.00244074527466553
0.00233181772949468
0.00219297365710224
0.00202528665288898
0.00183159976173295
0.00161580590553282
0.00138259121918908
0.00113742451106754
0.000886413241213828
0.000636163663254326
0.000395352808807891
0.000180980425517044
3.38605736654862e-05
2.73956101413575e-07
0.00241978784556175
0.00240146013822663
0.00235951983577247
0.00228972491708169
0.00218901252854568
0.00205677513475146
0.00189480317896242
0.00170653971764668
0.00149656470374169
0.00127037781451293
0.00103427090542147
0.000795131444471117
0.000560320630434331
0.000339102777446148
0.000147863384503936
2.35552481826544e-05
1.27106822903983e-07
0.00193462704091679
0.00217195291153788
0.00219483453007263
0.00219852008214165
0.00217625655773092
0.00212235639050747
0.00203345644834061
0.00190975864769869
0.0017541691853954
0.00157130311993074
0.00136690563077925
0.00114753485795697
0.000920404624175684
0.000693255347449884
0.000474385298942873
0.000274234447217923
0.000109477818405099
1.27922221462861e-05
3.53741319978895e-08
2.71055658270188e-06
0.000102950045813689
2.86546080293341e-06
0.000363539495759094
0.000105495546177851
3.07463066189503e-06
0.000693668665666089
0.000366302089166037
0.000108662728267091
3.17164828671689e-06
0.00103521218067113
0.000693151989450852
0.000369652616091996
0.000110081801099746
3.07025265466303e-06
0.0013604491504418
0.00102948946223874
0.000691799538840657
0.000369907203639332
0.000108408394665422
2.83182819700182e-06
0.00165683968080781
0.00134859624113235
0.00102070840918941
0.000686374238999165
0.000364755553413938
0.000104229963832833
2.54993624717816e-06
0.00191957856473917
0.00163868427888695
0.00133125702335243
0.00100646793327529
0.000674622326313012
0.000354667578668621
9.87927450791301e-05
2.26532034625913e-06
0.00214755123880436
0.00189500592609287
0.00161270638832184
0.00130674567089475
0.000985125646883521
0.00065659342849227
0.00034130690642855
9.27828284835417e-05
1.9814310947171e-06
0.00234092220564291
0.0021160239677568
0.00186050515246007
0.00157763439851725
0.00127403222955384
0.000956551440638845
0.000633469809185748
0.000325736205930107
8.62930588805091e-05
1.6960695598903e-06
0.00249990263773506
0.0023014249929704
0.00207267850447067
0.00181487176719128
0.00153282265795983
0.00123301307645992
0.000921353952075279
0.000606072706717331
0.000308115809151296
7.90830878200706e-05
1.4166519869869e-06
0.00262416681954822
0.00245097623138584
0.00224833123064349
0.00201616180021833
0.00175763411776797
0.00147830291797733
0.0011839517028426
0.000879967020600849
0.000574575474159958
0.000288231004720518
7.12518217366672e-05
1.14894158076818e-06
0.00271242926076962
0.00256380371819321
0.00238664497095172
0.00218009358809514
0.00194607641370246
0.00168903364844754
0.00141427574102416
0.00112698193191737
0.000832456719776243
0.00053895551500071
0.000266225711625693
6.29281869210522e-05
8.98666317546063e-07
0.00276190443735626
0.00263777173107757
0.00248602525714039
0.00230523946411817
0.00209641280492018
0.00186298040382917
0.00160951143316623
0.00134087318579118
0.00106213180283155
0.000778808307451217
0.000499164322480188
0.000242055768182625
5.41497682549416e-05
6.7140408747026e-07
0.00276757829026093
0.00266877721982783
0.00254332620355453
0.00238926229215923
0.00220674558821593
0.00199827997872671
0.00176767915445382
0.00151930427494135
0.00125800255613494
0.000989149072959061
0.000718647699239191
0.000454815022863958
0.00021552904520429
4.49628317499818e-05
4.69262721183673e-07
0.00272146533293404
0.00264989789630284
0.00255292113590578
0.00242789557355584
0.00227400202982158
0.00209270020989311
0.00188699332561191
0.0016607230198556
0.00141841885907185
0.0011653672235872
0.000907498441876865
0.000651251596751332
0.000405171853181449
0.000186198436799053
3.52998647460335e-05
2.90712228447356e-07
0.00261195293689992
0.00257066802463811
0.00250593560105798
0.00241414057904303
0.00229306065676045
0.00214273713126526
0.00196516444863352
0.00176363408614815
0.00154241642573485
0.0013066784314777
0.0010624156521986
0.00081626558693373
0.000575389623123776
0.000348899724454957
0.000153085367431647
2.49650085887135e-05
1.41795024094463e-07
0.00242404650438713
0.00241693490923015
0.00238990056186086
0.00233775670940187
0.0022561377972361
0.00214292040362038
0.00199866421307159
0.00182599698502467
0.00162900359701209
0.00141287443501176
0.00118368278586322
0.000948254282270978
0.000714037688279699
0.000489121006599396
0.000283776168037723
0.000114545048445477
1.40420214562617e-05
4.23167940855746e-08
0.00187775194290247
0.0019372474279319
0.00214220353445209
0.00217250980847705
0.00218967246057551
0.00218584111422393
0.00215286467311509
0.00208557511609914
0.00198228308536498
0.00184465785733344
0.00167663275035914
0.00148360713508716
0.00127194780340067
0.00104871741375161
0.000821600195995188
0.000598880159155903
0.000389925429308366
0.000207266665371792
6.95968036548521e-05
4.4796233222225e-06
6.27807745892033e-09
0.000103477504312855
2.89408318189018e-06
0.000365276705966275
0.000106073859534272
3.11106592081282e-06
0.000697374094845318
0.000368447166694666
0.000109488445679081
3.22138862649918e-06
0.00104135497842708
0.000697410820891069
0.000372153472832142
0.000111066968342768
3.12705330723158e-06
0.0013696305983796
0.00103643307539622
0.000696579987517291
0.000372700937864886
0.000109495584510988
2.89047768419716e-06
0.00166978688848158
0.00135892474882688
0.00102844269396923
0.000691639640396337
0.000367781185393274
0.000105380921579838
2.60805792978412e-06
0.00193713165223834
0.00165321963833011
0.00134274010814989
0.00101497601848232
0.000680333416454468
0.000357880206991876
9.99849904397577e-05
2.32161458264187e-06
0.00217067164129548
0.00191468915334568
0.00162885630153391
0.00131938325226671
0.000994391142753785
0.000662724812842094
0.000344686741823356
9.4003544016306e-05
2.03517670676497e-06
0.00237072522261617
0.00214192755956919
0.00188236315228811
0.00159540744698519
0.00128782196806945
0.000966574556578744
0.000640037889121046
0.000329312817099885
8.75564822567288e-05
1.74685607132122e-06
0.0025377360673496
0.0023348069065308
0.00210143275255522
0.00183891156521042
0.00155220961118248
0.00124795625466505
0.000932165233737733
0.000613158166852354
0.000312028910806572
8.05494622415507e-05
1.45996569071093e-06
0.00267176728197421
0.00249340089541086
0.00228540064466455
0.00204776793107237
0.00178381802533654
0.001499273423849
0.00120004756320276
0.0008916112911095
0.000582286943416223
0.000292599825664918
7.27321859463308e-05
1.18585310949497e-06
0.00277219151854057
0.00261736324280334
0.00243385226844101
0.002220854232734
0.00198045260207667
0.00171727140702858
0.00143676518410467
0.00114420540285055
0.000844937221068295
0.00054720160603883
0.000270764491691355