/*--------------------------------*- C++ -*----------------------------------*\
  =========                 |
  \\      /  F ield         | OpenFOAM: The Open Source CFD Toolbox
   \\    /   O peration     | Website:  https://openfoam.org
    \\  /    A nd           | Version:  12
     \\/     M anipulation  |
\*---------------------------------------------------------------------------*/
/*   Windows 32 and 64 bit porting by blueCAPE: http://www.bluecape.com.pt   *\
|  Based on Windows porting (2.0.x v4) by Symscape: http://www.symscape.com   |
\*---------------------------------------------------------------------------*/
FoamFile
{
    format      ascii;
    class       volVectorField;
    location    "600";
    object      U;
}
// * * * * * * * * * * * * * * * * * * * * * * * * * * * * * * * * * * * * * //

dimensions      [0 1 -1 0 0 0 0];

internalField   nonuniform List<vector> 
10123
(
(-4.9074606665153e-07 0.000131219271290137 -1.48765431764272e-05)
(1.88454010675785e-06 7.11425259151235e-05 -1.99466339577663e-05)
(6.47894459502086e-07 5.02508190473677e-05 -7.14813595193263e-05)
(3.64767898889985e-06 0.000140864167409539 -6.61867179837629e-06)
(4.13638237098425e-06 2.85311251920428e-05 -2.80504493850476e-05)
(1.90607422053812e-06 4.82294254154181e-06 -7.02124307527341e-05)
(7.07196904004065e-06 7.66961874163388e-05 -1.27923276576115e-05)
(2.11518809491843e-06 -6.82238920368196e-05 -0.000122596211164018)
(5.30683639352178e-06 9.68886774695396e-05 -5.91863070112187e-05)
(1.27025311322658e-05 0.00017555795408794 -2.08952278400246e-06)
(3.08674108784663e-06 -2.83762017899421e-07 -2.42510868741052e-05)
(2.51627090805109e-06 -2.15704240402777e-05 -6.65097291090918e-05)
(9.90260130211797e-06 3.55482732492652e-05 -2.28543993393741e-05)
(2.56378869499186e-06 -9.70049253552085e-05 -0.000108714837876094)
(7.37538657345527e-06 4.99496380862978e-05 -5.85593703241646e-05)
(1.38850353142775e-05 0.00010871952582445 -9.80118481706053e-06)
(3.37574410757681e-06 -0.000143911244015495 -0.000164261496323955)
(8.89468171109308e-06 -3.1439214116308e-05 -0.000114237641037525)
(1.35864798332055e-05 0.000144447851936549 -5.51206260673098e-05)
(2.4309204757772e-05 0.000199379951542959 6.05717472167379e-07)
(1.44410968573329e-06 -3.72349258358802e-05 -1.78002899486517e-05)
(2.05057226761368e-06 -4.05911449261206e-05 -5.34145010246912e-05)
(7.08132004011382e-06 6.51755681471379e-06 -2.01719368634749e-05)
(2.69433560440046e-06 -0.00011358305703994 -9.16406419059825e-05)
(8.26339786679945e-06 2.19501407584931e-05 -5.6411184005104e-05)
(1.37514480560978e-05 6.75013327180116e-05 -2.0784382557451e-05)
(3.531966246029e-06 -0.000162489114818005 -0.000140061789868306)
(9.61707584582152e-06 -6.11229213002499e-05 -0.000100857127060621)
(1.47290645631377e-05 9.63467228453119e-05 -5.51748283878976e-05)
(2.22256863604297e-05 0.000131404506616853 -8.2031784963589e-06)
(4.82167818780155e-06 -0.00020180294800351 -0.000202447613004724)
(1.23223079705292e-05 -0.000117711925553245 -0.000158681726972482)
(1.86021119375903e-05 7.84808579475756e-06 -0.000112588902928405)
(2.38332433535292e-05 0.000183764629945572 -5.19740760105546e-05)
(3.50123378213315e-05 0.00022282824583747 3.05686367962546e-06)
(2.64114002863759e-07 -6.6259273412401e-05 -1.2075833276916e-05)
(1.35999458043969e-06 -5.67578051044831e-05 -3.91699966454409e-05)
(3.02830367733985e-06 -3.1274957901989e-05 -1.4374163463101e-05)
(2.51648864406791e-06 -0.000123246390674325 -7.11429648338562e-05)
(6.77284819016907e-06 4.60624689837679e-08 -4.5288463922209e-05)
(9.14324312020078e-06 3.82473048460534e-05 -1.87430262954976e-05)
(3.53080577616243e-06 -0.000172537808852543 -0.00011380526336739)
(9.75741449688913e-06 -7.95811791723542e-05 -8.49530134226841e-05)
(1.41795552511941e-05 6.73160228488397e-05 -5.38286175294368e-05)
(1.87637758488771e-05 9.00180675070125e-05 -1.99715701592115e-05)
(4.75293087027983e-06 -0.000213729479361374 -0.000168929498245258)
(1.24118981666014e-05 -0.000137217087084228 -0.00013473646534789)
(1.88921703424633e-05 -2.30104110706518e-05 -9.94770521013421e-05)
(2.31720826425927e-05 0.000134514907774068 -5.29079796509871e-05)
(2.98432636221484e-05 0.000154329571761763 -6.76960219034294e-06)
(6.54801881488008e-06 -0.000253555977220231 -0.000239003121786569)
(1.63540388949577e-05 -0.000180337279723777 -0.000198424249869304)
(2.43869466583445e-05 -8.57831590301612e-05 -0.000158583351764343)
(2.96477909625596e-05 4.6655474612744e-05 -0.000110627493396763)
(3.31848743085336e-05 0.000222437460128921 -4.76685180591453e-05)
(4.35560276040878e-05 0.000247540967931121 5.40708743639299e-06)
(-6.74093390200519e-07 -8.69341049216337e-05 -6.90115210642747e-06)
(7.18945050748919e-07 -6.62305817835501e-05 -2.48306230835287e-05)
(-3.89409174426381e-08 -6.26156319427512e-05 -9.18090336363684e-06)
(2.25088659872347e-06 -0.000127753099772727 -5.03152444455515e-05)
(4.62449922125242e-06 -1.9459531213275e-05 -3.27025767620457e-05)
(3.57584078166236e-06 -1.23359590044401e-06 -1.29120942999945e-05)
(3.33344283052247e-06 -0.000176307846450446 -8.59612999205135e-05)
(8.94221317235101e-06 -9.165586205605e-05 -6.55887757788572e-05)
(1.14235062751085e-05 4.35606553048693e-05 -4.34311073293931e-05)
(1.21787699181875e-05 6.05322231924007e-05 -1.82535034652398e-05)
(4.55609205967824e-06 -0.000218638707799456 -0.00013404693795926)
(1.21205148733131e-05 -0.000148728362963722 -0.000109152255214702)
(1.81462194973441e-05 -4.2967950361855e-05 -8.40718505859152e-05)
(2.08537544410833e-05 0.000104522043184316 -5.25266083195975e-05)
(2.32649226764216e-05 0.000113077017996521 -1.92142596916892e-05)
(6.23729454362981e-06 -0.000260378179570419 -0.000196350948023995)
(1.58749496701792e-05 -0.000193149446601152 -0.000165073726980532)
(2.39167385749792e-05 -0.000106558384694573 -0.000134748577796043)
(2.90343250587268e-05 1.44308383679652e-05 -9.82049803355931e-05)
(3.07576622311096e-05 0.000172108924631366 -4.98850757503978e-05)
(3.56212544520993e-05 0.00017902272261066 -5.48824048142744e-06)
(8.60341171566287e-06 -0.00030426621386872 -0.000275688658230658)
(2.12910914929931e-05 -0.000234302761825871 -0.000235991230173704)
(3.11939051884734e-05 -0.00015265313423167 -0.000199232300947578)
(3.77527293991642e-05 -5.04943718422502e-05 -0.00015745132676426)
(3.96661540538894e-05 8.65029650721884e-05 -0.00010634036146775)
(4.01074792165228e-05 0.000260882295849726 -4.24620716117556e-05)
(4.90814540754194e-05 0.000273997922197277 7.71697386045834e-06)
(-1.47595611554612e-06 -0.000100140604598166 -2.31966600818688e-06)
(1.30289180374555e-07 -6.94155894477112e-05 -1.1486359036473e-05)
(-2.61179255696419e-06 -8.56174486729696e-05 -4.58553149595246e-06)
(1.90479350405327e-06 -0.00012686544869394 -2.98502017832778e-05)
(2.55582296265056e-06 -3.21378794005868e-05 -1.97137117794459e-05)
(-1.05813745758349e-06 -3.46428031653123e-05 -7.69374712578853e-06)
(3.03943985456302e-06 -0.000174731561013663 -5.84224847198238e-05)
(7.68493119354173e-06 -9.86712571786305e-05 -4.56531401387028e-05)
(7.97778102275388e-06 2.16924859865376e-05 -3.13991448076243e-05)
(4.74500310476821e-06 1.95318569822517e-05 -1.25431622597035e-05)
(4.25044724338831e-06 -0.000217717214724091 -9.88995979945662e-05)
(1.13022266103552e-05 -0.000154181756489238 -8.20151844554051e-05)
(1.63155845461463e-05 -5.69787331567052e-05 -6.51689972605625e-05)
(1.6656256986477e-05 7.92856618885286e-05 -4.27228504218089e-05)
(1.45349558879517e-05 8.33889510443581e-05 -1.78252415699152e-05)
(5.82554084410287e-06 -0.000260680644874906 -0.000153100622192366)
(1.50653012579835e-05 -0.000199235816127794 -0.000130643948986969)
(2.27268121334926e-05 -0.000119528227213987 -0.000109472923487838)
(2.71719752507444e-05 -6.98201972955524e-06 -8.35192271939556e-05)
(2.67028395198087e-05 0.000141279789142013 -5.07301436990004e-05)
(2.62978818650699e-05 0.00013815353917121 -1.83150684305603e-05)
(7.9947887809455e-06 -0.000306516053309824 -0.000223323897123648)
(2.01295520305613e-05 -0.000241984715472354 -0.000193492319102529)
(2.98835327378199e-05 -0.000166767160889788 -0.000165944436482945)
(3.646491120041e-05 -7.28014236813634e-05 -0.000134258130901307)
(3.81474527137401e-05 5.29367479980651e-05 -9.51644767165177e-05)
(3.61512539985858e-05 0.000209716410548803 -4.62142124107868e-05)
(3.88563679563667e-05 0.000205721663784154 -4.16073193626079e-06)
(1.10287137250662e-05 -0.000357315910115804 -0.000313935982699991)
(2.72934997224405e-05 -0.000286122132972357 -0.000273570347623054)
(3.94411350857787e-05 -0.000209074895795694 -0.000237439951012803)
(4.7492864348452e-05 -0.000120141239206639 -0.000198531653755949)
(4.98922895418121e-05 -1.2710675663049e-05 -0.00015300312834847)
(4.71748706424042e-05 0.000126224347299177 -0.000100192891675195)
(4.39054530548003e-05 0.000299554580479628 -3.68474935602475e-05)
(5.09294821692548e-05 0.000302288750003199 1.00208262183132e-05)
(-2.1187520220049e-06 -0.000106268311942543 1.77930795640274e-06)
(-4.08397452838109e-07 -6.69225352822489e-05 6.84228269744658e-07)
(-4.90795783293405e-06 -0.000101155750988021 -4.72362944202775e-07)
(1.52438587685951e-06 -0.000121322062962035 -1.07396705187905e-05)
(6.29000068527639e-07 -3.81434977171585e-05 -7.57367279159369e-06)
(-5.23684483137792e-06 -5.93011814223638e-05 -3.65655780887549e-06)
(2.71108438971249e-06 -0.00016844708865486 -3.21050542263251e-05)
(6.33608248071343e-06 -0.000100113846753788 -2.60668341896891e-05)
(4.53279263767903e-06 6.66724541754262e-06 -1.88010048383065e-05)
(-1.9457603541275e-06 -1.57503541623485e-05 -7.00553334266665e-06)
(3.89137157228803e-06 -0.000211741825996736 -6.4908451097927e-05)
(1.01907662508004e-05 -0.000154279064666658 -5.50930038556879e-05)
(1.3968783700135e-05 -6.60300112976389e-05 -4.55388720942225e-05)
(1.17220144382278e-05 5.55015260877676e-05 -3.10783642429469e-05)
(5.24440631636928e-06 4.10384611850437e-05 -1.27312329696635e-05)
(5.34382076403302e-06 -0.000255430908705944 -0.000110627678936607)
(1.39504698710782e-05 -0.000199615299912285 -9.60191950097842e-05)
(2.08897288139492e-05 -0.000126624969497227 -8.26320843358826e-05)
(2.41815874475036e-05 -2.27452833795858e-05 -6.51852624447454e-05)
(2.10381620799525e-05 0.000114691060357663 -4.17194071546265e-05)
(1.56330434727399e-05 0.000108094570427471 -1.71491552341358e-05)
(7.31052038297426e-06 -0.000302247980339893 -0.000171366647717943)
(1.87020525051739e-05 -0.000243338711111167 -0.000150625815790372)
(2.79853309834047e-05 -0.000174218955448939 -0.00013172502959254)
(3.42257902054985e-05 -8.73487600045955e-05 -0.000109634324039555)
(3.52494020392591e-05 3.01552259810633e-05 -8.16266539050001e-05)
(3.05545695676635e-05 0.000178202220529907 -4.8384654006517e-05)
(2.72571001209101e-05 0.000165613787226269 -1.74349453298105e-05)
(1.00493772120518e-05 -0.000354825029114451 -0.000250690653456631)
(2.52585902406393e-05 -0.000289237349787114 -0.000221358448505029)
(3.70406259512752e-05 -0.000218097736397832 -0.00019501347866971)
(4.51491557197787e-05 -0.000135886245081986 -0.000165945579584628)
(4.78417042357952e-05 -3.65578141731967e-05 -0.000131145213700221)
(4.49641693476884e-05 9.15085072360127e-05 -9.06292638881942e-05)
(3.87349121509339e-05 0.000247797757163448 -4.22630001301367e-05)
(3.89579064314592e-05 0.000234479822171862 -2.57269934541027e-06)
(1.38801256765601e-05 -0.000415523382344373 -0.00035498717309556)
(3.44538287937503e-05 -0.000339744820503781 -0.00031288006151495)
(4.94989465384518e-05 -0.000262299642341792 -0.000275710853338583)
(5.92395000106825e-05 -0.000178374613167606 -0.000236880220920021)
(6.25805331637252e-05 -8.41212087865203e-05 -0.000193625352174491)
(5.94542468734427e-05 2.56472386951709e-05 -0.000145767103947764)
(5.15455852261049e-05 0.000165819183308291 -9.30106610292495e-05)
(4.4123936917136e-05 0.000339468477280138 -3.11986568621556e-05)
(4.90332919940794e-05 0.000332129023976155 1.23271094139384e-05)
(-2.64760777883396e-06 -0.000105924927572539 5.2498959484531e-06)
(-8.84222117131795e-07 -5.92960701276523e-05 1.13874467946384e-05)
(-6.84852925276027e-06 -0.000109625938432471 3.24120840427973e-06)
(1.16322618625175e-06 -0.000111669055991391 6.46470919503107e-06)
(-1.14688704643754e-06 -3.81678190953962e-05 3.47968409874779e-06)
(-9.11237655179016e-06 -7.64355640037982e-05 1.46691718516679e-07)
(2.37513831087522e-06 -0.000158239834902056 -7.82862080122498e-06)
(4.99164290306561e-06 -9.65724963578817e-05 -7.79123570630428e-06)
(1.25183427873297e-06 -1.50403811512747e-06 -7.01118450133169e-06)
(-7.94291648180761e-06 -4.19099134517129e-05 -3.14932626157095e-06)
(3.50432261798694e-06 -0.000201565185899872 -3.29760121613456e-05)
(9.00094695115442e-06 -0.000149535465266768 -2.93709427309412e-05)
(1.14369878854607e-05 -6.94105898880025e-05 -2.61805758690145e-05)
(6.67878295709959e-06 3.8491841032112e-05 -1.85550129740136e-05)
(-3.38726669774774e-06 3.99586087299666e-06 -6.86864376888663e-06)
(4.84088954187013e-06 -0.000245448686104853 -7.02321337540171e-05)
(1.26754353830321e-05 -0.000194915778543724 -6.25025903610937e-05)
(1.87025095591534e-05 -0.000128356986151026 -5.59088906745975e-05)
(2.05983461804019e-05 -3.36448960057462e-05 -4.59467636733988e-05)
(1.46565794631979e-05 8.90902018806167e-05 -3.0686681052023e-05)
(4.6630244707711e-06 6.44930829987357e-05 -1.2681739078305e-05)
(6.59813931323485e-06 -0.00029257206017907 -0.000121337015942072)
(1.70942157692499e-05 -0.000239233821538428 -0.000108610740617055)
(2.56716978534117e-05 -0.000176048414161104 -9.73105226514253e-05)
(3.12341343535428e-05 -9.61362654768021e-05 -8.33342779619408e-05)
(3.11752663082128e-05 1.27372055926834e-05 -6.42184183049286e-05)
(2.3567992407954e-05 0.000150311385586141 -4.02719224375948e-05)
(1.48212650457533e-05 0.000134900479580995 -1.67570645720493e-05)
(9.03473227245659e-06 -0.000345578026875203 -0.000189272912594274)
(2.30403271078871e-05 -0.000285993961300907 -0.000169755264947824)
(3.41771493728845e-05 -0.000220801701499992 -0.00015233293551309)
(4.20180190744069e-05 -0.000144958136412692 -0.000132401006920799)
(4.46717726862414e-05 -5.27011937702894e-05 -0.000107741009537594)
(4.12345803778695e-05 6.74778308131544e-05 -7.85322605975719e-05)
(3.18974159156512e-05 0.000215712043971191 -4.58409068509841e-05)
(2.56184375940315e-05 0.000195250820708877 -1.65533011753122e-05)
(1.24226857682914e-05 -0.000407506154418887 -0.000279166629188539)
(3.13035248728184e-05 -0.000338155608014889 -0.000249760659861835)
(4.56583285781387e-05 -0.000266834755657221 -0.000223598058000855)
(5.54087557883667e-05 -0.000189139732549695 -0.000195287762215403)
(5.92934692128767e-05 -0.000101561526178536 -0.000162567472559211)
(5.68839719527583e-05 4.12458252509502e-07 -0.00012574164960995)
(4.89158683069746e-05 0.000130138688399288 -8.52703207880607e-05)
(3.80932137312088e-05 0.00028728288982984 -3.83909853459725e-05)
(3.57032383904493e-05 0.000264805090481611 -1.16414469390633e-06)
(1.73124170221365e-05 -0.000481642198392981 -0.00039973711450995)
(4.30478939079474e-05 -0.000398289538985282 -0.000355266419952072)
(6.17186204975757e-05 -0.000316668780407225 -0.00031584201633112)
(7.35884539298798e-05 -0.000232604884340857 -0.000275126715156334)
(7.79801076050493e-05 -0.00014348811239543 -0.000231251535699928)
(7.49654876711894e-05 -4.67335494244483e-05 -0.000185041112230015)
(6.57826727998347e-05 6.42010599405859e-05 -0.000136842284417546)
(5.24616279286288e-05 0.000206289172057169 -8.55384362129583e-05)
(4.05213450716798e-05 0.000381613145758578 -2.60118595287136e-05)
(4.37377631319179e-05 0.00036340335912441 1.45685042443975e-05)
(-3.13022593724492e-06 -0.000100605482173615 8.20645065069968e-06)
(-1.30705252305483e-06 -4.75157071799437e-05 2.02510403626889e-05)
(-8.47428348113065e-06 -0.000111298081059236 6.45499460613858e-06)
(8.24266038934538e-07 -9.84891639922373e-05 2.14634480739099e-05)
(-2.74587457315638e-06 -3.27531465858359e-05 1.33333539323868e-05)
(-1.25692927489063e-05 -8.64817747894283e-05 3.62079395982328e-06)
(2.04512990199063e-06 -0.000144713300355602 1.39276158517581e-05)
(3.72330402913785e-06 -8.86539030029992e-05 8.66710485794574e-06)
(-1.80292883900256e-06 -3.50928020691794e-06 3.71760909770389e-06)
(-1.33875805085648e-05 -6.0321670660211e-05 3.88857729212741e-07)
(3.11216803711436e-06 -0.000187964211562632 -3.8085076393751e-06)
(7.80123461709082e-06 -0.000140681198685316 -5.64136428802007e-06)
(8.91338808617639e-06 -6.76372265487823e-05 -8.1312357947813e-06)
(1.8629257203933e-06 2.84569332322254e-05 -6.87152285975807e-06)
(-1.11807663881099e-05 -2.39015863080459e-05 -2.98493991287036e-06)
(4.33598349827829e-06 -0.000231678809092372 -3.28116186704067e-05)
(1.13435278551769e-05 -0.000185915228125838 -3.10093791957408e-05)
(1.63811581597625e-05 -0.000125132227853067 -3.03124198906901e-05)
(1.67729024815759e-05 -3.88368884869865e-05 -2.68507689918965e-05)
(8.10746256414045e-06 7.01347029791951e-05 -1.85699484347325e-05)
(-5.71928569072828e-06 2.5743916085854e-05 -7.01651489144245e-06)
(5.90312233057617e-06 -0.000278450337566354 -7.44853881881455e-05)
(1.54253643336304e-05 -0.000230376994052615 -6.86314411070581e-05)
(2.31554130332556e-05 -0.000172752134741712 -6.39290977163457e-05)
(2.78077349725763e-05 -9.95449694232713e-05 -5.7002207051746e-05)
(2.64503287190042e-05 5.22257753431154e-08 -4.56910451008541e-05)
(1.58947576611045e-05 0.000122922934542272 -3.00228692027261e-05)
(2.32673761822005e-06 8.99198170748518e-05 -1.26452781689409e-05)
(8.03536044037552e-06 -0.000331014993621841 -0.000131233081040946)
(2.07524993398591e-05 -0.000277427977069821 -0.00012014632264203)
(3.1068677240109e-05 -0.00021808593822214 -0.000110513234712363)
(3.83671031231004e-05 -0.000148440702912427 -9.85516643996245e-05)
(4.06516377703648e-05 -6.32016901328048e-05 -8.24625987730697e-05)
(3.6270144729968e-05 4.84983825702446e-05 -6.23285437422868e-05)
(2.37797081020623e-05 0.000186484099791812 -3.86986165077859e-05)
(1.1668447801272e-05 0.000163723956144209 -1.64122391995681e-05)
(1.09885104393861e-05 -0.000392406952906806 -0.000207174923671281)
(2.80936922620986e-05 -0.000329949074428971 -0.000188646862441564)
(4.15070172948708e-05 -0.000264981153705452 -0.00017217766107135)
(5.09617422756573e-05 -0.000193535592493182 -0.00015336320863281)
(5.50633522671641e-05 -0.000112361778948693 -0.000130398938571623)
(5.30271183131592e-05 -1.72612482517994e-05 -0.000103992974407544)
(4.46083734275744e-05 0.000104957676949748 -7.48000314841559e-05)
(3.0339631069361e-05 0.000254670176956801 -4.34924910475009e-05)
(2.11879318574881e-05 0.000226578384157508 -1.56958157135001e-05)
(1.5233369267288e-05 -0.000466598014350156 -0.000309134052219333)
(3.84518722790618e-05 -0.000391221342370203 -0.000279488078034739)
(5.59789544074779e-05 -0.000316622656598464 -0.000252841949332919)
(6.77336548399157e-05 -0.000239039215694885 -0.000224024278981998)
(7.2825766136848e-05 -0.000156120408865146 -0.000191472952516533)
(7.10211933085288e-05 -6.57628703907897e-05 -0.00015613464686371)
(6.29834920328675e-05 3.77324811280151e-05 -0.00011895243061011)
(4.96917923690778e-05 0.000169724408142835 -7.97712047184078e-05)
(3.39243253968224e-05 0.000329052888783119 -3.50389812284907e-05)
(2.92986519610986e-05 0.000296451602840529 3.26295559751029e-07)
(2.14929070683882e-05 -0.000558615908547466 -0.000448583586019428)
(5.35309199453933e-05 -0.000464685799229081 -0.000401637078886638)
(7.67069998650721e-05 -0.00037555830121924 -0.000359138946595875)
(9.12926991473366e-05 -0.000287313433510938 -0.000315135688061498)
(9.68115982761904e-05 -0.000198189897149983 -0.000268497119189701)
(9.38385938266899e-05 -0.000106557786455171 -0.000221054783315622)
(8.38558289317325e-05 -8.63139087702452e-06 -0.000174100266504873)
(6.85626695831259e-05 0.000103633851167237 -0.000127274102206524)
(4.97332808037933e-05 0.000248776012753516 -7.85271940381168e-05)
(3.3159787050119e-05 0.000426829387961776 -2.18545877417436e-05)
(3.5105770724816e-05 0.00039583634764279 1.69653238655668e-05)
(-3.54047642410577e-06 -9.11665459047521e-05 1.07948358360464e-05)
(-1.70639647889442e-06 -3.232251424099e-05 2.75237427391766e-05)
(-9.91316786088237e-06 -0.000107800046357183 9.15638579930545e-06)
(4.84381393459261e-07 -8.23544151208955e-05 3.41776564844774e-05)
(-4.18460917695949e-06 -2.28194806833153e-05 2.15945574385752e-05)
(-1.54788040257711e-05 -8.96400674585286e-05 6.65611341323903e-06)
(1.72954041623153e-06 -0.000128443438080449 3.28878706336427e-05)
(2.50721957102662e-06 -7.69653533993307e-05 2.30895603979124e-05)
(-4.60338511638896e-06 6.67303682461704e-08 1.32535292151324e-05)
(-1.82557888070787e-05 -7.17181364695901e-05 3.66148504507692e-06)
(2.72669976957497e-06 -0.000171575854084061 2.2163305829033e-05)
(6.63121665066998e-06 -0.000128346528245698 1.56318568402444e-05)
(6.50426949150469e-06 -6.13001598294427e-05 8.11307492592492e-06)
(-2.56744786267349e-06 2.47290508034006e-05 3.46686455231506e-06)
(-1.81699221992674e-05 -4.38949510413941e-05 2.29631366239767e-07)
(3.84352751148383e-06 -0.000214916137026161 1.01711066257446e-06)
(1.00153865365231e-05 -0.000173373255798752 -2.24527473287314e-06)
(1.40474967332765e-05 -0.00011764755801638 -6.67929673232558e-06)
(1.29521688038592e-05 -3.87804650319811e-05 -9.01699885972136e-06)
(1.80215272224244e-06 5.81760472436226e-05 -7.17923225711579e-06)
(-1.52465213396157e-05 -4.05075411597975e-06 -3.20975502440806e-06)
(5.23884225989832e-06 -0.000260925584094321 -3.16462143022795e-05)
(1.37615812011999e-05 -0.000217649753396139 -3.15820544865029e-05)
(2.05803994061731e-05 -0.000165044044090991 -3.25278674302962e-05)
(2.41897243346167e-05 -9.79240069522547e-05 -3.16796602905637e-05)
(2.14236434147403e-05 -6.93467561456307e-06 -2.71292653528079e-05)
(8.03689863834387e-06 0.000102008351435848 -1.85956040732157e-05)
(-9.58669735063096e-06 4.94759286237343e-05 -7.23030095626371e-06)
(7.09772908511486e-06 -0.000312303583935362 -7.77252568375118e-05)
(1.85121288878903e-05 -0.000264391503079095 -7.36691680088234e-05)
(2.78989031343432e-05 -0.000210539264200107 -7.06646575413389e-05)
(3.44501777181536e-05 -0.000146733322388023 -6.55860063185134e-05)
(3.61125698048978e-05 -6.83367549456674e-05 -5.69434289019693e-05)
(3.05899359254962e-05 3.40904363708053e-05 -4.47841218815202e-05)
(1.50026842698317e-05 0.000157264223854242 -2.92667502354038e-05)
(-2.18181883387507e-06 0.000117192295120846 -1.23865863921208e-05)
(9.63291208248136e-06 -0.000372124795240325 -0.000140450538937231)
(2.49502396582507e-05 -0.000316503776183115 -0.0001309680616776)
(3.72821503014451e-05 -0.000257810777795135 -0.000122754751974034)
(4.61948233251082e-05 -0.000192501475330783 -0.000112170817231297)
(5.02083657994316e-05 -0.000117618536683509 -9.77185500417779e-05)
(4.82059841465858e-05 -2.94283792510149e-05 -8.01323760838824e-05)
(3.89805334277213e-05 8.44780734157571e-05 -5.99807082705284e-05)
(2.13402757865173e-05 0.000224015675728792 -3.7397117202338e-05)
(6.1012159117277e-06 0.000194273311505709 -1.57165071385551e-05)
(1.3266939937353e-05 -0.000444226366356019 -0.000225142560047395)
(3.39777058778491e-05 -0.000377197889028238 -0.000207699761776427)
(5.01436760165932e-05 -0.000309896788801732 -0.000191896334530498)
(6.14823009409496e-05 -0.000239006109639014 -0.000173478952540728)
(6.69306785371579e-05 -0.000162389601331756 -0.000151141150371817)
(6.59692657168691e-05 -7.8274256358237e-05 -0.000125906595793443)
(5.87160054842618e-05 1.86030126874952e-05 -9.91410138963221e-05)
(4.50743118179439e-05 0.000143449605360635 -7.10700092015225e-05)
(2.56203081296442e-05 0.000295913981119407 -4.16488234365089e-05)
(1.39460399891376e-05 0.000259277434398395 -1.48097359418392e-05)
(1.85940344723385e-05 -0.00053416418086758 -0.000340507975131301)
(4.70324515137262e-05 -0.000450649342713874 -0.000310916999886522)
(6.84585338868249e-05 -0.000370197900045448 -0.000283490134332498)
(8.27200856109569e-05 -0.000289387511141017 -0.000253365197951175)
(8.9068387220525e-05 -0.000206713154325385 -0.000219577133094592)
(8.76979534814849e-05 -0.000120999137043305 -0.000183857331028643)
(7.95952951894062e-05 -2.91287484253177e-05 -0.000147741157633149)
(6.5820018147565e-05 7.60251191173484e-05 -0.000111712408019508)
(4.70700610820026e-05 0.000211378426048757 -7.4854048610927e-05)
(2.62699912964709e-05 0.000373826724186756 -3.28431371486392e-05)
(2.01621348323588e-05 0.000329484272044637 1.34181136137936e-06)
(2.65973484382269e-05 -0.000649667072054345 -0.000501234909543041)
(6.64007970813373e-05 -0.000541984634205096 -0.000452433990905976)
(9.51620503323728e-05 -0.000442040164158961 -0.000406512661258408)
(0.000113191834649588 -0.000345969455880111 -0.000358187416713719)
(0.00012005904443685 -0.000252677350101355 -0.000307196219692577)
(0.000116862371807135 -0.000161150201139077 -0.000256333748659361)
(0.000105788363761174 -6.84085694216704e-05 -0.000207806583554484)
(8.88654205161023e-05 3.05783325731056e-05 -0.000162128912575508)
(6.76087914729415e-05 0.000144867501767555 -0.000118087986714212)
(4.33339409789225e-05 0.000294264697689182 -7.28334732977989e-05)
(2.22866982809723e-05 0.000475780953354328 -1.92051478024022e-05)
(2.38629045968952e-05 0.000429837186183652 1.83941665710315e-05)
(-3.86025440416733e-06 -7.84442781824617e-05 1.28181485097985e-05)
(-2.07169540842265e-06 -1.44268915351919e-05 3.33854232345115e-05)
(-1.10687199277507e-05 -0.000100191379802284 1.13784931534624e-05)
(1.52615865044352e-07 -6.38178036389801e-05 4.47125759529247e-05)
(-5.49506413316253e-06 -9.2165864407718e-06 2.82778290852792e-05)
(-1.7813239979932e-05 -8.73893062766635e-05 9.16398298478162e-06)
(1.41105586123513e-06 -0.000109947147952779 4.89914538032904e-05)
(1.31493617158312e-06 -6.21282250858585e-05 3.53473420104192e-05)
(-7.1281147064059e-06 8.38362208446768e-06 2.12499617012826e-05)
(-2.23809043982998e-05 -7.63265109531145e-05 6.5491095128044e-06)
(2.36561189361331e-06 -0.000152982672325063 4.47270749135904e-05)
(5.48111556559223e-06 -0.000113119319784635 3.42037487095666e-05)
(4.22450655535076e-06 -5.10142076672697e-05 2.23529421472409e-05)
(-6.61703297385459e-06 2.66904042952991e-05 1.2517649925436e-05)
(-2.43306505416084e-05 -5.68000238582086e-05 3.415046661479e-06)
(3.38086070811443e-06 -0.000195843583607301 3.09094534840187e-05)
(8.71329262251217e-06 -0.000157940319822521 2.33730385655078e-05)
(1.17765077174336e-05 -0.00010653317072951 1.45042609041581e-05)
(9.2908746902989e-06 -3.40330578668315e-05 7.01439774461168e-06)
(-4.0367282472508e-06 5.26524816879981e-05 2.89774029144359e-06)
(-2.38157668481774e-05 -2.58068710071125e-05 -1.16101923491561e-07)
(4.62065971815553e-06 -0.000240853762521082 6.67845175966112e-06)
(1.21492577199753e-05 -0.000201837418836673 1.918896414425e-06)
(1.80399504968281e-05 -0.000153662286706482 -3.82899221351109e-06)
(2.05635790921595e-05 -9.19452688773373e-05 -8.24938415965434e-06)
(1.63727280740064e-05 -8.63097277389191e-06 -9.71187195355878e-06)
(4.02665238501141e-07 8.80323577638474e-05 -7.64210135862292e-06)
(-2.07780006285064e-05 1.77446789611538e-05 -3.50324939331685e-06)
(6.23013671881902e-06 -0.000290618640141549 -2.94482842705348e-05)
(1.63722215500154e-05 -0.000247874555662919 -3.11578473097518e-05)
(2.47761465852452e-05 -0.000199003859962217 -3.37004116334834e-05)
(3.04570164516781e-05 -0.000140515052935062 -3.44805003132053e-05)
(3.13299956490855e-05 -6.84009618177822e-05 -3.22546985975846e-05)
(2.45545756245152e-05 2.53352869283679e-05 -2.70142291974303e-05)
(6.06258405057738e-06 0.000134342082332521 -1.8593636381353e-05)
(-1.54746820373405e-05 7.5032824763367e-05 -7.33714449308667e-06)
(8.39905277973462e-06 -0.00034808136497597 -7.9945441598412e-05)
(2.19887513347985e-05 -0.000298877942997712 -7.7770301574697e-05)
(3.31635462856547e-05 -0.000246075997667181 -7.63937636647196e-05)
(4.13476205337296e-05 -0.000186545319599753 -7.27868349945269e-05)
(4.50190666677717e-05 -0.000117648248738829 -6.56965926285888e-05)
(4.27673628430487e-05 -3.62707507807232e-05 -5.57927531682331e-05)
(3.25668136934421e-05 6.83829379896287e-05 -4.35845773268753e-05)
(1.17137220240756e-05 0.000192863155370254 -2.87770383315891e-05)
(-9.0064077333374e-06 0.000146140200878909 -1.20881653160656e-05)
(1.14664800460016e-05 -0.000416979664232361 -0.000148886311352735)
(2.97593675531162e-05 -0.000358062118480837 -0.000141228816885885)
(4.44656589707e-05 -0.000297908284216362 -0.000134367027860345)
(5.51538604589744e-05 -0.000233613193930912 -0.000124765174795628)
(6.06419205764887e-05 -0.000163234851781425 -0.000111292427459013)
(6.01706343091542e-05 -8.53169961392684e-05 -9.49077105758153e-05)
(5.33508595870195e-05 4.81731762305951e-06 -7.6964486957499e-05)
(3.9032248655386e-05 0.000121474776790214 -5.77451826011335e-05)
(1.60488878044707e-05 0.00026372375535471 -3.66471829441504e-05)
(-1.97647047474353e-06 0.000226367697252366 -1.51055661715826e-05)
(1.59454355722528e-05 -0.000502432075856077 -0.000242844669814604)
(4.09330156861133e-05 -0.000429392228125764 -0.000226960299367176)
(6.04321479613301e-05 -0.000357779617852904 -0.000211837211633064)
(7.40615268453395e-05 -0.000284668393773756 -0.000193439168186681)
(8.08573236318789e-05 -0.000208751496982638 -0.000170905915047401)
(8.06729746092611e-05 -0.000129176574650264 -0.000145815491953638)
(7.40449790359858e-05 -4.33055261458306e-05 -0.000119830557431874)
(6.14249048975302e-05 5.54839753171177e-05 -9.401922152242e-05)
(4.24156477471628e-05 0.000183974922320089 -6.80014338900886e-05)
(1.77252214588861e-05 0.000340107562046944 -4.08311845217913e-05)
(4.46775720481978e-06 0.00029333015129273 -1.45649825728104e-05)
(2.26121877338853e-05 -0.000612303532373442 -0.000372613100400996)
(5.73750258310707e-05 -0.000518604690007401 -0.00034399528855533)
(8.35830994738846e-05 -0.000429926747119273 -0.000315931189990801)
(0.00010099130113804 -0.000343032821113137 -0.000284053928516885)
(0.000108815064275071 -0.000257142935798782 -0.00024808327774696)
(0.000107642096423661 -0.000171753150809912 -0.000210537347744399)
(9.90816259033354e-05 -8.45670481681908e-05 -0.000173692435223099)
(8.46271383611584e-05 8.6869879426255e-06 -0.000138559384219851)