/*--------------------------------*- C++ -*----------------------------------*\
  =========                 |
  \\      /  F ield         | OpenFOAM: The Open Source CFD Toolbox
   \\    /   O peration     | Website:  https://openfoam.org
    \\  /    A nd           | Version:  12
     \\/     M anipulation  |
\*---------------------------------------------------------------------------*/
/*   Windows 32 and 64 bit porting by blueCAPE: http://www.bluecape.com.pt   *\
|  Based on Windows porting (2.0.x v4) by Symscape: http://www.symscape.com   |
\*---------------------------------------------------------------------------*/
FoamFile
{
    format      ascii;
    class       volScalarField;
    location    "400";
    object      k;
}
// * * * * * * * * * * * * * * * * * * * * * * * * * * * * * * * * * * * * * //

dimensions      [0 2 -2 0 0 0 0];

internalField   nonuniform List<scalar> 
10068
(
4.93667297546658e-05
4.93730797052423e-05
0.000203811780350206
5.06286709508096e-05
4.92828611609444e-05
0.000203701950506482
5.06432586953972e-05
0.000317649638468695
0.000204226497571357
5.22899097435459e-05
4.90776387677717e-05
0.00020332461142879
5.05575423194944e-05
0.000317323005413847
0.000204137903946317
5.2313512670397e-05
0.000407215490252581
0.000317470043891854
0.000204427224336396
5.27808641612484e-05
4.87509353215763e-05
0.000202647717857584
5.03499526870041e-05
0.000316640785774249
0.000203770722796891
5.22329266814897e-05
0.000406713779766184
0.000317154009379325
0.00020435918762592
5.28139295534638e-05
0.000483821808571368
0.000406715198166163
0.000316001690814442
0.000202947126719401
5.14047399713063e-05
4.83043740001804e-05
0.000201662460946036
5.00162690663813e-05
0.000315577808533459
0.000203094359746879
5.20222126642667e-05
0.00040577370711508
0.000316476172815661
0.000204002456723534
5.27405381532899e-05
0.000483176948614277
0.000406223677619747
0.000315696657708546
0.000202899352404643
5.14466802969747e-05
0.000552161974919092
0.00048296088447614
0.00040414968024768
0.000312409148803318
0.000198835378786994
4.8632971420499e-05
4.77411667976789e-05
0.000200370730442344
4.9559912482782e-05
0.000314117602612836
0.000202107214389796
5.16795202189425e-05
0.000404381889511327
0.00031541557682161
0.000203325576375299
5.25320584607587e-05
0.000482017420489329
0.000405288133064164
0.000315026852148693
0.000202556527311043
5.13843493240414e-05
0.000551392775957631
0.00048232782620547
0.00040366861529444
0.000312116136734628
0.000198809246886774
4.86832093058603e-05
0.000614535233838303
0.000550876019174392
0.000479474759550271
0.000398898609842889
0.000306065799884297
0.000192292846707544
4.52150072869071e-05
4.70634251709076e-05
0.000198774375491131
4.89842759478743e-05
0.000312250918728396
0.000200813834479095
5.12097528219045e-05
0.000402519969814787
0.000313957347503121
0.000202335939026894
5.21877820893913e-05
0.000480338252704145
0.000403899448872895
0.000313972521168871
0.000201886687435421
5.11868928772093e-05
0.000550040239821381
0.000481174043054091
0.000402742696284581
0.00031145989316177
0.000198487885254988
4.86350850221648e-05
0.000613653438116499
0.000550120537808564
0.000478853875465373
0.000398428801429678
0.0003057881665616
0.000192290403869732
4.52729066402601e-05
0.000672284317881608
0.000612884231710181
0.000546512133717532
0.000472806231883936
0.000390613639368313
0.000297041589282437
0.000184009926305392
4.15155036335778e-05
4.62716209403119e-05
0.000196869888291389
4.82911463191087e-05
0.000309968657100826
0.000199215706188241
5.06177538990894e-05
0.000400172292022083
0.000312092361123823
0.000201040399924211
5.17150032976767e-05
0.000478122010342423
0.000402040704124084
0.000312521182704798
0.000200903775137698
5.08545552922805e-05
0.000548104584967576
0.000479499378916905
0.000401364154096312
0.000310420177237826
0.000197837740784211
4.84559642837266e-05
0.000612126308903517
0.000548775175431331
0.000477712162189607
0.000397518857424187
0.000305153338791661
0.000191998421398853
4.52405678420757e-05
0.000671297825513263
0.000612017996851803
0.000545770913398334
0.000472198076644982
0.000390158521897518
0.000296783528200711
0.00018403288775836
4.15807316538017e-05
0.000726300710698822
0.000670386536692699
0.000607768678480446
0.000538578672621182
0.000462789532639111
0.000379427964893321
0.000285767435726518
0.000174457805754469
3.75826899758494e-05
4.53646075741348e-05
0.000194651423259607
4.74815824900503e-05
0.000307261224111325
0.000197309514688901
4.99044680612657e-05
0.000397324002523862
0.000309812285702812
0.000199440996418898
5.1119193343063e-05
0.000475350802142358
0.000399696680661342
0.000310664412170159
0.000199617098705277
5.03955685100702e-05
0.000545569765642255
0.00047728804858574
0.000399517267499658
0.00030898618498143
0.000196876438989741
4.81459349994688e-05
0.00060995746622026
0.000546845659134068
0.000476050824344229
0.000396160308477446
0.000304139825234035
0.000191380108797238
4.50836275130266e-05
0.000669609395731809
0.000610499354633017
0.000544440114137801
0.000471075469008931
0.000389272430632014
0.000296178263490939
0.000183776533158025
4.15649947719498e-05
0.000725215070089938
0.000669417169281106
0.0006069186810195
0.000537852097654554
0.000462197475153699
0.000378992205370812
0.000285532749732549
0.000174507769876306
3.76548788288589e-05
0.000777174927413341
0.000724248654989793
0.000664697302217825
0.000598765969487251
0.00052702988583971
0.000449658414146195
0.000365679276719397
0.000272583642313346
0.000163785383912344
3.34101549275931e-05
4.4341501653509e-05
0.000192108260948562
4.65538264565082e-05
0.000304115667642569
0.00019508880087465
4.90716077815064e-05
0.000393959505192632
0.000307107236864192
0.000197532487556996
5.04015115486727e-05
0.000472006109544463
0.000396852699691734
0.000308394277378913
0.000198029186200756
4.9815816984561e-05
0.00054241668164137
0.000474522541097671
0.000397187288571913
0.000307150405688789
0.000195615754194205
4.77137760101945e-05
0.000607131461345005
0.000544317620997625
0.0004738553269567
0.000394337995207366
0.000302737656228392
0.000190455082847848
4.48012827152026e-05
0.000667224917259848
0.000608337992466872
0.000542526961114063
0.000469438690526829
0.000387945704935123
0.000295202720771473
0.000183199511168549
4.14321133139513e-05
0.000723375154945625
0.000667738189570781
0.000605416780598013
0.000536543467328465
0.000461102061773884
0.000378138176986495
0.00028496416811301
0.000174292104282379
3.76562375933044e-05
0.000775994260027325
0.000723181459375323
0.000663745857483528
0.00059793245060964
0.000526321294738732
0.000449087319089491
0.000365267422920756
0.000272375660405487
0.000163864268790142
3.34882539186083e-05
0.000825263822839556
0.000775017266327683
0.000718129695111597
0.000654833684721719
0.000585905358648071
0.00051217304972086
0.000433735966502127
0.00034962159497843
0.000257650282605935
0.000152008790335923
2.90392857516126e-05
4.32011172555094e-05
0.0001892297162104
4.55067764813898e-05
0.000300518105405853
0.000192543375143045
4.81163740672205e-05
0.000390061265377994
0.000303964832046479
0.000195311610848992
4.95623472235313e-05
0.000468067794173091
0.000393493115258113
0.000305700851985552
0.000196134298974024
4.91169128963524e-05
0.000538624368893685
0.000471184435565305
0.000394360001743323
0.000304905266027018
0.00019405886852685
4.71656122758767e-05
0.000603628622419828
0.00054117252035241
0.000471108707035743
0.000392037697814498
0.000300940173585097
0.000189237151113265
4.44027245060049e-05
0.00066412934288688
0.000605520407637661
0.000540018419577332
0.00046727359473521
0.000386163245857055
0.000293847180576382
0.000182322249365905
4.11802441350667e-05
0.000720788769830386
0.000665362142061151
0.000603274315197956
0.000534658940900423
0.000459502283933311
0.000376855088675127
0.000284036736797664
0.000173763798559648
3.75487180981934e-05
0.000774010581311148
0.000721351728549348
0.000662085326308479
0.00059645537621342
0.000525043186847765
0.000448027483238853
0.000364453064335456
0.000271849932995859
0.000163694054156046
3.35065263416021e-05
0.000823991400741485
0.000773856203853388
0.000717081845200202
0.000653900305609946
0.000585091664792547
0.000511487474196574
0.000433190778208349
0.000349237771951628
0.000257472115459182
0.000152118021031869
2.91210753483102e-05
0.000870752504371351
0.000823020003240909
0.000768555160375921
0.000707567111994682
0.000640867540633995
0.000569541048988189
0.000494336285841229
0.000415237098496299
0.000331393949236192
0.000241034029678098
0.000139140005637392
2.45514627346434e-05
4.19422513143624e-05
0.000186003899442076
4.43393468647887e-05
0.000296452200727874
0.000189662287153911
4.70382421563336e-05
0.00038561028034603
0.000300370555285346
0.000192764803153488
4.85996775779142e-05
0.000463514292903128
0.000389600494315354
0.000302572112426957
0.000193929215106849
4.82986725153126e-05
0.000534169760241292
0.000467253777438451
0.000391019932256533
0.000302240914388588
0.000192201245966822
4.6503662347222e-05
0.000599426150417038
0.00053738953454587
0.000467792857619997
0.000389245416049172
0.000298740245897822
0.000187730370749608
4.38943609620028e-05
0.000660302150139914
0.000602027424841818
0.000536896593179292
0.000464563637620466
0.000383911158989704
0.000292105574696034
0.000181160388613616
4.08187297447366e-05
0.000717440642550947
0.000662275986307876
0.000600479271364177
0.000532185873375152
0.00045738389075165
0.000375127678124667
0.000282740628150604
0.000172943243506674
3.73296022593313e-05
0.000771233090679026
0.000718774296756619
0.000659730064001266
0.000594344920873112
0.000523200318014383
0.000446476854081606
0.000363224310614516
0.000270979310531694
0.000163221104128553
3.34253191961834e-05
0.000821870335694359
0.000771883260333415
0.000715271903567162
0.000652266771187205
0.000583648076136972
0.000510248519504816
0.000432174523499555
0.000348470041042845
0.000256994953924295
0.000151997390436378
2.91545266030674e-05
0.000869391155084173
0.000821768252260024
0.000767414684248788
0.000706538689431682
0.000639955634132191
0.00056875239157779
0.000493678985904429
0.000414722371828432
0.000331042020509577
0.000240888553915959
0.000139278826127865
2.46341966658621e-05
0.000913713702505059
0.000868428793650246
0.000816259468479791
0.000757398613871566
0.000692655293905324
0.000623188705420631
0.000550016377743989
0.000473719020435723
0.000394283058076403
0.000311079872599914
0.000222774271721682
0.000125214852824073
2.00549675727267e-05
4.0563484635728e-05
0.000182417568225548
4.30501955300073e-05
0.000291900486532344
0.000186433864434881
4.58358530055607e-05
0.000380586080926654
0.000296308230736661
0.000189882024713977
4.75126968027065e-05
0.000458322597961395
0.000385155783352344
0.000298993172338678
0.000191400095863734
4.73599667092872e-05
0.000529027849931266
0.000462708992202024
0.000387149775275406
0.000299145545838752
0.000190036856024035
4.57278755805836e-05
0.000594498619804537
0.000532945676207108
0.000463888121551361
0.000385945970908544
0.000296128412334334
0.000185931518711273
4.32788957737888e-05
0.000655719240946817
0.000597836515615434
0.000533141033192643
0.000461291099078089
0.000381175804900648
0.000289971314296963
0.000179719136708738
4.03544168097464e-05
0.000713309678521807
0.000658459892545726
0.000597013178718831
0.000529106834359548
0.000454730587341757
0.000372942258242723
0.000281070230663238
0.000171847863910787
3.70080752905597e-05
0.000767646546111953
0.000715436234839032
0.000656668653009422
0.000591589519248592
0.000520779922546773
0.00044442097461763
0.000361565657419042
0.000269753622484301
0.000162465268648615
3.32408623459592e-05
0.000818911106924831
0.000769115171490542
0.000712716623925123
0.000649946187702785
0.000581583259088823
0.00050845987958656
0.000430684277362416
0.000347305326658023
0.000256189102043175
0.000151586348229184
2.90995051228344e-05
0.000867138398097273
0.000819658416488038
0.000765462634696806
0.000704757537479041
0.00063835812860471
0.000567351242422179
0.000492487576084583
0.000413757195920151
0.000330327516505137
0.000240465343274551
0.000139209631463635
2.46875825021549e-05
0.000912266066429882
0.000867089121500346
0.000815029435478439
0.000756278764076136
0.00069164979350967
0.000622303699153404
0.000549258298368924
0.000473094985479213
0.000393803213012714
0.000310763542912771
0.000222663886321347
0.000125379068921905
2.01531346833598e-05
0.000954154331746465
0.000911312490708384
0.000861392817150961
0.000804572876442412
0.000741653542419304
0.000673816071750397
0.000602165036069358
0.000527531559405255
0.000450432707799665
0.000370959544293287
0.000288740548300576
0.000202904007477852
0.000110283868492953
1.56811197553046e-05
3.90634387646219e-05
0.000178456552877879
4.16377398874716e-05
0.000286844279419682
0.000182845014105543
4.45075501077711e-05
0.000374967411574779
0.000291760492321276
0.000186651699170667
4.62999530145752e-05
0.000452468676634656
0.000380138585821777
0.000294947990480634
0.000188536969927341
4.62991842005707e-05
0.00052317227930575
0.000457527113553871
0.000382730616418504
0.000295604397110162
0.000187554552023377
4.48369502099169e-05
0.000588818430713775
0.000527816057986057
0.000459373147628407
0.000382122337417917
0.000293092949831346
0.00018383331772262
4.25563357469397e-05
0.000650353301648434
0.000592922366248749
0.000528729074992125
0.000457436751732953
0.000377942452333138
0.00028743551109088
0.000177996093334047
3.97903700962297e-05
0.000708370569389669
0.000653889994916237
0.000592853970133554
0.000525401842984543
0.00045152506748055
0.000370285596672659
0.000279019583171235
0.00017048443438165
3.65914364490916e-05
0.000763228985120845
0.000711317093603757
0.000652882081254612
0.000588171226431
0.000517764847990856
0.000441843721257963
0.000359463574257607
0.000268167658373219
0.000161445930518185
3.29621530636952e-05
0.000815098212736991
0.000765539054776605
0.000709404883596624
0.000646927652032554
0.000578885552081421
0.000506108609255916
0.000428705392798453
0.000345727833845966
0.000255043856309407
0.00015090322911216
2.89508812986008e-05
0.000864005843396253
0.000816708919885626
0.000762717798680175
0.000702239068803469
0.000636086511387372
0.000565345155716342
0.000490764921510773
0.000412337822323228
0.000329235974675055
0.000239731895742964
0.000138867261844471
2.46559930723163e-05
0.000909887004166885
0.000864848063122347
0.000812941479395325
0.000754357050034775
0.000689906874887358
0.000620751568538434
0.000547908376106445
0.000471959177799409
0.000392896478248274
0.000310108678461475
0.000222299384243032
0.000125355240577001
2.02361210848324e-05
0.000952623035056033
0.000909887488457453
0.000860075928348889
0.000803364564317667
0.000740557924709065
0.000672839153830044
0.000601312752330734
0.000526809373321704
0.000449846660396395
0.000370518778960622
0.000288463464708163
0.000202830493365652
0.000110450731453776
1.58004470451983e-05
0.000992046209819669
0.000951677925296187
0.000904015796545494
0.000849216880647871
0.000788072691128567
0.000721771093419807
0.000651446108813124
0.000578008693634569
0.000502195992943259
0.000424562309773692
0.000345338815137313
0.000264422071869145
0.000181445639696864
9.43858744859459e-05
1.15507783214653e-05
3.74394190473141e-05
0.000174105199797961
4.01005996112509e-05
0.000281265908241843
0.000178881431082166
4.30516983847503e-05
0.000368732322668834
0.00028670904370135
0.000183060679914584
4.49597611342711e-05
0.000445927951364145
0.000374527607377237
0.000290419300809898
0.000185328143463538
4.5114982996273e-05
0.000516576069730351
0.000451684155166875
0.000377742190768873
0.000291601562831583
0.000184743666977761
4.38291303452353e-05
0.000582356533797832
0.000521974421228655
0.000454225222621971
0.000377756201263422
0.000289619586219368
0.00018142608771769
4.17254726613551e-05
0.000644174537941121
0.000587257466373076
0.000523636164504882
0.00045297966556865
0.00037419469334006
0.000284486775559438
0.000175984364209172
3.91267657641414e-05
0.000702594395336355
0.00064853911116924
0.000587976708793621
0.000521048722530422
0.000447748619208807
0.000367143504619198
0.000276580454202271
0.000168851412500139
3.60829888996154e-05
0.000757954090698473
0.00070639183395203
0.000648346979512232
0.000584068519445559
0.000514135601178562
0.000438728217729189
0.000356905280088765
0.000266216201577742
0.000160171377153673
3.25965913994594e-05
0.00081040913444674
0.000761133786081358
0.000705317112360492
0.000643192756619002
0.000575537324839925
0.000503177775890736
0.000426221924593685
0.000343724183124143
0.000253554444821243
0.000149969369856937
2.87172077245289e-05
0.000859977771478096
0.000812906814308878
0.000759169203046305
0.000698972745539048
0.000633129801519775
0.000562722325682514
0.000488497971150766
0.00041044938053327
0.000327751256987566
0.000238676704975016
0.000138265364133792
2.45403372081426e-05
0.000906589148616974
0.000861725568075868
0.000810016189002774
0.000751650829369439
0.000687440206539157
0.000618542618919936
0.000545973326945135
0.000470313668149522
0.000391557988217889
0.000309099157607243
0.000221645741701557
0.000125089602761321
2.02374266736848e-05
0.00095012296531767
0.000907520579386331
0.000857857676445472
0.000801308342184533
0.000738676408083496
0.000671144239167045
0.000599815213676074
0.000525519187208321
0.000448774275920189
0.000369677621254553
0.000287874542899942
0.000202528007622545
0.000110477387887588
1.59034088501975e-05
0.000990433795567363
0.000950170143602072
0.000902614593429389
0.000847922743438275
0.000786889823028015
0.000720705612094176
0.000650503892929851
0.000577194745099616
0.000501514728121686
0.000424018757679235
0.000344941276558227
0.000264187977509028
0.000181408157901267
9.45691493724524e-05
1.16699619480096e-05
0.00102734394097702
0.00098949772143259
0.000944133530998205
0.000891380578544636
0.000832018625596211
0.000767236062467192
0.000698176138893166
0.000625773968703138
0.000550832686647402
0.000474094329345144
0.000396184903172487
0.000317478344433754
0.000238149573161643
0.000158392047760474
7.75214785185593e-05
7.72110463137814e-06
3.56919472152438e-05
0.000169346735158884
3.84370703653675e-05
0.000275146478592467
0.00017452703674477
4.14669936883813e-05
0.00036185968291829
0.000281135314696824
0.000179094586321021
4.34900570354721e-05
0.000438675828694446
0.000368301087987253
0.000285388937553663
0.000181760391109646
4.38056799355262e-05
0.000509211676479533
0.000445155567217641
0.000372163364280396
0.000287119929236395
0.000181592345601118
4.27031564131326e-05
0.000575083102737948
0.000515393727636116
0.000448420575522202
0.000372827470704398
0.000285692647311919
0.000178698648287222
4.07844630317779e-05
0.000637151563953012
0.000580812841169066
0.000517836352529665
0.000447897578859964
0.000369914441886044
0.000281111445820642
0.000173674502156334
3.83625463464644e-05
0.000695949467697507
0.000642377549868833
0.000582354244579298
0.000516023451901036
0.000443380946380424
0.000363500182323766
0.000273742025996549
0.000166942405447136
3.54833207901792e-05
0.000751791500093209
0.000700631677272089
0.000643036578676095
0.000579257024226283
0.000509870575503212
0.000435056351130144
0.000353877217836515
0.000263891808240609
0.000158641131942018
3.21479152799134e-05
0.000804816467061943
0.000755873266280442
0.000700428805781164
0.000638718728991734
0.000571517602435791
0.000499648385499278
0.000423217462965548
0.000341282110114515
0.000251716481684076
0.00014879455213777
2.8405648047707e-05
0.000855031039497467
0.00080823037728515
0.000754796700151376
0.000694939663076747
0.000629469969068924
0.000559465371133548
0.000485670039724644
0.000408076123327373
0.000325860153175938
0.000237295417235368
0.000137426583161747
2.43517344367865e-05
0.00090235655930646
0.000857708601338071
0.000806242651473068
0.000748149761610752
0.000684239185364056
0.000615665734883358
0.000543441301565653
0.000468145343744761
0.000389772738348176
0.000307718386129982
0.000220689960129286
0.000124582014802557
2.01554939830236e-05
0.000946667697664827
0.000904233109997517
0.000854760282870575
0.000798423280863331
0.000736024483077159
0.000668743723859666
0.000597681829496886
0.000523666931990772
0.000447216705790096
0.000368429907233094
0.000286955710388463
0.000201960995061829
0.000110294299783374
1.59350378295015e-05
0.000987818042458488
0.000947682666628012
0.000900271381962632
0.00084573753572939
0.000784875598869117
0.000718874492811929
0.000648866621360311
0.00057576075071476
0.000500292545785342
0.000423017427725819
0.000344172788320132
0.000263671228567838
0.000181165876375682
9.46525241629036e-05
1.17853585946088e-05
0.00102565313398945
0.000987909715719633
0.000942650518221982
0.000890003115077064
0.000830751079580682
0.000766084786124557
0.000697147206333191
0.000624872369734388
0.000550062394966432
0.000473458768166928
0.000395688207768207
0.00031712838054913
0.000237962130561881
0.000158388341329629
7.77299602231936e-05
7.82955909333121e-06
0.00105999518942156
0.00102472730822106
0.000981719237845853
0.000931065427947578
0.000873529860651228
0.000810297900011921
0.000742512830807012
0.000671113146129784
0.000596918399308062
0.000520721942238186
0.000443304028854337
0.000365362290171675
0.000287408481543398
0.000209910890773912
0.000133706014952179
5.96564751684735e-05
4.33913823838514e-06
3.38262937897877e-05
0.000164168838674451
3.66469583747634e-05
0.000268469161109815
0.000169765389262902
3.97514344552034e-05
0.000354329178946142
0.000275020735795575
0.000174737842323747
4.18890763871053e-05
0.000430688473301551
0.000361437662893377
0.00027983825911843
0.000177818838185483
4.23690356194518e-05
0.000501052033535973
0.000437916815193618
0.000365972572873323
0.000282141303635395
0.00017808727643171
4.14573742770174e-05
0.000566968211689726
0.000508046579097125
0.000441934874964799
0.000367315250910857
0.000281295250298387
0.000175639162712287
3.97320789377572e-05
0.000629252202598905
0.000573558737757155
0.000511302840946931
0.000442167128276682
0.000365081924274145
0.000277294141407969
0.000171055414015012
3.74958587241947e-05
0.000688402350904189
0.000635374002452814
0.000575957936504031
0.00051030059746292
0.000438400293406458
0.000359338130997436
0.000270491169977288
0.000164748214326637
3.47915291827585e-05
0.000744707845242006
0.000694005045483853
0.000636921574568318
0.000573710169498719
0.000504946432796511
0.000430808543258353
0.000350364288568116
0.000261184338105223
0.00015684953771257
3.16170938247848e-05
0.000798288549947687
0.00074972729291444
0.000694711626104539
0.000633479410589934
0.000566802669413758
0.000495499455412876
0.000419674562682869
0.000338388780111189
0.000249523388038206
0.000147379633993868
2.80202293344862e-05
0.000849137276607431
0.000802652493403536
0.000749574747923156
0.000690115958768053
0.000625084834128015
0.000555553871060713
0.000482262674879841
0.000405202176203274
0.000323551003657199
0.000235584451569714
0.000136362481699098
2.40950125904149e-05
0.000897165549018815
0.000852774850738161
0.000801600158146066
0.000743834421560861
0.000680285325760889
0.000612103198057058
0.000540295206760274
0.000465437818859268
0.000387525193032717
0.00030595332582799
0.000219427905298349
0.00012385024148577
2.00025374231185e-05
0.000942241170682845
0.000900011952238685
0.000850772853584339
0.000794699143144497
0.000732591744971111
0.000665626869847066
0.000594901469506616
0.000521240765583511
0.000445160779719746
0.000366760369209043
0.000285689672088859
0.000201114211766628
0.000109894694582442
1.58923068116333e-05
0.000984213387911733
0.00094423812984823
0.000897009880843559
0.000842681876394322
0.000782047101623132
0.000716291862780057
0.000646545762836107
0.000573715276928014
0.000498534506987084
0.000421558346130009
0.000343025520641983
0.000262851656381023
0.000180689680870107
9.45544412402006e-05
1.1841941612265e-05
0.00102292712565412
0.000985306977293078
0.000940187599132221
0.000887694200670655
0.000828609558556224
0.000764123175225706
0.000695376553845708
0.000623302111595499
0.000548700638772224
0.000472312646584941
0.000394765432391426
0.000316439839801989
0.000237523660009913
0.000158224597174812
7.7880895441887e-05
7.94665454595189e-06
0.00105822882177723
0.00102306173440352
0.000980156950318087
0.000929607113498355
0.000872180094629912
0.000809063331865418
0.00074139984801498
0.000670126975507417
0.000596063021115912
0.000520000351166876
0.000442718793872107
0.000364917029799013
0.00028711083403422
0.000209772552034316
0.000133756427070197
5.99106018260924e-05
4.42782712376476e-06
0.00108994626238078
0.00105731487763018
0.00101672939277184
0.000968244104905497
0.000912602493350358
0.000850983483628911
0.000784525567565705
0.00071416064818511
0.000640705872065343
0.000564964016249987
0.000487751025943069
0.000409883326047183
0.000332120107170415
0.00025510663843658
0.000179648444549079
0.000107385668729703
4.1004401294149e-05
1.73695477964458e-06
3.18587321171992e-05
0.000158563671787664
3.47339515821867e-05
0.000261222247127215
0.000164582261056671
3.79023908595405e-05
0.000346123630432668
0.000268348560358841
0.000169972444916598
4.01541550150313e-05
0.000421943969834448
0.000353917167938138
0.000273748849301228
0.000173487272967196
4.08023462258351e-05
0.000492071021913252
0.000429944142538658
0.000359148541443522
0.000276647189735558
0.000174213171713354
4.00895751283065e-05
0.000557982280062423
0.000499905924037366
0.000434743809578916
0.000361198275946044
0.000276409206692932
0.000172234504778107
3.85664774791858e-05
0.00062044412148663
0.00056546525899602
0.000504008517420165
0.000435764366171415
0.000359676699739994
0.000273018298509216
0.000168115299150986
3.65251825149264e-05
0.000679918762346058
0.00062749635855891
0.000568758343115375
0.000503853839122195
0.000432783877650507
0.000354638284908025
0.000266812979037244
0.000162258135685799
3.40057602295485e-05
0.000736667870287739
0.000686478587783939
0.000629971020829345
0.000567399879068371
0.00049933840643231
0.000425963676527479
0.000346349662935417
0.000258081279807234
0.000154788154177387
3.1003486001429e-05
0.000790790504186365
0.000742662613991212
0.000688134408100794
0.000627446116346756
0.000561366678836577
0.00049070842169432
0.000415574460110172
0.000335029887647397
0.000246965882989771
0.000145720297212854
2.75620363448591e-05
0.000842263621884182
0.00079614166235776
0.000743473609664102
0.000684473944994288
0.000619948949557616
0.000550964823499062
0.00047825557892215
0.000401810842693873
0.000320811781557926
0.000233538319223746
0.0001350755221751
2.37738787365698e-05
0.000890986751616423
0.000846896257145696
0.000796062197077388
0.000738679947372215
0.000675555400194017
0.000607833419813492
0.000536515203884111
0.000462173185613723
0.000384800222897542
0.000303792963325417
0.000217857088789448
0.000122908943133629
1.97879109734235e-05
0.00093681898908903
0.000894834235810158
0.000845874135685082
0.000790115981694519
0.000728359218533992
0.000661775535598459
0.000591456770192652
0.000518224033338013
0.000442590443427892
0.000364653737923656
0.000284063554390507
0.000199982727298998
0.000109290311256177
1.57856123634754e-05
0.000979603450591287
0.000939823319209177
0.000892819194134152
0.000838745580995307
0.000778394025304291
0.000712947173102988
0.000643530564656101
0.000571047274757979
0.000496228797210621
0.000419628211841251
0.000341483746882826
0.000261710748043175
0.000179961717578707
9.42585118058147e-05
1.18318512526959e-05
0.00101918108078691
0.000981713329824257
0.000936769873227886
0.000884475869215417
0.000825612578232884
0.0007613668597636
0.000692877323505185
0.000621073834286159
0.000546755080718096
0.000470659983593442
0.000393415178471785
0.00031540266922203
0.000236811473903134
0.000157853264548768
7.78741468164759e-05
8.0167923749808e-06
0.00105539796759348
0.00102034912163273
0.000977579599445073
0.000927179699126511
0.000869916476100908
0.000806976508630856
0.000739501340744237
0.000668426586524615
0.000594568889562403
0.000518719257699906
0.00044165666267201
0.000364080589963756
0.000286509957543009
0.000209418453767779
0.00013368066163265
6.01385845465178e-05
4.52681661600657e-06
0.00108810719594671
0.00105557449183222
0.00101509044777889
0.000966707457041816
0.000911172957118418
0.000849668035840471
0.000783330963188366
0.000713092468097432
0.000639768357480481
0.000564160174543229
0.000487082987450312
0.000409353060659602
0.000331731191695969
0.000254866831964414
0.000179572796459553
0.000107509065808273
4.13124869241962e-05
1.7879396290908e-06
0.00111714548509593
0.00108720711174048
0.00104911309301321
0.00100287366803151
0.000949207217146855
0.000889282495041956
0.000824229805361587
0.000754969287192764
0.00068230624574975
0.000607037032176889
0.000529979425767482
0.000451967883905175
0.0003738421598874
0.000296408365928975
0.000220468830208361
0.000147328955067914
7.95884311381366e-05
2.23576358455313e-05
3.46187828495188e-07
2.98498862496203e-05
0.000152545175408828
3.2707254906952e-05
0.000253403946627502
0.000158964988723175
3.59214649484078e-05
0.000337231177957775
0.000261106873437574
0.000164779422732815
3.82805697740035e-05
0.000412423220861501
0.000345722422228337
0.000267103944993978
0.0001687461346676
3.91018445112041e-05
0.000482244471362671
0.000421215565290789
0.000351671318476212
0.000270619247478194
0.000169952361394623
3.85963043296845e-05
0.000548097099223719
0.000490945737695544
0.000426823832174342
0.000354455494955898
0.000271016118364067
0.000168469063034602
3.72852815376415e-05
0.000610695775694322
0.00055650298229512
0.000495926588372627
0.000428665355990306
0.000353678254734596
0.000268265839040909
0.000164840741967304
3.54484181220496e-05
0.000670464375412954
0.000618712424002469
0.000560725866231748
0.000496656532564735
0.000426508291988019
0.000349380620732658
0.000262691111747097
0.00015945986519708
3.31242184053984e-05
0.000727635419643855
0.000678018105155239
0.00062215315155364
0.000560297252057986
0.000493020832277914
0.000420499697100789
0.000341815092755857
0.000254568281439912
0.000152446456601582
3.03053421454919e-05
0.000782285431913748
0.000734644059605964
0.000680664186284826
0.000620588506095068
0.000555182288242878
0.000485251302999933
0.000410896747880561