/*--------------------------------*- C++ -*----------------------------------*\
  =========                 |
  \\      /  F ield         | OpenFOAM: The Open Source CFD Toolbox
   \\    /   O peration     | Website:  https://openfoam.org
    \\  /    A nd           | Version:  12
     \\/     M anipulation  |
\*---------------------------------------------------------------------------*/
/*   Windows 32 and 64 bit porting by blueCAPE: http://www.bluecape.com.pt   *\
|  Based on Windows porting (2.0.x v4) by Symscape: http://www.symscape.com   |
\*---------------------------------------------------------------------------*/
FoamFile
{
    format      ascii;
    class       volScalarField;
    location    "400";
    object      nut;
}
// * * * * * * * * * * * * * * * * * * * * * * * * * * * * * * * * * * * * * //

dimensions      [0 2 -1 0 0 0 0];

internalField   nonuniform List<scalar> 
10068
(
2.00121584672644e-05
2.00147216780676e-05
0.000284578733284878
2.12576710469611e-05
1.99780920633937e-05
0.000284780668735712
2.12636956890928e-05
0.000776646746422094
0.000291424927009345
2.28641230338493e-05
1.98949062104094e-05
0.000284572788635456
2.12276705141816e-05
0.000776866170368542
0.000291718345328389
2.2874338803164e-05
0.0013515379218954
0.000785161268007967
0.000300199249793112
2.3816882771533e-05
1.97624964410698e-05
0.000283928599748681
2.11405192225589e-05
0.000776387819604619
0.000291541471390742
2.2839105154997e-05
0.00135153179663498
0.000785438139619725
0.000300595579114272
2.38318203631069e-05
0.00193349000513027
0.00135773592749168
0.00079529458216204
0.000305460505582197
2.3502296822724e-05
1.95814748856801e-05
0.000282874494706944
2.10004333695978e-05
0.00077511010818714
0.000290874768538082
2.27469732799249e-05
0.00135056724251872
0.000784979862638488
0.000300455371682955
2.37987140013868e-05
0.00193318610171062
0.00135775896379387
0.000795649633122314
0.000305948003789749
2.35214966074411e-05
0.00248693850513335
0.00193549764377701
0.00136302194395688
0.000800347828471095
0.000303897278371104
2.22454820153706e-05
1.93531406497828e-05
0.000281443520266445
2.08088216593305e-05
0.000773039935400236
0.000289782597305865
2.25971341844013e-05
0.00134852047263297
0.000783691759140181
0.000299756285053858
2.37046435976688e-05
0.00193161799051776
0.00135680562902911
0.00079522267603367
0.000305841115561725
2.3493008952931e-05
0.00248631782421995
0.00193521670601596
0.00136308250750518
0.00080078136241214
0.000304460801363599
2.22684765716128e-05
0.00299745226091787
0.00248446677039186
0.00193319530547281
0.00136182625807726
0.000795692553720435
0.000296544496143655
2.06279472841482e-05
1.90784250918837e-05
0.000279652720701738
2.0567111840482e-05
0.000770207708933534
0.000288308557141443
2.23917301046052e-05
0.00134534684005913
0.00078159876525528
0.000298614813644185
2.35492928486344e-05
0.00192867889089202
0.0013547551646842
0.000793916159291263
0.000305120417442129
2.34027364048057e-05
0.00248411684977576
0.00193365920380732
0.00136214780201049
0.000800392924403653
0.000304394986938444
2.2246472988682e-05
0.00299651108912608
0.00248387147616625
0.00193293562098031
0.00136192833240266
0.000796201549696237
0.000297172406312377
2.06543400412845e-05
0.00346147572023007
0.00299155806741327
0.00247418713177823
0.00192233355767333
0.00134996425297242
0.000781728352372114
0.000286080565342999
1.89149362563379e-05
1.87574672640578e-05
0.000277499450520888
2.02760105851226e-05
0.00076662310266948
0.000286469280530779
2.21328905786809e-05
0.00134103880405385
0.000778734848904781
0.000297083415712007
2.33359589969716e-05
0.00192430052154913
0.00135156979987783
0.000791785996796016
0.000303941682313081
2.32507899226939e-05
0.00248024970277687
0.00193072271944553
0.0013600942491506
0.000799079973698604
0.000303678519423358
2.21645466128675e-05
0.00299369020816024
0.00248168496804924
0.0019313953956688
0.00136102384299465
0.000795865726209686
0.000297158700364152
2.06396164985147e-05
0.00346022020693568
0.00299064687214373
0.00247361108486041
0.00192209607132049
0.00135011267277158
0.000782310991339016
0.000286767765486881
1.89446163389978e-05
0.00388060625059026
0.00345347047791106
0.00297464074163013
0.00245287146038705
0.00189984836999734
0.00132709983389769
0.000761279368472147
0.000274045270114002
1.7120970221545e-05
1.83897807919814e-05
0.00027497510170128
1.99362071937378e-05
0.000762283009137587
0.000284262246540402
2.18209105614866e-05
0.00133559058244649
0.000775114214182967
0.000295180846083383
2.30671224101951e-05
0.00191844753179536
0.00134724514386122
0.00078887513024921
0.00030236833131518
2.30409394727641e-05
0.00247464768040982
0.00192634377928578
0.00135689494204617
0.000796924380276902
0.000302491088890732
2.20227309330502e-05
0.00298891903089609
0.00247782811875404
0.00192846963623775
0.00135898212303202
0.000794573852092427
0.00029647128110944
2.05680454399949e-05
0.00345681081998308
0.00298784512131719
0.00247144762558962
0.00192058447829363
0.00134925528808341
0.000782044041093466
0.000286816486780822
1.89374966922465e-05
0.00387904673707897
0.00345224913744151
0.00297375140543633
0.00245231240230061
0.00189963878546316
0.00132729981998377
0.000761936261250365
0.000274792383985852
1.71538218539151e-05
0.00425820467518474
0.00387130790895121
0.00343170092970463
0.00294396290485316
0.00241840695157903
0.0018651698244562
0.00129502684823115
0.000736313197867522
0.000260671211719427
1.52223821714214e-05
1.79750121664142e-05
0.000272058935456685
1.95466444333263e-05
0.000757164631003242
0.000281677121871354
2.14569545162581e-05
0.00132898611974072
0.000770731553985279
0.000292893130425528
2.27433180080431e-05
0.00191109181281134
0.00134177671249932
0.000785200802493915
0.000300420248749912
2.27758992530602e-05
0.00246725815372486
0.00192048812487105
0.00135255048763497
0.000793980824587867
0.000300908262508262
2.18250467614068e-05
0.0029821321236135
0.00247223563451278
0.00192409881845123
0.00135578513584832
0.000792424497846508
0.000295304137493257
2.0439210658592e-05
0.00345118430173531
0.00298309025394677
0.00246761533111888
0.00191768725123815
0.00134725196854629
0.000780802974912997
0.000286176556740133
1.88770025811891e-05
0.00387508429936548
0.00344886240092637
0.00297097979643937
0.0024501829856156
0.00189817198412592
0.00132650748522548
0.000761753081056048
0.000274913822795928
1.71544908673787e-05
0.00425635229551698
0.0038697861753681
0.00343050448661865
0.00294309113871281
0.00241786898891797
0.00186499534130901
0.00129528336551875
0.000737048025732672
0.000261483293643732
1.52579500108201e-05
0.00459781807738836
0.00424793570596895
0.00384594995087649
0.00339329796518086
0.00289787111287473
0.00237023250681185
0.00181905330888344
0.0012551430682051
0.000707362188446692
0.00024575621309619
1.3230934653474e-05
1.75127129881012e-05
0.00026873269193513
1.91070014416056e-05
0.000751239448246044
0.000278693610814861
2.10391159331081e-05
0.00132119248522519
0.000765567582528704
0.000290234382794919
2.23647300117178e-05
0.00190219538263023
0.00133514735170017
0.000780754205165055
0.000298079955524447
2.2456378320363e-05
0.002458031932723
0.00191312772403759
0.00134705799653816
0.000790269345594416
0.000298951742733139
2.1574320342148e-05
0.00297326960210064
0.00246485667214757
0.00191825074026558
0.00135143953872489
0.000789484189984168
0.000293743259128482
2.0257366205858e-05
0.00344327994649551
0.00297632146375044
0.00246205062918902
0.0019133463628642
0.00134408933202994
0.000778695876157203
0.000285050336337237
1.87622065444134e-05
0.00386865915631003
0.00344325662330132
0.00296626094523376
0.00244639565304422
0.00189532875688903
0.00132457148452782
0.000760587597895635
0.000274335399110209
1.71055569651891e-05
0.00425187150373502
0.00386584940372338
0.00342715370183337
0.00294036122088076
0.00241578833925017
0.00186359072231147
0.00129457222005552
0.000736962875496233
0.00026168914640602
1.52663349572416e-05
0.00459568366370819
0.00424612433872096
0.00384445584811407
0.0033921211774854
0.00289701964452175
0.00236972255967645
0.00181892045082097
0.00125546129914723
0.000708181433176462
0.000246637665599089
1.32681855728269e-05
0.00490270463728163
0.00458665030722163
0.00421962730084089
0.00380110297681411
0.00333661146480148
0.00283585572959403
0.00230839103328659
0.00176201958881176
0.00120780746198755
0.000674234725408104
0.000229130691514973
1.11845136688825e-05
1.70024201560532e-05
0.000264974320500981
1.86168429979042e-05
0.000744467860841074
0.000275292328946907
2.05676851048291e-05
0.00131216364238472
0.000759588765433127
0.000287157790545689
2.19301718067459e-05
0.00189170751564847
0.00132732469897733
0.000775522193701054
0.000295363316394688
2.20822425571708e-05
0.00244691030339774
0.00190422539483105
0.00134039926207648
0.000785779222473511
0.000296610740186746
2.12715262313607e-05
0.00296226475528365
0.0024556422361413
0.00191089780084497
0.00134594421028639
0.00078577638998981
0.000291813150876883
2.00254158987215e-05
0.00343303110461039
0.00296747974071953
0.00245470379065588
0.00190753148092503
0.00133977928774952
0.000775798777925325
0.000283533529288427
1.85974764749784e-05
0.00385971024816521
0.00343537547356421
0.00295953561814045
0.00244088591979134
0.00189105019216876
0.00132147939974199
0.000758552340567917
0.000273264323126089
1.70056977215816e-05
0.00424470090706536
0.00385944744622898
0.00342159242459096
0.00293570199829478
0.00241207121810949
0.00186082892297802
0.00129272919306436
0.000735893515722092
0.000261185190957797
1.52293769125744e-05
0.00459071618032562
0.00424167166399306
0.00384055979875657
0.0033888193957977
0.00289434583326925
0.00236770718483046
0.0018175943716882
0.00125484604353916
0.000708209262362079
0.00024693817284929
1.32834391525589e-05
0.00490029910519234
0.00458455993572851
0.00421784622502616
0.00379963108893043
0.00333545674200291
0.00283503107859635
0.00230791589287045
0.00176193400821606
0.00120819283015529
0.000675144100180034
0.000230074881583215
1.12222245652102e-05
0.00517580807169593
0.00489064014070358
0.00455566304150981
0.00416912523189246
0.00373483300094103
0.00326117067816426
0.00275761408480038
0.00223262927376519
0.00169387670782007
0.00115264974134402
0.000636512473170102
0.000210699713890456
9.13726254382483e-06
1.64435038092584e-05
0.000260757888351297
1.80755883682008e-05
0.0007368032277594
0.000271451835325246
2.00419610148366e-05
0.00130184038634874
0.000752755990776927
0.000283650680171649
2.14396749818137e-05
0.00187956162405724
0.0013182615231887
0.00076946203173635
0.000292220225873971
2.16530444144815e-05
0.00243381904872636
0.00189372984809123
0.00133254229501315
0.000780497330275
0.000293879700451881
2.09166742042963e-05
0.00294903814758331
0.00244453361894408
0.00190200282052617
0.00133928034874991
0.000781292330761777
0.000289508673574698
1.97446546802197e-05
0.00342035867087154
0.00295649945103102
0.00244552623545444
0.00190021576618045
0.00133432292126045
0.000772139229613252
0.000281654648164914
1.83858852363885e-05
0.00384816722308511
0.00342515451949043
0.00295074559705114
0.0024336043281442
0.00188530703512597
0.00131724689278877
0.000755731360057999
0.000271806012939095
1.68591869238895e-05
0.00423477997094443
0.00385052563653271
0.00341376606758232
0.00292905285131325
0.00240665060430497
0.0018566484872582
0.00128974013162002
0.000733953553102941
0.000260181884138774
1.51452975938095e-05
0.00458285124295718
0.0042345270425363
0.00383420874111511
0.00338333009024618
0.00288977308948545
0.0023640872436737
0.00181493989367407
0.00125311842990625
0.000707255237556949
0.000246523735478821
1.32584042725128e-05
0.00489487469343685
0.0045796230616613
0.00421343865344352
0.00379579093096429
0.0033322196573203
0.00283243005783989
0.00230598241307006
0.00176070174966921
0.00120768766026043
0.000675298268108672
0.000230469003100677
1.12465548241221e-05
0.00517314298388294
0.00488828154766031
0.00455360580721942
0.00416736943419437
0.00373338634130864
0.00326004494880843
0.00275682333802595
0.00223219500837705
0.0016938433798432
0.00115310624711741
0.000637509059118869
0.000211680632782277
9.18199837892009e-06
0.00541981985008253
0.00516285725182985
0.00485711222708753
0.00449998391864084
0.00409408096730841
0.00364667746050156
0.00316659875043594
0.00266238734539254
0.00214211760870096
0.00161377846007594
0.00108882106799127
0.000593642156867534
0.000190386353743187
7.15402547545414e-06
1.58354087395624e-05
0.00025605349944615
1.74825130505299e-05
0.000728190959936882
0.000267146348929121
1.94611675881124e-05
0.00129015301088751
0.000745023372095757
0.000279691560548966
2.08924635754798e-05
0.00186567614909547
0.0013078985702086
0.00076253491123861
0.000288637775963062
2.11680391179701e-05
0.00241866785945355
0.00188157411249813
0.00132343740831068
0.000774378731052988
0.000290727759803188
2.05091495551622e-05
0.00293349343159009
0.00243145706274853
0.00189151437000366
0.00133141530799062
0.000776012003284303
0.000286813245332524
1.94150249926003e-05
0.00340516512502541
0.00294330142787979
0.00243445964107415
0.00189136220817217
0.0013277021769713
0.000767711462213943
0.000279410727762249
1.81289412215941e-05
0.00383394012217734
0.00341251536043405
0.00293982613373535
0.0024245027813149
0.00187807340464437
0.00131187747197621
0.000752157136864449
0.000269994999365244
1.66693723489482e-05
0.00422203228421225
0.00383901534739665
0.00340361147352439
0.00292035549187806
0.00239947653662226
0.00185102034354238
0.00128562328055171
0.000731234624985973
0.000258795748626004
1.50182774659564e-05
0.00457202575433983
0.00422463594141161
0.00382535052875242
0.00337559744850484
0.00288323815995026
0.00235879262393707
0.00181089192690233
0.00125026074055114
0.000705432031524776
0.000245602815740408
1.31906556278933e-05
0.00488636304920495
0.00457178652930768
0.00420635086481305
0.00378952278143817
0.00332683268485959
0.00282797231880732
0.00230248662426882
0.00175817889213038
0.00120609658760362
0.000674479491952773
0.00023016436154349
1.12321914972586e-05
0.00516729041211158
0.00488289028749121
0.00454871853970826
0.00416302472425733
0.0037296202531672
0.00325689088499857
0.00275431284198595
0.00223035990895708
0.00169271964649805
0.00115272384473552
0.000637792217975312
0.000212101343626448
9.21981575246537e-06
0.00541690780648195
0.00516024186332562
0.00485478984386436
0.00449795561837833
0.00409235472976229
0.00364526413145116
0.00316550997530408
0.00266163733519689
0.00214172989747479
0.00161380158117771
0.00108934792811958
0.000594698094414288
0.000191208066801222
7.20846590347443e-06
0.00563721411858194
0.00540601898648557
0.00512691424725515
0.00479660537072308
0.00441682494516975
0.00399400623028308
0.00353632207082482
0.00305189444494926
0.00254882184424219
0.00203543014287431
0.00152026107108838
0.00101499369110695
0.000544796696129715
0.000167946298987939
5.28351652878116e-06
1.51770763579069e-05
0.000250824593565645
1.68371245494766e-05
0.000718567635644551
0.000262345590753245
1.8824584251057e-05
0.00127701797183568
0.00073633602118141
0.000275253953941055
2.02877264719303e-05
0.00184995539537822
0.00129616542422913
0.000754694913555455
0.000284593497455812
2.06266522271474e-05
0.00240135202713729
0.0018676764531127
0.00131302484421722
0.000767383464519907
0.000287135333266484
2.00481279547e-05
0.00291551680911649
0.00241632253369023
0.00187936493418449
0.00132229844367241
0.00076989530753658
0.00028370562053412
1.90359941646621e-05
0.0033873330149836
0.00292778959352815
0.00242143079773758
0.00188091929396586
0.00131988334904849
0.000762491481360788
0.000276785202182377
1.78266148651566e-05
0.00381691571567827
0.00339736089408386
0.00292669892033981
0.00241352364680367
0.00186931292454756
0.00130535470612815
0.000747826693815676
0.000267831010402228
1.64377699351494e-05
0.00420635895268178
0.00382482756734605
0.00339105131030745
0.00290954596765433
0.00239050146356112
0.00184391955150652
0.00128038492521285
0.000727775512623689
0.000257068613110464
1.48516945383763e-05
0.00455815907682196
0.00421192503354989
0.00381391805943657
0.00336555854531654
0.00287468201316835
0.00235177242740394
0.0018054210235586
0.00124629337261845
0.000702839466907815
0.000244305293713493
1.30841729288274e-05
0.0048746981233985
0.00456099413264776
0.00419653109267499
0.00378077367349613
0.00331923774985853
0.00282159203103366
0.00229735517147032
0.00175429603896898
0.00120339718258087
0.000672796001817446
0.000229346101836577
1.11794764327825e-05
0.00515817775837885
0.00487440969314596
0.00454094476001619
0.00415603046456679
0.00372347024386887
0.00325163829725815
0.00274999959245721
0.00222701530795479
0.0016903523012118
0.00115129008938294
0.000637128430402651
0.000211938506621463
9.22042397876899e-06
0.00541065538332654
0.00515442498382779
0.00484945291938861
0.00449313856888121
0.00408809424726277
0.00364159321232919
0.00316245888733147
0.00265923590261279
0.00214001002785863
0.00161280070781768
0.00108909554903945
0.000595073277279215
0.000191607275837779
7.25544323078994e-06
0.0056340677688226
0.00540315907373857
0.00512433827423981
0.00479431609704237
0.00441483151147759
0.00399231938790003
0.00353495150218343
0.00305085069696399
0.00254811958556048
0.00203509496814212
0.00152034364211293
0.00101557831141875
0.000545801814380813
0.000168584180924308
5.33802966991111e-06
0.00583025077677045
0.00562261974474405
0.00536781231787536
0.00506190488291597
0.00470592381851658
0.00430564966152233
0.00386869599996389
0.00340269994576421
0.00291536487290566
0.00241498928035455
0.0019104838190041
0.00141113963272962
0.000929137797539997
0.00048850352787247
0.000142693310880042
3.53010693609259e-06
1.44686978151425e-05
0.00024502512990086
1.6138659578663e-05
0.000707856532605824
0.000257012719662009
1.81316623872027e-05
0.00126234285128023
0.000726629296822512
0.000270307052311747
1.96245287647987e-05
0.00183228917412716
0.00128297911457634
0.00074588628690411
0.000280059818001508
2.00280572949334e-05
0.00238174854853186
0.00185194072294025
0.00130123348512838
0.000759463573168503
0.000283078182345522
1.9533118603869e-05
0.00289497714160694
0.00239902423755678
0.00186547238053581
0.00131186902387534
0.000762899940407907
0.000280161085976889
1.86066365332664e-05
0.00336672537993212
0.00290985034362294
0.00240635000807243
0.00186881934258272
0.00131081606887233
0.000756442555234586
0.000273756008843412
1.74784698555827e-05
0.00379695720274137
0.00337957405347001
0.00291126880582136
0.00240059455806138
0.00185897439625037
0.00129764456805162
0.000742716109743519
0.000265297266247296
1.61646069795676e-05
0.0041876326249188
0.00380784954097715
0.00337598966000384
0.00289654724933629
0.00237966868862885
0.00183531095711836
0.00127401081006335
0.000723576811128604
0.000255001978610547
1.46472766411712e-05
0.00454114287568469
0.00419629597707406
0.00379982364011399
0.00335313720076133
0.00286404144757586
0.00234297963603308
0.00179850338442333
0.00124122603995715
0.000699523821258486
0.000242678935499734
1.29422008638466e-05
0.0048597941866753
0.00454716797208275
0.00418390813031229
0.0037694771387704
0.00330937159771781
0.00281322923365948
0.00229053610806088
0.00174902321835317
0.00119961202997494
0.0006703562296452
0.00022815616476795
1.10935450217633e-05
0.00514573564116401
0.00486278104868717
0.00453023145638955
0.00414633437683045
0.00371488155386717
0.0032442272568348
0.00274381559693494
0.00222208457511903
0.00168666708819511
0.0011487765038331
0.000635611446221635
0.000211280453532086
9.18308173166323e-06
0.00540098584022411
0.00514534610262603
0.00484104122301243
0.0044854691000885
0.00408123425152826
0.00363559829106138
0.00315737407085914
0.00265509790149023
0.00213684455052473
0.00161061294827609
0.00108783828606312
0.000594575105326515
0.000191556359149573
7.2698756999152e-06
0.00562744344931365
0.00539694481397837
0.00511858058377281
0.0047890571186914
0.00441010956016424
0.00398816766785766
0.00353139864138685
0.00304792395992064
0.00254584709900041
0.00203350834454135
0.0015194790866517
0.00101544891585245
0.000546144561739607
0.000169014834704488
5.39081438995816e-06
0.00582688388525004
0.00561952814780396
0.00536499503509244
0.00505936653926425
0.00470367545008312
0.00430370295774061
0.00386705981295678
0.00340138184236416
0.00291437485610709
0.00241434302812229
0.00191020857943147
0.00141128301058513
0.000929743113857366
0.00048931232603147
0.000143277463176553
3.57968923865087e-06
0.00600097033466517
0.00581493096044288
0.00558232651413764
0.00529864051901629
0.00496427783253706
0.00458447813436278
0.00416636949339078
0.0037171142056027
0.00324394706272203
0.00275474020019561
0.0022583301586533
0.00176440216655505
0.00128326697214207
0.000828067749194217
0.000422081421307805
0.000113550663644529
1.95800155889056e-06
1.37123804968297e-05
0.000238613845079988
1.5387037300534e-05
0.000695968158097142
0.000251100311617132
1.73815258240104e-05
0.00124602172299148
0.000715825942915093
0.000264812199470813
1.89020969323581e-05
0.00181255463493113
0.00126824514909388
0.000736042680684067
0.000275002120426468
1.93712043711411e-05
0.00235972027197528
0.00183425642580247
0.00128797974049143
0.000750562123717694
0.000278527297247174
1.89632909610666e-05
0.00287172617194411
0.00237943972653119
0.00184974008575595
0.00130005476077216
0.000754975983568101
0.000276154790085432
1.81265399508513e-05
0.0033431860990473
0.00288935260671428
0.00238911126625147
0.00185497991321119
0.00130043824717113
0.000749519857659438
0.000270297892189659
1.70835438223603e-05
0.0037739055310306
0.00335901813814892
0.00289342293351558
0.00238562647350791
0.00184699048421473
0.00128869745140706
0.000736788455630815
0.000262371245568502
1.58494977337121e-05
0.00416569875802696
0.00378794492855225
0.00335831069776276
0.00288126564664504
0.00236690708077742
0.00182514429261936
0.00126646783409011
0.000718615216385832
0.000252579888925047
1.44054410718325e-05
0.00452083697875098
0.00417762203924891
0.00378295594837797
0.00333823924772178
0.00285124098518393
0.00233235875166028
0.00179010551584005
0.0012350472874675
0.000695489000991246
0.000240728698014072
1.27666427468215e-05
0.0048415342661012
0.00453020078173376
0.00416838512130019
0.00375554703392026
0.00329715921630914
0.00280282154003086
0.00228198315341595
0.00174233814746014
0.00119475490596634
0.000667213136356376
0.000226650586070985
1.0976568990808e-05
0.00512987351073172
0.00484792153925561
0.00451650303165707
0.00413386634163136
0.00370378790303102
0.00323459425043913
0.00273570012505471
0.00221551486197095
0.00168163351808137
0.00114520761174852
0.000633353926116397
0.000210236760125109
9.11338427822243e-06
0.00538782697531239
0.0051329435915189
0.00482949952835866
0.0044748939643251
0.00407172108006699
0.0036272234504954
0.00315019451958657
0.00264915344298573
0.00213215351557065
0.00160715887407662
0.00108553889986285
0.000593262269898435
0.000191108598578693
7.25037967651319e-06
0.0056172604721167
0.00538731188446565
0.00510957686922899
0.00478076073074435
0.00440259085285957
0.00398148445338506
0.0035255970506799
0.00304304220748545
0.00254191721622274
0.00203055165255842
0.00151749532266561
0.00101438105170418
0.000545763131533305
0.000169077513315613
5.41669318695977e-06
0.00581991528984981
0.00561294434361547
0.00535884478824696
0.00505369470641261
0.00469852292104727
0.00429910435417285
0.00386304316939065
0.00339797154029165
0.00291159580614559
0.00241222178722105
0.00190877548183611
0.00141056630557493
0.000929709144355866
0.000489741781507498
0.000143796974052473
3.6332237888731e-06
0.00599739702563345
0.00581162117867712
0.00557928082543511
0.00529586555022374
0.00496178689381914
0.00458228469994615
0.0041644827993203
0.00371554019943812
0.00324269188559029
0.0027538143631509
0.00225775118654243
0.00176419745840528
0.0012834710298018
0.000828639170062714
0.000422894744237768
0.0001141928927011
1.99802055763858e-06
0.00615119024158214
0.00598499735402356
0.00577274280223379
0.00550935026581569
0.00519464945099614
0.00483339975428017
0.00443229280024077
0.00399802709377937
0.0035373471197925
0.00305761902530335
0.00256718338533115
0.00207555513558909
0.00159334895695798
0.00113219427193711
0.000706880682443194
0.000341554835009683
7.95537369346774e-05
7.5948919467967e-07
1.29147832004487e-05
0.000231520392389082
1.45838048409447e-05
0.000682814728514557
0.000244556391702913
1.65729266181816e-05
0.00122794582579755
0.000703833543110966
0.000258712003436572
1.8119229778863e-05
0.00179062220173607
0.0012518576818896
0.000725084027363019
0.000269376981959985
1.86549101576562e-05
0.00233511571482973
0.00181450051459993
0.00127316759229853
0.00074060945371104
0.000273445284597707
1.83376251794995e-05
0.00284559710765244
0.002357431168425
0.00183205708027839
0.0012867708947148
0.000746064045753533
0.00027165837589719
1.75947664736349e-05
0.00331653891827382
0.00286614772571121
0.00236959219744332
0.00183930382395538
0.00128867644789705
0.000741672423508177
0.000266385860684184
1.66412957599384e-05
0.00374757996330164
0.00333553711813621
0.00287303070377743
0.00236851367900134
0.00183327862399261
0.00127845047634322
0.000729998199149733
0.000259028546786524
1.54915005067768e-05
0.00414037747885248
0.00376495505434649
0.00333787883367118
0.00286358961454918
0.00235212868329914
0.0018133527934402
0.00125770671288777
0.000712853920655402
0.00024978218532782
1.41259038551735e-05
0.00449707046959773
0.00415574920992853
0.00376318016077682
0.003320750834599
0.00283618883337155
0.00231984032272058
0.00178017872504903
0.00122772556346416
0.00069071381379539
0.000238443224305289
1.25578973359308e-05
0.00481976620935865
0.00450995302581594
0.00414983699948985
0.00373887421110163
0.00328250855575547
0.0027902952775982
0.00227164231430285
0.0017342095511938
0.00118881768820391
0.000663375964636105
0.000224840432179576
1.08303048823693e-05
0.00511046552559751
0.00482971543425692
0.00449965406094671
0.00411853144816556
0.00369010484643722
0.00322266558947556
0.00272559182831644
0.00220726079359524
0.00167523145212371
0.00114060135113713
0.000630416749546703
0.000208887361709522
9.01558554947947e-06
0.00537108227487124
0.00511712965556147
0.00481474754948152
0.004461338996111
0.00405948531506957
0.00361640283596278
0.00314085686940112
0.00264134171862992
0.00212588341802122
0.00160240768470262
0.00108222212861723
0.000591230013799636
0.000190330113594581
7.2016994590384e-06
0.00560344264893925
0.00537419566424227
0.00509726919333746
0.00476937167117806
0.00439222108457465
0.00397221551333694
0.00351749061497237
0.00303614398532013
0.00253625835546715
0.00202614153454346
0.00151430710910901
0.00101232353074076
0.000544680902770711
0.000168775515462696
5.41208127753066e-06
0.00580926021997566
0.00560280036871987
0.00534929323542438
0.00504481732591825
0.00469039396439895
0.00429178469315604
0.00385658029617767
0.00339240354692536
0.00290695525974441
0.0024085360032875
0.00190605987457893
0.00140881013648539
0.000928827330083702
0.000489550805023814
0.000144003419936747
3.6652869583644e-06
0.00599011048149556
0.00580469517769724
0.00557276570755936
0.00528980903474922
0.00495623303697675
0.00457727063960408
0.00416003744596673
0.00371168651159583
0.00323945086963806
0.00275120928188263
0.00225580763716307
0.00176294162946185
0.00128291265044594
0.000828690781184313
0.000423472959305225
0.000114847402071517
2.04268704257757e-06
0.00614742446069875
0.00598148320400878
0.00576948210234843
0.00550635162721074
0.00519192860475652
0.00483097246394136
0.00443016967378368
0.00399621383481343
0.00353584755017838
0.00305643916650875
0.00256633591388014
0.00207506006022887
0.0015932309813803
0.00113246726554994
0.000707524783602517
0.000342516226062056
8.02843739248567e-05
7.81786084010163e-07
0.00628250889895863
0.00613463649890637
0.00594110967142113
0.00569632813066636
0.0053995798126391
0.00505517711263248
0.00466940536131991
0.00424851220929938
0.0037987373912454
0.00332690992288314
0.00284078873656124
0.00234927047877275
0.00186261182458173
0.00139245298576263
0.000952107767104651
0.000559584067862635
0.000242176167790518
4.11141276272803e-05
1.45353851315244e-07
1.21004485600456e-05
0.000223697957216235
1.37328603747796e-05
0.000668328385577733
0.000237272025529205
1.57068382249732e-05
0.00120802388091409
0.000690555794791564
0.000251929331083761
1.72736954489823e-05
0.00176636254967524
0.00123370626266929
0.000712910679276906
0.000263116803928391
1.78774407094107e-05
0.00230777557929392
0.00179254209850559
0.00125668985676859
0.000729520287619029
0.0002677811099199
1.76545811230526e-05
0.0028164089043755
0.0023328471094728
0.00181229973545745
0.00127191921785513
0.000736090998785864
0.000266632268829515
1.70102622921569e-05
0.00328658921847555
0.00284006954791502
0.00234765477854151
0.00182167934505693
0.00127544472581612
0.000732838971883071
0.000261989207331735
1.61507026313517e-05
0.00371777752024363
0.00330895532632567
0.00284994375591633
0.00234913388462498
0.00181774106827984
0.0012668290086419
0.000722292955986256
0.000255240665273955
1.50898963474836e-05
0.00411146430519793
0.00373869946862636
0.00331453893555518
0.00284338955466373
0.00233522843956929
0.00179985404414579
0.00124766436785363
0.000706247491003954
0.000246584100156997
1.38077806628273e-05
0.00446964386473809
0.00413049806828982
0.00374033900788881
0.00330053825580891
0.00281877527385401
0.00230533784457967
0.00176865694160205
0.00121921227410288
0.000685163711348011
0.000235804658199039
1.2315878400556e-05
0.00479430387793004
0.0044862543707064
0.00412811151320573
0.00371932627696872
0.00326530830382037
0.00277556095508028
0.00225944620869079
0.00172459077531416
0.00118177134743245
0.000658828612723463
0.000222715430871771
1.06553990561408e-05
0.00508734877023748
0.00480801130030628
0.00447954690951074
0.00410020721571077
0.00367372592748392
0.00320835166896924
0.0027134191907234
0.00219727087726522
0.0016674323695986
0.00113495412055539
0.000626816669118409
0.00020724849456464
8.89307239357284e-06
0.00535061906261517
0.00509778038757854
0.00479667170327409
0.00444470113334831
0.00404443429012005
0.00360305399060505
0.00312928909485688
0.00263160237889511
0.002117990356309
0.00159634155173788
0.00107791045280164
0.00058854681674453
0.000189260495295681