/*--------------------------------*- C++ -*----------------------------------*\
  =========                 |
  \\      /  F ield         | OpenFOAM: The Open Source CFD Toolbox
   \\    /   O peration     | Website:  https://openfoam.org
    \\  /    A nd           | Version:  12
     \\/     M anipulation  |
\*---------------------------------------------------------------------------*/
/*   Windows 32 and 64 bit porting by blueCAPE: http://www.bluecape.com.pt   *\
|  Based on Windows porting (2.0.x v4) by Symscape: http://www.symscape.com   |
\*---------------------------------------------------------------------------*/
FoamFile
{
    format      ascii;
    class       volScalarField;
    location    "400";
    object      omega;
}
// * * * * * * * * * * * * * * * * * * * * * * * * * * * * * * * * * * * * * //

dimensions      [0 0 -1 0 0 0 0];

internalField   nonuniform List<scalar> 
10068
(
2.46683683998502
2.46683818538162
0.716187671501719
2.38166593315721
2.46684523249578
0.715294164490938
2.3816771757778
0.409001441043902
0.700785961129565
2.28698514551086
2.46684443991464
0.714490701671597
2.38168113103689
0.408465470009217
0.6997773956126
2.2869956207504
0.301297864940039
0.404337372241128
0.680971802818562
2.21611134704557
2.46684094122156
0.713727740132403
2.38168004091763
0.407838425305926
0.698942492897638
2.28699532346001
0.300928014256722
0.403792473755957
0.679847615284562
2.21610975363103
0.250232381490263
0.299553978009214
0.397339172052925
0.664397272349794
2.18722197064603
2.46684043373594
0.712904361190135
2.38167794855079
0.407139327948574
0.69821923973543
2.28699493440643
0.300446874720832
0.40316470253379
0.678977565223231
2.2161087422714
0.249938145213607
0.299186886960165
0.396778487120869
0.663182468561153
2.18721968060057
0.222024780178264
0.249528014683433
0.296510032020779
0.390341721049101
0.65428482891573
2.18619544350155
2.46684337501648
0.711939398187782
2.38167798706467
0.406340718284113
0.697444278120237
2.2869944390832
0.299870782622809
0.402474025205605
0.678302963151439
2.21610834368018
0.2495407595371
0.29870758522293
0.396149231709478
0.662293318342816
2.18721873502843
0.221770833393202
0.24923711370725
0.29614393338028
0.38976448676885
0.652987990560232
2.18619397466643
0.20501918974687
0.221728068871497
0.248021893180112
0.292914465025874
0.384653341863285
0.648445171662844
2.19192955382687
2.46684015814959
0.710790064878835
2.38167985509075
0.405411313216734
0.696524017428235
2.28699401889327
0.299194198722091
0.40168608429234
0.677581719934322
2.21610824685199
0.249050401791865
0.298134644105265
0.395473145992087
0.661662333605426
2.1872182804528
0.221422852902847
0.248841182617222
0.295667397979973
0.389133741273174
0.652073436725576
2.1861930674093
0.20478930992225
0.221477054303008
0.247734001209268
0.292547553311257
0.38405874326452
0.647066819749084
2.19193189178483
0.194218989881265
0.20487124698874
0.220885529109008
0.245954314222236
0.289351098377783
0.379980575581121
0.643210160343371
2.19485294959253
2.4668373554342
0.709442443658353
2.38168875067277
0.40432991912385
0.695417343943922
2.28699246124887
0.298404707464389
0.400768453553545
0.676713640989977
2.21610790901664
0.248465354027716
0.297462035745711
0.394704104353226
0.660994482917789
2.18721838962744
0.220987662796178
0.248352274558933
0.295100250844358
0.388471977092634
0.65147097384391
2.18619244192416
0.204472161894032
0.221130071905421
0.247340427165192
0.292073397148964
0.383423143807128
0.646114083698606
2.19192870397235
0.194004365435388
0.204644019510435
0.220637317134732
0.245668301231467
0.288982193683569
0.379367708604901
0.641748864088347
2.19485741541291
0.187161660781314
0.194119666283698
0.204316665866475
0.219570687383756
0.243592878225202
0.285907627445739
0.375377880396312
0.63660214125168
2.1951261809074
2.46683786431622
0.707887448919166
2.38167581369062
0.403080247661491
0.694110868010948
2.28700209006612
0.297489371178448
0.399698883124443
0.675656971193043
2.21610621533224
0.247778891141999
0.29667702458055
0.393806827288393
0.660178590254553
2.18721847560258
0.220463611835001
0.247768884099547
0.294434930162827
0.387723343178519
0.65085037616053
2.18619276355117
0.204072930686715
0.22069555793444
0.246854197441738
0.291512523795069
0.382770996595363
0.645526636108107
2.19192570555882
0.193707272570701
0.204327644119612
0.220291989399497
0.245277140543937
0.288509101331719
0.378723253330872
0.640746057594876
2.19485159244767
0.186957033324132
0.193907549145545
0.204091935832292
0.219324461740671
0.24330808503734
0.285536244083455
0.37474624093094
0.635053153020757
2.19513057495491
0.182512346562961
0.187081129174766
0.193693248868
0.203387742590159
0.217924400810873
0.24108175472831
0.282371965661462
0.37020067425491
0.6283217192723
2.19480463381858
2.466841259577
0.706127371358282
2.38167868737284
0.401650651905935
0.692597253119299
2.28697915840407
0.296436132282174
0.39846200051913
0.674418301549142
2.21610195710443
0.246982435056383
0.295766572779846
0.392758484707869
0.659173897314782
2.18721625131301
0.219845937411322
0.247084340148956
0.293658012919298
0.386848644421888
0.650084356486669
2.18619352947123
0.203589725799719
0.220172225251861
0.246273903612768
0.290855818359911
0.382039748961714
0.64494552790408
2.19192822382158
0.193332160477306
0.203928792185222
0.21985880630271
0.244794186447106
0.287953340572012
0.378075814586088
0.640162539012258
2.19484598445933
0.186673398321702
0.193611142442628
0.203776808352445
0.21898097835075
0.24291901135935
0.285062980192848
0.374089944891267
0.63398814402926
2.19512417386355
0.182314387097291
0.186878919558529
0.193483454131192
0.203164775546554
0.217679823493773
0.240798091631845
0.281998080608771
0.369549406410429
0.626672038992308
2.19480689705106
0.179490316700029
0.182445620643145
0.186723619465702
0.192978539297482
0.202184754195933
0.216085573144794
0.238440492306605
0.27855118976867
0.364240960026028
0.618534882275495
2.19480229569329
2.46684321754498
0.704155921067014
2.38168069544908
0.400029719029649
0.690878325412897
2.28699600402422
0.295234244623719
0.397045066932524
0.672944428458707
2.21609414455545
0.246067148752027
0.294718867364746
0.391545572170086
0.657992244493402
2.18721434933317
0.219128304121338
0.246290108937885
0.292756512902043
0.38582448848206
0.649131083005855
2.18619226598453
0.203018462232069
0.21955537069054
0.245592871227313
0.290088965566595
0.381185813982079
0.644226361737526
2.19192979258896
0.192876952558799
0.203445902941764
0.219336845950731
0.244217985726182
0.287304747277358
0.377358079801953
0.639614222907646
2.19485080486594
0.186314880868927
0.193236291933192
0.20337870684213
0.218549661104536
0.24243935637189
0.284510947938357
0.37344381841556
0.633399113359928
2.19511812299403
0.182039974780805
0.186595920641549
0.193188104156022
0.202851055162112
0.217338240406745
0.240410878780911
0.281523934075941
0.368878734648348
0.625528633511107
2.19479832163044
0.179296805663212
0.182250010155495
0.186523626107443
0.192770326116323
0.201963305944077
0.215842766955137
0.238158176743149
0.278174860657869
0.363568011525411
0.616767194347105
2.19480464668431
0.177606559805763
0.179438140715692
0.182138161875757
0.186147840853217
0.192071371627959
0.200835692396003
0.214147550702193
0.235659751533363
0.274376471139578
0.357492755259979
0.607251716116347
2.19513011128507
2.46684006920216
0.701969530822468
2.38167915310776
0.398206848570941
0.688948681859166
2.2869973901579
0.29387362055332
0.395438385814028
0.671285298536303
2.21611020680488
0.245024291053914
0.293523125589038
0.390152744672567
0.656578540199302
2.18721773344657
0.218303776603316
0.245377348031801
0.291718999942437
0.384638465544025
0.647991525343324
2.18619302824926
0.202354009494888
0.218838691824385
0.24480265632895
0.289198774417514
0.380184807921877
0.643323887855938
2.19193255131371
0.192337945686877
0.202874990713785
0.218721539936123
0.2435417932894
0.28654806243092
0.376522344463078
0.638938149813418
2.19485314578327
0.185879404520584
0.192781252414533
0.202896450268597
0.2180298018273
0.241867663082543
0.283869486121318
0.372737137609937
0.632878970544847
2.19512323872234
0.181693152842712
0.186237617371607
0.192813749311517
0.20245410508912
0.216909150147089
0.239934390834316
0.280974787730683
0.368231686707821
0.624924803469913
2.19479230096309
0.179028784052615
0.181976192755753
0.186241574418068
0.192476108935179
0.201651119029451
0.215503218799141
0.237772811267096
0.277699437980474
0.362879967238981
0.615528124641725
2.19480258600432
0.177415936542112
0.179246920921635
0.181944680603909
0.185949286363631
0.191864468237086
0.200615928295003
0.213906835786125
0.235379060676815
0.273997670112832
0.356795762344251
0.605363024287768
2.19512597727103
0.176535468442451
0.177569555040971
0.179174680182069
0.1816684728196
0.185458170079038
0.191093557167461
0.199453716448436
0.212179884050712
0.232769632084867
0.269882394835041
0.349991997190836
0.594281076666164
2.19485513046577
2.46683949517432
0.699566825682345
2.38167602918766
0.396171563227276
0.686802740572746
2.28699441993872
0.29234465677784
0.393631182437801
0.669422067308532
2.216110871224
0.243845475506174
0.292169479710448
0.388574302573418
0.654985791251429
2.18721976470029
0.217365317363306
0.24433738142133
0.290534699517049
0.383275552952054
0.646648461026151
2.18619246702189
0.201590684844724
0.218015277874278
0.24389454975836
0.288174146114209
0.37902383099755
0.642231254820417
2.19192973869256
0.191710666641792
0.202210934085224
0.218006670901068
0.242757221199839
0.285669832112737
0.375542781892074
0.638083333187207
2.19485851733039
0.185363482710073
0.192242390467011
0.20232621182777
0.217416951572826
0.241197098864787
0.283122518856856
0.371918178228924
0.63224452635378
2.19512811962
0.181271884579343
0.18580222607822
0.19235900762072
0.201972975319769
0.216391993758967
0.239367321099067
0.280339929381655
0.36753500455698
0.624429595420872
2.19479756934893
0.178690309484366
0.181629533538148
0.185883626074527
0.192102505627966
0.201255683778403
0.215076614007033
0.237299471383904
0.27715283597258
0.362230052799781
0.614895551273223
2.19479693971644
0.177152317966372
0.178979449935493
0.181671717012236
0.185668165158928
0.191571443137715
0.200305472981339
0.213569528238037
0.234995618081191
0.27352065221392
0.356087605478435
0.604027568092631
2.19512400803879
0.176346578718599
0.17738117435469
0.178985505110317
0.181476294822981
0.185260707111076
0.190888073301216
0.199235943338402
0.211941601743471
0.232490924307989
0.269501222189744
0.349271721140874
0.592302976771915
2.19485278168063
0.176049086157714
0.176513206981539
0.177346698383265
0.178794611489506
0.181152631895039
0.184775341128667
0.190161458248052
0.198142302741255
0.21027449938793
0.229870179501486
0.265186408298715
0.341795145662352
0.579263515082156
2.19192953800729
2.46684120423287
0.696950259472668
2.38167932534217
0.393913540817021
0.684437630678814
2.28699279764478
0.290637938609185
0.391612536262522
0.667348341881733
2.21610787293245
0.242522624762086
0.290648368673687
0.38679932699939
0.65319575477698
2.18722121319523
0.216305962499518
0.24316188797178
0.289194346491268
0.381731038387642
0.645120892997439
2.18619256197444
0.200722600696129
0.217078091187599
0.242859982939236
0.287004614656727
0.377691258113139
0.640951283506758
2.1919279405079
0.190990239171905
0.201448061225541
0.217185393452994
0.24185571106183
0.284659059003191
0.374405652694004
0.637041013992505
2.19485350026034
0.184763075795607
0.191615253222792
0.20166293622959
0.216704986702303
0.240419286255774
0.282256235496492
0.370959164642638
0.631435525778098
2.1951298275127
0.180772891759933
0.185286337572503
0.191820390292245
0.201403982517468
0.215782417576674
0.238702790490346
0.279602570749455
0.366732713700973
0.623835327184981
2.19480250903702
0.178279444721694
0.181208289990737
0.18544833428062
0.191648341338538
0.200776182877452
0.214562570749085
0.236737149484004
0.276524586138379
0.361542777917435
0.614419784468832
2.1948022990897
0.176819821756149
0.178641088040763
0.181325291967548
0.185310686676215
0.191198828327677
0.199911842119718
0.213145612373154
0.234525521930023
0.272976458153497
0.355432446209573
0.60333954793532
2.1951186532329
0.176085904139277
0.177118061681189
0.178718791303246
0.181204076362854
0.184980461295352
0.190596366429607
0.198927430375478
0.21160673481622
0.232109598929221
0.269022524239208
0.348545149937274
0.591015777805615
2.19485091981598
0.175861039007552
0.176326519678102
0.177160280055352
0.178606600971156
0.180961322664246
0.184578985106956
0.189957623581007
0.197926804811195
0.210038932045907
0.229593763745247
0.264803794326854
0.341064643170613
0.577646818471311
2.19192921999986
0.175981644292983
0.176040433390129
0.176327465790848
0.177045392525142
0.178425158549787
0.180713562224126
0.184215717846417
0.189393409261302
0.197030637538565
0.208586038317262
0.227157572935864
0.260515975799579
0.333052019195179
0.562000324238904
2.18619138570763
2.46684000030144
0.694131294395556
2.38167743508778
0.39142579527611
0.681854154928098
2.2869933173867
0.288744818633045
0.389372562870605
0.665061036521156
2.21610643245199
0.241047947684693
0.288950469111595
0.384816825439698
0.651203014546433
2.18721790135656
0.215118843007026
0.241842827977025
0.287688532652304
0.379994587209429
0.643402763693676
2.18619566097493
0.199743843690721
0.216020176922114
0.241690804356245
0.285681498810724
0.376180479844797
0.639487111239203
2.19192506051579
0.190171599630644
0.200580488321702
0.216250724569181
0.240828868639842
0.283505882250745
0.373101578855315
0.635815653516092
2.19485112906194
0.184073856399395
0.1908949715347
0.200900989407326
0.215887142112931
0.239525770848226
0.281259570977603
0.36984565607181
0.630440113139098
2.19512677461546
0.180192441782753
0.184685929369145
0.191193503189266
0.200742152190994
0.215074372057759
0.237932407284656
0.278748424056488
0.36579439258407
0.623068585525245
2.19480620983895
0.177793078474956
0.180709243402621
0.184932424181312
0.191110256428033
0.2002090395402
0.213956831038359
0.236078963871582
0.275797168368135
0.360757266430657
0.613860500431121
2.19480496633137
0.176416621031406
0.17823018198819
0.180903986240309
0.184875585237743
0.190745541366165
0.199434333345621
0.212634936564086
0.233968139593187
0.272355014397368
0.35475345324626
0.60286773146166
2.19512401637889
0.17575763982626
0.176785625813842
0.178380542334518
0.180857872861572
0.184623526311539
0.190224915065585
0.198535784675259
0.211185646757607
0.231642828502191
0.268480690016982
0.347882359544813
0.59021649607421
2.19484773371416
0.175602195668489
0.176066308508459
0.176897825529075
0.178340447306538
0.180689671863139
0.184299618335947
0.189667355385671
0.19762037158568
0.20970662290272
0.229214694328088
0.264324414101076
0.340341291325566
0.576582425717078
2.1919279559253
0.175793731315792
0.175854556683379
0.176142663720476
0.176859999690334
0.178237792536878
0.18052303487504
0.184020599017569
0.189191410013608
0.196817579113491
0.208353302581417
0.226883756411043
0.260135505591845
0.332370016224784
0.560960992033484
2.18619278453803
0.176209219862424
0.175985175301524
0.17588795492237
0.176095876782091
0.176802400056379
0.178192868157305
0.180468079916251
0.183905127891785
0.188941251150633
0.196313223086249
0.207374121273118
0.224980106199443
0.256312436962712
0.324239311945817
0.543273388503329
2.18721550682668
2.46683894233312
0.691140272948345
2.38167675438085
0.388703735740876
0.67905991958019
2.28699348150497
0.286657212461182
0.386903357635323
0.662559799270313
2.21610707480946
0.239414080969734
0.287067095483367
0.382617220029884
0.649005603183913
2.18721562907691
0.213797412322731
0.240372470729456
0.286008136536447
0.378056222023293
0.641491845455856
2.18619244981568
0.198648581528603
0.214834731374371
0.240379101937389
0.284195650571156
0.374482461171992
0.637842502873377
2.19193097897411
0.189249639353079
0.199602306847822
0.215195774011475
0.23966874092868
0.282201638101884
0.37162299222241
0.634413479689776
2.19484581107146
0.183291364778891
0.190076482925197
0.200034515333941
0.214956519903867
0.238508366373814
0.280123071658637
0.368568854782321
0.629265456853677
2.19512425108949
0.179526612630636
0.18399668099604
0.19047350360527
0.199981900643607
0.214261160782427
0.237047759913792
0.27776625994164
0.364704623174701
0.622117258879403
2.19480495026294
0.177227735196638
0.180128682631078
0.184331924878532
0.19048392318892
0.199549347625373
0.213253405115052
0.235316467364474
0.274955647986806
0.359839756752276
0.613133364176689
2.19480815871563
0.175939763424923
0.177743681836093
0.180404702168983
0.184359696979999
0.190208307070447
0.198869457362274
0.212033348007686
0.233316584391375
0.271637950465322
0.353984056150207
0.602335612108131
2.19512648022011
0.175360069430683
0.17638231965423
0.177969417067184
0.180436427363741
0.184188694967076
0.189772690426141
0.198060431675044
0.210678454360669
0.231090498579224
0.267866190771855
0.347208914252831
0.589652344643599
2.19485076709353
0.175276833835496
0.175738053760081
0.176565379944995
0.178002180607504
0.180343601399882
0.18394323858713
0.189297123522096
0.197230743053525
0.209288366662084
0.228751363030727
0.263785264836518
0.339672807106381
0.575779892001669
2.19192713703308
0.175535845247626
0.175596138054528
0.175883014290469
0.176597922047855
0.177971904815872
0.180251823062918
0.183742105395806
0.188902596746459
0.196513194363391
0.208023453093442
0.226507091373363
0.2596597666821
0.331717807092363
0.56002494886557
2.18619261248582
0.176020863670503
0.175799406949442
0.175703893863108
0.175911966087061
0.176617432132993
0.178005962225316
0.18027836135282
0.183711326364953
0.188741127042656
0.196102526713096
0.207143979997187
0.224709273880967
0.255943955932743
0.323695792857347
0.54251351538386
2.18721754078353
0.176637298687913
0.176223469408657
0.17586202372068
0.175717794895894
0.175963129002552
0.176748121872011
0.178215790026516
0.180546819120659
0.184009907611495
0.189027604926668
0.196297262893877
0.207074269742615
0.223966242241586
0.253494826936774
0.316777778415112
0.525373196894988
2.21610560966242
2.46684328790383
0.688010532747664
2.38167735990941
0.385749201290819
0.67608593621243
2.28699337777883
0.284368380107741
0.384200570708005
0.659855711605937
2.21610737353675
0.237614064150908
0.284990376782922
0.380192978562537
0.646608971268024
2.18721741858098
0.212335351561205
0.238743508831941
0.284144665764451
0.375906663445644
0.639388951071712
2.18619090758736
0.197431153857507
0.213515212607536
0.238917282686335
0.282538291458348
0.37258834243833
0.636017078168191
2.19192846762193
0.188219316531084
0.198507699068753
0.214013825211735
0.238367609874135
0.280737609085486
0.369962368007018
0.632840354874053
2.19485249161929
0.182411124296531
0.189154680421867
0.199057638561062
0.213906327386012
0.237359259375312
0.278838241361535
0.367121889478714
0.62792023557941
2.19511872030849
0.178771411112485
0.183214132880517
0.189655345168814
0.199117415697768
0.21333597626091
0.236040813321164
0.276646811815663
0.363455062110723
0.620989811897159
2.19480220474518
0.176579813361958
0.179462690944926
0.18364253657313
0.189764532611693
0.198791569130448
0.212445643304297
0.234441243250361
0.273988521366712
0.358774024725873
0.612222951437442
2.194800143637
0.17538598922098
0.177178127874578
0.179823774941734
0.183759104209026
0.189582847875856
0.19821235962622
0.211334897086305
0.232562305310224
0.270809520882867
0.353087250134539
0.601641866729568
2.19513152157042
0.174890384166772
0.175905250081482
0.177482479814027
0.179936737206486
0.183672862369947
0.189236470068528
0.197497964711856
0.210081108842217
0.230445687996786
0.267159703349209
0.346453848709581
0.589098887426099
2.19485284636983
0.174883338867469
0.175340316173699
0.176161701349929
0.177590608733978
0.179921888205333
0.183508647573437
0.188845947705061
0.19675748377793
0.208784581630185
0.228204177648437
0.263177737918886
0.338997138316344
0.575037938636713
2.19192752941128
0.175212346444896
0.17527073800404
0.175554630804275
0.176265227200174
0.177633381742747
0.179905728922554
0.183386176452417
0.188533460205302
0.196125390632469
0.207607792492676
0.226047168329606
0.25912516399969
0.331077110984878
0.559237236140905
2.18619390161759
0.175763232746386
0.175541911156456
0.175445947080655
0.175652518056594
0.176355329638688
0.177740085439895
0.180007450953595
0.183433588011158
0.188453575051203
0.195799842737122
0.206816064093451
0.224335317348312
0.255481686344472
0.323077595478525
0.541603159281138
2.18721857164121
0.176448018574434
0.176037236934358
0.175678009583188
0.175534500391363
0.175779434565475
0.176563305172838
0.178029273679792
0.180357885943141
0.183817347483634
0.188829123024797
0.196088389416416
0.206845910620954
0.223698725851691
0.253153072667854
0.316287749830708
0.524643875892595
2.21610688980994
0.177192741497852
0.176660876369373
0.176125877698624
0.175745606684919
0.175681247013762
0.176063128830867
0.177002197942132
0.178628266250694
0.181126095451703
0.1847725343068
0.189994617731663
0.197481299831069
0.208441538007153
0.225320552099339
0.254142529299512
0.314402425972563
0.515430234632702
2.2870039387159
2.46684219337824
0.684879937146918
2.38167967557201
0.382566802118484
0.672982864649905
2.2870064975705
0.281872068914652
0.381267080811085
0.656994815311187
2.21610716929442
0.235640979669167
0.282713580831267
0.377540862811164
0.644031541614669
2.18721751437057
0.210726611442951
0.236949033124664
0.282090546143362
0.373539911419353
0.63710431858299
2.18619230875787
0.196086184710368
0.212055363793019
0.237298179330119
0.280701310100817
0.370489917408841
0.634011390995319
2.19192892028298
0.18707578496005
0.197291037696148
0.212698420413423
0.236918099389536
0.279105511959141
0.368111702492342
0.631096931042811
2.19485207413089
0.181428753756877
0.188124531772423
0.19796458922892
0.212729967991843
0.236070977966223
0.277396967243038
0.365498133211855
0.626410245892789
2.19512372056358
0.177922876368246
0.1823338068781
0.188733939193493
0.198142875007492
0.212292129243511
0.234903918348599
0.275381898964488
0.362039503928031
0.619692529209957
2.19479661756823
0.175845699891179
0.178707274302528
0.182859809709122
0.188947062757427
0.197929937609001
0.211526809361967
0.233445358189372
0.272886626797991
0.357551677782036
0.611132053080621
2.19479707530322
0.174751966236192
0.176529923438332
0.179157304191827
0.183069530117359
0.188864381928453
0.197457533588817
0.210532959309187
0.231696822576761
0.269857846784409
0.352045192580732
0.600761708495639
2.19512552922416
0.174345516500133
0.175351171031466
0.176916310964114
0.17935517955101
0.18307214247483
0.188612005477244
0.196843561941374
0.209387665904636
0.22969973636164
0.266344558528313
0.345576301622849
0.588398178462063
2.19485588205261
0.174419035335199
0.174870346471996
0.175684005649719
0.177102879288768
0.179421567515021
0.182992759826845
0.188310640944752
0.196197269623568
0.20819130516567
0.227566143999946
0.262481746472379
0.338248604826024
0.57421450127947
2.1919287875397
0.174821714428848
0.174877019357963
0.175156374966647
0.175860813294119
0.177221048375271
0.179483507556231
0.182951608148401
0.188083067706609
0.195653883659349
0.207107057768204
0.225504948651895
0.258524809604762
0.330398434502235
0.558484514459376
2.18619245461413
0.175440769081468
0.175218331051934
0.175120306926597
0.17532366626465
0.176022011050554
0.177400991475114
0.179661065061165
0.183077816567271
0.188085137838058
0.195413306237075
0.206402319107995
0.223878761980572
0.254957478352616
0.322445112803132
0.540779842941798
2.18722093687263
0.17619006708704
0.175779966113141
0.175420904223374
0.175276591845903
0.17551968795873
0.176300807220929
0.177763145247936
0.180087026325191
0.183540023753728
0.188542275251758
0.195786491452544
0.206518800100543
0.223327720280424
0.252710007789023
0.315676972272267
0.523639050268361
2.21610874385065
0.177002125508515
0.176473703232131
0.175941346167918
0.175562245655479
0.17549797512309
0.175879295976625
0.176817372892932
0.178442019765122
0.180937766236049
0.184580861521823
0.189797050657282
0.197272873448517
0.208212867796843
0.225054480352373
0.253804249153251
0.313880212462679
0.5145769332755
2.28699341886412
0.17781836891327
0.177224373756179
0.176585377317611
0.176056161974327
0.175792793158644
0.175915200442673
0.176517081208945
0.177702040149548
0.179613954710899
0.182462719534896
0.186560661462288
0.192386482522558
0.200708572206853
0.212867772886878
0.231558693065602
0.263282969493121
0.328638576884991
0.543794484665082
2.38169009876714
2.46684129943592
0.681924758308686
2.38167825306219
0.37916083185431
0.669969366884377
2.28699528408552
0.279159363722675
0.378111190155729
0.654070020445652
2.21611929462718
0.233487299047033
0.280230742673154
0.374666774896537
0.641335453107455
2.18721712726033
0.208965063886419
0.234982244289798
0.279839386450121
0.370955067420301
0.634668970658383
2.18619201784897
0.194608495368769
0.210449169901449
0.235515033095011
0.278677678566432
0.368182899683723
0.631840488678141
2.19192866619306
0.185814452339008
0.195946955842565
0.211243404654548
0.235313287793197
0.277297986793029
0.366063827571267
0.629189055710146
2.19485299997024
0.180340101515547
0.18698119587172
0.196749800787371
0.211421126660911
0.234636439386624
0.275791459107184
0.363690535218366
0.624743181208719
2.19512564186184
0.176977194894758
0.181351325733692
0.187704282149104
0.197052581535649
0.211123170617452
0.233629887083626
0.273963977462853
0.360451944513154
0.618233116022168
2.19480182119916
0.175021871000809
0.177858468267033
0.181979276437036
0.188026454473854
0.196958691028887
0.210490321035097
0.232321338420989
0.271642112675155
0.35616626275537
0.609865000959533
2.19479140115805
0.174034404202642
0.175795453370645
0.178401301426419
0.18228653781615
0.188047908890836
0.196599247957402
0.209620846699754
0.230712258161951
0.268773727692028
0.350848403022647
0.599699583063833
2.19512246750347
0.173722365906452
0.174716753788006
0.176267325890951
0.178687868026218
0.18238226995156
0.187894526137864
0.196091729843918
0.208591518936675
0.228843979353227
0.265408306380337
0.344555941341172
0.587518339877775
2.19485247127043
0.17388102218225
0.174325086417792
0.175129081803593
0.176535604931275
0.178839031707952
0.182391694242704
0.18768696276685
0.195545281866192
0.207502566050843
0.226828266471243
0.261679567703511
0.337381901977572
0.573241374623535
2.19192962612906
0.174361393196306
0.174412364183154
0.174685603105964
0.175381970813494
0.176732074096531
0.178982186702729
0.182435309668875
0.187548253318512
0.195095406944103
0.20651732910307
0.224873311236219
0.257838591087615
0.329634452399011
0.557652170526594
2.18619251269182
0.175052039403864
0.174827424180531
0.1747259352807
0.174924406774179
0.175616380109753
0.176987462503405
0.179237916674454
0.182642795571298
0.187634930749187
0.194942800168143
0.2059038210833
0.223341134461587
0.254368172814964
0.321774328546642
0.540007512876248
2.18721956662607
0.175867969507415
0.175457383125395
0.175096982700179
0.174950280973009
0.175189870982937
0.175966407076067
0.177423058435623
0.17973989149189
0.183183825695214
0.188173712823338
0.195400068812003
0.206105676069679
0.222874571466252
0.252197701325621
0.315042430197463
0.52270420828701
2.21611060402013
0.176743373586541
0.176216086355843
0.175684393499737
0.175305030181854
0.175239515573161
0.175618775628208
0.176554102489792
0.178175265556239
0.180666480097436
0.184303233932766
0.189509731372847
0.196969904114177
0.207884192903271
0.224684266968532
0.25335805403329
0.313224031477894
0.513333142490313
2.2869949506994
0.177626055377196
0.177035853149603
0.176399859686985
0.175872182193157
0.175609278029068
0.175731522782536
0.176332869191919
0.177516998735637
0.179427700908038
0.182274537964697
0.186369034662572
0.19218823306822
0.200497734523465
0.212633808013893
0.231280440514245
0.262889813821237
0.327940615132328
0.54184038567999
2.38167839879971
0.178469189516974
0.177856906186769
0.177167842604056
0.176555999100988
0.176175955275644
0.176142951451627
0.176542209280224
0.177464954056133
0.179036975474451
0.181440342670851
0.18494321407716
0.189951927450806
0.197108757013228
0.207497318548055
0.223148881050823
0.248470313685084
0.295044987999351
0.405984196717789
0.83410353197459
3.68517097144455
0.677893796737252
2.38166679421881
0.375490738010309
0.667443159121999
2.2869951238892
0.276212060658931
0.374747811747462
0.651356621365408
2.21610777521966
0.231142772361375
0.277533723423009
0.371586854804299
0.638656236758966
2.18721681852282
0.20704393775574
0.232835656141967
0.277385888213039
0.3681624422382
0.632168585420917
2.18619178594854
0.192993025930641
0.208690558946119
0.23356119851835
0.276461758488807
0.365670145118111
0.629556949271935
2.19192789519596
0.184431084633628
0.194470318913638
0.209642858959298
0.233546692694184
0.275308641576339
0.363816471719143
0.627139459740072
2.19485476217458
0.179141365335211
0.185720108323416
0.195407971276475
0.209973814270657
0.233049078748505
0.274014817924003
0.361693989503263
0.622930170141008
2.1951289591526
0.175930850310762
0.180262543096783
0.186561569638334
0.195841063686953
0.209822973922816
0.232211972205468
0.27238581865066
0.358687220297836
0.616625046431666
2.19480406508422
0.174105014254864
0.176912460273067
0.180996576528811
0.186997747800852
0.195872220863355
0.209329892896928
0.231062299257168
0.270247986476369
0.354613010915647
0.608430060164097
2.1947967792038
0.173230158997924
0.174971188536921
0.177551806708888
0.181405674456516
0.187128400189709
0.195631798071844
0.208592077944985
0.229601325721428
0.267549526899588
0.349490698039785
0.598465360539574
2.19511687630462
0.173017922772774
0.17399870480951
0.175531911211352
0.177930817989707
0.181598812609022
0.187079041089986
0.195236754735632
0.207685977330018
0.227870507623715
0.2643414934784
0.343382894663951
0.586473440686842
2.19484997655282
0.173266406040079
0.173701438883912
0.174493609193357
0.175885206914558
0.178170392063313
0.1817011768046
0.186970133253552
0.194796015504163
0.206711701018041