/*--------------------------------*- C++ -*----------------------------------*\
  =========                 |
  \\      /  F ield         | OpenFOAM: The Open Source CFD Toolbox
   \\    /   O peration     | Website:  https://openfoam.org
    \\  /    A nd           | Version:  12
     \\/     M anipulation  |
\*---------------------------------------------------------------------------*/
/*   Windows 32 and 64 bit porting by blueCAPE: http://www.bluecape.com.pt   *\
|  Based on Windows porting (2.0.x v4) by Symscape: http://www.symscape.com   |
\*---------------------------------------------------------------------------*/
FoamFile
{
    format      ascii;
    class       volScalarField;
    location    "400";
    object      p;
}
// * * * * * * * * * * * * * * * * * * * * * * * * * * * * * * * * * * * * * //

dimensions      [0 2 -2 0 0 0 0];

internalField   nonuniform List<scalar> 
10068
(
83333.3359989513
83333.3359339525
83333.3359993726
83333.3359992212
83333.3358682766
83333.3359343523
83333.3359341958
83333.3360005717
83333.3359996657
83333.3359996817
83333.3358020422
83333.335868643
83333.3358684867
83333.3359355683
83333.3359346323
83333.3359346378
83333.3360029319
83333.3360009104
83333.336000152
83333.3360003641
83333.3357352734
83333.3358023638
83333.3358022459
83333.3358697784
83333.3358688969
83333.3358689066
83333.335937953
83333.3359359228
83333.3359351121
83333.3359353127
83333.3360069087
83333.3360033504
83333.3360014329
83333.3360008526
83333.3360013004
83333.3356680223
83333.3357355466
83333.33573548
83333.3358033912
83333.3358026031
83333.3358026607
83333.3358720748
83333.3358701097
83333.3358693521
83333.3358695698
83333.3359418449
83333.3359384019
83333.3359364659
83333.3359358168
83333.3359362486
83333.3360125595
83333.3360073252
83333.3360039295
83333.3360021597
83333.3360017969
83333.3360025038
83333.3356003473
83333.3356682474
83333.3356682336
83333.3357364569
83333.3357357786
83333.3357358959
83333.335805528
83333.3358036979
83333.335803044
83333.3358033226
83333.3358758134
83333.3358724997
83333.3358706283
83333.3358700433
83333.3358704999
83333.3359473065
83333.3359423078
83333.3359390162
83333.3359372166
83333.3359367692
83333.3359374548
83333.3360198108
83333.3360129501
83333.3360079599
83333.3360046962
83333.3360031159
83333.3360029976
83333.3360039673
83333.3355323044
83333.3356005268
83333.3356005638
83333.3356690397
83333.3356684747
83333.3356686529
83333.3357384093
83333.3357367464
83333.3357362111
83333.3357365599
83333.3358090527
83333.3358059191
83333.3358041914
83333.3358037261
83333.3358042541
83333.3358810492
83333.3358762562
83333.3358730897
83333.3358713661
83333.3358709914
83333.3358717031
83333.33595428
83333.3359477465
83333.3359429835
83333.3359398223
83333.3359381945
83333.3359379781
83333.3359389215
83333.3360285583
83333.3360201781
83333.3360135946
83333.3360087559
83333.336005675
83333.3360043155
83333.3360044513
83333.3360056717
83333.3354639445
83333.33553244
83333.3355325261
83333.3356012053
83333.3356007505
83333.335600989
83333.3356708042
83333.3356693179
83333.3356689032
83333.335669321
83333.335741691
83333.3357387746
83333.3357372214
83333.3357368883
83333.3357374959
83333.3358140256
83333.3358094647
83333.335806478
83333.3358049114
83333.3358046712
83333.3358054599
83333.3358877304
83333.3358814735
83333.3358769102
83333.335873886
83333.3358723422
83333.3358722006
83333.3358731668
83333.335962682
83333.3359546945
83333.3359484342
83333.335943826
83333.3359408377
83333.3359394113
83333.3359394387
83333.3359406277
83333.3360387251
83333.33602891
83333.3360207883
83333.3360143938
83333.3360097591
83333.3360068885
83333.3360057617
83333.3360061431
83333.3360075939
83333.3353953145
83333.335464035
83333.3354641729
83333.3355330097
83333.3355326627
83333.3355329587
83333.3356027851
83333.3356014756
83333.3356011774
83333.3356016639
83333.3356738327
83333.3356711521
83333.3356697815
83333.3356695787
83333.3356702633
83333.3357463793
83333.3357420858
83333.3357393113
83333.3357379282
83333.335737833
83333.3357387075
83333.3358203932
83333.3358144243
83333.3358100842
83333.3358072521
83333.3358058807
83333.3358058815
83333.3358069258
83333.3358957792
83333.3358881314
83333.3358821426
83333.3358777467
83333.3358749044
83333.3358735622
83333.3358736625
83333.335874868
83333.3359724446
83333.3359630717
83333.3359553505
83333.335949285
83333.3359448756
83333.335942081
83333.3359408705
83333.3359411353
83333.3359425496
83333.3360501976
83333.3360390348
83333.3360294656
83333.3360215731
83333.3360154114
83333.3360109994
83333.3360083477
83333.3360074458
83333.3360080536
83333.33600971
83333.3353264594
83333.3353953575
83333.3353955511
83333.3354644956
83333.3354642573
83333.3354646167
83333.3355344055
83333.335533273
83333.3355330933
83333.3355336447
83333.335605554
83333.3356031201
83333.335601933
83333.3356018551
83333.3356026158
83333.3356782204
83333.3356742189
83333.3356716735
83333.33567048
83333.3356705257
83333.3356714832
83333.3357524181
83333.3357467669
83333.3357426783
83333.3357400674
83333.3357388926
83333.3357390465
83333.3357401793
83333.3358280802
83333.3358207748
83333.3358150616
83333.3358108996
83333.3358082624
83333.335807102
83333.3358073458
83333.3358086271
83333.3359051357
83333.3358961573
83333.3358887723
83333.3358829917
83333.335878804
83333.3358761567
83333.3358750266
83333.3358753594
83333.3358767813
83333.3359834578
83333.3359727852
83333.3359636785
83333.3359561902
83333.3359503553
83333.3359461555
83333.3359435634
83333.3359425638
83333.3359430484
83333.3359446625
83333.3360628834
83333.3360504654
83333.3360395445
83333.3360302295
83333.336022597
83333.3360166806
83333.3360124931
83333.3360100509
83333.3360093532
83333.3360101607
83333.3360119938
83333.3352574212
83333.3353264507
83333.3353267057
83333.3353957051
83333.335395581
83333.3353960086
83333.3354657051
83333.3354647532
83333.3354646911
83333.3354653177
83333.3355369058
83333.3355347288
83333.3355337279
83333.3355337763
83333.3355346113
83333.335609626
83333.335605936
83333.3356036316
83333.3356026281
83333.335602809
83333.3356038475
83333.3356839148
83333.3356786071
83333.3356747938
83333.3356724177
83333.3356714424
83333.3356717451
83333.3356729638
83333.3357597331
83333.3357527924
83333.3357473793
83333.3357434772
83333.33574107
83333.3357401165
83333.3357405154
83333.3357418851
83333.3358370252
83333.3358284412
83333.3358213867
83333.3358158925
83333.3358119501
83333.3358095168
83333.3358085704
83333.3358090441
83333.3358105374
83333.3359156944
83333.3359054643
83333.3358967525
83333.3358896145
83333.335884075
83333.3358800991
83333.3358776503
83333.3358767244
83333.3358772703
83333.335878881
83333.3359956411
83333.3359837586
83333.3359733489
83333.3359645007
83333.3359572714
83333.3359516714
83333.3359476813
83333.3359452836
83333.3359444768
83333.3359451561
83333.3359469391
83333.3360767077
83333.3360631235
83333.3360509429
83333.3360402875
83333.3360312531
83333.336023891
83333.3360182171
83333.3360142422
83333.3360119885
83333.3360114652
83333.3360124397
83333.336014413
83333.3351882389
83333.3352573551
83333.3352576788
83333.3353266783
83333.3353266765
83333.3353271797
83333.3353967198
83333.335395958
83333.3353960219
83333.3353967288
83333.3354679291
83333.3354660162
83333.3354652078
83333.3354653845
83333.335466303
83333.3355406454
83333.3355372848
83333.3355352338
83333.3355344246
83333.3355347401
83333.3355358604
83333.3356149573
83333.3356100158
83333.3356064995
83333.3356043704
83333.3356035939
83333.3356040391
83333.3356053411
83333.3356908457
83333.3356842906
83333.3356792027
83333.3356755818
83333.3356734162
83333.3356726713
83333.3356732216
83333.3356746772
83333.3357682593
83333.3357600869
83333.3357533842
83333.3357481966
83333.3357445205
83333.3357423261
83333.3357415907
83333.3357422174
83333.3357437967
83333.3358471291
83333.335837339
83333.3358290115
83333.3358222156
83333.3358169722
83333.3358132504
83333.3358110178
83333.3358102726
83333.3358109537
83333.3358126299
83333.3359273829
83333.335915985
83333.335906021
83333.3358975819
83333.3358907137
83333.3358854125
83333.3358816425
83333.3358793818
83333.3358786396
83333.3358793726
83333.3358811395
83333.3360089274
83333.3359959167
83333.3359842905
83333.3359741548
83333.3359655858
83333.3359586182
83333.3359532473
83333.3359494559
83333.335947234
83333.3359465914
83333.3359474333
83333.335949349
83333.3360916022
83333.3360769309
83333.3360635753
83333.3360516632
83333.3360413038
83333.3360325629
83333.3360254669
83333.3360200237
83333.3360162412
83333.3360141469
83333.3360137619
83333.3360148645
83333.3360169312
83333.3351189484
83333.3351881087
83333.3351885084
83333.3352574544
83333.3352575842
83333.3352581722
83333.3353274855
83333.3353269274
83333.3353271278
83333.3353279244
83333.335398654
83333.3353970191
83333.3353964146
83333.3353967296
83333.3353977397
83333.3354713147
83333.3354682987
83333.3354665175
83333.3354659112
83333.3354663666
83333.3354675758
83333.3355455952
83333.3355410386
83333.3355378405
83333.3355359733
83333.3355353996
83333.3355359862
83333.3355373728
83333.3356214866
83333.3356153382
83333.3356106016
83333.3356072829
83333.3356053712
83333.3356048325
83333.3356055282
83333.3356070667
83333.3356989423
83333.3356911955
83333.3356848711
83333.335680014
83333.335676623
83333.3356746779
83333.3356741545
83333.335674931
83333.3356765938
83333.3357779052
83333.3357685673
83333.3357606424
83333.3357542049
83333.3357492732
83333.3357458248
83333.3357438349
83333.335743299
83333.335744128
83333.3357458863
83333.3358583257
83333.3358474064
83333.3358378767
83333.3358298333
83333.3358233166
83333.3358183193
83333.3358148059
83333.3358127581
83333.3358121902
83333.3358130504
83333.335814877
83333.3359401402
83333.3359276503
83333.3359165136
83333.335906839
83333.3358986907
83333.3358920882
83333.3358870131
83333.3358834351
83333.3358813415
83333.3358807534
83333.3358816408
83333.3358835282
83333.3360232526
83333.3360091875
83333.3359964254
83333.3359850787
83333.3359752378
83333.3359669542
83333.3359602405
83333.3359550866
83333.3359514752
83333.3359494007
83333.3359488865
83333.3359498512
83333.3359518564
83333.3361075005
83333.3360918128
83333.3360773597
83333.3360642707
83333.3360526639
83333.3360426164
83333.3360341656
83333.3360273249
83333.3360220959
83333.3360184814
83333.3360165122
83333.3360162231
83333.3360174058
83333.3360195053
83333.3350495867
83333.3351187473
83333.3351192288
83333.3351880713
83333.3351883419
83333.335189024
83333.3352580382
83333.3352576996
83333.335258049
83333.3352589471
83333.3353291101
83333.3353277735
83333.3353273885
83333.3353278547
83333.3353289687
83333.3354016671
83333.335399011
83333.3353975187
83333.3353971297
83333.3353977352
83333.3353990441
83333.3354758611
83333.3354717087
83333.3354688503
83333.3354672628
83333.3354669023
83333.3354676365
83333.3354691144
83333.3355516995
83333.3355459788
83333.3355416203
83333.3355386259
83333.3355369836
83333.3355366545
83333.335537494
83333.3355391166
83333.3356291376
83333.3356218355
83333.3356159153
83333.335611414
83333.3356083298
83333.3356066443
83333.3356063301
83333.3356072497
83333.3356089929
83333.3357081211
83333.3356992478
83333.3356917488
83333.3356856921
83333.3356810938
83333.3356779358
83333.3356761982
83333.3356758726
83333.3356768464
83333.3356786839
83333.3357886094
83333.3357781785
83333.3357690981
83333.3357614624
83333.3357553089
83333.3357506291
83333.3357473922
83333.3357455856
83333.335745221
83333.3357462215
83333.3357481251
83333.3358705593
83333.3358585819
83333.3358479223
83333.3358386922
83333.3358309503
83333.3358247069
83333.3358199379
83333.3358166131
83333.3358147254
83333.3358143029
83333.3358153078
83333.3358172478
83333.3359539067
83333.3359403936
83333.3359281589
83333.3359173189
83333.3359079517
83333.3359000934
83333.3358937425
83333.3358888772
83333.3358854704
83333.335883514
83333.3358830436
83333.3358840453
83333.3358860074
83333.3360385542
83333.3360235013
83333.3360096762
83333.3359971933
83333.3359861517
83333.3359766152
83333.3359686103
83333.3359621389
83333.335957186
83333.3359537302
83333.3359517695
83333.3359513405
83333.3359523789
83333.3359544162
83333.3361243384
83333.336107699
83333.3360922189
83333.3360780268
83333.3360652461
83333.3360539636
83333.3360442268
83333.3360360574
83333.3360294594
83333.3360244255
83333.3360209512
83333.3360190702
83333.3360188311
83333.3360200309
83333.3360220729
83333.3349802044
83333.3350493071
83333.3350498757
83333.3351185623
83333.3351189846
83333.3351197692
83333.3351884106
83333.3351883104
83333.3351888238
83333.3351898359
83333.3352593262
83333.3352583136
83333.3352581681
83333.3352588009
83333.3352600338
83333.3353317234
83333.335329453
83333.3353282733
83333.3353281201
83333.3353288911
83333.3353303144
83333.3354057782
83333.3354020525
83333.3353995602
83333.3353982741
83333.3353981435
83333.335399037
83333.3354006179
83333.3354815135
83333.3354762435
83333.335472289
83333.3354696435
83333.3354682904
83333.335468182
83333.3354691712
83333.3354708846
83333.3355588847
83333.3355520492
83333.3355465588
83333.3355424398
83333.3355396862
83333.335538276
83333.3355381734
83333.3355392344
83333.3355410585
83333.3356378364
83333.3356294445
83333.3356223944
83333.3356167442
83333.3356125051
83333.335609658
83333.3356081822
83333.3356080634
83333.3356091755
83333.3356110882
83333.3357183266
83333.3357083955
83333.3356997828
83333.3356925754
83333.3356868059
83333.3356824636
83333.3356795195
83333.3356779633
83333.3356778031
83333.3356789411
83333.3356809171
83333.3358003208
83333.3357888635
83333.3357786929
83333.3357699169
83333.3357625896
83333.3357567147
83333.3357522659
83333.3357492159
83333.335747563
83333.3357473346
83333.3357484709
83333.3357504781
83333.3358837752
83333.3358708033
83333.3358590819
83333.33584873
83333.33583982
83333.3358323763
83333.3358263867
83333.3358218244
83333.3358186631
83333.335816904
83333.3358165875
83333.3358176958
83333.3358196982
83333.3359686243
83333.3359541503
83333.3359408855
83333.335928949
83333.3359184282
83333.335909371
83333.3359017895
83333.335895674
83333.3358909997
83333.3358877374
83333.3358858833
83333.3358854876
83333.3358865515
83333.3358885261
83333.3360547715
83333.3360387921
83333.3360239704
83333.3360104207
83333.3359982474
83333.3359875236
83333.335978287
83333.3359705506
83333.3359643084
83333.3359595373
83333.3359562096
83333.3359543237
83333.3359539315
83333.3359549787
83333.3359569522
83333.3361420547
83333.336124524
83333.3361080811
83333.3360928531
83333.3360789668
83333.3360665166
83333.3360555596
83333.3360461269
83333.3360382291
83333.3360318597
83333.3360270006
83333.3360236398
83333.3360218106
83333.3360215652
83333.3360226875
83333.3360245199
83333.3349108799
83333.3349798323
83333.3349805002
83333.3350489577
83333.3350495473
83333.3350504445
83333.3351186306
83333.3351187943
83333.3351194869
83333.3351206264
83333.3351893284
83333.3351886714
83333.3351887889
83333.3351896073
83333.3351909757
83333.3352615058
83333.335259653
83333.3352588154
83333.3352589209
83333.3352598769
83333.3352614324
83333.3353353669
83333.3353320983
83333.3353300011
83333.3353290433
83333.335329164
83333.3353302345
83333.3353319345
83333.3354109497
83333.3354061579
83333.3354026349
83333.3354003666
83333.3353993266
83333.3353994567
83333.3354006083
83333.3354024242
83333.3354882086
83333.3354818642
83333.3354768303
83333.335473122
83333.3354707255
83333.335469611
83333.3354697308
83333.3354709391
83333.3354728504
83333.3355670857
83333.3355591958
83333.3355526187
83333.3355474026
83333.335543551
83333.3355410388
83333.3355398396
83333.3355399292
83333.3355411775
83333.3355431651
83333.3356475332
83333.335638116
83333.3356299909
83333.3356232362
83333.335617877
83333.3356138972
83333.3356112651
83333.3356099677
83333.3356100082
83333.3356112772
83333.3356133208
83333.3357295132
83333.3357185854
83333.3357089187
83333.3357006145
83333.3356937205
83333.3356882335
83333.3356841235
83333.335681364
83333.335679955
83333.3356799221
83333.3356811869
83333.3356832565
83333.3358129899
83333.3358005651
83333.3357893663
83333.3357795098
83333.3357710626
83333.3357640397
83333.3357584208
83333.3357541764
83333.3357512834
83333.3357497496
83333.335749616
83333.3357508437
83333.3357528994
83333.335897919
83333.3358840106
83333.33587129
83333.3358598799
83333.3358498618
83333.3358412711
83333.3358341067
83333.3358283491
83333.33582397
83333.3358209429
83333.3358192745
83333.3358190201
83333.3358201794
83333.3358221681
83333.3359842361
83333.3359688586
83333.3359546257
83333.3359416574
83333.3359300466
83333.3359198503
83333.3359110917
83333.335903772
83333.3358978753
83333.3358933704
83333.3358902232
83333.3358884321
83333.3358880603
83333.3358891193
83333.3358909911
83333.3360718468
83333.336054998
83333.3360392404
83333.3360246872
83333.3360114464
83333.3359995985
83333.3359891902
83333.335980245
83333.3359727663
83333.3359667384
83333.3359621278
83333.3359588979
83333.3359570481
83333.3359566313
83333.3359575858
83333.3359593194
83333.3361605917
83333.3361422263
83333.3361248799
83333.3361086774
83333.3360937478
83333.336080192
83333.336068076
83333.3360574401
83333.3360483035
83333.336040666
83333.3360345095
83333.3360298046
83333.3360265322
83333.336024716
83333.3360243814
83333.3360252632
83333.3360266457
83333.3348417478
83333.3349104102
83333.3349111839
83333.3349792986
83333.3349800729
83333.3349811059
83333.3350487263
83333.3350491825
83333.3350500715
83333.3350513585
83333.3351191394
83333.3351188758
83333.3351192843
83333.3351203094
83333.3351218337
83333.3351910345
83333.3351896368
83333.3351891766
83333.3351895683
83333.3351907329
83333.3351924419
83333.3352646462
83333.3352618691
83333.335260202
83333.3352596049
83333.3352600037
83333.3352612735
83333.3352631132
83333.3353400246
83333.3353357435
83333.3353326845
83333.3353308254
83333.3353301282
83333.335330521
83333.3353318537
83333.3353337894
83333.335417127
83333.3354113019
83333.3354067542
83333.3354034875
83333.3354014785
83333.3354006848
83333.3354010457
83333.3354024144
83333.3354044248
83333.3354958904
83333.3354885261
83333.3354824486
83333.335477696
83333.335474262
83333.3354721125
83333.33547121
83333.3354715189
83333.3354729085
83333.3354749768
83333.3355762601
83333.3355673744
83333.3355597591
83333.3355534837
83333.3355485641
83333.3355449754
83333.3355426788
83333.335541654
83333.3355418966
83333.3355432935
83333.335545404
83333.3356581885
83333.3356478013
83333.3356386554
83333.3356308451
83333.3356244091
83333.3356193357
83333.3356155887
83333.3356131378
83333.3356119805
83333.3356121397
83333.3356135255
83333.3356156534
83333.3357416361
83333.335729765
83333.335719101
83333.335709755
83333.3357017868
83333.3356952019
83333.3356899719
83333.3356860634
83333.3356834539
83333.3356821539
83333.3356822057
83333.3356835497
83333.3356856564
83333.335826567
83333.3358132276
83333.3358010582
83333.3357901794
83333.3357806675
83333.3357725475
83333.3357658064
83333.3357604167
83333.3357563484
83333.3357535792
83333.3357521239
83333.3357520394
83333.3357533042
83333.3357553284
83333.3359129381
83333.3358981464
83333.3358844841
83333.3358720752
83333.3358610075
83333.335851325
83333.3358430363
83333.3358361302
83333.3358305831
83333.3358263618
83333.3358234369
83333.3358218187
83333.3358215745
83333.3358227143
83333.3358245669
83333.336000688
83333.3359844605
83333.3359693162
83333.3359553751
83333.335942734
83333.335931457
83333.3359215761
83333.3359131024
83333.3359060295
83333.3359003335
83333.3358959743
83333.3358929103
83333.3358911411
83333.3358907307
83333.3358916745
83333.3358932528
83333.3360897255
83333.3360720609
83333.3360554236
83333.3360399248
83333.3360256752
83333.3360127615
83333.3360012388
83333.3359911394
83333.3359824762
83333.3359752422
83333.3359694109
83333.3359649375
83333.3359617763
83333.3359599159
83333.3359593809
83333.3359600647
83333.3359613093
83333.3361798949
83333.3361607486
83333.3361425542
83333.3361254337
83333.3361095176
83333.3360949129
83333.3360816936
83333.336069909
83333.3360595873
83333.3360507364
83333.3360433446
83333.3360373829
83333.3360328112
83333.3360295985
83333.3360277306
83333.3360271615
83333.3360275581
83333.3360282846
83333.3347731176
83333.3348411889
83333.3348420933
83333.3349096694
83333.3349106472
83333.3349118455
83333.3349787355
83333.3349795143
83333.3349806205
83333.3349820949
83333.3350487846
83333.3350489551
83333.3350496853
83333.3350509413
83333.3350526525
83333.3351203291
83333.3351194288
83333.3351193859
83333.3351200967
83333.3351214971
83333.3351233866
83333.3351936295
83333.3351913847
83333.3351901893
83333.3351899908
83333.3351907006
83333.3351921965
83333.3351942008
83333.3352687515
83333.3352650173
83333.3352624614
83333.3352610493
83333.3352607309
83333.3352614162
83333.3352629546
83333.3352650324
83333.335345652
83333.3353403796
83333.335336352
83333.3353335623
83333.3353319758
83333.3353315349
83333.3353321621
83333.3353337102
83333.3353358372
83333.3354242644
83333.335417453
83333.3354119051
83333.3354076484
83333.3354046656
83333.3354029107
83333.3354023306
83333.3354028778
83333.3354044208
83333.3354065815
83333.3355045241
83333.3354961915
83333.3354891112
83333.3354833444
83333.335478896
83333.33547573
83333.3354737963
83333.3354730641
83333.3354735187
83333.3354750479
83333.335477232
83333.335586373
83333.3355765409
83333.3355679361
83333.3355606446
83333.335554695
83333.3355500653
83333.3355467096
83333.3355445899
83333.335543697
83333.3355440492
83333.3355455523
83333.3355477396
83333.3356697614
83333.3356584521
83333.3356483373
83333.3356395213
83333.3356320547
83333.3356259323
83333.3356211163
83333.3356175669
83333.3356152583
83333.3356141992
83333.3356144326
83333.3356158856
83333.3356180419
83333.3357546496
83333.3357418833
83333.3357302747
83333.33571994
83333.3357109482
83333.3357033136
83333.3356970121
83333.335692008
83333.335688268
83333.3356857715
83333.3356845376
83333.3356846257
83333.3356859926
83333.335688057
83333.335841003
83333.3358267983
83333.335813711
83333.3358018646
83333.3357913415
83333.335782175
83333.3357743603
83333.3357678747
83333.3357626877
83333.335758766
83333.3357560854
83333.3357546662
83333.3357545774
83333.3357558062
83333.335757679
83333.3359287819
83333.3359131569
83333.3358986055
83333.3358852526
83333.33587319
83333.3358624691
83333.3358531065
83333.3358450996
83333.3358384316
83333.3358330724
83333.3358289821
83333.3358261257
83333.3358245151
83333.3358242186
83333.3358252258
83333.3358267565
83333.3360179285
83333.3360009014
83333.3359848984
83333.3359700387
83333.3359564218
83333.3359441182
83333.3359331677
83333.3359235896
83333.3359153869
83333.3359085441
83333.335903028
83333.3358987886
83333.3358957763
83333.3358939803
83333.3358934348
83333.3358940758
83333.3358951354
83333.3361083557
83333.3360899264
83333.3360724617
83333.3360560709
83333.3360408663
83333.3360269402
83333.3360143555
83333.3360031527
83333.3359933533
83333.3359849593
83333.3359779531
83333.3359722968
83333.3359679337
83333.335964804
83333.3359628533
83333.3359620406
83333.3359621994
83333.3359627991
83333.3361999124
83333.3361800365
83333.3361610463
83333.3361430608
83333.3361262113
83333.3361106096
83333.3360963377
83333.3360834536
83333.3360719942
83333.3360619758
83333.3360533948
83333.3360462286
83333.3360404369
83333.3360359663
83333.3360327509
83333.3360306991
83333.3360296702
83333.336029317
83333.3360293516
83333.3347046828
83333.334772391
83333.3347735989
83333.3348402142
83333.3348414327
83333.3348428525
83333.3349087394
83333.3349098714
83333.3349112291
83333.3349129387
83333.3349783043
83333.3349789461
83333.3349800307
83333.3349815513
83333.3349835018
83333.3350494102
83333.3350490546
83333.3350494704
83333.3350505378
83333.3350522077
83333.3350543177
83333.3351223305
83333.3351206637
83333.3351199862
83333.3351202302
83333.3351212905
83333.3351230451
83333.3351252458
83333.3351971394
83333.3351939954
83333.3351919865
83333.335191065
83333.335191168
83333.3351921825
83333.3351939569
83333.335196203
83333.3352737929
83333.3352691106
83333.3352656427
83333.3352633706
83333.3352622477
83333.3352621985
83333.3352631242
83333.3352648773
83333.3352671429
83333.3353522163
83333.3353459899
83333.3353410055
83333.3353372815
83333.335334788
83333.3353334652
83333.3353332407
83333.3353340516
83333.3353357669
83333.3353380356
83333.3354323348
83333.3354245805
83333.3354180646
83333.3354128391
83333.335408897
83333.335406189
83333.3354046509
83333.3354042374
83333.3354049217
83333.3354065948
83333.3354088647
83333.3355140789
83333.3355048206
83333.3354967806
83333.3354900363
83333.335484605
83333.335480452
83333.3354775195
83333.335475758
83333.3354751485
83333.3354757022
83333.3354773278
83333.3354795817
83333.3355973876
83333.3355866516
83333.3355771039
83333.335568841
83333.3355619029
83333.3355562726
83333.3355519005
83333.3355487378
83333.3355467518
83333.3355459453
83333.33554636
83333.3355479197
83333.3355501283
83333.3356822102
83333.3356700224
83333.3356589864
83333.335649213
83333.3356407617
83333.3356336352
83333.3356277974
83333.3356232032
83333.3356198138
83333.3356176065
83333.3356166005
83333.3356168569
83333.3356183206
83333.3356204279
83333.3357685087
83333.3357548922
83333.3357423871
83333.3357311134
83333.3357211468
83333.3357125092
83333.3357051827
83333.3356991337
83333.335694324
83333.3356907186
83333.3356882965
83333.335687084
83333.3356871532
83333.3356884698
83333.3356903777
83333.3358562512
83333.3358412274
83333.3358272707
83333.3358145066
83333.3358030224
83333.3357928583
83333.3357840166
83333.3357764815
83333.3357702259
83333.3357652144
83333.3357614085
83333.3357587807
83333.3357573533
83333.3357571967
83333.3357582788
83333.3357598268
83333.3359454022
83333.3359289912
83333.3359135996
83333.3358993526
83333.3358863457
83333.3358746361
83333.3358642477
83333.3358551857
83333.3358474408
83333.3358409892
83333.3358357935
83333.3358318056
83333.3358289848
83333.3358273336
83333.3358268901
83333.3358275815
83333.3358285941
83333.3360359087
83333.3360181302
83333.3360013177
83333.3359855894
83333.335971047
83333.3359577664
83333.3359457946
83333.335935159
83333.33592587
83333.3359179211
83333.3359112877
83333.3359059264
83333.3359017762
83333.3358987757
83333.3358968705
83333.3358960254
83333.335896114
83333.3358965721
83333.3361276879
83333.3361085428
83333.3360903005
83333.3360730679
83333.3360569581
83333.3360420686
83333.3360284696
83333.3360162097
83333.3360053181
83333.3359958051
83333.3359876615
83333.3359808589
83333.3359753465
83333.3359710515
83333.3359678733
83333.3359656765
83333.3359643575
83333.3359637652
83333.3359638033
83333.3362205931
83333.336200038
83333.3361803025
83333.3361615023
83333.3361437691
83333.3361272189
83333.3361119412
83333.3360980023
83333.3360854475
83333.3360743015
83333.3360645682
83333.3360562325
83333.3360492594
83333.3360435929
83333.3360391495
83333.33603579
83333.3360333111
83333.3360315494
83333.3360304703
83333.3360296273
83333.3347038541
83333.3347053153
83333.3347711647
83333.3347727136
83333.3347745305
83333.3348388777
83333.3348404045
83333.3348420796
83333.3348440976
83333.3349077812
83333.3349089251
83333.3349104053
83333.3349122476
83333.3349144971
83333.3349783234
83333.33497855
83333.3349794665
83333.3349809342
83333.3349829237
83333.3349853129
83333.3350507696
83333.3350497306
83333.3350496156
83333.3350503512
83333.3350518075
83333.3350538647
83333.3350563067
83333.3351251984
83333.3351226928
83333.3351212776
83333.3351208955
83333.3351214702
83333.3351228592
83333.3351249073
83333.3351273549
83333.3352015549
83333.3351975061
83333.3351946414
83333.3351929331
83333.3351923213
83333.3351927114
83333.3351939753
83333.3351959657
83333.3351983946
83333.3352797499
83333.3352741452
83333.3352697638
83333.3352666144
83333.3352646543
83333.3352638079
83333.33526398
83333.3352650875
83333.3352670005
83333.3352693951
83333.3353596958
83333.3353525498
83333.3353466323
83333.3353419855
83333.3353385896
83333.3353363801
83333.3353352771
83333.3353352148
83333.3353361539
83333.3353379883
83333.33534036
83333.3354413112
83333.3354326498
83333.3354252024
83333.3354190376
83333.3354141603
83333.3354105213
83333.3354080481
83333.3354066773
83333.3354063769
83333.335407148
83333.3354089085
83333.3354112411
83333.3355245226
83333.3355143759
83333.3355054166
83333.3354977337
83333.3354913554
83333.3354862505
83333.3354823563
83333.335479612
83333.3354779745
83333.3354774383
83333.3354780418
83333.3354797145
83333.3354819829
83333.3356092668
83333.3355976658
83333.3355872177
83333.3355780264
83333.335570141
83333.3355635508
83333.3355582065
83333.3355540518
83333.3355510398
83333.3355491423
83333.3355483749
83333.3355487988
83333.3355503588
83333.3355525132
83333.3356954945
83333.3356824687
83333.3356705551
83333.3356598689
83333.335650477
83333.335642389
83333.3356355734
83333.3356299844
83333.3356255758
83333.3356223083
83333.3356201605
83333.33561916
83333.3356193836
83333.3356207855
83333.3356227351
83333.3357831703
83333.335768746
83333.3357553888
83333.3357432216
83333.3357323254
83333.3357227291
83333.3357144209
83333.3357073718
83333.3357015444
83333.3356968974
83333.3356933923
83333.3356910062
83333.3356897692
83333.3356897549
83333.3356909142
83333.3356925065
83333.3358722668
83333.3358564676
83333.3358416868
83333.335828051
83333.3358156517
83333.3358045351
83333.3357947104
83333.3357861681
83333.335778887
83333.3357728346
83333.33576797
83333.3357642485
83333.3357616387
83333.3357601549
83333.3357598387
83333.3357606014
83333.3357616554
83333.3359627532
83333.3359456012
83333.3359294153
83333.3359143208
83333.3359004157
83333.335887763
83333.3358763933
83333.3358663188
83333.3358575372
83333.3358500321
83333.3358437718
83333.3358387109
83333.3358347929
83333.3358319683
83333.3358301993
83333.3358294496
83333.3358295911
83333.3358300366
83333.3360545816
83333.3360360979
83333.3360185228
83333.3360019729
83333.3359865516
83333.3359723396
83333.335959391
83333.3359477403
83333.3359374054
83333.3359283871
83333.335920669
83333.3359142165