/*--------------------------------*- C++ -*----------------------------------*\
  =========                 |
  \\      /  F ield         | OpenFOAM: The Open Source CFD Toolbox
   \\    /   O peration     | Website:  https://openfoam.org
    \\  /    A nd           | Version:  12
     \\/     M anipulation  |
\*---------------------------------------------------------------------------*/
/*   Windows 32 and 64 bit porting by blueCAPE: http://www.bluecape.com.pt   *\
|  Based on Windows porting (2.0.x v4) by Symscape: http://www.symscape.com   |
\*---------------------------------------------------------------------------*/
FoamFile
{
    format      ascii;
    class       surfaceScalarField;
    location    "400";
    object      phi;
}
// * * * * * * * * * * * * * * * * * * * * * * * * * * * * * * * * * * * * * //

dimensions      [0 3 -1 0 0 0 0];

internalField   nonuniform List<scalar> 
28770
(
1.41138327818244e-05
6.10705357335535e-08
-1.16588367721101e-07
1.41686708334979e-05
5.19143758225564e-08
-1.06748432020847e-07
2.1975368357546e-06
1.01051782972692e-07
-3.69685678892076e-08
1.61094149315716e-05
7.00880913215176e-08
-2.10701196186434e-07
1.42165788520384e-05
4.8339204969178e-08
-9.62380669033592e-08
2.1938062465768e-06
8.93457157222547e-08
-3.36939435929713e-08
1.61442710602635e-05
5.64797509026849e-08
-1.98063068624633e-07
2.65322468785233e-07
1.3825973105139e-07
-1.71825637289198e-08
3.62916530768807e-06
1.05173725302063e-07
-7.49540848503904e-08
1.77525459975361e-05
8.28038468047107e-08
-3.0516143158031e-07
1.42599841997499e-05
4.82851426850045e-08
-9.16746724384472e-08
2.18952888764227e-06
8.134375008064e-08
-2.87200949298255e-08
1.61816525742538e-05
5.28929146616053e-08
-1.86488316694569e-07
2.42850269894207e-07
1.28158178845109e-07
-1.63390502645728e-08
3.63111012845513e-06
9.08200930387744e-08
-6.9970261979561e-08
1.77843065688265e-05
6.39460448799844e-08
-2.93748427906024e-07
-2.59867387048608e-07
1.74803700258821e-07
-1.03514654739376e-08
8.49872531339667e-07
1.44265006007679e-07
-3.78769294659604e-08
4.25677415985209e-06
1.22037220926985e-07
-1.14810744036983e-07
1.96654250258678e-05
9.21718192562108e-08
-4.05946634390043e-07
1.43003554168689e-05
5.03691340347773e-08
-9.0732933522254e-08
2.18627063033792e-06
7.68086346911374e-08
-2.52553780471797e-08
1.62155167253675e-05
5.47606738992003e-08
-1.80278038268433e-07
2.18711421269476e-07
1.19298898741501e-07
-1.38134500957041e-08
3.63490384512444e-06
8.29759273499337e-08
-6.25833735777368e-08
1.78219114313603e-05
5.92563745904998e-08
-2.83327060264575e-07
-2.87407136050626e-07
1.65754103169846e-07
-1.00557975646477e-08
8.27419760178173e-07
1.32880223581384e-07
-3.59426703402958e-08
4.25573084752637e-06
1.03901767737214e-07
-1.08870081968348e-07
1.96981103065176e-05
6.84279746631822e-08
-3.948507210704e-07
-5.09777423557155e-07
2.11739388470259e-07
-7.2052297097121e-09
6.91197067452063e-08
1.83913431444588e-07
-2.40316422624443e-08
1.06845208131617e-06
1.66453982388302e-07
-6.05628130451837e-08
4.9882627963786e-06
1.34165250803191e-07
-1.59011302003742e-07
2.12602998082079e-05
9.78030651290835e-08
-5.10657914595875e-07
1.43378362721582e-05
5.34462661049785e-08
-9.09186277046068e-08
2.18527326134605e-06
7.44683530190688e-08
-2.30922205131819e-08
1.62432024863488e-05
5.87805287653136e-08
-1.77164850745401e-07
1.94342444697716e-07
1.12696986588497e-07
-1.15167681921643e-08
3.6419442653162e-06
7.95077625633143e-08
-5.70276670032807e-08
1.78549305062961e-05
6.29206329035147e-08
-2.76193023500554e-07
-3.16595805584394e-07
1.56864370951439e-07
-8.37560669938862e-09
8.04304003243775e-07
1.23702458864837e-07
-3.1419764255007e-08
4.25861097965336e-06
9.45113452344235e-08
-1.00703886626324e-07
1.97361842211607e-05
6.30978164860457e-08
-3.84479111397675e-07
-5.39941671372613e-07
2.02837840101833e-07
-6.91879858201857e-09
4.07202307047873e-08
1.74348188034541e-07
-2.31220901073516e-08
1.04083413035858e-06
1.52886781737996e-07
-5.73046093857896e-08
4.98732193556076e-06
1.12410130560488e-07
-1.51901525350421e-07
2.12937259549815e-05
7.02351483178276e-08
-4.98495075511705e-07
-6.6096204076504e-07
2.47694485086083e-07
-4.28638862005611e-09
-2.96900327072733e-07
2.22634121845637e-07
-1.55956910683801e-08
1.472175092748e-07
2.11188058656424e-07
-3.88340924994184e-08
1.33462060970697e-06
1.82113599913392e-07
-8.57451215089007e-08
5.59751292508136e-06
1.39845293883157e-07
-2.06132955547553e-07
2.23419534868033e-05
1.00172035543473e-07
-6.16147509028653e-07
1.43719011873881e-05
5.72018384327426e-08
-9.12627661800709e-08
2.18660724985916e-06
7.35018182650649e-08
-2.13839491539508e-08
1.62635874980838e-05
6.38204074573287e-08
-1.75106060766135e-07
1.70543159909321e-07
1.07995431738267e-07
-9.72666160948148e-09
3.65241745094563e-06
7.82461244954486e-08
-5.30210327176019e-08
1.78805243629663e-05
6.8349194163083e-08
-2.71081773604817e-07
-3.46540766042103e-07
1.49324833402056e-07
-6.68098915014215e-09
7.82087271893764e-07
1.17403533945242e-07
-2.71917368485697e-08
4.26706939991548e-06
9.11900285997964e-08
-9.37400275475806e-08
1.97675953564889e-05
6.85826569775382e-08
-3.76163513633626e-07
-5.7126414968129e-07
1.93855433645535e-07
-5.66766995576455e-09
1.09686033271217e-08
1.65102258418169e-07
-2.00209852425503e-08
1.01335025834441e-06
1.42285151287649e-07
-5.17061336872334e-08
4.99110697666978e-06
1.0171254322298e-07
-1.43089392531039e-07
2.13321950116373e-05
6.42157791113461e-08
-4.8714132164719e-07
-6.92522382710206e-07
2.38494071207569e-07
-4.09513671719195e-09
-3.28072659615598e-07
2.13639217815081e-07
-1.50355437312888e-08
1.13578928122398e-07
2.0032745106236e-07
-3.69218841435362e-08
1.30431393952969e-06
1.66474269635791e-07
-8.10586139109118e-08
5.59816220753118e-06
1.15304265838464e-07
-1.97611126886739e-07
2.23756305880498e-05
6.99698164119246e-08
-6.02128051233556e-07
-7.65227597077671e-07
2.82093134250268e-07
-1.86121909643098e-09
-5.1566685519578e-07
2.60430135279637e-07
-9.2787812303066e-09
-2.85804281797641e-07
2.54937914750797e-07
-2.47932857432481e-08
2.61687332869158e-07
2.30375565931949e-07
-5.51223924651357e-08
1.53860924197169e-06
1.88433178451628e-07
-1.12136815373933e-07
6.06833900840255e-06
1.40330240297585e-07
-2.54532656114519e-07
2.3024659959669e-05
1.00045649702335e-07
-7.20436190322553e-07
1.44018781350323e-05
6.16496661628442e-08
-9.16169324126768e-08
2.1899002861547e-06
7.35335318986275e-08
-1.96195370485724e-08
1.62763256585956e-05
6.94299867751164e-08
-1.7341492554507e-07
1.47377939451562e-07
1.04809559109847e-07
-8.14066877804306e-09
3.6659791435997e-06
7.84893410443281e-08
-4.96056119310611e-08
1.78974343827499e-05
7.47546667182554e-08
-2.66756517224048e-07
-3.76588552529187e-07
1.43312793234148e-07
-5.26844755447968e-09
7.60981203511751e-07
1.13225614147719e-07
-2.35940899865189e-08
4.28026737673836e-06
9.0159259395895e-08
-8.80141575215786e-08
1.97899898588294e-05
7.55975165622378e-08
-3.69060184291874e-07
-6.03401246844129e-07
1.8571407413186e-07
-4.25146900536919e-09
-1.90643403262637e-08
1.57459501862323e-07
-1.67008669810091e-08
9.88120995531097e-07
1.35313162448308e-07
-4.60797927992858e-08
5.00223537186411e-06
9.86633677197664e-08
-1.34934582699551e-07
2.1362314038182e-05
7.09447042097614e-08
-4.77196288286832e-07
-7.24787923141538e-07
2.29249109056489e-07
-3.12749744980326e-09
-3.60351805924655e-07
2.04431503310109e-07
-1.27157667683879e-08
7.89177863343431e-08
1.89828691367329e-07
-3.2900206532392e-08
1.27422217420607e-06
1.54612721065481e-07
-7.45070635615622e-08
5.60369400288798e-06
1.03500477185943e-07
-1.87890673686631e-07
2.24145041646426e-05
6.30793350313763e-08
-5.89072305472887e-07
-7.97397485785172e-07
2.72363885568499e-07
-1.69950256462682e-09
-5.48512733024797e-07
2.51259609767836e-07
-8.86859178066775e-09
-3.21939482157821e-07
2.44948884609962e-07
-2.35203335970994e-08
2.2490886214379e-07
2.18361673646098e-07
-5.20284577178998e-08
1.50767781065488e-06
1.71225239301109e-07
-1.06042863288183e-07
6.07133829439613e-06
1.13841529192793e-07
-2.44462557862011e-07
2.30587111800518e-05
6.78898436703774e-08
-7.04050053759007e-07
-8.45745479114171e-07
3.14792798412387e-07
9.56183758866363e-11
-6.66677585095753e-07
2.97075295590471e-07
-4.35316598943022e-09
-5.41491301384256e-07
2.97362615370536e-07
-1.45135054609703e-08
-2.39591489607476e-07
2.77609290596425e-07
-3.49218393723106e-08
3.55587915683651e-07
2.37686187158602e-07
-7.21580709089176e-08
1.69054819591338e-06
1.87310243444103e-07
-1.38578302692692e-07
6.46251610198296e-06
1.37445875119506e-07
-3.03423848285653e-07
2.35117234139703e-05
9.73829153998702e-08
-8.21579777532833e-07
1.44270104754783e-05
6.69563238431733e-08
-9.20851331183988e-08
2.19481203969234e-06
7.44520581890664e-08
-1.7710094142872e-08
1.62808268027915e-05
7.57058960548647e-08
-1.71820161533413e-07
1.24566101615711e-07
1.02828302095124e-07
-6.48233587596963e-09
3.68218029893819e-06
7.98262719583865e-08
-4.62107671341837e-08
1.79052322379499e-05
8.17070464096599e-08
-2.62901177040173e-07
-4.06577218022758e-07
1.38719504890628e-07
-3.92014381693639e-09
7.40858980378566e-07
1.10719555953029e-07
-2.02442288669889e-08
4.29728795202911e-06
9.08496273207214e-08
-8.27106253062887e-08
1.98023104678386e-05
8.33961625424825e-08
-3.62449427846816e-07
-6.35922878295608e-07
1.7875551921378e-07
-2.92064418458675e-09
-4.89817589171293e-08
1.51523422367194e-07
-1.36458173558394e-08
9.64791708518421e-07
1.30748470697373e-07
-4.08480273577509e-08
5.0192676068049e-06
9.81139925328814e-08
-1.27553100548692e-07
2.13818563334759e-05
7.93436975932488e-08
-4.67932275429956e-07
-7.57723758284419e-07
2.20619108282167e-07
-1.9682244683387e-09
-3.93265801512552e-07
1.96131583387446e-07
-1.00074583329763e-08
4.46744771497277e-08
1.81231574184152e-07
-2.83715905545643e-08
1.24733545835284e-06
1.47164647947974e-07
-6.76901154528669e-08
5.61765100443782e-06
1.0060587361484e-07
-1.78539870323053e-07
2.24438583272062e-05
7.04853652728253e-08
-5.77010945249032e-07
-8.29948579815189e-07
2.62700344247136e-07
-8.99666151289767e-10
-5.8203554103932e-07
2.41861647122301e-07
-7.03281470571844e-09
-3.58963516429822e-07
2.34596924836325e-07
-2.04572597738551e-08
1.86948691751222e-07
2.06827200466117e-07
-4.71503267740447e-08
1.47673184948632e-06
1.58401855051491e-07
-9.84575674747832e-08
6.07904009155145e-06
1.01066380594351e-07
-2.33558681614057e-07
2.30983604288513e-05
5.99247627281276e-08
-6.88612799564165e-07
-8.780640808697e-07
3.04424612921516e-07
2.58289140938945e-10
-7.0050855645222e-07
2.8739463156671e-07
-4.00209826019277e-09
-5.7915416491401e-07
2.87287131680777e-07
-1.354257811354e-08
-2.78882041742892e-07
2.6684845043896e-07
-3.27142073987313e-08
3.17835740623117e-07
2.24851780800188e-07
-6.78979640345964e-08
1.66048336743594e-06
1.69027157255999e-07
-1.3115866786127e-07
6.46826400252685e-06
1.09447584744596e-07
-2.91748893906474e-07
2.35464954240342e-05
6.35212505986879e-08
-8.02318134335276e-07
-9.14575282685759e-07
3.46128737369674e-07
1.40347030545412e-09
-7.82169073170869e-07
3.32462611654544e-07
-4.69808959965589e-10
-7.17360782137582e-07
3.38417346583886e-07
-6.68907517848269e-09
-5.31193522601822e-07
3.23447426222801e-07
-2.02764023808408e-08
-1.87764683448725e-07
2.86173871489996e-07
-4.56338736636028e-08
4.36176425720507e-07
2.35609518969516e-07
-8.92798895878688e-08
1.83146437913693e-06
1.81723243449026e-07
-1.64714265751808e-07
6.84593992601865e-06
1.3180485381262e-07
-3.52754310591522e-07
2.39502073464189e-05
9.20116802540274e-08
-9.17336126365053e-07
1.44463078350631e-05
7.33119314716662e-08
-9.26062706104026e-08
2.20111156858837e-06
7.61196249929242e-08
-1.54586887152668e-08
1.62764372412015e-05
8.30585176410732e-08
-1.70745599779475e-07
1.01745616475237e-07
1.01863397421299e-07
-4.5900487246369e-09
3.70081277427849e-06
8.2097767212017e-08
-4.27303536024932e-08
1.79025588800746e-05
9.02156329064892e-08
-2.5935306916375e-07
-4.36657164876953e-07
1.35376641345188e-07
-2.46773716400838e-09
7.21395272791473e-07
1.09570633974079e-07
-1.67614940229137e-08
4.31735463376085e-06
9.27793190509393e-08
-7.73448196331023e-08
1.98039058473903e-05
9.1692662089968e-08
-3.56177289532397e-07
-6.68678182512785e-07
1.73050152356846e-07
-1.57500881882107e-09
-7.87132286980334e-08
1.47176205898452e-07
-1.06439379685063e-08
9.42949547508415e-07
1.2809631433854e-07
-3.56450856510494e-08
5.04092982786396e-06
9.93668330545893e-08
-1.20335265028717e-07
2.13898857716385e-05
8.83721192443436e-08
-4.58835719743152e-07
-7.91098619823132e-07
2.12956522491611e-07
-8.25771936199131e-10
-4.26481154373992e-07
1.89169089872375e-07
-7.34916185620456e-09
1.10110501256891e-08
1.74609567323399e-07
-2.38421809546096e-08
1.22307538165661e-06
1.42438339959358e-07
-6.09094436786552e-08
5.63845675693386e-06
1.00533298267147e-07
-1.69527773984703e-07
2.24612965531444e-05
7.98586531499549e-08
-5.6520859310323e-07
-8.62986858940461e-07
2.53570368579584e-07
8.766441193967e-11
-6.16148780273601e-07
2.33059573719137e-07
-4.78144486124242e-09
-3.96227492130662e-07
2.25231414021695e-07
-1.67408610769327e-08
1.49833777555507e-07
1.97501661420299e-07
-4.15906766320823e-08
1.44949700286982e-06
1.50626739464979e-07
-9.04698966496411e-08
6.09577529665887e-06
9.80957177767967e-08
-2.22865681530928e-07
2.31276695692186e-05
6.75562911578871e-08
-6.73849150476217e-07
-9.10569303554158e-07
2.94252197376981e-07
9.53828314016043e-10
-7.34678349369777e-07
2.7760170057292e-07
-2.46865469265997e-09
-6.17299044350912e-07
2.7679169318277e-07
-1.10808208041921e-08
-3.19200330121506e-07
2.5561603907249e-07
-2.89255687054051e-08
2.78623923901942e-07
2.12577781577208e-07
-6.21117239792279e-08
1.63009993703687e-06
1.55482002287788e-07
-1.22479974404437e-07
6.47834233034103e-06
9.57037932891442e-08
-2.79393411617754e-07
2.35876186113315e-05
5.42501334831784e-08
-7.83948768319917e-07
-9.467952454251e-07
3.35135944701376e-07
1.50892121726341e-09
-8.16509914671474e-07
3.22142094139369e-07
-1.47736230270636e-10
-7.5602921666405e-07
3.27822840083695e-07
-5.86824688950612e-09
-5.72082042957022e-07
3.12729482726014e-07
-1.85333295489166e-08
-2.28115827580245e-07
2.74961560877934e-07
-4.24708816884223e-08
3.98999762355905e-07
2.2226525548095e-07
-8.39558423272629e-08
1.80318250649509e-06
1.62608721865613e-07
-1.56028620022105e-07
6.85469780455723e-06
1.02419094913952e-07
-3.39380054155269e-07
2.39863784696296e-05
5.63065092603287e-08
-8.94765238912192e-07
-9.77639151556182e-07
3.76201696940777e-07
2.4601868792917e-09
-8.77568694489241e-07
3.66442671448396e-07
2.50224309775941e-09
-8.52752103642684e-07
3.78112403312666e-07
-5.98446290482931e-10
-7.30315977603067e-07
3.67927194993814e-07
-9.28317335479729e-09
-4.99624012474323e-07
3.33476545420543e-07
-2.6530975419141e-08
-1.29117898257438e-07
2.83680829067231e-07
-5.6605629256476e-08
5.23930914147573e-07
2.28114223186694e-07
-1.0628411326532e-07
1.98870345761229e-06
1.7293080803216e-07
-1.90657034745352e-07
7.26595575579424e-06
1.23198295473329e-07
-4.02738536295941e-07
2.44110844243718e-05
8.34383627306372e-08
-1.00489703521194e-06
1.44586731997012e-05
8.08615923873462e-08
-9.3227380452621e-08
2.20869811540438e-06
7.86101216745692e-08
-1.28827883566108e-08
1.62619205443443e-05
9.15233942863295e-08
-1.69606155947786e-07
7.84930271162461e-08
1.01778942132359e-07
-2.40548887020161e-09
3.72155825398338e-06
8.52276655236631e-08
-3.8368418181923e-08
1.7889694404991e-05
9.8215967020961e-08
-2.56087968128613e-07
-4.67118011995334e-07
1.33132670197677e-07
-8.0707470189927e-10
7.02216313430367e-07
1.09571399694788e-07
-1.28824772661045e-08
4.34073824556685e-06
9.57382515220742e-08
-7.16283927445263e-08
1.97933030851739e-05
1.01835459496793e-07
-3.50570812379045e-07
-7.01747948375428e-07
1.68554228585856e-07
-1.07490766369249e-10
-1.08412609754931e-07
1.44258577334417e-07
-7.45451277389855e-09
9.22092908090291e-07
1.27013110738821e-07
-3.01353787421658e-08
5.06620486935056e-06
1.01962854267745e-07
-1.12880184265115e-07
2.13855586098087e-05
9.79073717530699e-08
-4.49745395200839e-07
-8.24822349594401e-07
2.06413945916748e-07
3.60416739629221e-10
-4.59883119923836e-07
1.83633068681362e-07
-4.62829516863219e-09
-2.21915911857112e-08
1.69823175333149e-07
-1.91662725387944e-08
1.20083282817743e-06
1.39828468467284e-07
-5.38604483000708e-08
5.66461445735145e-06
1.02311131867851e-07
-1.60420558504238e-07
2.24659168150412e-05
8.98336090049808e-08
-5.53267017832141e-07
-8.96416514293822e-07
2.45290123156709e-07
1.0964291789277e-09
-6.5067766047353e-07
2.25343588748462e-07
-2.47003470682887e-09
-4.33530878549918e-07
2.1739411245639e-07
-1.28279522473841e-08
1.13726483204307e-07
1.90403934327694e-07
-3.56967427048926e-08
1.42544302461392e-06
1.45866463425857e-07
-8.21836287151566e-08
6.12005309239916e-06
9.8259054603029e-08
-2.1219077841772e-07
2.31440427722358e-05
7.75179875711371e-08
-6.59071969221607e-07
-9.43413060269589e-07
2.84627072361063e-07
1.78755638675266e-09
-7.69288400595059e-07
2.68300928658759e-07
-5.42334828123583e-10
-6.55771570841059e-07
2.66877996028107e-07
-7.95352673241215e-09
-3.59569262601263e-07
2.4544890832401e-07
-2.43166422578815e-08
2.40422206064046e-07
2.02784928580597e-07
-5.55431475530204e-08
1.60361828429788e-06
1.47416105134937e-07
-1.13301117477042e-07
6.49776792832621e-06
9.24282960483467e-08
-2.6713643770026e-07
2.36180922890628e-05
6.17887880198752e-08
-7.66075289679534e-07
-9.79090919891392e-07
3.24413549172092e-07
2.13472906117433e-09
-8.50960032459784e-07
3.11823304139661e-07
1.18323674456997e-09
-7.9485154392535e-07
3.16933315124421e-07
-3.78621681603497e-09
-6.13539962714037e-07
3.01425213061748e-07
-1.54304649836912e-08
-2.69720464132979e-07
2.63170948530908e-07
-3.79110708365501e-08
3.60107922360912e-07
2.09524778914403e-07
-7.72579167170968e-08
1.77420725228751e-06
1.4840561204891e-07
-1.46196532702406e-07
6.86729686082646e-06
8.75953061666259e-08
-3.2531016531601e-07
2.40300125842695e-05
4.54219980614808e-08
-8.72958063164782e-07
-1.00964695416364e-06
3.6456263130981e-07
2.58137910457164e-09
-9.12108449840774e-07
3.55405744016992e-07
2.78557619649242e-09
-8.92026129288884e-07
3.66816953844221e-07
1.33175168393224e-10
-7.72355730791629e-07
3.56708093210104e-07
-7.80578902571094e-09
-5.41660454530863e-07
3.2245987321475e-07
-2.39933106727344e-08
-1.68998990938545e-07
2.72257333474891e-07
-5.25799857140255e-08
4.88172749428549e-07
2.14398397113106e-07
-9.99842123982325e-08
1.9627812660167e-06
1.53030968533033e-07
-1.80707314965499e-07
7.2780255433936e-06
9.23637590757339e-08
-3.87475130391619e-07
2.44491440346795e-05
4.56613855412868e-08
-9.78448426702239e-07
-1.03743855373889e-06
4.05102494294735e-07
3.30487829743049e-09
-9.61076576768826e-07
3.99143054461053e-07
4.81466467893604e-09
-9.65190423952454e-07
4.16430357489291e-07
4.13178235973243e-09
-8.8384772193869e-07
4.11091918661095e-07
-7.95601312497623e-10
-7.11740365771315e-07
3.79588750047692e-07
-1.2273387483535e-08
-4.50372959262784e-07
3.3095293755314e-07
-3.31492950600331e-08
-5.6781282206026e-08
2.74931001549852e-07
-6.7703574124353e-08
6.3035853434308e-07
2.17006992843926e-07
-1.23249050126246e-07
2.17373665789244e-06
1.60832572086123e-07
-2.16612016809255e-07
7.75660714370389e-06
1.10961288055409e-07
-4.53608221802789e-07
2.49099099124003e-05
7.03517412267754e-08
-1.08036871949954e-06
1.44626766771595e-05
8.98399526789045e-08
-9.38385257164368e-08
2.21754109010391e-06
8.19720298795559e-08
-9.95109673721202e-09
1.62359036396652e-05
1.0137936695477e-07
-1.68577744411885e-07
5.4427483503515e-08
1.02550127473025e-07
1.26284280349246e-10
3.74447786221105e-06
8.93764947964556e-08
-3.36551792966432e-08
1.78647726949544e-05
1.08435189936688e-07
-2.53111073563105e-07
-4.9832422333714e-07
1.3185898830555e-07
1.12674826865969e-09
6.82874248213105e-07
1.10624780049851e-07
-8.45816455575167e-09
4.3662904167067e-06
9.95734383115828e-08
-6.52722434497621e-08
1.97708176738043e-05
1.11279794848268e-07
-3.44877857921831e-07
-7.35381767811335e-07
1.65208164147287e-07
1.55868619597545e-09
-1.38373971715509e-07
1.42626714342563e-07
-3.89962811832379e-09
9.0175342147068e-07
1.27262314178059e-07
-2.40651178664695e-08
5.09540266995093e-06
1.05789598127022e-07
-1.04771480310619e-07
2.13677936175903e-05
1.08588411838404e-07
-4.41380851601024e-07
-8.58966710973266e-07
2.01028776746863e-07
1.67017040150604e-09
-4.93543865930238e-07
1.79500390464506e-07
-1.68795803785273e-09
-5.52066390377425e-08
1.66700649097845e-07
-1.41263448360356e-08
1.17996168517967e-06
1.38976257477418e-07
-4.62739137284951e-08
5.69503641097194e-06
1.05515588018319e-07
-1.50896728944109e-07
2.24569391788076e-05
1.00331463384364e-07
-5.41086357101492e-07
-9.30221339788796e-07
2.38043915261837e-07
2.1749827394799e-09
-6.85549319446809e-07
2.18906351781944e-07
-4.00471138894684e-11
-4.70878043546699e-07
2.11207094108869e-07
-8.66393268687174e-09
7.84033323121174e-08
1.85358938797166e-07
-2.93707947446689e-08
1.4038763902229e-06
1.43377042169608e-07
-7.33560720391651e-08
6.15031002801661e-06
1.00368122879222e-07
-2.01201133661941e-07
2.31466376575264e-05
8.80999597872025e-08
-6.43941893891713e-07
-9.76576794499386e-07
2.75823028700124e-07
2.63102933092375e-09
-8.04290189311895e-07
2.5995378885194e-07
1.48877266552368e-09
-6.94500876200891e-07
2.58190768291946e-07
-4.53557432301486e-09
-3.99755109532461e-07
2.36980458454383e-07
-1.92163558129954e-08
2.03513809618841e-07
1.95447082804084e-07
-4.83652129358448e-08
1.58065469951252e-06
1.42597338722899e-07
-1.03550802040365e-07
6.52521980585367e-06
9.25896972760382e-08
-2.54696156085446e-07
2.36348326809752e-05
7.2085230180817e-08
-7.4787744100636e-07
-1.0116268449435e-06
3.14262043437636e-07
2.90118557766602e-09
-8.85704243124718e-07
3.01969531907088e-07
2.86418702471498e-09
-8.33914312792918e-07
3.06479455333777e-07
-1.07948174854595e-09
-6.55210766426828e-07
2.90682587614708e-07
-1.15141979342844e-08
-3.11304464765689e-07
2.52509521973707e-07
-3.2455512845724e-08
3.22257555157835e-07
1.99428883132964e-07
-6.97008673848956e-08
1.7491549273362e-06
1.39977677491233e-07
-1.35792393632181e-07
6.88941988566679e-06
8.38222359673596e-08
-3.1126769876319e-07
2.40628632525262e-05
5.26572558780951e-08
-8.51547426044935e-07
-1.04166171354304e-06
3.53266993173451e-07
3.16156875240419e-09
-9.46613827882779e-07
3.44490002034853e-07
3.97428497561148e-09
-9.31232753042198e-07
3.55369415850614e-07
1.95480726129871e-09
-8.14597166434233e-07
3.45035675794414e-07
-5.1538845390765e-09
-5.84414800790909e-07
3.10717380612337e-07
-2.02201427894678e-08
-2.10309540198351e-07
2.60178139389087e-07
-4.72508278127587e-08
4.5043410779461e-07
2.01259309689616e-07
-9.23676243585995e-08
1.93570110336336e-06
1.38121879089581e-07
-1.69632746909169e-07
7.29331213914919e-06
7.62700474573228e-08
-3.7141002073816e-07
2.44960947667823e-05
3.29269649929551e-08
-9.52788540366531e-07
-1.06913018002768e-06
3.92827661616489e-07
3.42666278015386e-09
-9.95573697317394e-07
3.87397369505988e-07
5.08734769397181e-09
-1.00473724788394e-06
4.04354196567596e-07
4.795842101617e-09
-9.26656543895772e-07
3.99140044062811e-07
5.10539386186728e-10
-7.55099426062803e-07
3.68127325125612e-07
-1.01129073076485e-08
-4.92095271915747e-07
3.19877021481826e-07
-2.98885377466391e-08
-9.54525114787985e-08
2.63399460906482e-07
-6.29076815897193e-08
5.96484609221575e-07
2.02942397505555e-07
-1.16014338220972e-07
2.15063772483212e-06
1.40083778338381e-07
-2.05318287132004e-07
7.77236909705665e-06
7.85571283482611e-08
-4.36101702638027e-07
2.49505601364989e-05
3.09026104786949e-08
-1.04996719057309e-06
-1.09480465422076e-06
4.32933233753886e-07
3.92874541816021e-09
-1.03698990160352e-06
4.30681418878651e-07
6.59549570987788e-09
-1.06355298441144e-06
4.53450782859656e-07
7.78752359154428e-09
-1.01160080280782e-06
4.52938580443621e-07
5.80067764011076e-09
-8.75690107227565e-07
4.24507627153401e-07
-1.29495301276505e-09
-6.68384584943801e-07
3.77286616369862e-07
-1.56519446337238e-08
-3.84629763938295e-07
3.21398207448803e-07
-4.00445785731955e-08
3.30261191049482e-08
2.62225164026932e-07
-7.89833898029175e-08
7.58897814985242e-07
2.02315743907329e-07
-1.40353007008838e-07
2.39336394541875e-06
1.44729372561457e-07
-2.42853801429911e-07
8.34586157765582e-06
9.39097728365987e-08
-5.05750312480758e-07
2.54243355587151e-05
5.17548231797408e-08
-1.13924637731394e-06
1.44563745186301e-05
1.00510235900465e-07
-9.4209984192251e-08
2.22767157082121e-06
8.63166819020483e-08
-6.60829463023261e-09
1.61968299942152e-05
1.12853069105414e-07
-1.6761363136308e-07
2.9153136861368e-08
1.04216271551828e-07
3.03143281029163e-09
3.76969315967088e-06
9.46300043299954e-08
-2.84143290259496e-08
1.78263945933682e-05
1.20245317675193e-07
-2.50440670406939e-07
-5.30677756587127e-07
1.31522619698763e-07
3.38115528205497e-09
6.63034927594652e-07
1.12745006336476e-07
-3.40218102931618e-09
4.3946160309765e-06
1.046561164653e-07
-5.81951452870686e-08
1.97341531841223e-05
1.23263580277831e-07
-3.39707928362024e-07
-7.69842362225576e-07
1.62978492514514e-07
3.34139747218236e-09
-1.68978449191283e-07
1.42224765017085e-07
1.3212482067546e-10
8.81369150162958e-07
1.28746177604232e-07
-1.72439575788659e-08
5.12710323416402e-06
1.10610162552834e-07
-9.62985018283678e-08
2.13359127137881e-05
1.20000637559433e-07
-4.32992483225834e-07
-8.93720721751867e-07
1.96796617916279e-07
3.16590088527546e-09
-5.27650713509131e-07
1.76709889835831e-07
1.58339461133018e-09
-8.84022206676164e-08
1.65090272423851e-07
-8.53101638176892e-09
1.1599269297819e-06
1.39652069432539e-07
-3.78906736765594e-08
5.72955034654325e-06
1.10002088412172e-07
-1.40692277255007e-07
2.24334207343172e-05
1.11673386828943e-07
-5.2952238573618e-07
-9.64491645675886e-07
2.31919188534191e-07
3.38002169904884e-09
-7.20816409916889e-07
2.13815916853182e-07
2.62239992843616e-09
-5.08411169176418e-07
2.06654102535741e-07
-4.10731076301413e-09
4.34924940725375e-08
1.82209663035301e-07
-2.24468195812302e-08
1.38408737134176e-06
1.42787754438364e-07
-6.37520248069794e-08
6.1853931036106e-06
1.03987018647391e-07
-1.89629563421488e-07
2.31346933178822e-05
9.92056032246326e-08
-6.28331615070332e-07
-1.01008822478527e-06
2.68013816605882e-07
3.54194924289345e-09
-8.39670205374531e-07
2.52788289879366e-07
3.67365302858977e-09
-7.33499317040716e-07
2.50981167875274e-07
-8.14848452043559e-10
-4.39789454375016e-07
2.30355524747888e-07
-1.3624366986088e-08
1.67684154810219e-07
1.9033684243009e-07
-4.04979133826143e-08
1.5605380456124e-06
1.40168629188061e-07
-9.30353600539121e-08
6.55907087559649e-06
9.48448759990906e-08
-2.4178237023558e-07
2.36370005201704e-05
8.30709933773725e-08
-7.29151945887443e-07
-1.04441513684379e-06
3.04923017400553e-07
3.68864268413748e-09
-9.20776287191793e-07
2.93000182531347e-07
4.6574644202329e-09
-8.73263749473625e-07
2.9708410959653e-07
1.94622185723964e-09
-6.96993390880178e-07
2.81286998570656e-07
-7.05781423832907e-09
-3.5249808697592e-07
2.43695530238023e-07
-2.62686874572038e-08
2.85880682149037e-07
1.91926262990067e-07
-6.13126889883273e-08
1.72783466803159e-06
1.34989717128364e-07
-1.2462332645331e-07
6.91996267846614e-06
8.38052987897677e-08
-2.96937385941241e-07
2.4081339039222e-05
6.31485451649697e-08
-8.29465547427269e-07
-1.07384166243668e-06
3.42576290245535e-07
3.86588372035879e-09
-9.81295395748033e-07
3.34064924711583e-07
5.48819776510799e-09
-9.70559229291602e-07
3.44323585823559e-07
4.34795344713453e-09
-8.56996708595781e-07
3.33738066333724e-07
-1.73403595051026e-09
-6.27381159247441e-07
2.99514765188572e-07
-1.55512652848092e-08
-2.51641016443496e-07
2.49262438515287e-07
-4.09543105528831e-08
4.13682769990996e-07
1.90867517029747e-07
-8.38352040591244e-08
1.91246381691186e-06
1.29228726129254e-07
-1.57949720573162e-07
7.31820134479396e-06
7.18270473079413e-08
-3.55302207704141e-07
2.4532428113705e-05
3.95504604549492e-08
-9.27386297098034e-07
-1.10078930007606e-06
3.8095693457765e-07
3.96928640922066e-09
-1.02995731737658e-06
3.75858735527284e-07
6.17701709829537e-09
-1.04407905949788e-06
3.92256546224471e-07
6.43010338848991e-09
-9.69417166821185e-07
3.86902809860685e-07
2.84949838702658e-09
-7.98759090062263e-07
3.56081498393172e-07
-6.85628091311938e-09
-5.34653512470536e-07
3.07961522020579e-07
-2.54431731808303e-08
-1.35728483757436e-07
2.51111735188539e-07
-5.68227401620007e-08
5.60311723415012e-07
1.89381874271149e-07
-1.0744981286665e-07
2.1257942633078e-06
1.24352221969279e-07
-1.92860921519999e-07
7.79057761376855e-06
6.09854504274413e-08
-4.1764457298813e-07
2.50013041497943e-05
1.6236626367118e-08
-1.0197201685707e-06
-1.12606804779342e-06
4.20039697891769e-07
4.0514085791966e-09
-1.07126236742368e-06
4.18237128052267e-07
6.85968362903632e-09
-1.10309773551185e-06
4.40580692904771e-07
8.40636591842214e-09
-1.05480747074606e-06
4.40159146502742e-07
6.98384610469626e-09
-9.19987761712114e-07
4.12324189390674e-07
6.12563386111244e-10
-7.11593742447413e-07
3.65844143463954e-07
-1.28696378117764e-08
-4.25330227394145e-07
3.10362979896903e-07
-3.61497568776847e-08
-4.06609152866081e-09
2.50606956213923e-07
-7.3476179017994e-08
7.27260338094932e-07
1.87869704506593e-07
-1.32155876846887e-07
2.37356804334274e-06
1.23021726085444e-07
-2.29975341097753e-07
8.36586102557415e-06
5.98497109103764e-08
-4.85018915711555e-07
2.5467773636022e-05
1.02265863554978e-08
-1.10360214790662e-06
-1.14996899733462e-06
4.59765258219987e-07
4.35657428714291e-09
-1.10752467055666e-06
4.61128180715621e-07
7.91162430852533e-09
-1.15258774790889e-06
4.89254725425742e-07
1.05719386831649e-08
-1.12323986987158e-06
4.93495842396914e-07
1.08934897601756e-08
-1.01241480633637e-06
4.6819613730252e-07
7.23490261235994e-09
-8.37189689845221e-07
4.22595393118382e-07
-2.17065571263757e-09
-6.06595908106335e-07
3.67236669597749e-07
-1.93932423919815e-08
-3.02643671478469e-07
3.07593354089803e-07
-4.72681317490276e-08
1.4140164113658e-07
2.45757585732802e-07
-9.06191157364205e-08
9.11506674839227e-07
1.83373681282681e-07
-1.57888793601241e-07
2.65625587780503e-06
1.23475499860865e-07
-2.69904198390091e-07
9.05962052066453e-06
7.04007231402631e-08
-5.59419535025119e-07
2.58814408123847e-05
2.53957797867926e-08
-1.17529951027548e-06