/*--------------------------------*- C++ -*----------------------------------*\
  =========                 |
  \\      /  F ield         | OpenFOAM: The Open Source CFD Toolbox
   \\    /   O peration     | Website:  https://openfoam.org
    \\  /    A nd           | Version:  12
     \\/     M anipulation  |
\*---------------------------------------------------------------------------*/
/*   Windows 32 and 64 bit porting by blueCAPE: http://www.bluecape.com.pt   *\
|  Based on Windows porting (2.0.x v4) by Symscape: http://www.symscape.com   |
\*---------------------------------------------------------------------------*/
FoamFile
{
    format      ascii;
    class       volVectorField;
    location    "400";
    object      U;
}
// * * * * * * * * * * * * * * * * * * * * * * * * * * * * * * * * * * * * * //

dimensions      [0 1 -1 0 0 0 0];

internalField   nonuniform List<vector> 
10068
(
(-9.46880015579834e-06 -0.000181866907799236 3.63057017355494e-05)
(-5.32568486278032e-06 -0.00016821364778995 3.24168589336487e-05)
(-3.63718166664888e-06 0.000647270282710496 6.56229947941951e-05)
(-2.22446701335752e-05 2.68445972310166e-05 4.35248856883586e-05)
(-2.21818204374482e-06 -0.000146082141809281 2.91614103945548e-05)
(-2.31903022266216e-06 0.00066847197118784 5.82602051372793e-05)
(-1.32306777771708e-05 5.1019611476715e-05 3.67765652403015e-05)
(-1.85353090299119e-06 0.000617668482706734 9.09309450671238e-05)
(-1.00297193648966e-05 0.000759786945769341 7.13977396089982e-05)
(-2.93225500580075e-05 0.000132841956351005 4.80440405357135e-05)
(-1.45220669706828e-06 -0.000120457836830154 2.70011594508703e-05)
(-1.13858313032013e-06 0.000690990617496028 5.23132666124888e-05)
(-6.78457778101439e-06 7.7708001508811e-05 3.24048636792594e-05)
(-1.4793350016338e-06 0.000639504772211422 8.40475453506884e-05)
(-6.87282203375879e-06 0.000785694366153128 6.28714314554901e-05)
(-2.0378328895416e-05 0.000161121486073578 3.90574265843574e-05)
(-1.08717088732225e-06 0.000596716000126671 0.000116085376873498)
(-5.98697721571287e-06 0.000704122969330458 9.68704654454083e-05)
(-1.50940861430123e-05 0.000857957971779434 7.60216465807891e-05)
(-3.50637213573662e-05 0.00016505552407285 5.09774689983449e-05)
(-1.32681166189676e-06 -9.65727298527152e-05 2.59225334157085e-05)
(-5.17822254959886e-07 0.000714236472856919 4.85139360834646e-05)
(-4.39098415984575e-06 0.000106626167249062 3.0557081600404e-05)
(-9.69421638216444e-07 0.000661999463060158 7.77597104756793e-05)
(-3.79127743430367e-06 0.00081117814977899 5.67902285908745e-05)
(-1.34716240855322e-05 0.000189404990158464 3.36741174607066e-05)
(-9.28989777427104e-07 0.000618195805596197 0.00010956983072102)
(-4.88200952404352e-06 0.000729608009838419 8.92431047192089e-05)
(-1.1146603033303e-05 0.00088785351956117 6.62972020235473e-05)
(-2.6960810914809e-05 0.000194320327630762 4.05193668669108e-05)
(-4.14113042766877e-07 0.000603239141251131 0.00014026450257721)
(-3.8981115404816e-06 0.000648753281550303 0.000121819995683741)
(-9.71851597622923e-06 0.000777462078302444 0.000101683759385044)
(-1.93223454189835e-05 0.000882617010700505 7.91052754690851e-05)
(-4.15166822095359e-05 0.00017331635929285 5.28961793242086e-05)
(-1.14542498036521e-06 -7.3679394943738e-05 2.55439701902282e-05)
(-1.40126026788995e-07 0.000736258989264265 4.6048057984946e-05)
(-3.12622777219976e-06 0.000133283113004633 2.97076809792586e-05)
(-5.4633018194485e-07 0.000684919461875223 7.28965749263382e-05)
(-1.78509899513121e-06 0.000835802566787566 5.3177828982556e-05)
(-9.46530459453622e-06 0.000219686792345509 3.24725971526932e-05)
(-6.07464776646528e-07 0.000639986288793146 0.000103155577907739)
(-3.27490988182791e-06 0.000754394930218697 8.27110176367331e-05)
(-7.06947556186605e-06 0.000915885348007729 5.94766646491529e-05)
(-1.9776956026156e-05 0.000223636120668531 3.4593240645668e-05)
(-3.61766650194134e-07 0.000624756848952774 0.000133937154425561)
(-3.44978370716342e-06 0.000672537796448878 0.000114998707343878)
(-7.94099592044569e-06 0.000806009842016139 9.3410498221446e-05)
(-1.50410688228506e-05 0.000913944377985071 6.83243628636423e-05)
(-3.34053201254309e-05 0.000202454268972866 4.1489957054489e-05)
(1.20746580243838e-08 0.000621425246999927 0.000163553691539979)
(-2.0771303862379e-06 0.000637905397720649 0.000145596725309707)
(-6.2688189044347e-06 0.000698413401120491 0.000126542187915718)
(-1.31818196140096e-05 0.000806393703411109 0.000104574278591337)
(-2.35568957092921e-05 0.000886340023878029 8.10181085852649e-05)
(-4.85032079822782e-05 0.000170078730003573 5.3855043340603e-05)
(-7.91470929983449e-07 -5.04220340504682e-05 2.5615465379514e-05)
(2.04072474067943e-07 0.000757158368575837 4.43453531540145e-05)
(-1.78036465826908e-06 0.00015939661036959 2.94514315032872e-05)
(-1.97103060484296e-07 0.000707321715824886 6.92645056172368e-05)
(-3.54143227380324e-07 0.00085840122121971 5.07306361255095e-05)
(-6.44017262427173e-06 0.000247081458318811 3.17788458998066e-05)
(-2.82795265439327e-07 0.000662194352576179 9.77163199856822e-05)
(-1.86125734683337e-06 0.000778504446287339 7.78883206750454e-05)
(-4.0110641181086e-06 0.000941944194423436 5.59864052926694e-05)
(-1.43813703149341e-05 0.000255063755244404 3.38247116192648e-05)
(-1.41237183764774e-07 0.00064622817800803 0.000127560145670396)
(-2.43304245237569e-06 0.000695673564424232 0.000108423562360771)
(-5.57604135996274e-06 0.000832821861130216 8.65335076208445e-05)
(-1.04583058156546e-05 0.00094321078920648 6.09652073291116e-05)
(-2.5655555282807e-05 0.000232054348431074 3.51149052752383e-05)
(3.36686959256e-08 0.000643058805744865 0.000157104476968153)
(-1.89754991035239e-06 0.000660945428709254 0.000139170603056908)
(-5.34870702418442e-06 0.000724307617232481 0.000119441932096659)
(-1.08448625762786e-05 0.00083631494964357 9.57328634818443e-05)
(-1.88616436185926e-05 0.000917876219368886 6.94124083082588e-05)
(-3.97925601785648e-05 0.000198521979616209 4.18844361717703e-05)
(2.86026318755311e-07 0.000644979198383826 0.000185732516574403)
(-6.27815934264304e-07 0.000646971416729754 0.000168295580020775)
(-3.36292433241682e-06 0.000673253413512085 0.000150135708708762)
(-8.64434326533747e-06 0.000719811797689081 0.000129101693989254)
(-1.66163513620637e-05 0.000817755699230526 0.000106069971871002)
(-2.7994447688105e-05 0.000880416336291728 8.20638886930198e-05)
(-5.57971016797338e-05 0.000162772292509681 5.43224902449078e-05)
(-2.62171632715494e-07 -2.58497136236984e-05 2.58361956010716e-05)
(6.03216028986164e-07 0.000777570923311348 4.31887036766848e-05)
(-8.00065787557821e-08 0.000186502425997675 2.94647149778889e-05)
(1.31145886512836e-07 0.000729253196443357 6.6596105154301e-05)
(9.72726737366313e-07 0.000879562779385945 4.91114086377895e-05)
(-3.29812348934023e-06 0.000273766077030176 3.15110712900954e-05)
(1.03161078471796e-08 0.000684309709416691 9.33194836298114e-05)
(-6.60797124785696e-07 0.000801651727350934 7.43214978887341e-05)
(-1.53856402931041e-06 0.000965316789955619 5.35484026810743e-05)
(-9.58975261921037e-06 0.000283186379343554 3.32364345335736e-05)
(1.19032068445783e-07 0.0006680191142733 0.000121801543540745)
(-1.34598557087858e-06 0.000718533233515929 0.000102956999192234)
(-3.39598626693231e-06 0.000858074274666073 8.16410559512503e-05)
(-6.53506949044111e-06 0.000969889047563126 5.7534619329066e-05)
(-1.89723705805145e-05 0.000263988371245718 3.44364598388559e-05)
(2.00526153796069e-07 0.00066442141308366 0.000150632922924773)
(-1.1865663134949e-06 0.000683212153845947 0.000132703998227539)
(-3.79497857758179e-06 0.000748800112308643 0.000112653830190155)
(-7.95374106584546e-06 0.000864188290465206 8.85122441799621e-05)
(-1.3824286472382e-05 0.000947580545680961 6.15467334550644e-05)
(-3.12221424534606e-05 0.000227785655475595 3.5029984514918e-05)
(3.05774729916759e-07 0.000666673551475736 0.000178988896751912)
(-5.38176946223218e-07 0.000669710419042422 0.000161858124753866)
(-2.813753343243e-06 0.000697772503583761 0.000143602096840567)
(-7.22849479364254e-06 0.000746721197910374 0.000121731398895645)
(-1.37581095716963e-05 0.000848115137280221 9.67375880739897e-05)
(-2.27349649163434e-05 0.000911559911585619 6.98033905720924e-05)
(-4.61187426887955e-05 0.000190088589272434 4.18919055015977e-05)
(4.93256751841876e-07 0.000671165283101274 0.00020677408815798)
(5.00182564288618e-07 0.000664987172903154 0.000189974829511307)
(-9.25696586525901e-07 0.00067361598133922 0.000172554939545422)
(-4.52683160229379e-06 0.000688009360820624 0.00015235914616825)
(-1.10677595692075e-05 0.00072702254292725 0.000130087734693587)
(-2.00412572091599e-05 0.000819134336051943 0.00010650894724166)
(-3.25949073355138e-05 0.000869031676779109 8.26012840893366e-05)
(-6.31320967515625e-05 0.000155633237356458 5.46328058748343e-05)
(4.06841623887631e-07 6.41344721687403e-07 2.62889427575581e-05)
(1.06568818423369e-06 0.000798054664035919 4.24895153599789e-05)
(1.99833593191764e-06 0.000215440220126476 2.9626018803091e-05)
(4.79021155166898e-07 0.000751046667630539 6.46237869221824e-05)
(2.44488911735224e-06 0.000900182336517851 4.80618048154185e-05)
(1.81143762816339e-07 0.000301391724696352 3.15209352187398e-05)
(2.91020312597376e-07 0.000706321295701964 8.98259048481512e-05)
(4.75084772182302e-07 0.000824149533625427 7.16914045549463e-05)
(8.70403161323501e-07 0.000986948240390514 5.19982543777524e-05)
(-4.59944996934369e-06 0.000310344066967815 3.29586845452407e-05)
(3.68999933969838e-07 0.000689919855628859 0.000116846916553809)
(-3.26865132151878e-07 0.00074107549634966 9.85668774665833e-05)
(-1.41212949324095e-06 0.000881960108710048 7.80344281368702e-05)
(-3.00016730931999e-06 0.000993400168898686 5.51849357300856e-05)
(-1.25630915293996e-05 0.000292294716187465 3.39072465579438e-05)
(4.17840913788507e-07 0.000685980141906365 0.000144596476740262)
(-3.13881913958372e-07 0.000705351868655111 0.000126890546937731)
(-2.13428852250887e-06 0.000772414478330239 0.000107084259594962)
(-5.12591105974333e-06 0.000889975318887511 8.35388416834651e-05)
(-9.12426009051668e-06 0.00097443800135131 5.80799610429665e-05)
(-2.32950100009843e-05 0.000259644309117647 3.43276479402259e-05)
(4.46068098101068e-07 0.000687977161704339 0.000172296036681243)
(2.78913920016446e-09 0.000691595181520237 0.000155346064843931)
(-1.68912105815584e-06 0.000720941869924148 0.000137003003572568)
(-5.23005383170018e-06 0.000771930966991656 0.000114725636056433)
(-1.03982507143592e-05 0.000876427507617467 8.91719986765144e-05)
(-1.71438678511013e-05 0.000941175581835955 6.14285021970204e-05)
(-3.65268789555253e-05 0.000218508906115055 3.44853120646431e-05)
(5.239030713385e-07 0.000692826442055446 0.00019966258752288)
(5.70859752699279e-07 0.000687551419792512 0.000183299895676911)
(-5.43104743343643e-07 0.000697469088122981 0.000166099951479805)
(-3.552876974932e-06 0.000713266410925359 0.000145719306548079)
(-9.17631119819427e-06 0.000754283806322538 0.000122452801374655)
(-1.66666779292952e-05 0.000849433944833359 9.67518917090029e-05)
(-2.66496693313291e-05 0.000899433729672686 6.97445234082348e-05)
(-5.22635958779367e-05 0.000181547845054644 4.17534479568502e-05)
(6.83974963041935e-07 0.000698622040227059 0.000226770141054889)
(1.38582920804254e-06 0.000687479633677507 0.000210685061185499)
(1.05777945575703e-06 0.000685860931963357 0.00019393939983824)
(-1.00466767271138e-06 0.000683728207556299 0.000174433554466593)
(-5.76164401918103e-06 0.000691152657288851 0.000152888314543405)
(-1.34887300144479e-05 0.000724859060285913 0.000129879900287954)
(-2.34246211366916e-05 0.000814287475830336 0.000106250733381077)
(-3.72426741805722e-05 0.00085485099012522 8.28564363545631e-05)
(-7.02000360032598e-05 0.000151209750129645 5.49832931275492e-05)
(1.19270710290131e-06 2.96126729284201e-05 2.70063119313255e-05)
(1.62750779699796e-06 0.000818926615040276 4.20501950057975e-05)
(4.40344826293073e-06 0.000246793398728209 3.00177458442372e-05)
(8.67331091966308e-07 0.000773069989597793 6.31724688594264e-05)
(4.07367030559236e-06 0.000920799127620012 4.73682230403946e-05)
(4.16119050840964e-06 0.000330939971623338 3.15185480868431e-05)
(5.85704903734594e-07 0.000728412361123128 8.70504405043106e-05)
(1.67841245961128e-06 0.000846485859471314 6.97379544216386e-05)
(3.48264967447114e-06 0.00100794822656829 5.10247774337106e-05)
(8.31511479725496e-07 0.000338382804513775 3.29880073933346e-05)
(6.17293682166861e-07 0.000711923859279321 0.00011267133589408)
(6.68482993304955e-07 0.000763441932469987 9.50685344221178e-05)
(5.62723780437861e-07 0.0009049839659622 7.53575231474588e-05)
(5.87151863169444e-07 0.00101485881465489 5.36552629738611e-05)
(-5.74941324366413e-06 0.000319396852876851 3.36002715959966e-05)
(6.39770371470313e-07 0.000707703689515779 0.000139195095163675)
(5.58976560514396e-07 0.000727487817308127 0.00012189815775882)
(-4.89930724724031e-07 0.000795461584586547 0.000102627950985851)
(-2.36746331464125e-06 0.000914095752422212 7.99220931002471e-05)
(-4.56125365952981e-06 0.000997795480237458 5.58254188215922e-05)
(-1.53741084240978e-05 0.000287619484668437 3.38417043386777e-05)
(6.32599312014293e-07 0.00070937687285247 0.000165968824158595)
(7.23517142547702e-07 0.000713357930886796 0.000149249002157891)
(-3.47631979743066e-07 0.000743564587257913 0.00013108135854273)
(-3.05603937674879e-06 0.00079589480869575 0.000109048616436696)
(-6.97917585520641e-06 0.000902395024619364 8.40672151495379e-05)
(-1.16846840587444e-05 0.00096790865503653 5.78332169066445e-05)
(-2.7356829835815e-05 0.000249929459801115 3.36895666870695e-05)
(6.48892004879277e-07 0.000714042704799546 0.00019267106680464)
(1.01912331781186e-06 0.000709240590218429 0.000176597192973893)
(3.37617764668116e-07 0.000720001052907924 0.000159509543555856)
(-2.04769099859267e-06 0.000736897203276351 0.000139001091778714)
(-6.75683576497573e-06 0.000779756750555685 0.00011521587560463)
(-1.28246480450014e-05 0.000877762831075917 8.88446690741434e-05)
(-2.04050593818812e-05 0.00092863713049462 6.08209115609117e-05)
(-4.14947108755513e-05 0.000208930743318724 3.3709302355641e-05)
(7.21236183173897e-07 0.000720158772607719 0.000219270470469175)
(1.46666202374569e-06 0.000709871317874475 0.000203669170754817)
(1.36756107099842e-06 0.000709320925843185 0.000187294521027073)
(-2.59334679621371e-07 0.000708143372320225 0.000167960525148472)
(-4.37396721410058e-06 0.000716657079092223 0.000146126118574369)
(-1.11559788375827e-05 0.000752086716580113 0.00012199940413876)
(-1.95321724884653e-05 0.000844234314712804 9.60942252029007e-05)
(-3.05375043184094e-05 0.000884296767851609 6.93807204928754e-05)
(-5.80156511899811e-05 0.000175461032742354 4.15842464006479e-05)
(8.47264350340218e-07 0.000726668056672749 0.000245866572201583)
(2.09836039794847e-06 0.000712379212287403 0.000230479756726882)
(2.64018352764189e-06 0.000704344859634036 0.000214399077148861)
(1.86997634520379e-06 0.000692753920328244 0.000195518609586489)
(-1.12067427637753e-06 0.000684038576238222 0.000174583692149)
(-6.99961670368527e-06 0.000686041958488407 0.000152133698665337)
(-1.58456721967482e-05 0.000716654472932089 0.000128832998938784)
(-2.67018963081762e-05 0.000806151201436096 0.000105503494307471)
(-4.18149628362207e-05 0.000839691675231205 8.29027542861652e-05)
(-7.66283036817125e-05 0.000152158278186648 5.52606330608914e-05)
(2.12133015669107e-06 6.16946433738383e-05 2.79537295938933e-05)
(2.29727397676192e-06 0.000840574795691059 4.18914326178906e-05)
(7.24787533906484e-06 0.000281016498727311 3.05827023314694e-05)
(1.32161492809707e-06 0.000795597689585362 6.20864913782402e-05)
(6.0140651251686e-06 0.000941763908025467 4.68805072098031e-05)
(8.70872212826562e-06 0.000362943651292085 3.18095963884769e-05)
(9.16283239041263e-07 0.000750803809348364 8.48383278316529e-05)
(3.03223303805468e-06 0.000869039855596982 6.82628673290931e-05)
(6.40989137202337e-06 0.00102888395532546 5.02657890471593e-05)
(6.84536827639516e-06 0.000368326528086407 3.29668334708273e-05)
(8.79872485520802e-07 0.000734139590383589 0.000109198592825163)
(1.71552338695406e-06 0.00078587992045457 9.22704578668437e-05)
(2.68724555394661e-06 0.000927756459415625 7.33367808218956e-05)
(4.47783826079579e-06 0.00103550717059893 5.26838824763144e-05)
(1.75010164127588e-06 0.000347308789268063 3.36070143648939e-05)
(8.70908315124829e-07 0.000729616209551278 0.000134486427065539)
(1.43858212526922e-06 0.000749702632780907 0.000117690248693975)
(1.20539213418651e-06 0.000818199750163356 9.90619687762766e-05)
(5.02107780327037e-07 0.000937146526548307 7.72447939636488e-05)
(2.02667634351408e-07 0.00101880830569119 5.43284667128061e-05)
(-6.8665642232602e-06 0.00031417535186593 3.35356297413461e-05)
(8.34120185553289e-07 0.000730925560711732 0.000160190047283137)
(1.48688288121951e-06 0.000735225310572911 0.000143799158077884)
(1.07017397453447e-06 0.000766038603591167 0.000126003243482204)
(-7.85131753682123e-07 0.000819104890058177 0.000104541361607157)
(-3.47156468551293e-06 0.000926485362119234 8.04158448543737e-05)
(-6.15495794153958e-06 0.000990897713324065 5.55990901798337e-05)
(-1.80139763938149e-05 0.000277254820743597 3.32347819306519e-05)
(8.13941155228485e-07 0.000735286686850981 0.000186031414505033)
(1.63423817983382e-06 0.000730773024082789 0.000170212707520288)
(1.4641975116866e-06 0.000742097434631144 0.000153310606753324)
(-2.8083873694332e-07 0.000759720444304035 0.000132988468600738)
(-4.09581735902253e-06 0.000803792257209374 0.000109405445837381)
(-8.8298097173694e-06 0.00090364819807879 8.35653301947154e-05)
(-1.41845342393469e-05 0.000955059223555973 5.70296350939049e-05)
(-3.10913647635769e-05 0.000239586864035512 3.2737360404053e-05)
(8.38049160572924e-07 0.000741238168065046 0.000211946571763517)
(1.86055119120389e-06 0.000731402717598806 0.000196689678226755)
(2.10765966588905e-06 0.000731510229892252 0.000180550834449493)
(9.53181346021028e-07 0.000730992673117326 0.000161309586418128)
(-2.49508175077446e-06 0.000740437939777893 0.000139251844643153)
(-8.31961330543942e-06 0.000777503275683517 0.000114529125510597)
(-1.51898971518929e-05 0.000872320034555511 8.7832503272223e-05)
(-2.35658337602376e-05 0.000912919407733551 5.98333745582677e-05)
(-4.59854914319939e-05 0.000201481481273054 3.27451436320557e-05)
(8.85700277658435e-07 0.000747996586468776 0.000237974793170441)
(2.1919877201589e-06 0.000734558968311497 0.00022308388729658)
(2.91711971901689e-06 0.000727499556517476 0.000207441164564424)
(2.49227695877721e-06 0.000716661323518155 0.000188907291429763)
(-1.22518448601235e-08 0.000708631092463377 0.00016807588200575)
(-5.23330970493062e-06 0.000711493622083378 0.000145251743249825)
(-1.31029161907658e-05 0.000743621721514129 0.000120715647230691)
(-2.22842371709397e-05 0.000835566362340311 9.49294957545227e-05)
(-3.42978859338688e-05 0.000868043319094821 6.87256981802388e-05)
(-6.30326534531972e-05 0.000174538262931848 4.1315001966452e-05)
(9.74093205790787e-07 0.000754952413970567 0.000264181667446983)
(2.64405501880229e-06 0.00073862430326139 0.00024944095690008)
(3.86899992448432e-06 0.00072642978867437 0.000234012219060576)
(4.15651211635339e-06 0.000709006360711763 0.000215760376159729)
(2.71262006833388e-06 0.000691189521328156 0.000195378624445481)
(-1.23554202891188e-06 0.000677156307747032 0.000173406649002164)
(-8.18731692788944e-06 0.000675413933774355 0.000150433448286865)
(-1.80875674142264e-05 0.000705093056384417 0.000127135673322341)
(-2.97966565550704e-05 0.000797189652565782 0.000104320561003635)
(-4.62121732875797e-05 0.000825046699593347 8.26878051008419e-05)
(-8.1848980861937e-05 0.000162867086503249 5.49363574778344e-05)
(3.2509188538197e-06 9.76857829583563e-05 2.9161088258234e-05)
(3.07598798920027e-06 0.000863333917655232 4.1965598181078e-05)
(1.05622684003538e-05 0.000318768325852613 3.13068287113282e-05)
(1.84962792648997e-06 0.000818949140741446 6.13280171039157e-05)
(8.26624214914565e-06 0.000963476609041681 4.66388444031006e-05)
(1.39025890376296e-05 0.000397711674800801 3.22844037674708e-05)
(1.30716144266346e-06 0.000773707959892988 8.31069210644767e-05)
(4.57442646566949e-06 0.000892102369397473 6.71434703631994e-05)
(9.7955290653411e-06 0.00105008598265857 4.97565573620129e-05)
(1.3635419398222e-05 0.000400647953413675 3.31884176288412e-05)
(1.17697504237946e-06 0.000756703361405118 0.000106351866098206)
(2.8781878996765e-06 0.000808618475780738 9.0027695415284e-05)
(5.0684477306034e-06 0.0009507018999335 7.17831050326629e-05)
(8.87195029093627e-06 0.00105600523797812 5.19905210540171e-05)
(9.82360722996912e-06 0.00037702820115812 3.36537242743049e-05)
(1.11955896288095e-06 0.000751794150219903 0.000130456682612399)
(2.37311129820862e-06 0.00077213005612864 0.000114184896957435)
(3.03713774545925e-06 0.000840953328395997 9.61866865452689e-05)
(3.6365935042683e-06 0.000959822284185325 7.52155945361496e-05)
(5.39644078278404e-06 0.0010388086924125 5.33835803245588e-05)
(2.56245151239078e-06 0.000341445956728885 3.35467339635551e-05)
(1.0505597132359e-06 0.000752684656901201 0.000155047359746957)
(2.27930485313093e-06 0.000757282538906355 0.000139045778341135)
(2.57786722346933e-06 0.000788517116801602 0.00012171594934701)
(1.65181166066436e-06 0.000841877432900766 0.000100944919509267)
(2.8541001699442e-07 0.000949311965497758 7.77344958568985e-05)
(-2.73744346876036e-07 0.00101128026744172 5.41237371220946e-05)
(-7.93376739641682e-06 0.000302912651353107 3.29504064930453e-05)
(9.96768767490526e-07 0.000756653681759174 0.000179907883662902)
(2.30790663617211e-06 0.000752423396908582 0.000164379150411594)
(2.71324562094475e-06 0.000764206873894718 0.000147762989383188)
(1.66068701522222e-06 0.00078228911744935 0.000127844295499635)
(-1.21481727550766e-06 0.00082695502877912 0.000104831542802862)
(-4.60987523570139e-06 0.00092751397940308 7.98388681857787e-05)
(-7.75176710831267e-06 0.00097754934429175 5.47572603633816e-05)
(-2.04100913664079e-05 0.000265901039250265 3.22784674800914e-05)
(9.89710394752803e-07 0.000762299955986011 0.000204984516101242)
(2.40238689214879e-06 0.000752742752021161 0.000190004073024874)
(3.08858929581372e-06 0.000753295446119416 0.000174078999655931)
(2.45496794571815e-06 0.000753208282660404 0.000155039656101122)
(-3.05689160316104e-07 0.000763265350708257 0.000133124045140368)
(-5.18140641045694e-06 0.000801398627016072 0.000108566890351034)
(-1.06314270477711e-05 0.000897960905263872 8.23421048207587e-05)
(-1.65787282485365e-05 0.00093892814282518 5.57846207435184e-05)
(-3.43972171755979e-05 0.000231142591233478 3.15156514002872e-05)
(9.96140468635194e-07 0.000768876186936014 0.000230306385543396)
(2.55258310829154e-06 0.000755906786532225 0.000215786014720395)
(3.57070315378088e-06 0.00074944501223564 0.000200445668788999)
(3.52720970571538e-06 0.000739083360092742 0.000182149404878831)
(1.53985407960275e-06 0.000731534805445391 0.000161355386115725)
(-2.98497370581767e-06 0.000735154929826147 0.000138241705304673)
(-9.86020525773531e-06 0.000768789787159906 0.000113001273002093)
(-1.742343706145e-05 0.000863267939910755 8.62710539418649e-05)
(-2.65435662964126e-05 0.00089597646474965 5.84425158163945e-05)
(-4.97053545966167e-05 0.000199035632651328 3.16704463259291e-05)
(1.01313512326205e-06 0.000775995750197202 0.000255902076892304)
(2.74410089567628e-06 0.000760535138728419 0.000241658397676244)
(4.13170533527112e-06 0.000749283102291421 0.000226691447885893)
(4.70810039939048e-06 0.000732534835341279 0.000208865505362112)
(3.65523805634871e-06 0.000715233642325838 0.000188785325091903)
(2.04565950140242e-07 0.000701692017763635 0.000166856856703722)
(-6.08396811752173e-06 0.000700638152808197 0.000143431570147981)
(-1.49595337559871e-05 0.00073167168737789 0.000118765788763195)
(-2.48376594554922e-05 0.000825962610387669 9.32646824397287e-05)
(-3.77937871913425e-05 0.000852178607031472 6.77177412540491e-05)
(-6.68582751819167e-05 0.000183162742702072 4.10910142962864e-05)
(1.06309914925616e-06 0.000783275508220966 0.000281804915537718)
(3.04274291843963e-06 0.000765613527156429 0.000267663110582093)
(4.79952447348773e-06 0.000750689373403521 0.000252860549157988)
(5.93734045779457e-06 0.000729545554422868 0.000235231105385867)
(5.77500901402872e-06 0.000706226737725604 0.000215424642728435)
(3.56594210923575e-06 0.000683312128852213 0.000193890998145459)
(-1.32433552530106e-06 0.000665301684343409 0.000171208256185183)
(-9.29132657237906e-06 0.00066151830964516 0.000147954564614347)
(-2.01707746104825e-05 0.000692286153447284 0.000124820453634256)
(-3.26432547819098e-05 0.000789498779746211 0.00010265616574431)
(-5.03542280612946e-05 0.000812637013041265 8.2079111537331e-05)
(-8.5292822702669e-05 0.000189901018602503 5.43592514747896e-05)
(4.67367795482262e-06 0.000138755066217034 3.06964278903829e-05)
(3.97732343899396e-06 0.000887555149995663 4.22866739398008e-05)
(1.44598745014744e-05 0.000360803210847481 3.20928673049657e-05)
(2.46142194673492e-06 0.000843462975995999 6.08920894434999e-05)
(1.08644196354278e-05 0.000986251239939516 4.66211756812199e-05)
(1.98221761618852e-05 0.00043596299612721 3.29402055260635e-05)
(1.75846073409342e-06 0.000797378120616834 8.17971421778424e-05)
(6.35795325852262e-06 0.000915978886018412 6.63333805354938e-05)
(1.3689005366031e-05 0.001071943660753 4.94431652370878e-05)
(2.1281656442429e-05 0.000435725771092172 3.35464123595719e-05)
(1.52454958054579e-06 0.000779783234622802 0.000104069961355823)
(4.19576885904828e-06 0.000831874132808874 8.82514268827386e-05)
(7.78085359309271e-06 0.000974114666449649 7.05776150446484e-05)
(1.38106455288186e-05 0.00107673655503527 5.15730393797974e-05)
(1.89654166097525e-05 0.000409050621867136 3.37963363893534e-05)
(1.39994498025444e-06 0.000774353474789962 0.000127082367904526)
(3.40184667110224e-06 0.000794910895766782 0.000111299294923702)
(5.08239380039979e-06 0.000863976634376008 9.38631586957362e-05)
(7.16189131938052e-06 0.000982592830937188 7.36519061142359e-05)
(1.12284544899698e-05 0.0010585455432671 5.27580318497291e-05)
(1.27872546281224e-05 0.000370356042443027 3.3716578737618e-05)
(1.28880480734192e-06 0.000774735104113999 0.00015056556858003)
(3.133136878099e-06 0.000779618343578491 0.000134982145964214)
(4.22494570997101e-06 0.000811167535483629 0.000118130175471477)
(4.33855988751603e-06 0.000864585009887713 9.80453204947585e-05)
(4.43393926743453e-06 0.000971622720489789 7.57196301880547e-05)
(6.17747392924842e-06 0.0010304141620425 5.32176503028821e-05)
(3.26438335571583e-06 0.000329114178489944 3.29785397415305e-05)
(1.20167971000786e-06 0.000778226436986356 0.000174388663119818)
(3.03087220957345e-06 0.000774294798314151 0.000159191535425535)
(4.0770357596787e-06 0.000786462294811099 0.000142922067918426)
(3.80168586728241e-06 0.000804792770016539 0.000123501402946543)
(1.95290069718707e-06 0.000849564694959453 0.000101205704749076)
(-1.97086309664377e-08 0.000949957276748601 7.71303589568352e-05)
(-8.43921992633033e-07 0.00099720573654837 5.32883354712648e-05)
(-8.86760226267606e-06 0.000290320335005675 3.20019447180463e-05)
(1.1593925622312e-06 0.000783458460022614 0.000198529374416168)
(3.00685862233875e-06 0.000774181997334512 0.000183826646563628)
(4.20486364028335e-06 0.000775137596833499 0.000168150139758932)
(4.16681139675119e-06 0.00077536817614046 0.00014943387580215)
(2.16564157630561e-06 0.00078573883590511 0.000127924022255944)
(-1.72170920810997e-06 0.000824329868682392 0.000103912891612599)
(-5.74647140011193e-06 0.000921482789034463 7.85020133265162e-05)
(-9.29519213206776e-06 0.000960840206311507 5.34231055367812e-05)
(-2.24284789661875e-05 0.000256193856314987 3.10329305107534e-05)
(1.13901221481103e-06 0.000789711236279954 0.000223019652836051)
(3.04251681274201e-06 0.000777041533610475 0.000208788844908222)
(4.44728904972304e-06 0.000770991623024788 0.000193685719507853)
(4.84760092530085e-06 0.0007609426406994 0.000175630976578309)
(3.42289833033146e-06 0.000753693955879753 0.000155018222279945)
(-3.78849780561242e-07 0.000757797009851292 0.000132008317883097)
(-6.26510160679396e-06 0.000792417550460832 0.000106861772680567)
(-1.23187195666454e-05 0.000888577060992932 8.05308890705832e-05)
(-1.87790050662951e-05 0.000921522385833949 5.40665380027823e-05)
(-3.69558731177111e-05 0.00022750590247419 2.9988923700911e-05)
(1.11873251346934e-06 0.000796606397400276 0.000247887190741003)
(3.08196853667381e-06 0.000781647335838979 0.000234024154748411)
(4.72795201353406e-06 0.000770991118936026 0.000219394113272346)
(5.62864546686792e-06 0.000754665291054239 0.000201886822161584)
(4.99857317150512e-06 0.000737672458891667 0.000182010149498709)
(2.08951675781003e-06 0.000724461146912214 0.00016006223673988)
(-3.48605958426325e-06 0.00072404019190376 0.000136270772011881)
(-1.13164179777472e-05 0.000756487853902325 0.000110777648740332)
(-1.94346690142981e-05 0.000853208490712325 8.41381941228904e-05)
(-2.91668001986432e-05 0.000879350853943767 5.65647693999673e-05)
(-5.2192580111141e-05 0.00020600978567072 3.08416439036846e-05)
(1.10353904342583e-06 0.000803959548339024 0.000273147232553422)
(3.14650947945015e-06 0.000787193187857901 0.000259499251581001)
(5.0576967092821e-06 0.000773208698301927 0.000245161463493412)
(6.44603517400914e-06 0.000752725111953796 0.000227991734700303)
(6.6140636504435e-06 0.000729870123076038 0.00020858001496665)
(4.80348457983963e-06 0.000707305655344326 0.000187306111070034)
(4.05755632623717e-07 0.000689642764610639 0.000164613195611711)
(-6.88493638945581e-06 0.000686419237043177 0.000140820741190062)
(-1.66628080684326e-05 0.000718398108004464 0.00011615522813612)
(-2.70842535962176e-05 0.000817552535319428 9.10353756794192e-05)
(-4.08262463743065e-05 0.000838394571091825 6.62535854806147e-05)
(-6.87389022979149e-05 0.000207821668393435 4.03896621533416e-05)
(1.11824026498279e-06 0.000811495417540938 0.00029879519674478)
(3.31541709000382e-06 0.00079297824514321 0.000285221932271787)
(5.48127924855858e-06 0.000776267151925724 0.000271021327359857)
(7.29123376250857e-06 0.000752733438731501 0.000253994058201258)