/*--------------------------------*- C++ -*----------------------------------*\
  =========                 |
  \\      /  F ield         | OpenFOAM: The Open Source CFD Toolbox
   \\    /   O peration     | Website:  https://openfoam.org
    \\  /    A nd           | Version:  12
     \\/     M anipulation  |
\*---------------------------------------------------------------------------*/
/*   Windows 32 and 64 bit porting by blueCAPE: http://www.bluecape.com.pt   *\
|  Based on Windows porting (2.0.x v4) by Symscape: http://www.symscape.com   |
\*---------------------------------------------------------------------------*/
FoamFile
{
    format      ascii;
    class       volScalarField;
    location    "300";
    object      k;
}
// * * * * * * * * * * * * * * * * * * * * * * * * * * * * * * * * * * * * * //

dimensions      [0 2 -2 0 0 0 0];

internalField   nonuniform List<scalar> 
10140
(
0.000140608106034332
0.000140927531624852
0.000143638100411687
0.000398974575588718
0.000141151354247501
0.000143972429266168
0.000399402361973116
0.000147449766055535
0.000399665279626015
0.000583683627596365
0.000141250189076739
0.000144201903777699
0.000399616792257681
0.000147804991042226
0.00040010398625247
0.000584153214830026
0.000148464444569054
0.00039977591805264
0.000583312829425007
0.00073104058794132
0.000141217898029199
0.000144300818523465
0.000399602505109683
0.000148041446960736
0.000400321591304767
0.000584311401548727
0.000148824091278652
0.000400220212916683
0.00058379372006106
0.000731533339590939
0.000145003849483231
0.00039678784326583
0.000580613701223257
0.000730134653043918
0.000857869854316602
0.000141053097091159
0.000144268127516915
0.00039934291480837
0.000148136460931121
0.000400306826493497
0.00058415371502747
0.000149061866768849
0.000400437913099173
0.000583954518642659
0.000731625988678942
0.000145360460507781
0.000397229547746372
0.000581099327008813
0.000730640557044256
0.000858375474104082
0.00013803828494806
0.000389081264379192
0.000574148949653124
0.000725631428313526
0.000856361484338134
0.000971182777325616
0.000140748900747843
0.000144101545043105
0.000398824334599689
0.000148098849344887
0.000400046278849549
0.000583661082720329
0.000149156330413753
0.000400420876642174
0.000583796779851187
0.000731323056971492
0.000145597649535326
0.000397444566535368
0.000581260603473333
0.000730736216185295
0.000858399803930488
0.000138385660458127
0.000389515573628285
0.000574630298481906
0.000726143029703568
0.000856882255034515
0.000971694160607575
0.000129277165108163
0.000376962242715666
0.000562857101590696
0.000716454674596061
0.000850333340505588
0.000968965987768297
0.00107447784707701
0.000140298205079818
0.000143795732470245
0.000398031058096393
0.000147924452237528
0.000399526254408303
0.000582812713745799
0.000149117358664627
0.000400157376368149
0.000583303381783125
0.000730605180347428
0.000145691964533974
0.000397425138815357
0.000581101429468781
0.000730433340762773
0.000857953975834066
0.000138619845401212
0.000389726174321431
0.000574788571100721
0.000726240205707714
0.000856910346185214
0.000971649356152766
0.000129609691239858
0.000377384162902428
0.000563327389414096
0.000716961377538782
0.000850861002109512
0.000969494544758087
0.00107498982427529
0.000119620522115737
0.000361585826520679
0.000546847142380233
0.000702006621345435
0.00083882278343403
0.000961478437503975
0.00107165579224707
0.00116982780513926
0.000139695562573712
0.000143342604929568
0.000396943827276998
0.000147609728169941
0.000398731504435638
0.000581584916634594
0.000148937860018239
0.00039963289187544
0.000582453900940785
0.00072944738095907
0.000145653794530504
0.000397159448451918
0.000580606040393574
0.000729714758664984
0.00085701892643546
0.000138714580910307
0.000389704932991125
0.000574627036486974
0.000725936762366777
0.000856465122106894
0.000971064191697325
0.000129838843440612
0.000377588524902137
0.000563479503323749
0.000717056048243663
0.000850891763205681
0.000969454435904047
0.00107487556117215
0.000119935034417639
0.000361990656173466
0.000547300779206282
0.000702500033564278
0.000839345284499739
0.000962015195384502
0.00107218703391041
0.00117033741568184
0.000109213107469869
0.000343760805119417
0.000526832918420531
0.000682509793470673
0.000821538473862414
0.000947875434938105
0.00106292085092568
0.00116659972878613
0.00125862609728365
0.000138928686450517
0.000142730053907237
0.000395539389219488
0.000147145949240548
0.000397642465161079
0.000579949212284705
0.000148614418055264
0.000398832871534389
0.000581224839260093
0.000727819965286386
0.000145475620823341
0.000396632168316991
0.000579754145722044
0.000728556067891249
0.000855567076126433
0.000138679925214076
0.000389439360822378
0.000574130111627383
0.000725217224381873
0.000855530042549275
0.000969919937489488
0.000129934306367939
0.000377566383264546
0.000563315528320788
0.000716751217913824
0.000850447205761903
0.000968870787085561
0.00107415458416114
0.00012015830247652
0.000362187283302458
0.00054744422804011
0.000702588127134803
0.000839374386170492
0.000961979076981987
0.0010720784794752
0.00117015369272822
0.000109508235263907
0.00034414512954483
0.000527265325992788
0.000682983841426468
0.00082204642025013
0.000948407178131317
0.0010634617607483
0.00116713055089152
0.00125913324203801
9.80367344564085e-05
0.000323754715730435
0.000503380170748989
0.000658528590484307
0.00079887201271373
0.000928070323590566
0.00104754962289346
0.00115691787038374
0.00125514671769637
0.00134180366148115
0.000137977774207439
0.000141945234589212
0.000393788319749123
0.000146517633133197
0.000396234445589691
0.000577871442779062
0.0001481415580545
0.000397738001664412
0.000579587722586459
0.000725687435352224
0.000145153818770991
0.00039582867238577
0.000578522583682518
0.000726927760281043
0.000853564392046685
0.000138508388304313
0.000388914076223955
0.000573277546164619
0.000724057845015557
0.000854078240678652
0.000968187331937297
0.000129905203622193
0.000377303985870647
0.000562819345676565
0.000716031815729896
0.000849512789983496
0.000967727664599346
0.00107280836908733
0.000120253706045171
0.000362164996038653
0.00054727830747256
0.000702281520960118
0.000838929991354819
0.000961397648844313
0.00107135984727938
0.00116929931700574
0.000109727719970594
0.00034433353367431
0.000527398324292932
0.000683062395757079
0.000822069260114396
0.000948370552438675
0.00106335856761257
0.00116695339504723
0.00125887980738136
9.83109947356758e-05
0.000324116602151643
0.000503787732620989
0.00065897862918061
0.000799358958016368
0.00092858691926589
0.00104808601817473
0.00115745984597073
0.00125567683226382
0.0013423146458357
8.61723709220135e-05
0.000301602116574639
0.000476756044333383
0.000630483772642921
0.000771365041998104
0.000902577938514429
0.00102558479493838
0.00114012847784849
0.00124476109042154
0.00133815390303966
0.00141992742425255
0.000136821982368964
0.000140976345332392
0.000391656036083639
0.00014570775004475
0.000394478035101112
0.00057531135549676
0.000147505949323724
0.000396322600566136
0.000577508182013158
0.000723007834739621
0.000144683631010384
0.000394730661836831
0.000576883148292916
0.000724794396559936
0.000850969957360484
0.000138197486363429
0.000388114671133612
0.000572046370556922
0.000722429480443448
0.000852075918718409
0.000965829086039898
0.000129744283417298
0.000376785963903826
0.000561970720251014
0.000714874469729263
0.000848062525936834
0.000965996578151211
0.00107080643645667
0.00012023018432205
0.000361908578060619
0.000546786003888791
0.000701564751964871
0.000837998078024071
0.000960257237155099
0.00107001579436757
0.001167756667592
0.000109824501311827
0.000344311822564024
0.000527231232782671
0.000682754325594223
0.000821624601077401
0.00094779118093244
0.00106264365726743
0.00116610202276863
0.0012578925671833
9.85279420343191e-05
0.000324297589975795
0.0005039095419761
0.000659045774807262
0.00079937227256004
0.000928544863548472
0.00104798361493176
0.00115728930221728
0.0012554307111841
0.00134198956842566
8.64275045517076e-05
0.0003019405132003
0.000477136092975776
0.000630906040375273
0.000771826228154413
0.000903072622315047
0.00102610592514142
0.00114066662142556
0.00124530373036544
0.00133868942025483
0.001420468655583
7.38027663442741e-05
0.000277322460773409
0.000447072923860797
0.000598603335941199
0.000739373309058518
0.00087194823859698
0.000997620391125596
0.00111634810253256
0.00122682762657019
0.00132721137325114
0.0014161398055591
0.00149329326534443
0.000135439085831566
0.000139802859784964
0.000389103177608809
0.000144705708244722
0.000392339685782194
0.000572222994640238
0.000146688458895154
0.000394556426767597
0.000574945890522776
0.000719732636123127
0.000144055375072833
0.000393313529667982
0.000574801470464798
0.000722113996436134
0.000847735689894626
0.000137743383266013
0.000387023281991065
0.0005704088315719
0.000720296967512999
0.00084948224578229
0.000962799963149223
0.000129449436274341
0.000375998661948878
0.000560747004910768
0.000713250409886193
0.000846063080493978
0.000963640583473744
0.0010681092185964
0.000120082161270242
0.000361402643411246
0.000545947002674727
0.000700414534733077
0.000836553200804405
0.000958530364407696
0.00106801680280258
0.00116549488271843
0.00010980676592849
0.000344063631989364
0.000526746041669312
0.000682043514734824
0.000820698051990441
0.000946656001948315
0.00106130424100254
0.00116456230233523
0.00125615668558201
9.86281825385897e-05
0.000324278259110682
0.00050374259496352
0.000658737192037985
0.000798927625411139
0.000927967209389499
0.00104727265957787
0.00115644294058485
0.00125444698619452
0.00134086623474321
8.66434410067497e-05
0.000302115672567865
0.000477246844741769
0.000630960840219106
0.000771828097770289
0.00090302169019698
0.00102599921037137
0.00114049815074606
0.00124506536571419
0.0013383723214939
0.00142006059849364
7.40400925349355e-05
0.000277638186646868
0.000447423714323393
0.000598994826575876
0.000739804879914835
0.000872416139194595
0.000998119201512456
0.0011168711320709
0.00122736712427354
0.0013277606853476
0.0014167063022189
0.00149394687139144
6.11922128105621e-05
0.000250976048291827
0.000414399104351061
0.000563024974608057
0.000703094442347928
0.000836511501706247
0.000964231669361638
0.00108623110048949
0.00120150176116584
0.00130831342003297
0.00140471796636581
0.00148937917609071
0.000133803561908523
0.00013840301582465
0.00038608689809055
0.000143497187458414
0.000389780754581366
0.000568555089986486
0.000145670731074228
0.000392406300002554
0.000571855026213708
0.000715807028319297
0.000143252982470945
0.000391546395438307
0.000572237081751927
0.000718838046514132
0.00084380634595048
0.000137136288460924
0.000385616660713015
0.000568331137293853
0.000717618473658274
0.000846249206288522
0.000959046913773102
0.000129017874980141
0.000374925134617228
0.000559120884751857
0.000711124903768282
0.000843473919681653
0.000960614641470775
0.00106466811982436
0.000119806085529773
0.000360634070948114
0.000544739102078349
0.00069880245564473
0.000834562521611736
0.000956180660763606
0.00106532363122407
0.00116247266588117
0.000109672462920695
0.000343573767960168
0.000525922283082868
0.000680906616598457
0.000819264335557339
0.000944938193676985
0.00105931199771507
0.00116230442432802
0.0012536420118193
9.86181298497987e-05
0.00032404082206307
0.000503267848241454
0.000658036052964899
0.000798010025944856
0.000926840535886052
0.00104594109081976
0.00115490943990235
0.00125271456917911
0.00133893713406242
8.6748747160667e-05
0.000302101398569284
0.0004770822182747
0.000630653380838112
0.000771384568816967
0.000902446096282607
0.00102529209689228
0.0011396574960253
0.00124408777234745
0.00133725297515552
0.00141878944517651
7.4260568304824e-05
0.000277810551796211
0.000447524494500704
0.000599037190008732
0.000739794381951675
0.0008723543994955
0.000998004643209698
0.00111669958481506
0.00122713208293367
0.00132745238250493
0.00141630710430402
0.0014934079554389
6.14140098149887e-05
0.000251272201973956
0.000414720220798341
0.000563383524951494
0.000703493250276346
0.000836948709047117
0.00096470317609601
0.0010867317141501
0.00120202639511346
0.00130886026775238
0.00140529859335894
0.00149005283868783
0.00156295320637893
4.86599075638779e-05
0.000222648154338336
0.000378796786232311
0.000523852783403287
0.000662668502062064
0.000796448772695821
0.000925750356871806
0.00105039381420697
0.00116949161175582
0.00128163487665811
0.00138496759492299
0.00147752039471859
0.000131885325747038
0.000382556768448714
0.000136751171133603
0.000142060872547996
0.000386757660229815
0.000564249817621451
0.000144440023301164
0.000389834855287344
0.000568184247570145
0.000711170393342985
0.000142254582499208
0.000389394392658201
0.000569144416811911
0.00071491176403511
0.000839119939082154
0.00013636254458348
0.000383865366193354
0.000565773039679106
0.00071434571822117
0.000842321606433557
0.000954509144634858
0.000128441244672471
0.000373542602781091
0.000557059322967885
0.000708456662365491
0.000840247359877857
0.000956865734168278
0.00106042567425638
0.000119400740884256
0.000359586816536529
0.000543135703600517
0.000696694325994356
0.000831985974989151
0.000953163519742207
0.0010618878443629
0.00115863849253902
0.00010941730520454
0.000342829474524293
0.000524738144321999
0.000679315575174862
0.000817291027516687
0.000942601973948117
0.00105662831784702
0.00115928745703844
0.00125030596619838
9.84996589329216e-05
0.00032357075052363
0.000502464754812593
0.000656918898530237
0.000796594192328886
0.000925138266839386
0.00104396137361223
0.0011526603143391
0.00125020443749241
0.0013361740564386
8.67487257887425e-05
0.000301878148773671
0.000476621941956224
0.000629966057528168
0.000770480049036209
0.000901331837634527
0.00102397216813934
0.00113813416354592
0.00124236287440336
0.00133532779460172
0.00141666297827739
7.43742519212968e-05
0.00027780521463953
0.000447365295761941
0.000598733299049555
0.000739353885792452
0.000871782156201593
0.000997301913338079
0.00111586486987293
0.00122616184146139
0.00132634023996241
0.00141504059061647
0.00149196274501628
6.16446739458605e-05
0.000251448513512134
0.00041481345663026
0.000563414311056393
0.000703470319478075
0.00083687531948356
0.000964578881560081
0.00108655356842062
0.00120178955520198
0.00130855647810514
0.00140490929336039
0.00148952707903886
0.00156214370643085
4.88688758629497e-05
0.00022293281685582
0.000379089473024217
0.000524177291235676
0.000663032202181747
0.000796852080748748
0.000926190611942888
0.0010508669346327
0.00116999388669058
0.00128216710192018
0.00138554562262763
0.00147820266057398
0.00155891077508684
0.00162698902967581
3.65065998176731e-05
0.000192431352904275
0.000340319423557885
0.000481171228843081
0.000618216057452034
0.00075189754083083
0.000882353975870352
0.00100918818704612
0.00113146174461344
0.00124793240236921
0.00135707356810695
0.00145699179977666
0.0001296537599319
0.00037845963810038
0.000134814000623903
0.000559246825331793
0.000383220708535599
0.000140367275760027
0.000142982323643341
0.000386798987885171
0.000563876596506939
0.000705756425116324
0.000141039242254313
0.000386820895244382
0.000565472590375226
0.000710274512302581
0.000833608490767362
0.000135406371945209
0.000381733213165323
0.000562688861653433
0.000710424236440129
0.000837637524455476
0.000949118404190496
0.000127706384354045
0.000371823129401733
0.000554523088708999
0.000705197752003525
0.000836328529278371
0.000952333086252898
0.00105531603650484
0.000118859917513474
0.000358239472730806
0.000541104471362965
0.000694049611848796
0.000828776458229585
0.000949426284509651
0.00105765210000787
0.00115393102486098
0.000109041291189643
0.000341815648625959
0.000523167811430449
0.000677236862733072
0.0008147387063593
0.000939603345656527
0.0010532052430177
0.00115546005273241
0.00124609441918662
9.82686215467174e-05
0.000322855907862281
0.000501311925318653
0.000655358027461116
0.000794648080549724
0.000922825086463241
0.00104129556343872
0.00114965532673997
0.00124687442083913
0.00133253315082375
8.66452248467822e-05
0.000301432541115599
0.000475845371152584
0.000628875290254784
0.000769089214672307
0.000899652406477004
0.00102201220331979
0.00113590053785093
0.00123986306138691
0.00133256974974772
0.00141365404508439
7.43880103799809e-05
0.000277601008523641
0.000446924238047938
0.00059806461473804
0.000738467177138502
0.000870684856709283
0.000995997991747879
0.0011143561541185
0.00122444920098842
0.00132442377487129
0.00141291857021296
0.00148963179662556
6.17712184239488e-05
0.000251458642928642
0.000414664057656628
0.000563117367318535
0.000703035605361999
0.000836308618682986
0.000963882077107634
0.001085725653561
0.00120082734294731
0.00130745331363142
0.00140365125593078
0.00148808852392017
0.00156050104575702
4.91128809603537e-05
0.00022313022581197
0.00037917949628644
0.000524198518417188
0.000662997694118783
0.000796767081289627
0.000926055856649314
0.0010506803984322
0.00116975181953898
0.00128186281571593
0.00138516199746859
0.00147769050374389
0.00155813624185379
0.00162616882723953
3.67061111452156e-05
0.000192710338758007
0.00034058719119162
0.000481461931603113
0.000618543290394656
0.000752264524786622
0.000882759752677556
0.00100962984111223
0.00113193653627685
0.00124844229266151
0.00135763653950505
0.00145766738058124
0.00154663132474504
0.00162282958996418
0.00168639153651277
2.49687543182666e-05
0.000160384315909622
0.000298986210251904
0.000435036803799445
0.000569837449032332
0.000702983943137681
0.000834178706193947
0.00096279791833258
0.001087791873572
0.00120791752220429
0.00132183474523644
0.00142798518955394
0.000127081315261501
0.000373740959380505
0.000132560540192145
0.000553481086832334
0.000379115202764782
0.000138380233055511
0.000699495450261525
0.000558870884361793
0.000383248733607975
0.000141269659183536
0.000139594346788574
0.000383784698351846
0.000561165379157039
0.00070486033692584
0.000827198814353631
0.000134243215110728
0.000379182869288223
0.000559028414518466
0.000705793757831088
0.000832129022979755
0.000942800533851004
0.000126798706367621
0.000369732045098171
0.000551466483979928
0.000701294325176957
0.000831655926743975
0.000946948709476498
0.00104926586621749
0.000118171135382983
0.000356564810277185
0.000538607321908664
0.000690821035701595
0.00082487972819835
0.000944908590173612
0.00105255068471688
0.00114827983084547
0.000108539943490848
0.000340512288875229
0.000521180077081811
0.000674630844148627
0.000811560950315261
0.00093589028667039
0.00104898588046584
0.00115076100514114
0.00124094216813037
9.79252673094782e-05
0.000321882212803522
0.000499784356261233
0.000653320666894147
0.000792132992820194
0.000919857709723956
0.00103789638224867
0.00114584364456226
0.00124267049640388
0.00132795725823395
8.64419503792458e-05
0.000300753009978455
0.000474731531036114
0.000627353759297939
0.000767180405665024
0.000897372868016088
0.00101937480864693
0.00113291712299374
0.00123654691006521
0.00132893540749716
0.00140971590680271
7.43044894209696e-05
0.00027718505288483
0.000446180699427719
0.000597007399550637
0.000737108890026047
0.000869036037779017
0.000994065752829471
0.00111214616164814
0.0012219674737948
0.00132167740614021
0.00140991516573409
0.00148637963554977
6.1801853528334e-05
0.000251280279679493
0.000414248196341818
0.000562472976914164
0.000702172177878333
0.000835233527027167
0.000962599190675049
0.00108423652271387
0.0011991321658924
0.00130555112298557
0.00140153924857213
0.00148576293778561
0.0015579667400105
4.92559104132173e-05
0.00022316726611406
0.000379046032647175
0.000523913058040694
0.000662572442229408
0.000796208988010541
0.000925367475961986
0.001049861165198
0.0011687989081152
0.00128076981879358
0.00138391474203026
0.00147626325672947
0.00155650533835717
0.00162440444009441
3.69611431280651e-05
0.000192954577068752
0.000340681241870945
0.000481477061917825
0.000618499143098405
0.000752168857253881
0.000882614721149315
0.00100943434959274
0.00113168760782253
0.0012481342485582
0.00135725378486403
0.00145716344089801
0.00154588487982279
0.00162204398244244
0.00168554704127309
2.51681420465664e-05
0.000160667445739436
0.000299236728248923
0.000435295883834741
0.000570128061688716
0.000703313112760323
0.000834547544110684
0.000963204869828133
0.00108823522179004
0.00120839987296247
0.0013223747733101
0.00142864274198768
0.00152536250397421
0.00161016586434969
0.00168212174825395
0.00174118769131229
1.45576965313438e-05
0.000126553897797305
0.000254778835706746
0.000385453535014837
0.000517593599712938
0.000649812229483099
0.000781349994849954
0.000911359343669511
0.00103867572813432
0.00116199692635958
0.0012800039004601
0.00139133554063277
0.000124150719967061
0.000368351101563682
0.00012994536162208
0.000546886965492766
0.000374386835542914
0.000136071707945401
0.000692314464356551
0.000553102147477773
0.000379129163758852
0.000139261392055997
0.000819813838700452
0.000698599312591969
0.000556161355828306
0.000380236771854334
0.00013790041264715
0.00013285050057101
0.000376173799533002
0.000554736457418828
0.000700388909864818
0.000825723017172009
0.000935476432320752
0.000125699619107788
0.000367231540520626
0.000547840025746302
0.000696686776401229
0.000826162055490626
0.000940638485122019
0.00104219538259105
0.000117320022725431
0.00035453064726153
0.000535599425029292
0.000686955618826228
0.000820235005740452
0.000939542980170491
0.00104651037041595
0.00114160686194041
0.000107901769880061
0.000338893757467114
0.000518737944798435
0.000671451099016995
0.000807704464470355
0.000931403180769525
0.00104390501165109
0.00114512010954037
0.00123477473467428
9.74668600415349e-05
0.000320631045341696
0.000497852002703122
0.000650768277363039
0.000789003304292192
0.00091618492448051
0.00103370767185845
0.00114116457645168
0.00123752776843282
0.00132237760211274
8.61342085335167e-05
0.00029982637349478
0.000473256351365658
0.000625369495943028
0.000764715755298736
0.000894450707573626
0.00101601347185067
0.00112913382569865
0.00123236093960577
0.00132436782240438
0.00140478754102692
7.41275565465962e-05
0.000276546775295536
0.000445114154544442
0.000595534739678186
0.000735247784136478
0.000866801138752888
0.000991468288061255
0.00110919602134619
0.00121867603058756
0.00131805848938049
0.00140598410782275
0.00148215226211924
6.17398485319743e-05
0.000250900318662638
0.000413544955173604
0.000561457181038167
0.000700854605371427
0.000833623642993273
0.000960703150239429
0.00108205898878153
0.00119667768645021
0.00130282523655335
0.00139854886864088
0.00148251691121823
0.00155447881297659
4.93037079835898e-05
0.000223023006700627
0.000378662779062642
0.000523299658474308
0.000661738618061077
0.000795162141082904
0.00092411140549242
0.00104839722212328
0.00116712685869757
0.00127888792413907
0.00138181913553477
0.00147394953080776
0.00155397790371113
0.00162169485319119
3.71149070911579e-05
0.000193034364113317
0.000340572477703552
0.00048120902784326
0.00061808811646366
0.00075162335761441
0.000881938160106579
0.00100862666281997
0.0011307462806631
0.00124705317841661
0.00135601904524501
0.00145574993905742
0.00154427117924482
0.00162029265031575
0.00168368099354358
2.54317692311738e-05
0.000160961046921302
0.000299346719014871
0.000435310594052749
0.000570077553051251
0.000703208749905367
0.000834393311147624
0.000963000788986677
0.00108797906226848
0.00120808665183277
0.00132198995820609
0.00142814197456381
0.00152463152179932
0.0016094080738837
0.00168131194374139
0.00174029363236004
1.47467147338043e-05
0.000126860019797996
0.000255023494243191
0.00038568612139987
0.000517849024527452
0.0006501032087178
0.000781680326521461
0.000911729112337405
0.00103908441603347
0.00116244774892998
0.00128051565562547
0.00139196748962511
0.00149530220316766
0.00158822463743557
0.00166910129546329
0.00173681424005438
0.00179135581991198
6.29470065248507e-06
9.13001844843045e-05
0.000207803095169477
0.000332368859409802
0.000461465334876807
0.0005924320501309
0.000723963984964472
0.00085499231270336
0.000984249357552647
0.00111037342079388
0.0012320101885344
0.00134783005722604
0.000362253702213953
0.000126968457809874
0.000539402861631671
0.000368983686413938
0.0001333857271576
0.000684139727136957
0.000546504671786504
0.000374384797904076
0.000136924739498324
0.000811373955261567
0.000691418530202455
0.000550396070568417
0.000376122039359552
0.000135920847967319
0.00092706279431148
0.000818342484642319
0.000694140074019556
0.000549752228259514
0.000372659566112401
0.000131211303400954
0.000124385689029759
0.000364280258843037
0.000543589361867113
0.000691310630630054
0.000819774345265633
0.000933323240080342
0.00103401972202795
0.000116288427658304
0.000352099095178936
0.000532032188014308
0.000682394768349896
0.000814775632451635
0.0009332558361798
0.00103945150034295
0.00113382711967335
0.000107112710272155
0.000336929870605647
0.000515798034508644
0.000667645848332168
0.000803109449347832
0.000926075427746546
0.00103788994732945
0.00113845931706162
0.00122750921891844
9.68840989819213e-05
0.000319078358279877
0.00049547930576023
0.000647655466410389
0.000785206893632965
0.000911748140447982
0.00102866504899798
0.00113554847716303
0.00123137182281154
0.00131571534942539
8.57220306890584e-05
0.000298635485043989
0.000471391128596476
0.00062288501902773
0.00076165053318159
0.000890835654928225
0.00101187296495032
0.00112449076789025
0.00122724084950856
0.00131879840401596
0.0013987960594515
7.38574559376983e-05
0.000275674118400244
0.000443701541924417
0.000593615573584465
0.000732846915442147
0.000863938474651199
0.000988159873395206
0.00110545646948963
0.00121452218626875
0.0013135106875978
0.00140106462205506
0.0014768832164996
6.15889685434423e-05
0.000250309399943466
0.000412534341513249
0.000560043506286956
0.000699052118424099
0.000831444814793077
0.000958157555909715
0.00107915472036224
0.00119342394159439
0.00129923384159205
0.00139463470369192
0.00147829717097549
0.0015499726047582
4.92625666471727e-05
0.00022268575429402
0.000378008061148815
0.000522333954680435
0.000660470665074497
0.000793600197801603
0.000922260646491637
0.00104626142900747
0.00116470941420573
0.00127619276408852
0.00137885161976564
0.0014707180343036
0.00155049684447065
0.00161798705205125
3.71762525357305e-05
0.000192934016094746
0.000340230672652817
0.000480634503152078
0.000617291209214614
0.000750611650230222
0.000880715505189156
0.0010071942604215
0.00112910360222042
0.00124519800121668
0.00135394668786341
0.00145345522494887
0.00154175819642079
0.00161759076628813
0.00168081377872966
2.55947328728215e-05
0.000161104025749378
0.000299274541472362
0.000435067975444175
0.00056968682031804
0.000702680867286386
0.000833732878301464
0.000962208425007765
0.00108705258793172
0.00120702026146034
0.00132077006853077
0.00142674413901125
0.00152303639398192
0.00160767593112828
0.0016794595019192
0.00173832608579367
1.49983604122041e-05
0.000127213902228741
0.000255169233496783
0.000385709324404038
0.000517797253489015
0.00064999336817346
0.000781518953354079
0.000911517691652161
0.00103882159574662
0.00116212921353024
0.00128012771334346
0.00139146737610496
0.00149457935086303
0.00158748203167664
0.00166831908399222
0.00173595562091367
0.00179039790799528
6.44564096431071e-06
9.16592863206472e-05
0.000208058503109627
0.000332585059020277
0.000461689294593416
0.000592685852977798
0.000724255300111381
0.000855323285470125
0.000984620908253929
0.0011107894776385
0.00123248956758576
0.00134843090590326
0.00145731665496515
0.00155721143154192
0.0016465376338341
0.00172346356664033
0.00178688635048348
0.00183687318978673
1.39811267829819e-06
5.55477169897306e-05
0.000158524811863961
0.000275801408184153
0.000401317573153029
0.000530775470577147
0.000662041401923159
0.000793774736296672
0.000924622688793421
0.00105318062306859
0.00117806233083858
0.00129791507038831
0.000530972958891291
0.000362868935146208
0.000130328646870366
0.00067490055348841
0.000539016367553707
0.000368963183612227
0.000134200920701838
0.000801798981663528
0.000683244244431266
0.000543803950704308
0.00037138478602996
0.000133615386634225
0.000917474448661102
0.000809907902563506
0.000686974821196325
0.00054401191471221
0.000368586464128579
0.000129298454941269
0.00102465055970382
0.000924919949246423
0.000812416304812841
0.000685097135151752
0.000538655352963449
0.000360833059255553
0.000122830998508133
0.000115057077805605
0.000349229873739479
0.000527852124192037
0.000677075065566507
0.000808429978441521
0.000925968500158392
0.00103128934647006
0.00112485060618183
0.000106156605270738
0.000334581522207101
0.000512312611080331
0.000663157854543177
0.000797710440850214
0.000919834345031392
0.00103086161777864
0.00113069385451045
0.00121905593098679
9.6162858912443e-05
0.00031719627135146
0.000492625363078864
0.000643931879619554
0.000780685185844134
0.000906481911483983
0.00102269675689737
0.00112891784301797
0.0012241199330006
0.00130788316329755
8.51989379291363e-05
0.000297158044996747
0.000469102160209669
0.000619856952400014
0.000757933979757266
0.000886470348666832
0.00100689001232598
0.00111891921262434
0.00122111278835332
0.00131214849151657
0.00139165832114064
7.34932291607133e-05
0.000274551857751149
0.000441915650613321
0.000591213689758714
0.000729862566107311
0.000860398882270802
0.0009840863526449
0.00110086864368058
0.00120944252402496
0.00130796601369479
0.00139508400923875
0.00147049501035238
6.13597654204715e-05
0.000249497677188361
0.000411194593342195
0.000558201919860023
0.000696728801561115
0.000828656256014911
0.000954917498611831
0.00107547532216306
0.0011893191383453
0.00129472145876492
0.00138973665497865
0.0014730375891932
0.00154437578879219
4.91398839972024e-05
0.000222148642504765
0.000377062667633473
0.000520989954855563
0.000658738343909481
0.000791489504086863
0.000919779342471001
0.00104341599384901
0.00116150718074709
0.00127264321681288
0.00137496766271838
0.00146651667520924
0.00154599886060092
0.00161321557523289
3.71511840845077e-05
0.000192646072517262
0.00033963342767469
0.000479728468353579
0.000616082614343954
0.000749107347865041
0.000878919836882983
0.00100511007281206
0.00112673335096272
0.00124254436646175