/*--------------------------------*- C++ -*----------------------------------*\
  =========                 |
  \\      /  F ield         | OpenFOAM: The Open Source CFD Toolbox
   \\    /   O peration     | Website:  https://openfoam.org
    \\  /    A nd           | Version:  12
     \\/     M anipulation  |
\*---------------------------------------------------------------------------*/
/*   Windows 32 and 64 bit porting by blueCAPE: http://www.bluecape.com.pt   *\
|  Based on Windows porting (2.0.x v4) by Symscape: http://www.symscape.com   |
\*---------------------------------------------------------------------------*/
FoamFile
{
    format      ascii;
    class       volScalarField;
    location    "300";
    object      nut;
}
// * * * * * * * * * * * * * * * * * * * * * * * * * * * * * * * * * * * * * //

dimensions      [0 2 -1 0 0 0 0];

internalField   nonuniform List<scalar> 
10140
(
5.69992780597277e-05
5.71287658516981e-05
6.03096171650727e-05
0.000479652279382696
5.72194980454024e-05
6.04499909376557e-05
0.000480135994516531
6.44731629672426e-05
0.000490444225191464
0.00116105418758531
5.72595631180941e-05
6.05463396819487e-05
0.000480412767629976
6.4628483111916e-05
0.000490950947570757
0.00116197134654463
6.69933243682983e-05
0.000504278951380537
0.00117288301646575
0.00192612870813482
5.72464727480611e-05
6.05878715040132e-05
0.000480480638945628
6.47318721814479e-05
0.000491236019553838
0.00116244070731278
6.71556056399813e-05
0.000504808260969994
0.00117382411886601
0.00192747408364231
6.62960295184813e-05
0.000512733355066334
0.00118704826833441
0.00193441212010464
0.0026858359936877
5.71796647385931e-05
6.05741469550156e-05
0.000480326123997333
6.47734185882928e-05
0.000491303779652156
0.00116248925366321
6.72628951390942e-05
0.00050509980086889
0.00117430176556617
0.00192809772752836
6.64590635059287e-05
0.000513273340182936
0.00118801243163231
0.00193578028803681
0.00268754656403031
6.31409780263328e-05
0.000510622787949722
0.00119423580487543
0.00194140456269349
0.00268848644484897
0.0033987090776908
5.70563464583106e-05
6.05042046445305e-05
0.000479937641206395
6.47569767301819e-05
0.000491146777247555
0.00116210090312094
6.73055222520835e-05
0.000505167077934264
0.00117435128360655
0.00192805638519214
6.65674964761619e-05
0.000513567845234716
0.00118849711791373
0.00193641151643383
0.00268825044918898
6.3299860917211e-05
0.000511165384273465
0.00119520864733827
0.00194279285241917
0.00269021796069293
0.00340070388611646
5.89788189264594e-05
0.000499396403720038
0.00118783312981689
0.00193965980293085
0.00268528956160055
0.00339554749277536
0.0040492338740629
5.68736401510844e-05
6.03758015669059e-05
0.000479301110367698
6.46807245327504e-05
0.000490752077739874
0.00116125194984828
6.72879429075561e-05
0.000505005523523124
0.00117396019489295
0.00192733277806522
6.66106162745993e-05
0.000513634331147436
0.00118854568946188
0.00193637026086066
0.00268803059008118
6.34069598783823e-05
0.000511459082443099
0.0011956949178637
0.00194342984784051
0.00269092851447118
0.00340140751712979
5.91304547362084e-05
0.000499932233683819
0.00118880183052429
0.00194105029883455
0.0026870372918636
0.00339756204329418
0.00405143433862879
5.45006331355469e-05
0.000483115923185797
0.00116815953386554
0.00192342260455793
0.00267065290506651
0.00338200142045173
0.00404173602179597
0.00463516143926293
5.66293477650385e-05
6.01855435284838e-05
0.000478399466336941
6.45431107746208e-05
0.000490105766624241
0.00115991280319976
6.72069518441283e-05
0.000504598948421046
0.00117310440511886
0.00192589176485827
6.65931737018558e-05
0.000513468472228636
0.00118814792549553
0.001935642701961
0.00268686739929265
6.34502865443392e-05
0.000511524073057463
0.00119573993643647
0.00194338522754089
0.00269070807839886
0.00340092534838642
5.92349100363176e-05
0.00050022105624352
0.00118928272610591
0.00194168473280813
0.00268775124380969
0.00339827206076694
0.00405206657788002
5.46438099840449e-05
0.000483637477704495
0.00116911106436906
0.00192479712599872
0.0026723937486727
0.00338402920791381
0.0040439570306522
0.00463750151008985
4.97526889101598e-05
0.000464171193833875
0.00113900987872991
0.00189201871111168
0.00264040193847306
0.00335384743725085
0.00401976506115915
0.00462505424719088
0.00516020389114545
5.6318537258167e-05
5.99283552420372e-05
0.000477211710972471
6.4340318060077e-05
0.000489189736862422
0.00115804566711264
6.70610031746656e-05
0.000503934232942145
0.00117175431993354
0.00192368605414489
6.65117213777528e-05
0.000513051588100606
0.00118727809452579
0.00193419424243065
0.0026847142217337
6.34344477105276e-05
0.000511355225915955
0.00119533370742438
0.00194264822653473
0.00268954109115074
0.00339923493771958
5.92785030081398e-05
0.000500284637826981
0.00118932192182887
0.00194163229674965
0.00268752563828656
0.00339779005848293
0.00405125633712345
5.4745440432023e-05
0.000483919219603849
0.00116957989941695
0.00192541885857151
0.00267309972785281
0.00338474115081481
0.00404459669982144
0.00463800728281405
4.98870230184573e-05
0.000464674231463246
0.00113993389853288
0.00189336144545899
0.00264211350572244
0.00335585994173915
0.00402199827784253
0.00462741650956711
0.0051626303030888
4.46677708545184e-05
0.000442948723544464
0.00110309729758013
0.00184768994495127
0.00259358886926639
0.00330816998373071
0.00397975217279181
0.00459703682457769
0.0051485412341775
0.00562979390199953
5.59330299849925e-05
5.95988526234454e-05
0.000475709293931594
6.40655878785095e-05
0.000487980367293779
0.00115560279812431
6.68476253910433e-05
0.000502993239773499
0.00116987158048427
0.00192065432921085
6.63645949725114e-05
0.000512369394813679
0.00118590699896081
0.00193197767435173
0.00268150559728745
6.33559984806347e-05
0.000510933618252588
0.00119444924349059
0.00194118458513198
0.00268738201177793
0.00339627860573526
5.92652492802181e-05
0.000500115471342322
0.00118890807936185
0.00194088296083739
0.00268634875844977
0.00339609798009752
0.00404897680011643
5.47888943514556e-05
0.000483982035392456
0.00116961189282254
0.00192535449983497
0.00267286280031804
0.00338425396536482
0.00404378763634945
0.00463682188901576
4.99869678476409e-05
0.000464949270955227
0.00114038613326442
0.00189396137921958
0.00264279821581382
0.00335655947542349
0.00402263975124888
0.00462793085185804
0.00516296851073201
4.47926205824169e-05
0.000443431862637905
0.00110398607459467
0.00184898777796475
0.00259525260920456
0.0033101404377798
0.00398196362357342
0.00459941145546816
0.00515099163966438
0.00563226546020002
3.92621836991409e-05
0.000419130248290939
0.001061169359532
0.00179223202795052
0.00253104452790848
0.00324404698458709
0.00391936870782309
0.00454739629134775
0.00511612230056636
0.00561698619475408
0.00604922693514649
5.54644464364384e-05
5.91920276773386e-05
0.000473857001626166
6.37114871642118e-05
0.00048644921672618
0.00115252452169628
6.65608149014624e-05
0.00050174972651836
0.00116740720168677
0.0019167193797906
6.61496208279271e-05
0.000511404800465287
0.00118399619937905
0.00192893143907362
0.00267715619158987
6.32137880354947e-05
0.000510244784756824
0.00119305659640151
0.0019389473302723
0.00268416570941193
0.00339197288117198
5.91919096302053e-05
0.000499694770615737
0.00118801389889935
0.00193940234840994
0.0026841762975478
0.00339313931957905
0.00404515871543088
5.47782661247471e-05
0.000483815396696322
0.00116919302828016
0.00192459302172067
0.00267167229507408
0.00338255412619902
0.00404150859467127
0.00463391495308139
5.00309612513357e-05
0.000465011624184318
0.0011404103830068
0.00189388206078339
0.00264254385492624
0.00335605936628386
0.0040218264346184
0.0046267476922577
0.00516137804762703
4.48914251873678e-05
0.000443702272732479
0.00110441970640516
0.00184955878621799
0.00259590440099029
0.00331081104601411
0.00398258974177223
0.0045999280159035
0.0051513395341317
0.00563240556073174
3.93783234214314e-05
0.000419592775108101
0.00106201766788869
0.00179347372397095
0.00253264447905227
0.00324595372898208
0.00392152687200184
0.0045497441866052
0.00511858551232786
0.0056194833846646
0.00605172253565768
3.36213122246657e-05
0.000392408608540915
0.00101294259884359
0.00172608844965568
0.00245334650254103
0.00316137629756702
0.00383775589553055
0.00447380221491414
0.00505855509946591
0.00558099086950493
0.00603536697721325
0.00642322365863977
5.49039098611085e-05
5.86989602098591e-05
0.000471613131462385
6.32733304362785e-05
0.000484561355273881
0.00114873958529172
6.61919518607817e-05
0.000500173430300614
0.00116430130995683
0.00191178690230014
6.58623805736033e-05
0.000510133309799091
0.00118149510227254
0.00192497794241132
0.00267155931187944
6.30060705590696e-05
0.000509271132332534
0.001191117948791
0.00193587483500167
0.00267980692633102
0.00338620894455715
5.9057338693118e-05
0.000499009304419233
0.0011866094597272
0.00193714353204306
0.00268094368960808
0.00338883156702996
0.00403970277418775
5.47109554677845e-05
0.000483400675938425
0.00116829584607286
0.00192309974316919
0.00266948447212325
0.00337958684305226
0.00403769232146182
0.00462920689491605
5.0023022125552e-05
0.000464849119350763
0.00113998948738211
0.00189311052867485
0.00264133880236743
0.0033543474249733
0.00401954259452428
0.0046238430353238
0.00515782592147629
4.49371447504893e-05
0.000443765786143852
0.00110443630049848
0.00184946251919651
0.00259562773674975
0.00331028984387426
0.00398176328032029
0.00459874175025803
0.00514975213088037
0.00563039382635872
3.9476554015038e-05
0.000419860872188225
0.00106243223531611
0.00179401045866474
0.00253325380355269
0.00324658111048763
0.00392211800167698
0.00455024342725883
0.00511893627342856
0.00561963415420596
0.00605163352588741
3.37293346020275e-05
0.000392852696572885
0.00101374657409464
0.00172726428304645
0.00245486805776571
0.00316320055993305
0.00383983562489439
0.00447608709882425
0.00506098739100296
0.00558350171194812
0.00603788774568923
0.00642566077964293
2.78799301780977e-05
0.000362584333470586
0.000957784655049838
0.00164873150262609
0.00236017429796951
0.00305971099542197
0.00373436498310881
0.00437543517752189
0.00497314868558963
0.00551653963994075
0.00599615418780004
0.00640831989006907
5.42409645137956e-05
5.81115598240315e-05
0.000468935822600716
6.27445187323841e-05
0.000482276160533107
0.00114416583008467
6.57327746756501e-05
0.000498229976755858
0.00116048210755535
0.00190574515199558
6.54955745905185e-05
0.000508521700834351
0.00117834317405605
0.00192002241095867
0.00266458539938769
6.2728376265472e-05
0.000507989594457429
0.00118858360018333
0.00193188911486394
0.00267419887780579
0.0033788522982434
5.88604440595818e-05
0.000498042721705315
0.00118465679133829
0.00193404541117222
0.00267656599948667
0.00338306657770765
0.00403247916495891
5.45850589194223e-05
0.000482725192483824
0.00116689138620798
0.00192082797533521
0.00266623532571179
0.00337527069392007
0.00403224027062787
0.00462258309847737
4.99619656591844e-05
0.00046444350205786
0.00113909572577664
0.00189161165585421
0.00263913923056764
0.00335136985795673
0.00401572341084897
0.00461913961439599
0.00515222279373416
4.49326532145774e-05
0.000443608538046934
0.00110401589364815
0.00184868361851361
0.00259440923761433
0.00330856373508939
0.00397947027112338
0.00459583506802458
0.00514620351499509
0.00562619541114961
3.95245736510441e-05
0.000419928169914669
0.00106244227434333
0.0017938961637764
0.00253295133494014
0.00324603212738539
0.00392126861009041
0.00454904455484225
0.00511734695333995
0.00561762629404735
0.00604919407073524
3.38296731205363e-05
0.000393123602064499
0.00101414338404214
0.00172776306150089
0.00245542703721278
0.00316377300490212
0.00384037495246199
0.00447654672697863
0.00506131965368492
0.00558365603710677
0.0060378110476035
0.00642534149260645
2.79809362491623e-05
0.000363017557055677
0.000958543863303455
0.00164983335207427
0.00236160393211586
0.00306143529331717
0.00373634473804609
0.00437762839523063
0.00497550949897376
0.00551901659511207
0.00599868872253476
0.00641075556370078
0.00675774694033757
2.2199592990728e-05
0.000329477346439522
0.000894865795941053
0.00155899348259465
0.00225037736659734
0.00293789155046775
0.00360809554561781
0.00425164579237713
0.00485908176472588
0.00542042392593492
0.00592545932693936
0.00636608703640888
5.34632178927977e-05
0.000465766990020913
5.74183757024607e-05
6.2116852710914e-05
0.000479549332424482
0.00113870394333506
6.51772261921573e-05
0.000495878759113027
0.00115586624971087
0.00189846441482962
6.50391150667607e-05
0.000506533579261437
0.00117446809975727
0.00191395272820213
0.00265608117286142
6.23744866973016e-05
0.000506369238835824
0.00118539084927819
0.00192689513217633
0.00266721191873069
0.00336974005791569
5.85973314556816e-05
0.000496771229690085
0.0011821075584051
0.00193003012173122
0.00267093669620972
0.00337570960850089
0.0040233260969023
5.4400311230407e-05
0.00048177400869723
0.00116494280051736
0.00191771724841115
0.00266184051939533
0.00336949843519612
0.00402502307581608
0.00461389364554419
4.98456104153552e-05
0.000463782323490921
0.00113770083401145
0.00188933934816262
0.00263588165963244
0.00334704624841694
0.00401027165626704
0.00461252374333145
0.00514443923665979
4.48787862663257e-05
0.000443213677869323
0.00110313055486379
0.00184718636727202
0.00259220466235072
0.00330557909028584
0.00397564745487392
0.00459113363758316
0.00514060694002255
0.00561971079039648
3.95246035847088e-05
0.000419777943662116
0.00106202472201007
0.00179311271996558
0.00253172157378164
0.00324429199599121
0.00391896391533094
0.00454613221332943
0.00511379879524258
0.00561343251549336
0.00604436288135342
3.38815285303624e-05
0.000393198406555063
0.00101414963007454
0.00172763094153986
0.00245509657461263
0.00316319149849557
0.00383949463913487
0.00447532460634944
0.00505971895289973
0.00558164765579627
0.0060353768345812
0.00642249118810661
2.80859802421639e-05
0.000363308473253515
0.000958929528249512
0.00165029306493271
0.00236210646962896
0.00306194308431938
0.00373681877709332
0.00437802954477644
0.00497579893412824
0.00551915183001758
0.00599861605016866
0.00641046685886289
0.00675760972865651
2.22949015285588e-05
0.000329923200564974
0.000895587155690144
0.00156001650171241
0.00225170322431074
0.00293949947354392
0.00360995544736794
0.00425372323234224
0.0048613393285473
0.00542282264980938
0.00592795747495822
0.00636850893524196
0.00674177591675678
0.00705274031469152
1.66987090303648e-05
0.000292838915926145
0.000823010710743381
0.00145508722972565
0.00212202801144593
0.00279402645255466
0.0034571146773173
0.00410102207009583
0.0047157731923196
0.00529177767103393
0.00581952983545542
0.0062896270326663
5.25585602201274e-05
0.000462045894560223
5.66043091490596e-05
0.00113224901646227
0.000476323638577178
6.13770615482396e-05
6.4519557689173e-05
0.000493074852323526
0.00115035763816682
0.00188979309668009
6.44832707707713e-05
0.000504128136340775
0.00116978611647279
0.00190663838544747
0.00264586922594445
6.19370483970922e-05
0.000504370556318722
0.00118146721350208
0.00192078045128667
0.00265869266692794
0.00335867763351026
5.82621747658552e-05
0.000495165355945505
0.00117890030278001
0.00192500271251341
0.00266392641667012
0.00336659748014444
0.00401204807953141
5.41539282411845e-05
0.000480525289118269
0.00116240177986447
0.00191369089409384
0.00265619441832856
0.00336213589018918
0.00401587929407793
0.00460295176235592
4.96741981786231e-05
0.000462851939564332
0.00113576952564119
0.00188623430281559
0.00263148273923011
0.00334127058400109
0.0040030590676061
0.00460384604353993
0.00513430692041066
4.47734072778908e-05
0.000442569809170672
0.00110175269780935
0.00184492529150625
0.00258895113389674
0.00330125630451678
0.0039701989814387
0.00458452535612461
0.00513283413696476
0.00561079599978664
3.94775394376132e-05
0.000419397032829579
0.00106115192718417
0.00179162368951292
0.00252951970249453
0.00324130687379331
0.00391514123014623
0.00454143405100893
0.00510820838696968
0.0056069560943856
0.00603702598879351
3.38878277326867e-05
0.000393059652045514
0.00101373811627153
0.00172684628131537
0.00245385859577865
0.00316143930795469
0.00383717822583067
0.00447240478955933
0.00505616915959295
0.00557745696836591
0.00603055174934536
0.00641705768329845
2.81436660890022e-05
0.000363401420084286
0.000958938653584288
0.00165014575301756
0.00236174759995088
0.00306132624261631
0.00373590217325471
0.00437677569376929
0.00497417623085525
0.00551713400734692
0.00599618310849522
0.00640762845322559
0.00675445057800329
2.24062281407668e-05
0.000330284937799214
0.000895982645909826
0.00156044146972297
0.00225214604835254
0.0029399349887204
0.00361035331236553
0.0042540511979479
0.0048615656934551
0.00542291317435326
0.0059278649800769
0.00636823834923156
0.00674169555905674
0.00705240665173531
1.67899528845549e-05
0.000293304391732366
0.000823714733820733
0.00145603295006147
0.00212324144203102
0.00279550345111868
0.00345883624153606
0.00410296189728013
0.00471790130483288
0.00529406363429771
0.00582194438352657
0.00629199426065411
0.00669663729529078
0.00703580147748606
0.00731372560420491
1.14157537127929e-05
0.000251950343459341
0.000740326505993724
0.00133435766759746
0.00197230440976095
0.00262542497082966
0.00327889598198357
0.00392129869576189
0.00454172096197017
0.00513014238181793
0.00567742658791599
0.00617468409724393
5.1515779119299e-05
0.000457708555887335
5.56583786095334e-05
0.00112467773424591
0.000472533076139102
6.05071823894568e-05
0.00187956471758283
0.00114384653638901
0.000489759973923545
6.37472396699261e-05
6.38227630859931e-05
0.000501260813006179
0.0011642018197452
0.00189792916322348
0.00263374606996785
6.14049327609922e-05
0.000501951964565915
0.00117672870903373
0.00191341465566933
0.00264846346714421
0.0033454420716671
5.78479866539491e-05
0.000493187856500194
0.00117496140347829
0.001918851067658
0.00265538232032293
0.0033555369587967
0.00399841463133958
5.38402672094328e-05
0.000478949751807558
0.00115920899514169
0.00190865483839765
0.00264916863168344
0.00335302066417844
0.00400461388734968
0.00458953167154069
4.94459239645563e-05
0.000461632507556278
0.0011332556085159
0.00188222129952178
0.00262583830995666
0.00333391005339114
0.00399392530091262
0.0045929201487143
0.00512161461098358
4.46168562074226e-05
0.00044166452804697
0.00109984857066561
0.00184184267696666
0.00258456674858819
0.00329549095361442
0.00396299822508421
0.00457586215061358
0.00512271688378643
0.00559926398669705
3.93848200329333e-05
0.000418774588468402
0.00105979727776103
0.00178938423911932
0.00252628350365546
0.00323699785613095
0.00390970593375657
0.00453483973418655
0.00510044930812677
0.00559805425396287
0.0060270240984963
3.38498559679575e-05
0.000392696526314705
0.0010128828217641
0.00172537188682868
0.00245166753008333
0.00315846225704461
0.00383336313005699
0.00446771579433831
0.00505058921723729
0.00557099086478545
0.00602322497054518
0.00640891131667948
2.81576446266792e-05
0.000363282906761849
0.000958539927220343
0.00164936495480626
0.00236050583120213
0.00305956571705645
0.00373357657475316
0.00437384940920523
0.00497062482324204
0.0055129464916836
0.00599136429839695
0.00640220394016072
0.00674846626770678
2.24715017190764e-05
0.000330421818369873
0.000896011385750352
0.00156028645643973
0.00225176134595861
0.00293928241106196
0.00360939772646184
0.00425276045008304
0.00485991293035167
0.00542087606729713
0.00592542506910956
0.00636540925542077
0.00673855785675893
0.00704889484224079
1.69066204367807e-05
0.00029380948340061
0.000824165822643961
0.00145643835570044
0.00212362626815562
0.00279586220790518
0.00345914969806761
0.00410320532552734
0.00471804934297317
0.00529408854675002
0.00582180605356385
0.00629170957402452
0.00669660344902904
0.00703551110351318
0.0073131513153223
1.1506914210798e-05
0.000252454066043832
0.000741044819646249
0.00133523792644088
0.00197340244175305
0.00262675988389419
0.00328046301017512
0.0039230809837361
0.00454369646035335
0.00513228764704906
0.005679720912147
0.00617695866903759
0.00661477580943888
0.00698802588149306
0.00729588171623241
0.00754373399604517
6.56903371166486e-06
0.000205274263776456
0.00064356229452332
0.00119278956372451
0.00179721025222206
0.00242843270095715
0.00307016067060579
0.00370951747657576
0.00433443811420232
0.00493404310923236
0.00549881949183004
0.00602024042871297
5.03278545081478e-05
0.000452693585544922
5.45603873146068e-05
0.00111585958802749
0.000468114825439115
5.94979627627319e-05
0.00186759032764141
0.00113620873691526
0.000485864679630787
6.28405552396362e-05
0.00261948241810032
0.00188765615384185
0.00115760274845042
0.000497874035657174
6.30484399519557e-05
6.07679574428012e-05
0.000499068180972982
0.00117107999426341
0.00190464830628436
0.00263632103116111
0.00332977960390671
5.73464442892004e-05
0.000490796529103454
0.00117020724988573
0.00191144530554097
0.00264512738026528
0.00334230502136765
0.00398215903431233
5.34523516098049e-05
0.000477011669828002
0.00115529232229799
0.00190249815392574
0.00264061162787075
0.00334196102909923
0.00399099691622702
0.00457336939131047
4.91553104136166e-05
0.000460096569823915
0.00113010074996129
0.00187720793961391
0.00261882192150049
0.00332480404734996
0.00398267669415372
0.00457952137414811
0.00510611037305305
4.44081033393558e-05
0.000440479704253657
0.00109737423058058
0.00183786561934419
0.00257894915379589
0.00328815226281363
0.00395388680092973
0.00456495914604319
0.0051100454203017
0.0055848829082804
3.92445069842866e-05
0.000417898773015801
0.00105792859657714
0.00178633840739749
0.00252193294424965
0.00323126245274276
0.0039025334434415
0.0045262031875878
0.00509035477799368
0.00558654062573831
0.00601415306255222
3.37691658544526e-05
0.000392099107882831
0.00101155787100044
0.00172316370954892
0.00244846186723527
0.00315418211976055
0.00382795594331784
0.00446114899551829
0.00504285482829103
0.0055621086596872
0.0060132385704749
0.00639787898366455
2.81294279756144e-05
0.000362943414336591
0.000957708377143525
0.00164791270666479
0.00235833456496551
0.00305660687276293
0.0037297793561934
0.00436917955845832
0.00496506487301449
0.00550649879557387
0.00598405253239293
0.00639407017311446
0.00673956220345173
2.24933018675414e-05
0.000330337068468485
0.000895638155843384
0.00155951830215367
0.00225052280134939
0.00293751963404088
0.00360706818627316
0.00424983190705191
0.00485636311940808
0.00541669447034235
0.00592061514693082
0.00635999630857077
0.00673258651653257
0.00704238044454696
1.69769741762049e-05
0.000294030923488484
0.000824249879524957
0.00145629207389359
0.00212322331001999
0.00279517710550443
0.00345815562916402
0.00410187599475281
0.00471636240423599
0.00529202534901313
0.0058193506677571
0.00628888046537943
0.00669348752850489
0.00703202243677025
0.00730927221961297
1.16274494619432e-05
0.000253079751665534
0.000741616650959648
0.00133565445999221
0.00197373917792737
0.00262704239017783
0.00328068753481678
0.00392323189373476
0.00454375504697422
0.00513223179088887
0.00567951624246056
0.00617662899134132
0.00661473514630417
0.00698777296559618
0.00729534821887927
0.00754292936578727
6.65432762300982e-06
0.000205847738382175
0.00064432399084072
0.00119362623634234
0.00179819855589293
0.00242962006687053
0.0030715608270151
0.00371112516463077
0.00433624041344141
0.00493602356809689
0.00550096441262799
0.00602239101153138
0.00649149810036686
0.00690128865118867
0.00724569763766558
0.00752506738389137
0.0077455453551695
2.75238887821838e-06
0.000151298060100957
0.000527905935973946
0.00102445568093379
0.00159119653716902
0.00219822535198454
0.00282675398136249
0.00346205246867005
0.00409074044538859
0.00470092005375664
0.00528231688523393
0.00582608866272858
0.000446952675542753
5.33105467292833e-05
0.00110566103057481
0.000463002015496267
5.83235496018175e-05
0.00185366401794882
0.00112731295286699
0.000481323090853791
6.17860502424015e-05
0.00260282143654681
0.0018756301188082
0.00114986428915776
0.000493897572304952
6.21432842742089e-05
0.00331140008373709
0.00262203576227731
0.00189431167209742
0.00116440903081546
0.000495663991524653
6.00182648488338e-05
5.67471226467138e-05
0.000487944327365006
0.0011645426588611
0.00190263710740041
0.00263295925923394
0.00332664716766376
0.00396297663779618
5.29822078145623e-05
0.000474669637442289
0.00115056904668273
0.00189509218734846
0.00263034805148562
0.00332873522672242
0.0039747622733397
0.00455415730501654
4.87957172537224e-05
0.000458209778220412
0.00112623437298031
0.00187108573737673
0.00261028424478115
0.00331376316967547
0.00396908504302444
0.00456338562033401
0.00508749703937717
4.41426882957701e-05
0.000438989007827258
0.00109427382284389
0.00183290347864851
0.00257197475308794
0.00327908239899335
0.0039426735142107
0.00455159349203807
0.00509456796670574
0.00556737485168958
3.90568055511119e-05
0.000416753014658328
0.00105550419828248
0.00178241570184905
0.0025163678392983
0.00322397245631076
0.0038934681221286
0.00451534200567364
0.00507771700825655
0.00557218418857613
0.0059981614225883
3.36460370859676e-05
0.000391256802425854
0.00100973253943395
0.00172016770674872
0.00244416374623783
0.00314849863198619
0.00382083441389849
0.00445256084073161
0.00503280157177836
0.00555062577274402
0.00600038922176884
0.00638374166135746
2.80606180374037e-05
0.000362375110460454
0.000956419306962522
0.0016457458057875
0.00235517307603987
0.00305237213273578
0.00372441846142405
0.00436265925253855
0.00495737421912558
0.00549765268927821
0.00597409221975378
0.00638305630971136
0.00672756344784003
2.24745327214395e-05
0.000330028585040221
0.000894839443644705
0.00155809788987814
0.00224838234473441
0.00293459128914887
0.00360330190692825
0.00424519465893428
0.00485083716971
0.00541027941186997
0.00591333075459092
0.00635188323960662
0.0067236980158863
0.00703276424086404
1.70050391578845e-05
0.000293999922921608
0.000823923480458076
0.00145555125676124
0.00212199928909236
0.00279342173979295
0.00345583082140017
0.00409895297543444
0.00471282110610273
0.00528785603013338
0.00581455565165871
0.00628348421167119
0.0066875346379874
0.00702552357249792
0.0073022464887503
1.17019800975859e-05
0.000253444705652257
0.000741808880175691
0.00133554655684574
0.00197333317330325
0.00262633342092851
0.00327965992018956
0.00392186638337388
0.00454203404223247
0.00513014020629246
0.00567704056001146
0.00617379062086308
0.00661162838689577
0.0069843095755493
0.00729149365638908
0.00753869497776846
6.76788486723048e-06
0.000206586842690707
0.000645064437946558
0.00119409555326283
0.00179850779593063
0.00242983434250033
0.00307169742159357
0.00371118007552166
0.00433620256747777
0.00493587663302449
0.00550067921074409
0.00602199455001319
0.00649140549171054
0.00690102526910893
0.00724519999330253
0.00752430419266112
0.00774452768260679
2.81838802200782e-06
0.000151995971651737
0.000528733303289652
0.00102528042759679
0.00159209054281188
0.00219926838563577
0.00282798122140463
0.00346347304747481
0.00409235256532136
0.00470271486692421
0.00528428775261401
0.00582808847307576
0.00632571533373944
0.00677052814207626
0.00715455065223872
0.00747271898045055
0.00772614461639577
0.00792164871206796
5.87028039071372e-07
8.95244506590783e-05
0.000388006144255282
0.000822127036498133
0.00134716407298425
0.00192871579598767
0.00254358545639039
0.00317457927316675
0.00380688114424527
0.00442752653746855
0.00502538057261393
0.00559094682247522
0.00109394014034216
0.000457145856121111
5.69869114404884e-05
0.00183756727067196
0.00111702315250467
0.000476065620501544
6.05569170819074e-05
0.00258347950382391
0.00186164461921448
0.00114085334969852
0.000489260436292765
6.10891122142306e-05
0.0032899799006266
0.00260535096383853
0.00188221570962489
0.00115659096948507
0.000491671083376564
5.91432611616638e-05
0.00394052264130748
0.00330827487068064
0.00261864934047565
0.00189225793790271
0.0011578581170784
0.000484577002843486
5.6037983849886e-05
5.24213021987446e-05
0.000471877682597559
0.00114494463959488
0.00188629044866888
0.00261817772837209
0.0033130901534497
0.00395560605783408
0.00453154443705748
4.8360020895171e-05
0.000455928166601222
0.00112157612402259
0.00186372840584478
0.00260005270355219
0.00330056839875034
0.00395288632009294
0.00454420661565905
0.00506543095682985
4.38139569377378e-05
0.000437160116068848
0.00109047939860482
0.00182685062734269
0.00256349734792596
0.00326809539053409
0.00392913324341557
0.00453550296494601
0.00507598829481452
0.00554641384145227
3.88185675174709e-05
0.000415312810593966
0.00105247083276163
0.00177752912991475
0.00250946800753942
0.00321497367912073
0.00388232234500346
0.00450203639148736
0.0050622861170648
0.00555470781352549
0.00597874823625622
3.34801934198932e-05
0.000390155401516553
0.00100736756451007
0.00171631605256978
0.00243867542378875
0.0031412867280679
0.00381184633964285
0.00444177231463394
0.00502022461385394
0.00553631321785588
0.00598442630594375
0.00636623038022558
2.79561778000303e-05
0.00036157039043942
0.000954644624189426
0.00164281240441416
0.00235094598576562
0.00304676371654918
0.00371737418296783
0.00435414789975026
0.00494739147522939
0.00548622635532133
0.00596128209434004
0.00636894442066066
0.00671224028627438
2.24185333792514e-05
0.000329494646906398
0.000893594033335975
0.00155598338578363
0.00224528018982566
0.00293042049551396
0.00359800828049247
0.0042387437189482
0.00484321515996736
0.0054014952173362
0.00590341902418869
0.0063409026853814
0.00671172106565128
0.00701986366120979
1.69935561087213e-05
0.000293731398153141
0.000823170261320556
0.00145417603858691
0.0021199041123111
0.00279053933591734
0.00345211207069302
0.00409436549338217
0.00470734708288262
0.00528149276188477
0.0058073182098917
0.00627540876993368
0.00667867330714603
0.00701592577002098
0.00729196139824344
1.17328072087874e-05
0.00025350361352301
0.000741560017594782
0.00133485593746971
0.00197214115819128
0.00262460046458297
0.00327735331136733
0.00391896117414015
0.00453851246162311
0.00512599365751254
0.00567227058556827
0.00616842001583792
0.00660570133769925
0.00697783434918554
0.00728448560833546
0.00753118509816616
6.83799893714115e-06
0.00020705736848374
0.000645426569678211
0.00119406539208872
0.00179812360615707