/*--------------------------------*- C++ -*----------------------------------*\
  =========                 |
  \\      /  F ield         | OpenFOAM: The Open Source CFD Toolbox
   \\    /   O peration     | Website:  https://openfoam.org
    \\  /    A nd           | Version:  12
     \\/     M anipulation  |
\*---------------------------------------------------------------------------*/
/*   Windows 32 and 64 bit porting by blueCAPE: http://www.bluecape.com.pt   *\
|  Based on Windows porting (2.0.x v4) by Symscape: http://www.symscape.com   |
\*---------------------------------------------------------------------------*/
FoamFile
{
    format      ascii;
    class       volScalarField;
    location    "300";
    object      omega;
}
// * * * * * * * * * * * * * * * * * * * * * * * * * * * * * * * * * * * * * //

dimensions      [0 0 -1 0 0 0 0];

internalField   nonuniform List<scalar> 
10140
(
2.46684012185195
2.46684012027653
2.38167819932494
0.831799603042003
2.46684013438042
2.38167826054187
0.831852572051571
2.28699445272215
0.814904649901811
0.502718679143024
2.46684014660432
2.38167830681746
0.83181967504551
2.28699458698845
0.814957152506171
0.502726006598296
2.21610803716599
0.792767409700912
0.497332488608031
0.379538804885592
2.46684016062775
2.38167829536488
0.831672439469309
2.28699467467534
0.814927194606692
0.502659101554938
2.21610824383735
0.792816290580618
0.497343435594968
0.379529533392518
2.18721770423383
0.773867819101599
0.48912391914605
0.377445243159674
0.319405152188288
2.46684022608401
2.38167823682361
0.831399532228206
2.28699463699289
0.814784748403351
0.502502464591993
2.21610839766264
0.792789687127822
0.497278072609482
0.379454826502398
2.18721800819257
0.773914241493227
0.489135729169428
0.377439816677357
0.31938999144887
2.18619174524809
0.761973953300147
0.48076681950849
0.373766211462277
0.31852921779795
0.285750487942755
2.46684040399754
2.381678197238
0.83099198803658
2.28699449577394
0.814514718169294
0.502246475459099
2.21610835816873
0.792650380700938
0.497122784298655
0.379305845300065
2.1872183459305
0.773889117520051
0.489071950375168
0.377366179649173
0.319315413558086
2.1861921725092
0.762014771759076
0.480778230446716
0.373762456866862
0.318517780921292
0.285733246159586
2.19192529557702
0.754835717493455
0.473851997778057
0.369371305995768
0.316663555642301
0.285363697556858
0.265353368191328
2.46684060853353
2.38167823429883
0.830440509080068
2.28699436047023
0.814110163829147
0.501883087319633
2.21610814985818
0.792382177478948
0.49686810874905
0.379075782170246
2.18721838472963
0.773751119648732
0.488918040443088
0.377217805668074
0.319175674190581
2.18619289849398
0.761988960015757
0.480715074149241
0.373689951564082
0.318444113835412
0.285660965720648
2.19192786218321
0.754870635409166
0.473861475436703
0.369367747950303
0.316653961106508
0.285350063487904
0.265335615593148
2.19484646753061
0.748445267827821
0.468127106381327
0.364977836738475
0.314089031128941
0.284292736156081
0.265147398659369
0.252381242912066
2.46684039437156
2.38167833213517
0.829733006009306
2.2869943267126
0.813562156556589
0.501403997809339
2.21610794614919
0.791981222168501
0.496506447677835
0.378758242944536
2.187218095095
0.773483611813797
0.488664776443072
0.3769883553022
0.318965843517653
2.18619313583986
0.761850621539265
0.4805618838821
0.373542389887032
0.318304735092833
0.285529405153821
2.19193113251976
0.754843324144912
0.473797769827837
0.369295816219677
0.316581292694187
0.285278641194271
0.265266016861576
2.19485124577986
0.748475196528594
0.468134119919262
0.364973546601578
0.314079946084523
0.284280996492216
0.265133142064442
0.252363781043634
2.19511969829569
0.740590561598803
0.462535864050619
0.360730995662119
0.311141444751972
0.282623301349413
0.264423625449189
0.252234820703927
0.243910148481412
2.46683762068715
2.38167814435724
0.828855160351052
2.28699443330622
0.812859377859169
0.500799950083744
2.21610788714548
0.791438337510556
0.496029610791671
0.378346541379859
2.18721779875631
0.773084378873835
0.488305265965178
0.376671614416395
0.318680874560249
2.18619267951884
0.761582831435433
0.480309480157201
0.373313713968434
0.318095174438562
0.285334775401011
2.19192961654408
0.754703132409843
0.473644282495488
0.369148792546192
0.316442453104971
0.285147337065948
0.265141105567224
2.19485497839257
0.748445750096381
0.468069114656481
0.364901446771983
0.314007882842713
0.284210530176114
0.26506437082405
0.252296648404193
2.19512467647932
0.74061591162722
0.46254026366914
0.360725546125663
0.311132136628383
0.282612264694161
0.264411291920981
0.252220769078923
0.243893745652225
2.19479800717415
0.730907887350388
0.456333427570944
0.356406437283325
0.308017983181619
0.280538886500614
0.263219813046449
0.251666000193511
0.24378686323115
0.23833974828183
2.46683890081514
2.38167730318641
0.827791940944818
2.28699428172024
0.811988498199447
0.500060612277002
2.21610800963992
0.790742241075677
0.495428500234648
0.37783344161174
2.18721773004287
0.772545504068819
0.487831325887669
0.376260952666009
0.318315349746102
2.18619217794586
0.76118317983079
0.479951366111888
0.372997936703854
0.317810507376883
0.285073000283996
2.19192874745157
0.754433740787811
0.473391808371479
0.368920656308388
0.316233246822996
0.284952810628732
0.264957894808506
2.19485549888589
0.748302559918318
0.4679144516493
0.364754397707183
0.313869455347651
0.284079640205335
0.264939691107655
0.252176888608922
2.19512654388323
0.740583016652301
0.462473463074498
0.360652758420312
0.311060169178013
0.282542454374065
0.264343474277665
0.252154457878019
0.243828682039139
2.19480337290798
0.730927633895151
0.456335223980026
0.35639966744722
0.30800815118393
0.280527952429933
0.263208335699003
0.251653903369451
0.243773805143593
0.238325884197231
2.19479312669761
0.719590432340455
0.449274227578193
0.351786913083962
0.304761545477636
0.278225914360273
0.261670914729533
0.250721161034017
0.243301668195803
0.238233432777423
0.234728741288024
2.46684121378116
2.38167791954801
0.826527907658992
2.28699339051997
0.810933642274034
0.499174936989645
2.21610792389026
0.78988104949497
0.494693009584593
0.377211104746386
2.18721784342113
0.771855605339833
0.48723395277406
0.375749174842638
0.317863395506679
2.18619213716208
0.760644072665206
0.479479659458174
0.372588501587607
0.317445348374221
0.284739624954251
2.19192596129878
0.75403223339628
0.473033792594229
0.36860555021776
0.31594889155068
0.28469110377438
0.264713083412997
2.19485195183521
0.748030303565926
0.467661019748889
0.364526288959337
0.313660503786013
0.283885253961668
0.26475653071192
0.252002179456376
2.19513074634149
0.740437022769024
0.462317110260409
0.360505197093323
0.310921841295358
0.28241192347617
0.264219173687006
0.252034928275853
0.243712542576032
2.1948053915215
0.730890080816248
0.456266344265358
0.356325940931507
0.307935944118394
0.280458428657941
0.263141242980608
0.251588567955008
0.243709563865064
0.238262240521493
2.19479899199238
0.719603699378547
0.449273215881929
0.351778803303778
0.304751114709647
0.278214878496819
0.26165979697026
0.250710056355206
0.243290598030683
0.23822286296069
0.234721378452726
2.19511855608449
0.706718595712187
0.441360571044393
0.346797602440715
0.301373372368199
0.27581286013564
0.259948891561192
0.249530052716912
0.24252530662357
0.237809271558416
0.234640215069902
0.232483460751959
2.46683863087691
2.38169226993365
0.825047378138673
2.28699370251188
0.809680098324057
0.498131170864911
2.21610716667906
0.788839236283425
0.493811941639138
0.376471161747783
2.18721785969832
0.771001465916592
0.486503472895655
0.375128452397526
0.3173186858046
2.18619225169542
0.759955272191541
0.478885262497197
0.372078274116507
0.316993824232454
0.284329756052646
2.19192803365224
0.753490282884566
0.472562392212586
0.368196985968275
0.315584054888397
0.284357768869079
0.264402922269735
2.19484672207836
0.747625440758135
0.467302014733588
0.364211236167513
0.313376312745146
0.283623534154252
0.26451168582749
0.251769883951055
2.19512458989159
0.740161952914753
0.462062192239107
0.360276647561748
0.310712904855238
0.282217636402362
0.264036072773137
0.251860258542205
0.243543831200582
2.19480305404842
0.730741912143635
0.456108328507639
0.356177638206029
0.307797460359842
0.280328083991411
0.26301730812426
0.251469424331115
0.243593663211915
0.238147858941224
2.19480760589549
0.719561389450993
0.449202150384466
0.351704103603008
0.304678550837606
0.278145427286537
0.261593151948177
0.250645524569907
0.243227361937887
0.238160044723234
0.234657401579089
2.19512461210797
0.706723382756158
0.441356573483841
0.346788173908977
0.30136237977212
0.275801714960831
0.259938002304437
0.249519526187119
0.2425153491699
0.237800712500245
0.234636078358755
0.232497002662263
2.19484813698115
0.692186686306973
0.432664171602851
0.341489790005998
0.297899372496688
0.273395592903336
0.258204988993584
0.248256700515147
0.241597795908928
0.237161972074042
0.23426982068338
0.232413362884521
2.46683596259598
2.38167786656821
0.823325665224964
2.287007540379
0.808210702661529
0.496916683785611
2.21610500687094
0.787600743250422
0.492773669228188
0.375604800867393
2.18721621066109
0.769969884856206
0.485628545529903
0.374390445867356
0.316674536362911
2.18619222472061
0.759103463772487
0.478158319874337
0.371459452893504
0.316449615364014
0.283838069592948
2.19192833220119
0.752797136224523
0.471968665388923
0.367687800741592
0.315132867952227
0.28394789739009
0.26402321655522
2.19485126335814
0.747079449266983
0.466829311208281
0.363802727062416
0.31301157612145
0.283290066922926
0.264201426433894
0.251476856362858
2.19511905654044
0.739753632977657
0.461701568342112
0.359961102212058
0.310428614780254
0.28195580724507
0.263791075563922
0.251627905055215
0.243320613647357
2.19479872196384
0.730465701786799
0.455851995552744
0.355948441569454
0.30758833817546
0.280133801279488
0.262834251686594
0.251294796877635
0.243424995830213
0.237982692781876
2.19480538680966
0.719412080953446
0.449042954893312
0.351555119840659
0.304539829951054
0.278015146143827
0.261469488280897
0.250526782555293
0.243111867084851
0.238045912127071
0.234541895761011
2.19513112172946
0.706674822720593
0.441283255940571
0.34671258076808
0.301289499032085
0.27573229752698
0.259871667627114
0.249455585504132
0.242452989911484
0.237738924762414
0.234572942600809
0.232424682354603
2.19485185442383
0.692176444610413
0.432656487277566
0.34147904953138
0.297887906058006
0.273384419025317
0.25819437009458
0.248246679716825
0.241588604214581
0.237154617167047
0.234267630537283
0.232430143979419
0.231283180648498
2.19192791436318
0.675761647179602
0.423300105949366
0.336019867466945
0.294469946195755
0.271095361763444
0.256575898605615
0.24705581450135
0.240681607839089
0.236445505770483
0.233731685344023
0.232092396203252
2.46684226923058
0.821347962919263
2.38166213273328
2.2869940498939
0.80650234309464
0.495519332240884
2.21611184979431
0.786149533778453
0.491565739299225
0.374602962156027
2.18721583701112
0.768743492239877
0.484597595225907
0.373526343415316
0.315924056710271
2.18619105028048
0.758074023366595
0.477288178851402
0.370723713134482
0.315806029704011
0.283258983847335
2.19192993062515
0.751940894431685
0.471242501587139
0.367070261955295
0.314589020799422
0.283456175187181
0.263569407180997
2.19485400328955
0.746380688964294
0.466233795650145
0.363293559867376
0.312560414092031
0.282879941354455
0.263821554401299
0.25111946255154
2.19512419033057
0.739203408926395
0.46122682574804
0.359551912066774
0.310063626919675
0.281622034471123
0.263480484220009
0.251334740274124
0.243040282658714
2.19479328938157
0.730055877515205
0.455489835357372
0.355632171268347
0.307303741829745
0.279871768779669
0.26258902114985
0.251062244170674
0.243201717633546
0.237765626430809
2.19480318386555
0.71913770919002
0.448786108344193
0.351325407774844
0.304330482867965
0.27782081229071
0.261286449751062
0.250352191739798
0.242943245158402
0.237880795915181
0.234377552454326
2.19512681827939
0.706526806844083
0.441123560562814
0.346563195097615
0.301150632296046
0.275602079929785
0.259748223938866
0.249337191829565
0.242337934750046
0.237625217812714
0.234457703205645
0.232302809193285
2.19485570431745
0.692107484475526
0.432579709363508
0.341402580564905
0.297814822711431
0.273315112801838
0.258128354383398
0.248183242554181
0.241526952980171
0.23709376339099
0.234205570353329
0.232358596001396
0.231168085929316
2.19193055418302
0.675711245750711
0.423285964538078
0.336007529830802
0.294458077344852
0.27108427401351
0.256565662775197
0.247046382012507
0.240673157666655
0.236439062222558
0.23373069535007
0.23211126428573
0.231231472884191
0.230688917651857
2.18619294169925
0.65712356670794
0.413505461247877
0.330682050541949
0.291332656363375
0.269108955694871
0.255228437071996
0.246082115579187
0.239931332248169
0.235824798384885
0.233192990924971
0.2316499519303
2.4668438288431
0.819095337835646
2.3816914763307
0.493925644624686
0.804538505962699
2.28696637178866
2.21610824321158
0.784463020294892
0.490175035831046
0.3734569812728
2.18722221389308
0.767306697166578
0.483398274618159
0.372527122984511
0.315060352413979
2.18619348918741
0.756850709033257
0.476262781753819
0.369862279660457
0.315056168347336
0.282586930856637
2.1919261487796
0.750906994880017
0.470373183721605
0.366335978344038
0.313945807228329
0.282877026989291
0.263036737243712
2.1948531043604
0.745516377271529
0.465505542692866
0.362675923259507
0.312016489648037
0.282387837826575
0.26336750249629
0.250693703613865
2.19512936670949
0.738498900853046
0.460628498669304
0.359041748801915
0.309612027551306
0.281211390108782
0.263100100505771
0.250977126907564
0.24269963570603
2.19479882191684
0.729502783904935
0.455013113483115
0.355221986753764
0.306938230755118
0.27953754611559
0.262277928211393
0.250768670131601
0.242921237578983
0.237494492915875
2.19479800618548
0.718728358858193
0.448423415123289
0.351008581732781
0.304045552170974
0.277558540893148
0.261040954397863
0.2501193510888
0.242719749756024
0.237663667650628
0.234163982018389
2.19512477951573
0.706256689230205
0.440867548407571
0.346333441030132
0.300941210878606
0.275407740556176
0.259565215147718
0.249162633203489
0.242169350419241
0.237460151173398
0.234293416081926
0.232136264023713
2.19485330122245
0.691958338716232
0.432419796727049
0.341253108271669
0.297676011347115
0.273185068301721
0.258005170480121
0.248065180746324
0.241412303709401
0.236980525013594
0.234090792514679
0.23223701792058
0.231033009677943
2.19192988002277
0.67556888091462
0.423199598806294
0.335929625422126
0.29438485776878
0.271015204195524
0.256500064267271
0.246983486926305
0.240612159394198
0.23637900414454
0.233669626775241
0.232040703049721
0.231119342041574
0.230583530919817
2.18619500588245
0.657031889702663
0.413477114354668
0.330666920403682
0.291320279526467
0.269098049042145
0.25521871838764
0.246073413887054
0.239923742176915
0.235819283427847
0.233192976447274
0.231670170091621
0.230956412382176
0.230653123905939
0.230579000057536
2.18721907869173
0.63657113424616
0.403857227630371
0.326027132277613
0.288919624279194
0.2677600582566
0.254408407823084
0.245530369663796
0.23951094368865
0.235454970311418
0.232822868735964
0.23126449338377
2.46684253706441
0.816547898380343
2.38168167136367
0.492124161418951
0.80230405427361
2.28700507263454
0.372158214994105
0.488589042832692
0.782523591174078
2.21609060902104
2.18721879214926
0.765638742135455
0.482017266799892
0.371383901245656
0.314076905053998
2.18619594672053
0.755416645527302
0.475069920727534
0.368866077062733
0.314193128696249
0.2818164277408
2.19192946378825
0.749677917298895
0.469348595066525
0.365476162791989
0.313196303364268
0.282204821792836
0.262420474853543
2.19484674775684
0.744472272783331
0.464633490738941
0.361941311652531
0.311373054298235
0.281808161896651
0.262834498986736
0.250195425813458
2.19512418391961
0.737626322456758
0.45989631391663
0.358422702112674
0.309067373736602
0.280718517201277
0.262645342972775
0.250551058559829
0.242295108552116
2.19480428773884
0.728793444714426
0.454411970512244
0.354710353421772
0.306485794283662
0.279126152270295
0.261896756773496
0.250410437825059
0.24258035815662
0.237166395688604
2.19480374182143
0.718173972968151
0.447945603369592
0.350597566236922
0.303679458206071
0.277223806718452
0.260729278855886
0.249825173413092
0.242438819673194
0.237392377281161
0.233899165452885
2.1951198105926
0.705850534218109
0.440505742461523
0.346016649574584
0.300656137498787
0.275145297633596
0.259319485032636
0.248929478248706
0.241945527786008
0.23724278826135
0.234079778296323
0.231923888801737
2.19485167696793
0.691693099241303
0.432165822808332
0.341023965178303
0.297466826218657
0.27299087657144
0.257822270791028
0.247890684217884
0.241243748730623
0.236815489675989
0.233926561425605
0.232070541905966
0.230862343858158
2.19192784839133
0.675401119741577
0.423037071487377
0.335780045951409
0.294246298977719
0.270885500833134
0.256377253517331
0.246865812810477
0.24049791114892
0.236266205479251
0.233555352719738
0.231919613883787
0.230984933489287
0.23044810235501
2.18619346582451
0.656733658952925
0.413364923066119
0.330585266471008
0.291246700218855
0.269029301632662
0.25515366439399
0.246011171635192
0.239863453210384
0.235759987302142
0.233132772266293
0.231600556852456
0.230846113494585
0.230550980387547
0.230481630776814
2.18721905677796
0.636422491652561
0.403803819034547
0.326006230960678
0.288906129649992
0.267749297175064
0.254399315438748
0.245522555823162
0.239504383993426
0.235450535134614
0.232823899935291
0.231285786182907
0.230599274702191
0.230417844990246
0.23055770552193
0.230812445431548
2.2161092742595
0.616511273596004
0.395888382328953
0.323153007653128
0.287998356938477
0.267585026847555
0.254498079638217
0.245681372152689
0.239633304425544
0.235506034429513
0.232777944859236
0.231109630438832
2.46683911286069
0.813687477193399
2.3816796034234
0.490103747246103
0.799775643063046
2.28699776642828
0.370699319925734
0.486796245713982
0.780318429499663
2.21610696348779
0.312967872216142
0.370088223520023
0.480442324945054
0.763720830214487
2.18721371618764
2.18619328609255
0.753752320573944
0.473696468333701
0.367726108570225
0.313210344040816
0.28094244772933
2.19193396671431
0.748235814119252
0.468156410584364
0.364481669646339
0.312333561572287
0.28143406394941
0.261716162918395
2.19485240952263
0.743232649610783
0.463605110751479
0.361080833328914
0.310623113631386
0.281135229282949
0.26221778477476
0.249620523570541
2.19511928563004
0.736570928135399
0.459019202328824
0.357686053232383
0.308422828539472
0.280137766769113
0.262111411951531
0.250052356127148
0.241822961992884
2.19479898289547
0.727913323236923
0.453675682214376
0.354089151303268
0.305939844967815
0.27863214694825
0.261440886880065
0.249983524483635
0.242175492905845
0.236778035247995
2.1948092905844
0.717461722443113
0.447342432085536
0.350084560323665
0.303226046133539
0.276811531299291
0.260347153093117
0.249466004706787
0.242097259101357
0.237064027835535
0.233580277458182
2.19512548417959
0.705298149717227
0.440028363482775
0.345605432831499
0.300289661021635
0.274810111097418
0.25900723590928
0.248634605672328
0.241663913018206
0.236971006865338
0.233814789043321
0.231663066135442
2.19484905933732
0.691293211976991
0.431806763982841
0.340708084091723
0.297182009619435
0.2727284461805
0.257576402916208
0.247657248758926
0.241019546986032
0.236597752023584
0.233712665634241
0.231858092119767
0.230649820574465
2.1919284360264
0.6751376941577
0.422785448109981
0.3355521110279
0.294037730994907
0.270691685552778
0.256194603974819
0.246691456286456
0.240329404947755
0.236101174090817
0.233391142852966
0.23175320539439
0.230814397987337
0.230276518850511
2.18619093755697
0.656510416738113
0.413190812839228
0.330434420724878
0.291108388621562
0.268900083695687
0.25503136778138
0.245893991946665
0.239749659535815
0.235647619989039
0.233018960819498
0.23147998233889
0.230712490711067
0.230416308378552
0.230348650721444
2.18721821276561
0.63600918628222
0.403640774013796
0.325915577038756
0.288831249552381
0.267680777643548
0.254334892394506
0.245461093065784
0.239444919680032
0.235392067438859
0.232764535176918
0.231217056515106
0.230490184123423
0.230317739544131
0.230463562985302
0.23071853758217
2.21610890975852
0.616280852998585
0.395800091054245
0.323121350433564
0.287982115673708
0.267574020145119
0.254489613113437
0.245674578973171
0.239627953471522
0.235502876534718
0.232780210809204
0.231132034927629
0.230347784139867
0.230134503526674
0.230357569267966
0.230803812305031
0.231275622021424
2.28699538146645
0.603445836803079
0.393636595099269
0.324434590578725
0.290011525350492
0.269504693682137
0.256111423115613
0.24696110773613
0.240604206180368
0.236203425732916
0.233232919436987
0.23134389729572
0.810496775243717
2.38167615227496
0.487855542264384
0.796937538205842
2.28699604307766
0.369074287741743
0.484785232349747
0.777824303504693
2.21611090142735
0.311728627968435
0.368632665507521
0.478661765356297
0.761538546553776
2.18721700268632
0.279960974472538
0.312101953915215
0.366433931777969
0.47212982183289
0.751839093588596
2.18618954965512
2.19192944467223
0.74656111038368
0.466783554669207
0.363343397404142
0.311350941869168
0.280559732679975
0.260919964091176
2.19485809397211
0.741777159112572
0.462407875084281
0.360085262820209
0.309759627434647
0.280363493223435
0.261512872685485
0.248965295604614
2.19512523435617
0.735317940865884
0.457984631692344
0.356822691229645
0.307671262604263
0.279463371498948
0.261493501922695
0.249476904162724
0.241279593760455
2.19479380894899
0.726848172939752
0.452792797759285
0.353349466545798
0.305293390881943
0.278049780245804
0.260905460543545
0.249483720184898
0.241702894309951
0.236325985670985
2.19480393953053
0.716576664211592
0.446602798324748
0.349461137702927
0.302678535819302
0.276316149408925
0.259889880489666
0.249037784176104
0.24169146242554
0.236675307094068
0.233204137218417
2.19513090795769
0.704586135476805
0.439424822511071
0.345091685685958
0.299835441291599
0.274396966819133
0.258624103101857
0.248274309780793
0.241321293706319
0.236641910547763
0.233495623412584
0.231350717940166
2.19485431366289
0.690746667521975
0.431332093058024
0.340297696228351
0.296815603717552
0.272393004075775
0.257263668364311
0.247361679630217
0.240737109776816
0.236325194591845
0.233447133454093
0.23159707501348
0.230391376725825
2.19192840437474
0.674746868568614
0.422431156598527
0.335238214539452
0.293753714363254
0.270429548651654
0.255948757643194
0.246457821858781
0.240104825921287
0.235882967761073
0.233176813033018
0.231540470569904
0.230601796928899
0.230064167749275
2.18619035161078
0.656238322029048
0.412939648793185
0.330207885788607
0.290900761554283
0.268706883582089
0.254849137792088
0.245719886629036
0.239581256491641
0.235482583890483
0.232854713064302
0.231313579534292
0.230542087612242
0.230244870662785
0.230177628394097
2.18721384409991
0.635657491186357
0.403438876872816
0.325760246405568
0.288692668843354
0.267552041064901
0.254213210695723
0.245344519917071
0.239331668988861
0.235280170311885
0.2326511594499
0.231096942968855
0.230357228939329
0.230183944989557
0.230331339649126
0.230587136224503
2.21610749982241
0.615788985260788
0.395571695610855
0.323013785077836
0.287903813739702
0.267505219102554
0.254425760773219
0.24561397536713
0.239569434218308
0.235445352453662
0.232721753859609
0.231064203819631
0.230239715077358
0.230035678724825
0.230265428909404
0.230713110005154
0.231182324006186
2.28699558541227
0.60303760240872
0.393503684778577
0.324384480643838
0.289989345566993
0.269492280636982
0.256103291856956
0.246955375066
0.240600215288784
0.236201749217471
0.233236648964864
0.231367610861203
0.230379740168241
0.22999851693466
0.230138510979566
0.230634066549151
0.231277880392182
0.231880162394528
2.38167955402928
0.620475373831269
0.408562632863006
0.33547298159532
0.297898066910311
0.275196310250233
0.260278812437725
0.250040924479689
0.242881942923577
0.237871103460566
0.234422510656902
0.232145844272885
0.485376611854846
0.793770588286976
2.28699263701049
0.367279372167753
0.482547175808385
0.775025895009007
2.21611216634959
0.31035623873801
0.367011102645123
0.476664201273558
0.759073815254765
2.18722095953295
0.27886931725217
0.310863263262716
0.364981982502543
0.470358086017575
0.74966065036264
2.18619082549136
0.260029100952922
0.279577721139034
0.310242494959357
0.362052720947273
0.465217063315691
0.744635129480338
2.19192394282371
2.19485348474157
0.740085591285146
0.461028512591496
0.358945286524833
0.308775821320648
0.279487866997596
0.260715888132387
0.248226762819133
2.19513150130458
0.733847010815946
0.456779170051244
0.35582322642262
0.306805488888892
0.278689678232289
0.260787064009066
0.248820960432157
0.240661839313613
2.19479968561379
0.725583738525464
0.451751187330213
0.352481954453063
0.304539104156187
0.277373149544402
0.260285588077524
0.248906869148394
0.241158935344892
0.235806991812045
2.19479860741361
0.715504163167424
0.445715116853897
0.348718309010072
0.302029743945783
0.275731759306121
0.259352501633938
0.248536243451972
0.241217655445627
0.236222774548381
0.232767506867301
2.19512558481951
0.703698722826732
0.43868362073802
0.344466678426453
0.2992864728892
0.273900142442585
0.258165273455672
0.247844456154054
0.240914026174716
0.236252170393159
0.23311908910185
0.230983631211328
2.19485531460617
0.690039018087582
0.430730538802682
0.339784334693457
0.296361041801739
0.271979166455829
0.256879574562886
0.247000181648572
0.240393173715884
0.235994903401883
0.233127141609042
0.231284415736886
0.230083507580953
2.19193125464139
0.674210171820704
0.421961935249073
0.334830024289224
0.293388035441861
0.270094174299735
0.255635693630229
0.246161613683952
0.239821511616452
0.235609431390091
0.232910396006887
0.231278849080938
0.230343133374972
0.229807251691677
2.18619245123398
0.655857949570725
0.412591955314128
0.329897107106614
0.290618151437193
0.268445364028092
0.254603506167903
0.24548616249249
0.239356336196213
0.235263858625138
0.232639802331093
0.231100341623194
0.230329178838095
0.230032427954268
0.229965649305488
2.18721386158079
0.635340615209672
0.403183219169138
0.325534501092303
0.288486078153866
0.267359611905457
0.254031539009606
0.245170772570466
0.23916343744179
0.235115144075078
0.232486823196476
0.230930444491981
0.230186847599504
0.230012649357238
0.23016045269461
0.23041652694471
2.21610229245698
0.615392109922505
0.395320403296442
0.322848781269758
0.287763624990025
0.267376632109718
0.254304655605262
0.245498061895194
0.239456803073513
0.235333985685354
0.232608826118587
0.230944508033379
0.230107269782374
0.229902588409587
0.230134068556538
0.230582450540966
0.231051069982859
2.28700593835545
0.602500338462393
0.393235417147502
0.32425399197159
0.289904130521552
0.269421928939215
0.256039618150118
0.246895569383413
0.240542706199046
0.23614528017768
0.233179207899573
0.231300753839614
0.230272712725774
0.229900682148424
0.230047593917613
0.23054532112905
0.231187776606626
0.23178583094517
2.38168145625283
0.619686345862738
0.408350872296103
0.335395746657493
0.297864116556128
0.275179896297707
0.260270069983486
0.250036027465625
0.242879377415558
0.237871088627175
0.234427940033945
0.232171137558933
0.230855694018105
0.230191052051092
0.230102410604572
0.230470394514668
0.23113411232492
0.231891694800621
0.232557539357966
3.68516517047986
0.864183603882319
0.482008668701761
0.371074291396257
0.31824927445236
0.287971350016554
0.268839424561515
0.256030300424165
0.247180312411327
0.240991384669606
0.236684227023319
0.233757324765744
0.36531593793253
0.48007851853354
0.771900824604405
2.21610428102563
0.308850125894857
0.365219604037378
0.474440671388485
0.7563090948337
2.18722160490384
0.277666687616275
0.309491242338145
0.363363952031585
0.46837021983613
0.747201531359808
2.18619347792412
0.259042351250307
0.278485258429129
0.309003373791992
0.360601836837357
0.463444637221969
0.742441390027197
2.19192630107263
0.247403136580126
0.259823996482116
0.278504119204235
0.30766555733176
0.357651996942329
0.459453825999378
0.738138037133203
2.19484951396594
2.19512709796093
0.732137630377584
0.455389252759643
0.35467805432585
0.30581851706704
0.277811456310537
0.259988139994661
0.248081507562411
0.239967384185676
2.19480800854518
0.724097838607123
0.450536662264278
0.351476890246844
0.303669584674163
0.276596432651514
0.259576606844437
0.24824916354791
0.240540427465232
0.235218323062127
2.19480421378859
0.714229552382656
0.444667249698621
0.347846336217429
0.301272105849422
0.275052269106878
0.258729991565438
0.247957144109683
0.240672169091608
0.235703159036834
0.232267396711009
2.19512025608535
0.702621119798164
0.437792828689452
0.343721307472721
0.29863535872843
0.273313540096096
0.257625640585862
0.247340676358729
0.240438279126848
0.235798318925912
0.232681935319946
0.230558667584075
2.19485207565669
0.689154134897321
0.429990033431574
0.339158943932358
0.295811083589167
0.271481031928856
0.256419157512744
0.246568507637106
0.239984022156467
0.235603512054206
0.23274948242446
0.230916890917637
0.229722919930964
2.19193118340958
0.673510887010223
0.421365428709328
0.33431855126575
0.292933836303024
0.269679976712861
0.255250769801765
0.245798915306154
0.239476110095143
0.235277598959487
0.232589051206999
0.230965271527642
0.230034914434966
0.2295023282186
2.18619365611158
0.655336274209796
0.412131284694723
0.329492716803856
0.290253984921218
0.268110459611576
0.254290313363465
0.245189402493211
0.239072134720299
0.23498921279266
0.232372221695818
0.230837711578246
0.230069843373337
0.229775262176364
0.229709615338657
2.18721698531951
0.634968139381031
0.402843323399375
0.325227819023297
0.288205436140926
0.267099012860386
0.25378629472713
0.244937058916701
0.238938215859332
0.234895871380809
0.232271216070654
0.230716494765939
0.229973364615155
0.229799857979644
0.229948359255254
0.230204578195365
2.21610342175294
0.615060042038618
0.395052346613512
0.322622313527285
0.287557753634173
0.267184916324592
0.254123561398124
0.245324712221095