/*--------------------------------*- C++ -*----------------------------------*\
  =========                 |
  \\      /  F ield         | OpenFOAM: The Open Source CFD Toolbox
   \\    /   O peration     | Website:  https://openfoam.org
    \\  /    A nd           | Version:  12
     \\/     M anipulation  |
\*---------------------------------------------------------------------------*/
/*   Windows 32 and 64 bit porting by blueCAPE: http://www.bluecape.com.pt   *\
|  Based on Windows porting (2.0.x v4) by Symscape: http://www.symscape.com   |
\*---------------------------------------------------------------------------*/
FoamFile
{
    format      ascii;
    class       volScalarField;
    location    "300";
    object      p;
}
// * * * * * * * * * * * * * * * * * * * * * * * * * * * * * * * * * * * * * //

dimensions      [0 2 -2 0 0 0 0];

internalField   nonuniform List<scalar> 
10140
(
83333.332805583
83333.3327927781
83333.3328056274
83333.3328048925
83333.3327798874
83333.3327927908
83333.3327920493
83333.3328056753
83333.3328049375
83333.3328038553
83333.332766903
83333.3327798716
83333.3327791513
83333.3327928124
83333.3327920545
83333.3327909874
83333.3328057186
83333.3328049784
83333.3328038805
83333.3328030403
83333.3327537873
83333.332766891
83333.3327661208
83333.3327798755
83333.332779128
83333.3327780625
83333.3327928376
83333.3327920591
83333.3327909839
83333.332790149
83333.3328057546
83333.3328050137
83333.3328039096
83333.3328030267
83333.3328025343
83333.3327405349
83333.332753783
83333.3327529573
83333.3327668979
83333.3327661089
83333.3327649925
83333.3327798857
83333.3327791139
83333.3327780384
83333.3327772038
83333.3327928632
83333.3327920698
83333.332790982
83333.3327901247
83333.3327896237
83333.3328057839
83333.3328050471
83333.3328039502
83333.3328030097
83333.3328025108
83333.3328023772
83333.332727123
83333.3327405374
83333.3327396623
83333.3327537979
83333.3327529608
83333.3327517932
83333.3327669099
83333.3327661017
83333.3327649787
83333.3327641205
83333.3327799008
83333.3327791115
83333.3327780212
83333.3327771713
83333.3327766588
83333.3327928878
83333.3327920914
83333.3327910006
83333.3327901012
83333.3327895963
83333.3327894478
83333.3328058098
83333.3328050907
83333.3328040028
83333.3328030243
83333.3328025018
83333.3328023481
83333.3328025753
83333.3327135292
83333.3327271328
83333.3327262176
83333.3327405631
83333.3327396777
83333.3327384627
83333.332753818
83333.3327529661
83333.3327517919
83333.3327509037
83333.3327669288
83333.3327661038
83333.3327649682
83333.3327640912
83333.3327635611
83333.33277992
83333.332779125
83333.3327780286
83333.3327771477
83333.3327766208
83333.3327764605
83333.3327929126
83333.3327921309
83333.3327910437
83333.3327901136
83333.3327895822
83333.3327894167
83333.3327896254
83333.3328058355
83333.3328051419
83333.3328040784
83333.3328030912
83333.3328025262
83333.332802354
83333.3328025459
83333.332803099
83333.3326997374
83333.3327135469
83333.3327125971
83333.3327271724
83333.3327262373
83333.3327249737
83333.3327405955
83333.3327396963
83333.3327384727
83333.3327375484
83333.3327538475
83333.3327529796
83333.3327517915
83333.3327508802
83333.3327503234
83333.3327669551
83333.3327661232
83333.3327649803
83333.3327640702
83333.3327635218
83333.3327633428
83333.3327799432
83333.3327791616
83333.3327780689
83333.3327771626
83333.3327766046
83333.3327764179
83333.3327766137
83333.3327929397
83333.3327921827
83333.3327911165
83333.3327901721
83333.3327896023
83333.332789418
83333.3327895957
83333.3327901266
83333.3328058624
83333.332805199
83333.3328041744
83333.3328032001
83333.3328026005
83333.3328023883
83333.3328025576
83333.3328030834
83333.332803936
83333.3326857291
83333.3326997603
83333.3326987679
83333.3327136018
83333.3327126192
83333.3327112986
83333.3327272217
83333.3327262665
83333.3327249919
83333.3327240274
83333.3327406407
83333.3327397271
83333.3327384842
83333.3327375327
83333.332736937
83333.3327538872
83333.3327530118
83333.3327518135
83333.3327508631
83333.3327502883
83333.3327500799
83333.3327669878
83333.3327661686
83333.3327650283
83333.3327640907
83333.3327635073
83333.3327632963
83333.3327634732
83333.3327799706
83333.3327792153
83333.3327781447
83333.3327772251
83333.3327766264
83333.3327764164
83333.3327765734
83333.3327770903
83333.3327929698
83333.3327922413
83333.3327912138
83333.3327902766
83333.3327896716
83333.3327894479
83333.3327896047
83333.3327901154
83333.3327909478
83333.3328058944
83333.3328052686
83333.3328042893
83333.3328033419
83333.3328027238
83333.3328024709
83333.3328025976
83333.332803094
83333.3328039299
83333.3328050662
83333.3326714815
83333.3326857552
83333.3326847127
83333.332699832
83333.3326988074
83333.3326974108
83333.3327136716
83333.3327126562
83333.3327113253
83333.3327103159
83333.332727288
83333.3327263182
83333.332725015
83333.332724021
83333.332723381
83333.3327406993
83333.3327397799
83333.3327385209
83333.3327375262
83333.3327369102
83333.3327366621
83333.3327539351
83333.3327530721
83333.3327518757
83333.3327508908
83333.3327502788
83333.332750036
83333.3327501862
83333.3327670255
83333.3327662335
83333.3327651152
83333.3327641616
83333.3327635361
83333.3327632966
83333.3327634288
83333.3327639277
83333.3327800017
83333.3327792796
83333.332778248
83333.3327773363
83333.3327767002
83333.332776448
83333.3327765802
83333.332777073
83333.3327778946
83333.3327930048
83333.3327923128
83333.3327913346
83333.3327904211
83333.3327897947
83333.3327895275
83333.3327896419
83333.3327901243
83333.3327909435
83333.3327920616
83333.3328059334
83333.3328053538
83333.3328044266
83333.3328035131
83333.3328028898
83333.332802606
83333.3328026864
83333.3328031372
83333.3328039414
83333.3328050666
83333.3328064775
83333.3326569716
83333.3326715131
83333.3326704147
83333.3326858444
83333.3326847806
83333.3326832963
83333.332699927
83333.3326988566
83333.3326974561
83333.3326963958
83333.3327137649
83333.3327127289
83333.3327113613
83333.3327103211
83333.3327096345
83333.3327273724
83333.3327264004
83333.332725073
83333.3327240289
83333.3327233651
83333.3327230723
83333.3327407683
83333.3327398621
83333.3327386038
83333.3327375662
83333.3327369098
83333.3327366248
83333.3327367407
83333.3327539887
83333.3327531538
83333.3327519803
83333.3327509747
83333.3327503177
83333.3327500414
83333.3327501432
83333.3327506203
83333.3327670669
83333.3327663106
83333.3327652319
83333.3327642834
83333.3327636209
83333.3327633364
83333.3327634374
83333.3327639093
83333.3327647182
83333.3327800352
83333.3327793554
83333.3327783755
83333.3327774889
83333.3327768306
83333.3327765335
83333.3327766203
83333.3327770798
83333.3327778841
83333.332778997
83333.3327930456
83333.3327923996
83333.3327914798
83333.332790601
83333.3327899664
83333.3327896651
83333.3327897301
83333.3327901659
83333.332790955
83333.3327920634
83333.3327934526
83333.3328059856
83333.3328054614
83333.3328045899
83333.3328037126
83333.3328030932
83333.3328027891
83333.3328028303
83333.3328032306
83333.3328039876
83333.3328050812
83333.3328064829
83333.3328081669
83333.3326421777
83333.3326570123
83333.3326558535
83333.3326716199
83333.3326705054
83333.3326689443
83333.3326859704
83333.3326848582
83333.3326833679
83333.3326822544
83333.3327000545
83333.3326989466
83333.3326975108
83333.3326964165
83333.3326956817
83333.3327138826
83333.3327128459
83333.3327114449
83333.3327103459
83333.3327096321
83333.3327092918
83333.33272747
83333.3327265128
83333.3327251834
83333.3327240896
83333.3327233768
83333.3327230442
83333.3327231192
83333.3327408438
83333.3327399668
83333.3327387335
83333.332737668
83333.3327369635
83333.3327366383
83333.3327367029
83333.3327371534
83333.3327540452
83333.3327532485
83333.3327521168
83333.3327511141
83333.3327504182
83333.3327500935
83333.3327501573
83333.3327506037
83333.3327513976
83333.3327671083
83333.3327663971
83333.3327653716
83333.3327644477
83333.3327637651
83333.3327634354
83333.3327634867
83333.332763918
83333.3327647063
83333.3327658146
83333.3327800701
83333.332779444
83333.3327785256
83333.3327776753
83333.3327770121
83333.3327766808
83333.3327767164
83333.3327771256
83333.3327778946
83333.3327789928
83333.3327803819
83333.3327930938
83333.3327925064
83333.3327916482
83333.3327908097
83333.3327901798
83333.3327898567
83333.3327898792
83333.3327902614
83333.3327910013
83333.3327920789
83333.3327934617
83333.3327951151
83333.3328060591
83333.3328055884
83333.3328047793
83333.3328039372
83333.3328033288
83333.3328030141
83333.3328030259
83333.3328033812
83333.3328040853
83333.3328051311
83333.3328065012
83333.3328081718
83333.3326270825
83333.3326422284
83333.3326410133
83333.3326571428
83333.3326559631
83333.3326543389
83333.3326717801
83333.3326706231
83333.3326690418
83333.3326678793
83333.3326861405
83333.3326849658
83333.3326834498
83333.3326822938
83333.3326815104
83333.3327002133
83333.3326990976
83333.3326976211
83333.3326964619
83333.3326956941
83333.3326953033
83333.3327140179
83333.332712999
83333.3327115897
83333.3327104342
83333.3327096585
83333.3327092751
83333.3327093046
83333.3327275752
83333.3327266485
83333.3327253454
83333.332724216
83333.332723451
83333.3327230683
83333.3327230917
83333.3327235116
83333.3327409213
83333.3327400854
83333.3327388967
83333.3327378318
83333.3327370849
83333.3327367064
83333.3327367252
83333.3327371411
83333.3327379173
83333.3327540997
83333.332753352
83333.3327522757
83333.3327512986
83333.3327505827
83333.332750211
83333.3327502199
83333.3327506185
83333.3327513878
83333.3327524897
83333.3327671474
83333.3327664945
83333.332765532
83333.3327646461
83333.3327639623
83333.3327635999
83333.3327635984
83333.3327639739
83333.3327647196
83333.3327658085
83333.3327672018
83333.3327801048
83333.3327795466
83333.3327786948
83333.3327778871
83333.3327772362
83333.3327768856
83333.3327768781
83333.3327772311
83333.3327779464
83333.3327790077
83333.3327803842
83333.3327820385
83333.3327931492
83333.3327926309
83333.3327918397
83333.3327910413
83333.3327904268
83333.3327900946
83333.332790086
83333.3327904199
83333.3327911032
83333.3327921303
83333.3327934829
83333.3327951322
83333.3327970438
83333.3328061628
83333.3328057371
83333.3328049937
83333.3328041829
83333.332803591
83333.3328032744
83333.3328032663
83333.3328035856
83333.3328042409
83333.3328052327
83333.3328065552
83333.332808192
83333.3326116784
83333.3326258786
83333.3326271449
83333.3326423888
83333.3326411425
83333.3326394599
83333.3326573399
83333.3326561143
83333.3326544616
83333.3326532554
83333.3326720023
83333.3326707735
83333.3326691569
83333.3326679384
83333.3326671063
83333.3326863508
83333.3326851477
83333.3326835904
83333.3326823642
83333.3326815374
83333.3326810911
83333.3327003956
83333.3326993016
83333.3326978057
83333.3326965816
83333.3326957393
83333.3326953013
83333.3326952811
83333.3327141626
83333.3327131754
83333.3327117911
83333.3327105956
83333.3327097586
83333.3327093123
83333.3327092906
83333.3327096762
83333.3327276813
83333.3327267985
83333.332725543
83333.33272441
83333.3327236
83333.3327231565
83333.3327231235
83333.3327235045
83333.3327242609
83333.3327409951
83333.3327402121
83333.3327390832
83333.3327380447
83333.3327372762
83333.3327368474
83333.3327368043
83333.3327371646
83333.3327379115
83333.3327390054
83333.3327541487
83333.3327534631
83333.3327524539
83333.3327515187
83333.3327508032
83333.3327503991
83333.3327503521
83333.3327506883
83333.3327514078
83333.3327524857
83333.3327538824
83333.3327671808
83333.332766599
83333.3327657094
83333.3327648697
83333.3327642034
83333.3327638246
83333.3327637803
83333.3327640967
83333.3327647825
83333.3327658269
83333.3327672014
83333.3327688676
83333.3327801363
83333.3327796627
83333.3327788832
83333.3327781193
83333.3327774939
83333.3327771392
83333.3327771017
83333.3327774049
83333.3327780602
83333.3327790655
83333.3327804048
83333.3327820485
83333.3327839589
83333.3327932159
83333.3327927704
83333.3327920512
83333.3327912892
83333.3327907
83333.3327903703
83333.3327903424
83333.3327906381
83333.332791269
83333.3327922377
83333.3327935396
83333.3327951596
83333.3327970626
83333.3327992034
83333.3328063021
83333.3328059107
83333.332805231
83333.3328044471
83333.3328038743
83333.3328035631
83333.332803544
83333.3328038364
83333.3328044508
83333.3328053918
83333.3328066604
83333.332808249
83333.3325959491
83333.3326104543
83333.3326117513
83333.3326242932
83333.3326260287
83333.3326273395
83333.3326426316
83333.3326413215
83333.3326396093
83333.3326383632
83333.3326576191
83333.3326563267
83333.3326546107
83333.3326533355
83333.3326524534
83333.3326722767
83333.3326709924
83333.3326693402
83333.3326680382
83333.3326671491
83333.3326666455
83333.3326865921
83333.3326854067
83333.3326838191
83333.3326825199
83333.3326816057
83333.3326811082
83333.3326810335
83333.3327005902
83333.3326995315
83333.3326980565
83333.3326967877
83333.3326958701
83333.3326953543
83333.3326952818
83333.3326956287
83333.3327143072
83333.3327133662
83333.3327120323
83333.3327108272
83333.3327099435
83333.3327094251
83333.332709334
83333.3327096755
83333.3327104095
83333.3327277813
83333.3327269555
83333.3327257655
83333.3327246586
83333.3327238248
83333.3327233267
83333.3327232224
83333.3327235387
83333.3327242598
83333.3327253446
83333.3327410599
83333.3327403432
83333.3327392871
83333.3327382954
83333.3327375277
83333.3327370653
83333.3327369617
83333.3327372516
83333.3327379407
83333.3327390055
83333.3327404048
83333.332754187
83333.332753576
83333.332752649
83333.3327517658
83333.3327510697
83333.3327506509
83333.3327505604
83333.3327508333
83333.3327514856
83333.3327525115
83333.332753884
83333.332755563
83333.3327672058
83333.3327667129
83333.3327659023
83333.3327651141
83333.3327644787
83333.3327641
83333.3327640275
83333.3327642933
83333.3327649153
83333.3327658968
83333.3327672255
83333.3327688731
83333.3327708006
83333.3327801614
83333.3327797889
83333.3327790872
83333.3327783673
83333.3327777771
83333.3327774318
83333.332777378
83333.3327776431
83333.3327782439
83333.3327791863
83333.3327804684
83333.3327820762
83333.332783976
83333.3327861238
83333.3327933011
83333.332792922
83333.3327922798
83333.3327915479
83333.3327909917
83333.3327906749
83333.332790639
83333.3327909077
83333.3327914954
83333.3327924089
83333.3327936515
83333.3327952216
83333.3327970935
83333.3327992196
83333.3328015516
83333.3328064742
83333.3328061099
83333.3328054859
83333.3328047259
83333.3328041725
83333.3328038727
83333.332803851
83333.3328041255
83333.3328047078
83333.3328056048
83333.3328068217
83333.3328083568
83333.3325799039
83333.3325947385
83333.332596034
83333.3326088591
83333.3326106266
83333.3326119859
83333.3326231876
83333.3326244726
83333.3326262411
83333.3326276413
83333.3326429766
83333.3326415929
83333.3326397968
83333.3326384672
83333.3326375311
83333.3326579732
83333.3326566142
83333.3326548474
83333.3326534676
83333.332652514
83333.3326519479
83333.3326725913
83333.3326713028
83333.3326696211
83333.3326682369
83333.3326672446
83333.3326666791
83333.3326665467
83333.3326868493
83333.3326857041
83333.33268413
83333.3326827776
83333.3326817724
83333.3326811807
83333.332681049
83333.3326813517
83333.3327007846
83333.3326997751
83333.3326983527
83333.332697071
83333.3326960994
83333.3326954963
83333.33269534
83333.3326956359
83333.3326963432
83333.3327144421
83333.3327135631
83333.3327122999
83333.3327111195
83333.3327102107
83333.3327096314
83333.3327094566
83333.3327097225
83333.3327104138
83333.3327114877
83333.3327278687
83333.3327271151
83333.3327260031
83333.3327249479
83333.332724115
83333.3327235813
83333.3327234101
83333.3327236459
83333.3327243002
83333.3327253497
83333.3327267516
83333.3327411097
83333.3327404741
83333.3327395074
83333.3327385748
83333.332737828
83333.3327373516
83333.3327372024
83333.332737423
83333.3327380365
83333.3327390412
83333.3327404107
83333.332742103
83333.3327542109
83333.3327536949
83333.3327528563
83333.3327520359
83333.3327513722
83333.3327509558
83333.332750838
83333.3327510587
83333.332751642
83333.3327525973
83333.3327539157
83333.3327555695
83333.3327575181
83333.3327672187
83333.3327668333
83333.3327661084
83333.3327653751
83333.3327647802
83333.3327644154
83333.3327643297
83333.3327645583
83333.332765124
83333.3327660381
83333.3327673018
83333.3327689033
83333.3327708121
83333.3327729845
83333.3327801836
83333.3327799188
83333.3327793035
83333.3327786251
83333.3327780778
83333.3327777535
83333.3327776965
83333.3327779363
83333.3327784931
83333.3327793773
83333.3327805947
83333.3327821454
83333.33278401
83333.3327861433
83333.3327884995
83333.3327933977
83333.332793075
83333.332792516
83333.3327918163
83333.332791294
83333.3327909993
83333.3327909662
83333.332791219
83333.3327917738
83333.3327926403
83333.3327938261
83333.3327953371
83333.3327971594
83333.3327992514
83333.3328015676
83333.3328040742
83333.3328066585
83333.3328063045
83333.332805743
83333.3328050131
83333.3328044774
83333.3328041943
83333.3328041783
83333.3328044441
83333.3328050033
83333.3328058643
83333.3328070354
83333.3328085189
83333.3325634645
83333.3325787009
83333.3325800365
83333.3325931707
83333.3325949372
83333.3325963199
83333.3326077405
83333.3326090709
83333.3326108865
83333.3326123595
83333.3326223191
83333.3326233218
83333.3326247055
83333.3326265694
83333.3326280695
83333.3326434218
83333.332641973
83333.3326400907
83333.3326386347
83333.3326376129
83333.3326369728
83333.3326583769
83333.3326569871
83333.3326551966
83333.3326537165
83333.3326526408
83333.3326519972
83333.3326517973
83333.332672929
83333.3326716796
83333.3326699983
83333.3326685548
83333.3326674535
83333.3326667767
83333.3326665748
83333.3326668257
83333.3326871058
83333.3326860151
83333.3326844945
83333.332683127
83333.3326820544
83333.3326813572
83333.3326811261
83333.332681368
83333.3326820422
83333.3327009665
83333.332700024
83333.3326986763
83333.3326974164
83333.3326964209
83333.3326957464
83333.332695491
83333.3326956985
83333.3326963542
83333.3326974138
83333.3327145592
83333.3327137598
83333.3327125817
83333.3327114562
83333.3327105482
83333.3327099312
83333.3327096806
83333.3327098539
83333.3327104674
83333.3327114986
83333.3327129025
83333.3327279365
83333.3327272715
83333.3327262557
83333.3327252668
83333.3327244573
83333.3327239099
83333.3327236899
83333.3327238487
83333.332724417
83333.3327253969
83333.3327267627
83333.3327284698
83333.3327411401
83333.3327406044
83333.3327397373
83333.3327388769
83333.3327381662
83333.332737694
83333.3327375178
83333.332737683
83333.3327382208
83333.332739146
83333.3327404529
83333.3327421139
83333.332744086
83333.3327542168
83333.3327538152
83333.3327530724
83333.3327523211
83333.3327517017
83333.3327513021
83333.3327511736
83333.3327513573
83333.3327518817
83333.3327527639
83333.332754009
83333.3327556072
83333.3327575293
83333.3327597317
83333.3327672152
83333.3327669555
83333.3327663222
83333.332765646
83333.3327650987
83333.33276476
83333.3327646755
83333.3327648812
83333.3327654029
83333.3327662561
83333.3327674499
83333.3327689854
83333.3327708485
83333.3327729996
83333.3327753935
83333.3327802034
83333.3327800343
83333.3327795197
83333.332778888
83333.3327783869
83333.3327780935
83333.3327780458
83333.3327782735
83333.3327787983
83333.332779634
83333.3327807905
83333.3327822757
83333.332784084
83333.3327861809
83333.33278852
83333.3327910644
83333.332793486
83333.3327931969
83333.332792731
83333.3327920859
83333.3327915981
83333.3327913327
83333.3327913132
83333.3327915613
83333.3327920943
83333.3327929235
83333.3327940597
83333.3327955134
83333.3327972774
83333.3327993192
83333.3328016004
83333.3328040913
83333.33280676
83333.3328067953
83333.3328064534
83333.33280596
83333.3328052847
83333.3328047789
83333.3328045184
83333.3328045157
83333.3328047823
83333.3328053277
83333.3328061615
83333.332807294
83333.332808731
83333.3325622628
83333.3325636731
83333.3325771771
83333.3325789708
83333.3325804063
83333.3325920257
83333.3325934108
83333.3325952557
83333.3325967836
83333.3326068097
83333.3326079064
83333.3326093607
83333.3326112866
83333.3326128934
83333.3326216925
83333.3326224263
83333.3326235371
83333.3326250649
83333.3326270509
83333.3326286215
83333.3326439391
83333.3326424448
83333.3326405234
83333.3326389407
83333.3326377759
83333.3326370407
83333.3326367569
83333.3326588113
83333.3326574463
83333.3326556526
83333.3326541058
83333.3326528989
83333.3326521254
83333.3326518395
83333.3326520259
83333.3326732659
83333.3326720765
83333.3326704458
83333.3326689809
83333.3326677972
83333.3326669946
83333.3326666761
83333.3326668524
83333.3326674845
83333.3326873461
83333.3326863289
83333.3326848872
83333.3326835419
83333.3326824428
83333.3326816593
83333.3326813113
83333.3326814499
83333.3326820616
83333.3326831014
83333.3327011237
83333.3327002684
83333.332699014
83333.3326978103
83333.3326968171
83333.3326961017
83333.3326957586
83333.3326958587
83333.3326964236
83333.3326974315
83333.3326988357
83333.3327146514
83333.3327139489
83333.3327128741
83333.3327118226
83333.3327109415
83333.3327103114
83333.3327100075
83333.3327100938
83333.3327106089
83333.3327115593
83333.3327129196
83333.3327146429
83333.33272798
83333.3327274197
83333.3327265161
83333.3327256069
83333.3327248389
83333.3327242982
83333.3327240509
83333.3327241498
83333.3327246339
83333.3327255237
83333.332726817
83333.3327284862
83333.3327304853
83333.3327411466
83333.3327407325
83333.3327399723
83333.3327391929
83333.3327385314
83333.3327380794
83333.3327378944
83333.3327380222
83333.3327384972
83333.3327393419
83333.3327405661
83333.3327421623
83333.3327441011
83333.3327463375
83333.3327542023
83333.3327539343
83333.3327532908
83333.3327526116
83333.332752047
83333.3327516777
83333.3327515539
83333.332751717
83333.332752197
83333.332753015
83333.3327541837
83333.3327557068
83333.3327575725
83333.3327597465
83333.3327621824
83333.3327671993
83333.3327670557
83333.3327665309
83333.3327659165
83333.332765423
83333.3327651217
83333.3327650521
83333.3327652496
83333.3327657411
83333.332766545
83333.3327676745
83333.3327691383
83333.3327709356
83333.3327730404
83333.3327754108
83333.332778005
83333.3327802017
83333.3327801056
83333.3327797016
83333.3327791402
83333.3327786922
83333.3327784397
83333.3327784137
83333.3327786423
83333.332779148
83333.3327799466
83333.3327810512
83333.332782474
83333.332784217
83333.3327862578
83333.3327885594
83333.3327910863
83333.3327938029
83333.3327935073
83333.3327932524
83333.3327928744
83333.3327923287
83333.3327918914
83333.3327916636
83333.3327916677
83333.3327919229
83333.3327924454
83333.3327932481
83333.3327943438
83333.3327957466
83333.3327974536
83333.3327994378
83333.3328016688
83333.3328041251
83333.3328067782
83333.3328095943
83333.3328066988
83333.3328065049
83333.3328060926
83333.332805509
83333.3328050602
83333.3328048354
83333.3328048525
83333.3328051287
83333.3328056706
83333.3328064867
83333.3328075889
83333.3328089859
83333.3325607387
83333.3325626476
83333.3325641583
83333.3325759979
83333.3325774731
83333.3325793816
83333.3325809919
83333.3325909893
83333.3325922208
83333.3325937626
83333.3325957484
83333.3325974479
83333.3326060807
83333.3326069437
83333.3326081761
83333.3326098012
83333.3326118753
83333.3326135809
83333.3326213895
83333.3326217821
83333.3326226333
83333.3326239096
83333.3326255956
83333.3326276563
83333.3326292736
83333.3326444928
83333.3326429994
83333.3326410802
83333.3326394148
83333.3326380913
83333.3326372051
83333.3326368158
83333.3326369195
83333.3326592501
83333.3326579477
83333.3326561937
83333.3326546219
83333.332653315
83333.3326523927
83333.3326519704
83333.3326520654
83333.3326526423
83333.3326735801
83333.3326724726
83333.3326709249
83333.3326694848
83333.332668265
83333.3326673586
83333.3326669027
83333.3326669582
83333.3326675144
83333.332668526
83333.3326875556
83333.3326866346
83333.3326852941
83333.3326840051
83333.3326829133
83333.3326820818
83333.3326816311
83333.3326816448
83333.3326821503
83333.3326831275
83333.3326845279
83333.3327012471
83333.3327004993
83333.3326993563
83333.3326982342
83333.3326972721
83333.3326965447
83333.3326961421
83333.332696143
83333.3326965946
83333.3326975083
83333.3326988598
83333.3327005993
83333.3327147127
83333.3327141226
83333.3327131726
83333.3327122079
83333.3327113751
83333.3327107552
83333.3327104232
83333.3327104437
83333.3327108642
83333.3327117116
83333.3327129879
83333.3327146654
83333.3327166952
83333.3327279941
83333.3327275618
83333.3327267772
83333.33272596
83333.3327252469
83333.3327247312
83333.3327244773
83333.3327245375
83333.3327249533
83333.3327257536
83333.3327269532
83333.3327285472
83333.3327305061
83333.332732782
83333.3327411285
83333.3327408551
83333.332740204
83333.3327395095
83333.3327389107
83333.3327384941
83333.3327383176
83333.3327384265
83333.3327388558
83333.3327396318
83333.3327407718
83333.3327422828
83333.3327441551
83333.3327463562
83333.3327488386
83333.3327541675
83333.332754028
83333.3327534997
83333.3327528949
83333.332752394
83333.3327520686
83333.332751965
83333.3327521237
83333.3327525751
83333.3327533428
83333.3327544433
83333.3327558876
83333.3327576773
83333.3327597943
83333.3327621998
83333.3327648488
83333.3327671643
83333.3327671032
83333.3327666989
83333.332766168
83333.332765738
83333.332765486
83333.3327654455
83333.3327656496
83333.3327661256
83333.3327668935
83333.3327679695
83333.3327693667
83333.3327710916
83333.3327731309
83333.3327754543
83333.3327780241
83333.3327808015
83333.3327801427
83333.3327800981
83333.3327797954
83333.3327793544
83333.3327789765
83333.332778777
83333.3327787859
83333.332779029
83333.3327795293
83333.3327803035
83333.332781367
83333.3327827354
83333.3327844156
83333.3327863919
83333.3327886376
83333.3327911269
83333.3327938258
83333.3327966987
83333.3327933462
83333.3327932032
83333.3327929005
83333.3327924995
83333.3327921541
83333.332791979
83333.3327920168
83333.3327922904
83333.3327928147
83333.3327936025
83333.3327946681
83333.3327960281
83333.332797684
83333.3327996119
83333.332801786
83333.3328041928
83333.3328068124
83333.3328096131
83333.3328125606
83333.3328066537
83333.3328064134
83333.332806118
83333.3328056779
83333.3328052996
83333.3328051328
83333.3328051796
83333.3328054724
83333.3328060203
83333.3328068289
83333.3328079103
83333.332809275
83333.3325594917
83333.332561133
83333.3325631858
83333.3325648928
83333.3325748149
83333.3325762299
83333.3325779081
83333.332580006
83333.3325818228
83333.3325901057
83333.3325911485
83333.3325925502
83333.3325943034
83333.3325964719
83333.3325983032
83333.3326056544
83333.3326061931
83333.3326072014
83333.3326086307
83333.3326104438
83333.3326126343
83333.332614392
83333.3326214628
83333.3326214684
83333.3326219896
83333.3326230169
83333.3326244787
83333.3326262782
83333.332628345
83333.3326299802
83333.3326450548
83333.3326436174
83333.3326417307
83333.3326400372
83333.3326385923
83333.3326375311
83333.3326369827
83333.3326369748
83333.3326374784
83333.3326596626
83333.3326584476
83333.3326567784
83333.3326552312
83333.3326538763
83333.3326528302
83333.3326522471
83333.3326522005
83333.3326526853
83333.3326536569
83333.3326738539
83333.3326728556
83333.3326714166
83333.3326700357
83333.3326688271
83333.3326678612
83333.3326672851
83333.332667195
83333.3326676266
83333.3326685625
83333.3326699528
83333.3326877211
83333.3326869196
83333.3326857004
83333.3326844994
83333.3326834445
83333.3326826017
83333.3326820827
83333.332681982
83333.3326823566
83333.3326832237
83333.3326845605
83333.3326863145
83333.3327013306
83333.3327007061
83333.3326997008
83333.3326986745
83333.3326977683
83333.3326970558
83333.3326966238
83333.3326965512
83333.3326968953
83333.3326976909
83333.3326989445
83333.332700629
83333.332702692
83333.3327147376
83333.332714282
83333.3327134655
83333.3327126041
83333.3327118337
83333.3327112452
83333.3327109094
83333.3327108891
83333.3327112344
83333.3327119813
83333.3327131506
83333.3327147409
83333.3327167224
83333.3327190438
83333.3327279772
83333.3327276925
83333.332727028
83333.3327263086
83333.332725667
83333.3327251929
83333.3327249522
83333.332724995
83333.3327253631
83333.3327260886
83333.3327271943
83333.3327286915
83333.332730573
83333.3327328064
83333.3327353418
83333.332741086
83333.3327409492
83333.3327404215
83333.3327398121
83333.3327392874
83333.3327389219
83333.3327387712
83333.3327388797
83333.3327392817
83333.3327400055
83333.3327410721
83333.3327424958
83333.3327442812
83333.3327464147
83333.33274886
83333.3327515687
83333.3327541175
83333.3327540627
83333.332753664
83333.3327531527
83333.3327527256
83333.3327524581
83333.3327523908
83333.3327525618
83333.3327530015
83333.3327537342
83333.3327547795
83333.3327561526
83333.332757862
83333.3327599027
83333.3327622506
83333.332764868
83333.332767712
83333.3327670848
83333.3327670736
83333.3327667704
83333.332766369
83333.3327660231
83333.3327658353
83333.3327658393
83333.3327660657
83333.3327665417
83333.3327672883
83333.3327683237
83333.3327696643
83333.3327713212
83333.3327732882
83333.3327755464
83333.3327780692
83333.3327808217
83333.3327837655
83333.3327799844
83333.3327799712
83333.332779759
83333.3327794798
83333.332779217
83333.3327790886
83333.3327791462
83333.3327794184
83333.3327799275
83333.3327806911
83333.3327817261
83333.3327830505
83333.3327846751
83333.3327865888
83333.3327887706
83333.3327912048
83333.3327938672
83333.3327967224
83333.332799735
83333.3327933752
83333.3327930622
83333.3327928355
83333.3327925679
83333.3327923548
83333.3327922617
83333.3327923471
83333.3327926501
83333.3327931885
83333.3327939737
83333.3327950206
83333.332796348
83333.3327979603
83333.3327998371
83333.3328019556
83333.3328043064
83333.3328068782
83333.332809647
83333.3328125798
83333.3328156435
83333.3328063888
83333.3328060471
83333.3328057781
83333.332805503
83333.3328053965
83333.3328054882
83333.3328058041
83333.3328063653
83333.3328071764
83333.3328082471
83333.3328095888
83333.3325581268
83333.3325597872
83333.3325616795
83333.3325639698
83333.332565917
83333.3325737232
83333.3325750029