/*--------------------------------*- C++ -*----------------------------------*\
  =========                 |
  \\      /  F ield         | OpenFOAM: The Open Source CFD Toolbox
   \\    /   O peration     | Website:  https://openfoam.org
    \\  /    A nd           | Version:  12
     \\/     M anipulation  |
\*---------------------------------------------------------------------------*/
/*   Windows 32 and 64 bit porting by blueCAPE: http://www.bluecape.com.pt   *\
|  Based on Windows porting (2.0.x v4) by Symscape: http://www.symscape.com   |
\*---------------------------------------------------------------------------*/
FoamFile
{
    format      ascii;
    class       surfaceScalarField;
    location    "300";
    object      phi;
}
// * * * * * * * * * * * * * * * * * * * * * * * * * * * * * * * * * * * * * //

dimensions      [0 3 -1 0 0 0 0];

internalField   nonuniform List<scalar> 
28973
(
5.50982983934427e-06
-5.37504138093923e-09
-8.75756490840707e-08
5.60694181092343e-06
-2.62737185967894e-09
-9.44880765862249e-08
6.63423189442736e-06
-9.93078068858226e-10
-1.00578478764514e-07
1.88039455278871e-06
1.32748566653032e-08
-1.53410489010785e-07
5.7065506716425e-06
1.85687661035122e-09
-1.0147104619238e-07
6.74046348979718e-06
-1.21950685132085e-10
-1.08752892511606e-07
1.93504454937679e-06
1.39766525592185e-08
-1.6311801326808e-07
7.37618628731128e-06
1.1127327578535e-08
-1.13045089834312e-07
2.39367038793408e-06
3.13377325355655e-08
-1.74971738353963e-07
1.49351475395491e-06
1.20207526611425e-08
-2.15532521267201e-07
5.81381680025781e-06
1.28956061955764e-09
-1.08563685037457e-07
6.85559432122456e-06
1.76218068260205e-09
-1.15054218754412e-07
1.99209841288918e-06
1.50548095092174e-08
-1.73586064002645e-07
7.49246308790079e-06
9.2197731813203e-09
-1.25629268448154e-07
2.45281301467851e-06
3.31612397611653e-08
-1.870838672878e-07
1.54507482997825e-06
1.18937746181658e-08
-2.26572754289782e-07
8.20666660591043e-06
2.59175468861683e-08
-1.26581056184219e-07
2.78213483515442e-06
5.95035213881445e-08
-2.03071123163365e-07
1.84942076057649e-06
2.97587050664709e-08
-2.48627171202635e-07
1.47751326449028e-06
1.09845970836391e-08
-2.76253324019792e-07
5.93160991375219e-06
-1.82807416912022e-09
-1.15971014530186e-07
6.9795590867524e-06
-1.10298915762365e-09
-1.21592099650638e-07
2.0532883704204e-06
1.48122932988023e-08
-1.84571868562763e-07
7.61940107574852e-06
6.96357915435692e-09
-1.3215395986902e-07
2.5171238901054e-06
3.40837738827962e-08
-1.98401882535708e-07
1.5984153680154e-06
1.21895943980482e-08
-2.39117925432742e-07
8.33545617747288e-06
2.12830217184218e-08
-1.40866513760191e-07
2.84714869722194e-06
5.99796669678511e-08
-2.17464046853622e-07
1.90652606089479e-06
2.8947000685999e-08
-2.61244557670237e-07
1.52910895921603e-06
1.0117596464902e-08
-2.8828642205296e-07
8.89530515269601e-06
3.98419027813526e-08
-1.34359281497128e-07
3.14241277575308e-06
9.18704814739545e-08
-2.27852109967139e-07
2.17318509911541e-06
5.38673478511742e-08
-2.90912260725354e-07
1.7649528669035e-06
2.55478508552286e-08
-3.18814949691278e-07
1.52572423919218e-06
8.87566109214983e-09
-3.34312760993381e-07
6.06156242317187e-06
-6.00562393401695e-09
-1.23955036516784e-07
7.11455981984016e-06
-7.4813748496005e-09
-1.29358859460929e-07
2.12017409052492e-06
1.29348746789946e-08
-1.95795131435067e-07
7.75539446881973e-06
5.55393645177654e-10
-1.3767452244149e-07
2.58769468860002e-06
3.21469280835255e-08
-2.09506228649806e-07
1.65519771697531e-06
1.12306801180399e-08
-2.52585908470788e-07
8.47468658616271e-06
1.49899527793612e-08
-1.47270424573167e-07
2.91895230967058e-06
5.93394812148978e-08
-2.29221301695262e-07
1.96692964644658e-06
2.83064969537201e-08
-2.74924429769428e-07
1.58286480419381e-06
9.53087823488577e-09
-3.02405187223894e-07
9.03381113473216e-06
3.31144902390459e-08
-1.50342815591318e-07
3.21381296774427e-06
9.08416160876224e-08
-2.43132251174937e-07
2.23756917743991e-06
5.2378970944296e-08
-3.05281508846271e-07
1.82242506867197e-06
2.3803283054591e-08
-3.32402975474829e-07
1.57715811390029e-06
7.89591655172419e-09
-3.47615993038261e-07
9.35247742787129e-06
5.20778053594023e-08
-1.37194474563175e-07
3.37434524372121e-06
1.24040588401441e-07
-2.39786106037556e-07
2.43826059715179e-06
8.14230893234741e-08
-3.26086582957428e-07
2.0552274964737e-06
4.40425344627176e-08
-3.72612395713644e-07
1.77132542766784e-06
1.98109818470099e-08
-3.84274994227746e-07
1.57851238831976e-06
6.52079716168594e-09
-3.88822869340871e-07
6.20511221623026e-06
-1.12623338030519e-08
-1.32291125949362e-07
7.26265617407979e-06
-1.61658957415673e-08
-1.3794782437317e-07
2.19352741204293e-06
1.0293972557819e-08
-2.07602934396875e-07
7.9033547901286e-06
-9.49460292383957e-09
-1.45961063896403e-07
2.66474082952911e-06
2.81226536421285e-08
-2.21598942928266e-07
1.71685801014041e-06
9.3697087840929e-09
-2.66825951191583e-07
8.62330836638453e-06
4.69684853628354e-09
-1.52779755156281e-07
2.99881054446592e-06
5.58588636562825e-08
-2.41250337524553e-07
2.03209886042007e-06
2.62151075451209e-08
-2.89664232951002e-07
1.63994708882376e-06
8.422097557947e-09
-3.18091303432815e-07
9.18242401107497e-06
2.34525146829996e-08
-1.57086794789984e-07
3.29260120067136e-06
8.85952782766516e-08
-2.55322189827884e-07
2.30625652093378e-06
5.06185523033169e-08
-3.20223579187066e-07
1.88306356377325e-06
2.19399232341731e-08
-3.47974088185104e-07
1.6311244153549e-06
6.92609691069097e-09
-3.63297969347196e-07
9.49619881473014e-06
4.39820716324136e-08
-1.54598596179855e-07
3.44988444375023e-06
1.22156617056437e-07
-2.57201898248919e-07
2.50907353613354e-06
7.95833395605161e-08
-3.41151700572353e-07
2.12064390869876e-06
4.13129018500796e-08
-3.88208588906988e-07
1.82826935145035e-06
1.77470995658095e-08
-3.99198413245142e-07
1.62903163001172e-06
5.40101416398121e-09
-4.03536297499294e-07
9.61539811917446e-06
6.30483248284113e-08
-1.37353355170645e-07
3.48854393310695e-06
1.54197366309929e-07
-2.42612846321515e-07
2.56817604604064e-06
1.09731566938122e-07
-3.42757160629503e-07
2.27963115143943e-06
6.42551133839723e-08
-4.15742421149451e-07
2.03664055103725e-06
3.26160997596904e-08
-4.47221572860431e-07
1.80274180704851e-06
1.38497808010659e-08
-4.44577806326987e-07
1.6261843426179e-06
4.18803056260852e-09
-4.39324943436215e-07
6.36387905457023e-06
-1.76794319450062e-08
-1.4108935254235e-07
7.42567328874722e-06
-2.71881136540228e-08
-1.47094510864468e-07
2.27435276379594e-06
6.92822957548966e-09
-2.20046120602797e-07
8.06521220285059e-06
-2.26900104725122e-08
-1.55339435334717e-07
2.74894224701912e-06
2.27253402043237e-08
-2.34580809097307e-07
1.78433485911354e-06
6.87173823977584e-09
-2.81951826107841e-07
8.78523347450442e-06
-9.3797288744484e-09
-1.62055900593653e-07
3.08609051318709e-06
4.99436649001571e-08
-2.55067039739839e-07
2.10282291390322e-06
2.25284186739618e-08
-3.05484143250447e-07
1.70149707059194e-06
6.72377330942996e-09
-3.3510050401034e-07
9.34040824533384e-06
9.49918435222116e-09
-1.62794102905886e-07
3.38065866419645e-06
8.34440839427063e-08
-2.68431686655497e-07
2.38114962457258e-06
4.70744243606643e-08
-3.37006082735925e-07
1.94779223656111e-06
1.9407641841228e-08
-3.6538052219778e-07
1.68841749300724e-06
5.61902250259864e-09
-3.81003967032855e-07
9.64972251926394e-06
3.17946637067121e-08
-1.61880630541557e-07
3.53270375643022e-06
1.18643072775361e-07
-2.69961240263709e-07
2.58456571817184e-06
7.70804982252671e-08
-3.57279115430094e-07
2.19009989146269e-06
3.81168188051115e-08
-4.05858166939991e-07
1.88836618492049e-06
1.55098539701243e-08
-4.16655387297085e-07
1.68227879850241e-06
4.2784882671787e-09
-4.20824077465945e-07
9.76062033759332e-06
5.42859368373878e-08
-1.55528787502177e-07
3.56585738230727e-06
1.51987140087016e-07
-2.61742760404679e-07
2.64241595565687e-06
1.07509608911113e-07
-3.5936993911545e-07
2.35176075521071e-06
6.09394597500135e-08
-4.32907155012054e-07
2.10113574514268e-06
2.94697090725078e-08
-4.64427239784221e-07
1.85843786497152e-06
1.15523052288796e-08
-4.61045738796872e-07
1.67516039224044e-06
2.99165300816815e-09
-4.55503934006896e-07
9.77251404491359e-06
7.31278213076342e-08
-1.36223266987703e-07
3.53312116554768e-06
1.81855029292061e-07
-2.41100289529861e-07
2.59238186933441e-06
1.36581011091075e-07
-3.46129814050803e-07
2.37207378137752e-06
8.50462677464668e-08
-4.36501722380848e-07
2.23684578446663e-06
4.61899026901552e-08
-4.97124821314809e-07
2.05638418740447e-06
2.18763040270992e-08
-5.15206119784228e-07
1.84451028646934e-06
8.2537277451918e-09
-4.99862689805018e-07
1.67159153297563e-06
1.95439695425045e-09
-4.85688159746731e-07
6.54015648425092e-06
-2.51901923944844e-08
-1.51086275429862e-07
7.6057912931371e-06
-4.07648811240968e-08
-1.57029773675438e-07
2.36384723219499e-06
2.82404478151971e-09
-2.3340792435151e-07
8.24307432546289e-06
-3.92786917071887e-08
-1.65773605790099e-07
2.84131386938357e-06
1.60389851583702e-08
-2.48577275196306e-07
1.85851641385931e-06
3.89459828780128e-09
-2.98122387336183e-07
8.96239457103002e-06
-2.7429180959581e-08
-1.72432248864886e-07
3.18116096658381e-06
4.18717095496669e-08
-2.69559240632371e-07
2.18000837081673e-06
1.74391654197558e-08
-3.22334189894318e-07
1.76848853236172e-06
4.42666436376927e-09
-3.53370607638425e-07
9.51230486137759e-06
-8.52713033605109e-09
-1.72760203045568e-07
3.4769266526797e-06
7.55864286574101e-08
-2.83969473702239e-07
2.4623600888327e-06
4.15471963542531e-08
-3.55298028966807e-07
2.01753705296298e-06
1.58771342337703e-08
-3.8438337855506e-07
1.74994177434272e-06
3.86660536015158e-09
-4.00491844875939e-07
9.81229817254001e-06
1.48766485415292e-08
-1.67968369773942e-07
3.62536683064629e-06
1.11951962053883e-07
-2.83973633944627e-07
2.66716742907195e-06
7.19057705698664e-08
-3.75866395159793e-07
2.26433057062388e-06
3.39568576298949e-08
-4.25787761334798e-07
1.95233939564723e-06
1.26808586149787e-08
-4.36416700505918e-07
1.73884052722237e-06
2.87292430963998e-09
-4.40438993281205e-07
9.91531891565672e-06
4.05263382803032e-08
-1.63433782836752e-07
3.64993054938897e-06
1.47577747404094e-07
-2.74893556544561e-07
2.72128589609082e-06
1.04475433258405e-07
-3.76228887715204e-07
2.42828114391804e-06
5.6607893926732e-08
-4.52292261918464e-07
2.16939313226062e-06
2.57681902041407e-08
-4.84374690581381e-07
1.917341561852e-06
9.0570499170211e-09
-4.80338489915635e-07
1.72694495373899e-06
1.76120899164797e-09
-4.74370070469394e-07
9.917127275573e-06
6.43515227824835e-08
-1.54668330107763e-07
3.61082060685134e-06
1.7977642275586e-07
-2.61018736817367e-07
2.6675806793339e-06
1.34290374121849e-07
-3.63722512941267e-07
2.44733518244196e-06
8.10226194192145e-08
-4.54714789274725e-07
2.30755842842918e-06
4.20209114179555e-08
-5.1617135023448e-07
2.11926223962824e-06
1.83753445860246e-08
-5.34128398384312e-07
1.89857564516948e-06
5.77780250088813e-09
-5.17897315809007e-07
1.71873348751026e-06
6.30771813174932e-10
-5.03276745449e-07
9.89668453125012e-06
8.17730254776541e-08
-1.33675995709681e-07
3.54925601956238e-06
2.06408704733828e-07
-2.3731349399749e-07
2.56413628677126e-06
1.61163240926626e-07
-3.43109942539721e-07
2.36739617189704e-06
1.04925741035805e-07
-4.40242627458237e-07
2.31244390898655e-06
5.99301303263205e-08
-5.21110341768426e-07
2.24735089739467e-06
3.01200915077924e-08
-5.7106355486307e-07
2.09941024105606e-06
1.24424052161597e-08
-5.77424727607325e-07
1.89184154229271e-06
3.273821229777e-09
-5.50499387091789e-07
1.71848435231857e-06
-1.30180419169412e-10
-5.28026278614702e-07
6.73662836330737e-06
-3.39502769714783e-08
-1.62518417653552e-07
7.80558525301291e-06
-5.71045351212967e-08
-1.67881590389553e-07
2.46285258690606e-06
-1.9967253745681e-09
-2.4809332525423e-07
8.43940906790657e-06
-5.97965425552466e-08
-1.7730524140161e-07
2.94297537986292e-06
7.79552378206768e-09
-2.6366075559719e-07
1.94026276400624e-06
3.13750662687202e-10
-3.15468049926709e-07
9.15686544631734e-06
-5.00143771356846e-08
-1.8374116368894e-07
3.28506344419302e-06
3.16400186266287e-08
-2.85276823067277e-07
2.26458369454547e-06
1.11516477859736e-08
-3.40410053385498e-07
1.84176518558179e-06
1.54623147801399e-09
-3.72945307771821e-07
9.70015218058246e-06
-3.12189652315132e-08
-1.84069216342878e-07
3.58158744954004e-06
6.49802414309874e-08
-3.00204883172743e-07
2.55067265210936e-06
3.40016962573538e-08
-3.74436270209993e-07
2.09333396247956e-06
1.11216112289086e-08
-4.04827626450898e-07
1.81656487557023e-06
1.62286095002812e-09
-4.21617123169443e-07
9.98866349383136e-06
-6.5084482139771e-09
-1.7839427978165e-07
3.7264958718358e-06
1.02266783849027e-07
-3.00570986695919e-07
2.75667334821419e-06
6.43771894292369e-08
-3.96308151073507e-07
2.34412079836738e-06
2.84115322401433e-08
-4.4762422105409e-07
2.0210310745813e-06
8.99916793423328e-09
-4.58208734077432e-07
1.79944540266933e-06
1.07265588006497e-09
-4.62169815678988e-07
1.00784879842209e-05
2.16918345401624e-08
-1.69993916407476e-07
3.74391883525752e-06
1.39686153564054e-07
-2.89693266133815e-07
2.80744779127383e-06
9.782850818044e-08
-3.96060642027151e-07
2.50983892379435e-06
5.0861481321885e-08
-4.7433039061303e-07
2.2420934542371e-06
2.11902821148745e-08
-5.06998536421056e-07
1.98003009326094e-06
6.01240406415374e-09
-5.02245810188837e-07
1.782000658574e-06
2.73486850380609e-10
-4.95768441420349e-07
1.00710018663885e-05
5.00090562917081e-08
-1.63359241062524e-07
3.69459312329804e-06
1.74927675354806e-07
-2.74559809048266e-07
2.74705295895397e-06
1.30916008265599e-07
-3.80809041561561e-07
2.52712267617644e-06
7.56900365674843e-08
-4.75099805602497e-07
2.38224800488104e-06
3.6927626879119e-08
-5.38142433613402e-07
2.18584076000149e-06
1.42971793486815e-08
-5.56194346931728e-07
1.95587415699281e-06
3.08087787186112e-09
-5.38957095729762e-07
1.76867589836316e-06
-6.42760578858444e-10
-5.2366978144192e-07
1.00395848131585e-05
7.38462572428976e-08
-1.52391648056513e-07
3.6269047974495e-06
2.04942060738499e-07
-2.5748035651107e-07
2.63940342866357e-06
1.59178852200131e-07
-3.61173653940513e-07
2.44325810351078e-06
1.00331196359451e-07
-4.58893110719584e-07
2.38608839859494e-06
5.47911222377067e-08
-5.41129087895691e-07
2.31612156196155e-06
2.53800844791816e-08
-5.9194685075365e-07
2.16051310596327e-06
8.63398205389873e-09
-5.98087656302388e-07
1.94401595464255e-06
6.42542170897145e-10
-5.70083780496327e-07
1.76366412869049e-06
-1.489589639334e-09
-5.46966879043039e-07
1.00266774011017e-05
8.77996238449847e-08
-1.29545741324141e-07
3.56069523621008e-06
2.26870182542523e-07
-2.31255864641082e-07
2.51710761324715e-06
1.83087439061641e-07
-3.37001518055084e-07
2.31886860961502e-06
1.23104348558718e-07
-4.35919202694436e-07
2.29827690414423e-06
7.31400513466931e-08
-5.25295803047233e-07
2.31910456771124e-06
3.84411792572318e-08
-5.98048209404127e-07
2.29265205680312e-06
1.66074179191666e-08
-6.38898199808371e-07
2.15473074319038e-06
4.42211772429779e-09
-6.34585562959497e-07
1.94308171925659e-06
-9.48163217859321e-10
-5.96952759185706e-07
1.7679782680982e-06
-1.85988975255508e-09
-5.66652081850777e-07
6.95585645453407e-06
-4.42425011554152e-08
-1.74980957688688e-07
8.02779738813813e-06
-7.65196066948518e-08
-1.79630115744602e-07
2.5721790777762e-06
-7.89445022510331e-09
-2.63949594880206e-07
8.65673697346405e-06
-8.4836384120185e-08
-1.89590307787201e-07
3.0551134185406e-06
-2.21538537467915e-09
-2.79801716291577e-07
2.03033287352209e-06
-4.14894311305512e-09
-3.34014685968606e-07
9.37119398614509e-06
-7.77511452888439e-08
-1.96367283295e-07
3.39900497893436e-06
1.90239237938575e-08
-3.02476386232205e-07
2.3574572047448e-06
3.57040067979919e-09
-3.59790419777473e-07
1.92209594117423e-06
-1.9686873180612e-09
-3.93829930564409e-07
9.90600357826916e-06
-5.95226841643041e-08
-1.96342905219236e-07
3.69555100373305e-06
5.13347414412748e-08
-3.1740030807677e-07
2.64714231872299e-06
2.43890905639076e-08
-3.94984580188577e-07
2.17609028632241e-06
5.12502083693577e-09
-4.26745509910767e-07
1.88907487505157e-06
-1.14812094253245e-09
-4.44307088402067e-07
1.01808075114931e-05
-3.31901045226887e-08
-1.90173707439047e-07
3.83614938062019e-06
8.92991627439455e-08
-3.18044181248914e-07
2.85369795578873e-06
5.44609263400233e-08
-4.17689978971682e-07
2.43069237329016e-06
2.11690546938389e-08
-4.71056525183306e-07
2.09535155101001e-06
4.30665486961381e-09
-4.81832313588969e-07
1.86484148021073e-06
-1.16942728756775e-09
-4.8584389633108e-07
1.02547706127755e-05
-1.98499901276372e-09
-1.80806115990278e-07
3.84613159358429e-06
1.2851015018706e-07
-3.06852086810846e-07
2.90058044448513e-06
8.84484413460757e-08
-4.17775794241836e-07
2.59723490042725e-06
4.3257633791501e-08
-4.98550866663088e-07
2.32006048740714e-06
1.53955321518255e-08
-5.31988703111e-07
2.04720828060822e-06
2.20772787598774e-09
-5.26522306252722e-07
1.84092726537816e-06
-1.56555913270076e-09
-5.19530932315704e-07
1.02325367577048e-05
3.04437652872255e-08
-1.70286931389484e-07
3.78800324365429e-06
1.66367092989258e-07
-2.90082493245849e-07
2.83352955767524e-06
1.23061447376514e-07
-4.01403397673596e-07
2.61175705742585e-06
6.8518866922575e-08
-4.98353571167415e-07
2.4616005470203e-06
3.05901016062362e-08
-5.63084207282101e-07
2.25671768647787e-06
9.3850568073736e-09
-5.81249118177912e-07
2.01688237377998e-06
-1.30136089735463e-10
-5.62850826175216e-07
1.82180700621365e-06
-2.15470878099986e-09
-5.46745052983716e-07
1.01919123357654e-05
6.01029782919292e-08
-1.62425863946103e-07
3.70990092135546e-06
2.00325926612798e-07
-2.71757121432462e-07
2.71848033137607e-06
1.55649933256572e-07
-3.7837185034348e-07
2.5235373499317e-06
9.42567594551966e-08
-4.79655893742984e-07
2.46363024151465e-06
4.84459843591663e-08
-5.64161197567308e-07
2.38876291609917e-06
1.97314240233491e-08
-6.16218585367436e-07
2.22529825223925e-06
4.24796956057805e-09
-6.22147059909988e-07
1.9994268253154e-06
-2.19902525336585e-09
-5.92812291202392e-07
1.81160939636123e-06
-2.81760818132302e-09
-5.68797591325716e-07
1.01674947233905e-05
8.18087041408082e-08
-1.48768094047987e-07
3.63844469425178e-06
2.26642039413034e-07
-2.51835540713756e-07
2.59208398250306e-06
1.81802524839348e-07
-3.55078240781834e-07
2.39443774699158e-06
1.18230843635706e-07
-4.54642533058261e-07
2.37253070851507e-06
6.7213962597423e-08
-5.45570085087083e-07
2.39070621173122e-06
3.25379357711509e-08
-6.19889093065654e-07
2.35955212749489e-06
1.14182020325883e-08
-6.61631486923404e-07
2.21388304615119e-06
3.67427210708545e-10
-6.5696508972521e-07
1.99321479841197e-06
-3.68425641999512e-09
-6.18022384968277e-07
1.81113070554771e-06
-3.24006851026002e-09
-5.86879351820134e-07
1.01735152734012e-05
8.93964610620633e-08
-1.23434581480061e-07
3.58136686727775e-06
2.41709850067519e-07
-2.22656806239023e-07
2.46421201691205e-06
2.01574961173514e-07
-3.28169470947233e-07
2.25569404451914e-06
1.39049965077072e-07
-4.27952238088079e-07
2.24456307463099e-06
8.51936157949296e-08
-5.2005727562504e-07
2.30408928413577e-06
4.64793911417446e-08
-6.02867544990729e-07
2.36777647693081e-06
2.08035204267789e-08
-6.68833683307756e-07
2.35527257633799e-06
5.41370106899476e-09
-7.01476024004049e-07
2.21588888364626e-06
-2.16478912929465e-09
-6.87207990688515e-07
1.99715046344312e-06
-4.34356049777297e-09
-6.3958062011391e-07
1.81895593218598e-06
-3.1737791321066e-09
-6.01872266616214e-07
7.20053564522532e-06
-5.64898871945279e-08
-1.88189063152252e-07
8.27548586368899e-06
-9.92265532638413e-08
-1.92693662869068e-07
2.69267461041854e-06
-1.47666964930231e-08
-2.80707463781075e-07
8.89803627125598e-06
-1.15386040487347e-07
-2.0242522447738e-07
3.17903793725801e-06
-1.44675201004345e-08
-2.96976713659908e-07
2.12959690178292e-06
-9.59713767149538e-09
-3.53615886026605e-07
9.60828964030806e-06
-1.11645136707722e-07
-2.10283890318281e-07
3.52428438891669e-06
3.67958860352132e-09
-3.20759158457224e-07
2.45957214286903e-06
-5.674898275035e-09
-3.80390348318336e-07
2.01024511073071e-06
-6.22350746239754e-09
-4.15940530419086e-07
1.01323864085922e-05
-9.43036191072175e-08
-2.09828828052699e-07
3.8199095074905e-06
3.43841322411151e-08
-3.36086570313057e-07
2.75276412497217e-06
1.26306717394707e-08
-4.17158655397265e-07
2.26664184678514e-06
-2.19223348176596e-09
-4.50117532259676e-07
1.96821190302571e-06
-4.501420799867e-09
-4.68465459894042e-07
1.03907543611188e-05
-6.63714209922847e-08
-2.03098004652789e-07
3.95525895310281e-06
7.25334894341655e-08
-3.36647907172009e-07
2.95926474873363e-06
4.17528443683077e-08
-4.40331598171679e-07
2.52504334535123e-06
1.19647490359062e-08
-4.9617579546438e-07
2.17614631446162e-06
-1.49588459894606e-09
-5.07192263410638e-07
1.93574928775356e-06
-3.89909449005938e-09
-5.11315905823791e-07
1.04460411835448e-05
-3.15456850430029e-08
-1.92914595714273e-07
3.95651746122906e-06
1.13554166615173e-07
-3.24816023130523e-07
3.0012763254602e-06
7.62658544475313e-08
-4.40545756934323e-07
2.69176980749703e-06
3.3453678224989e-08
-5.24509910382219e-07
2.40428881517927e-06
8.09671101112777e-09
-5.59075374459638e-07
2.11965176538697e-06
-2.49023883472908e-09
-5.52956046653299e-07
1.90436149023291e-06
-3.80415864043349e-09
-5.45474057614535e-07
1.04060894875486e-05
5.79555863756635e-09
-1.81332588913795e-07
3.88907283383298e-06
1.54267437574581e-07
-3.07631749058288e-07
2.9266036237765e-06
1.12202137291261e-07
-4.23680296418586e-07
2.7021283324526e-06
5.90187918521536e-08
-5.23909349341422e-07
2.54648513009256e-06
2.26184635313892e-08
-5.90659151003489e-07
2.33260033039267e-06
3.36052876910308e-09
-6.09024825400654e-07
2.08218917939143e-06
-4.03616947422566e-09
-5.89359332374286e-07
1.87864666756642e-06
-4.02055525334024e-09
-5.7235031695542e-07
1.03510575344102e-05
4.11162331754533e-08
-1.69813317943581e-07
3.8019561210236e-06
1.9182501861058e-07
-2.87796131917087e-07
2.80380662245277e-06
1.47109301710892e-07
-3.99456301040954e-07
2.60811932056224e-06
8.59481703100222e-08
-5.03415877592021e-07
2.54568809158154e-06
4.04973976296497e-08
-5.90319481719092e-07
2.46591818082255e-06
1.29106159820657e-08
-6.4376595333933e-07
2.29427865511655e-06
-9.31768102493227e-10
-6.49428493923032e-07
2.05847080477486e-06
-5.52181110197254e-09
-6.18528508566426e-07
1.86265406839345e-06
-4.37641178838473e-09
-5.93413498451219e-07
1.03179386785325e-05
7.00707061057851e-08
-1.60408961745515e-07
3.72070644594303e-06
2.22989538602644e-07
-2.67349051211854e-07
2.67031765707317e-06
1.78362344863355e-07
-3.72704266369026e-07
2.47402720127949e-06
1.11804683017168e-07
-4.7550923495237e-07
2.45036954897895e-06
5.98593507991435e-08
-5.68908086428759e-07
2.4660737400994e-06
2.54513111730033e-08
-6.45249024933953e-07
2.43029827687301e-06
5.33012386891571e-09
-6.88047934290216e-07
2.276695114536e-06
-4.25159968585396e-09
-6.8290684283201e-07
2.04654403518676e-06
-6.63051831403394e-09
-6.42328934151319e-07
1.85698938105291e-06
-4.60111202720838e-09
-6.10055246677948e-07
1.03119178196567e-05
8.71874497776543e-08
-1.43777802726123e-07
3.65963914441211e-06
2.4342316071296e-07
-2.43819688748031e-07
2.53922502743869e-06
2.0128910904484e-07
-3.46332437537397e-07
2.33104799213329e-06
1.34374263899182e-07
-4.46574677818235e-07
2.31858800903069e-06
7.87648077682599e-08
-5.40217780014183e-07
2.37632373937599e-06
3.96036910953102e-08
-6.24870966258526e-07
2.43753549260412e-06
1.43079500861326e-08
-6.92537960383253e-07
2.42017727648942e-06
-1.22382593312618e-10
-7.2604661117858e-07
2.27288492404231e-06
-6.39757541750873e-09
-7.112480546088e-07
2.0451140944303e-06
-7.15664322702016e-09
-6.62069748424565e-07
1.85999229408383e-06
-4.60796157439149e-09
-6.2330767918595e-07
1.0328172990371e-05
8.44305419330938e-08
-1.14920130605515e-07
3.62163322581229e-06
2.48983082624843e-07
-2.10954492235904e-07
2.41045555938013e-06
2.15445864495105e-07
-3.16204202103958e-07
2.18699217278714e-06
1.52195351501527e-07
-4.17033120391044e-07
2.17767538705411e-06
9.55771321024213e-08
-5.10689516136664e-07
2.25036330140435e-06
5.36993673233768e-08
-5.97008201638099e-07
2.35518495113975e-06
2.48128039998037e-08
-6.74401842230593e-07
2.43590902509785e-06
6.36764600465786e-09
-7.34295009880769e-07
2.42483223946807e-06
-3.6711071700781e-09
-7.59271565629405e-07
2.27969883923172e-06
-7.37803718268729e-09
-7.35657060648512e-07
2.05247452617576e-06
-6.92661944008852e-09
-6.78614096280392e-07
1.86961254200994e-06
-4.05141403750159e-09
7.47375627348599e-06
-7.12897154111835e-08
-2.01925047520488e-07
8.55234267206224e-06
-1.26408708242272e-07
-2.06930612057128e-07
2.82548550072782e-06
-2.28625988673866e-08
-2.98134522198466e-07
9.16675592544854e-06
-1.51307014199024e-07
-2.16631685930853e-07
3.31592761665555e-06
-2.91449135863845e-08
-3.15203139423084e-07
2.23896180145657e-06
-1.60458770184171e-08
-3.74025126566772e-07
9.87138432267654e-06
-1.53395038686689e-07
-2.25075325592049e-07
3.6622959821526e-06
-1.48945951643902e-08
-3.40009082580382e-07
2.57192943812671e-06
-1.68803949913578e-08
-4.02049621548898e-07
2.10702900654258e-06
-1.13080229491983e-08
-4.39090983687914e-07
1.03824812614874e-05
-1.36927582373829e-07
-2.24807307200798e-07
3.95611499926178e-06
1.36510505225875e-08
-3.56460297030482e-07
2.86862597699375e-06
-1.59467602978993e-09
-4.40700598567704e-07
2.36585430925428e-06
-1.10270094913404e-08
-4.74798354912635e-07
2.0547194851326e-06
-8.52722569894093e-09
-4.93920573221689e-07
1.0621146088133e-05
-1.07159809103324e-07
-2.1752817225883e-07
4.08491165541179e-06
5.14156025169047e-08
-3.56511294273098e-07
3.07453167962522e-06
2.59541767843255e-08
-4.6467664366694e-07
2.62806914627241e-06
5.99754940789093e-10
-5.22975742288674e-07
2.26422662940469e-06
-8.53126461111478e-09
-5.34167487696996e-07
2.01287257275421e-06
-7.17251896276773e-09
-5.38416281937586e-07
1.06542237846085e-05
-6.83624433558568e-08
-2.06193152415148e-07
4.07598921115516e-06
9.41066377749831e-08
-3.44142343978666e-07
3.1104389546012e-06
6.06824518228244e-08
-4.64740775146989e-07
2.79455940038469e-06
2.1086702498306e-08
-5.52242953549492e-07
2.49570600181017e-06
-9.43435029098246e-10
-5.88145571281711e-07
2.19813081171437e-06
-8.19662054538672e-09
-5.81373873255853e-07
1.97294959098382e-06
-6.48928648430703e-09
-5.73414746132939e-07
1.05933865674402e-05
-2.52085404356584e-08
-1.93635411202805e-07
3.99764599443768e-06
1.37920750701039e-07
-3.25850054223444e-07
3.0268848799554e-06
9.81354967585556e-08
-4.46966892457497e-07
2.79955340175052e-06
4.67811026664929e-08
-5.51298183254708e-07
2.63796490338862e-06
1.26417666680237e-08
-6.20535675488607e-07
2.41431956275419e-06
-4.02113275818881e-09
-6.39263754303094e-07
2.15246079852831e-06
-8.75684169341964e-09
-6.18275162229161e-07
1.939737007079e-06
-6.25000379041759e-09
-6.00314472828072e-07
1.0520781603688e-05
1.68987350389166e-08
-1.80819549589197e-07
3.90088620977915e-06
1.79564166944406e-07
-3.05558157474092e-07
2.89500411600476e-06
1.35333692675233e-07
-4.21961041763337e-07
2.69802620651733e-06
7.48973672841588e-08
-5.29467124123674e-07
2.6331513918868e-06
3.04883236316958e-08
-6.19242788148961e-07
2.54833959185923e-06
4.58627145620896e-09
-6.74307079400639e-07
2.36805673449876e-06
-7.1453980135174e-09
-6.79694043190989e-07
2.12163649231767e-06
-9.4970241789564e-09
-6.47049200934192e-07
1.91724075047334e-06
-6.25211380906813e-09
-6.20685098008255e-07
1.04743832337868e-05
5.29794929085195e-08
-1.6829974494813e-07
3.81127264794835e-06
2.15389208394059e-07
-2.83943243273434e-07
2.75422899521359e-06
1.69610592262171e-07
-3.94208913762289e-07
2.55719332050933e-06
1.02777062701119e-07
-4.99451005795374e-07
2.53230540253569e-06
5.05829857771673e-08
-5.95437771240103e-07
2.54583680937303e-06
1.68577575802e-08
-6.7403024550624e-07
2.50545812469195e-06
-1.87679566441306e-09
-7.17981601207796e-07
2.34360788826749e-06
-9.62434770359125e-09
-7.12239483482681e-07
2.10340553937169e-06
-1.00313773135892e-08
-6.69735495812869e-07
1.90584264172854e-06
-6.18005503948218e-09
-6.36086913521424e-07
1.04602365615398e-05
7.89480068274668e-08
-1.57190832942686e-07
3.74145406941568e-06
2.41604908252831e-07
-2.60836283630224e-07
2.61652514907356e-06
1.98371064423009e-07
-3.64657838213784e-07
2.40965659384589e-06
1.28015504031323e-07
-4.6752382219789e-07
2.39571038399654e-06
7.07397361179863e-08
-5.63512379650733e-07
2.4520138309241e-06
3.13124215118682e-08
-6.5045994390407e-07
2.51104956684964e-06
6.6403316546837e-09
-7.20073657338519e-07
2.48891191734581e-06
-6.53990341124633e-09
-7.54494549293235e-07
2.33348918390914e-06
-1.11775089673675e-08
-7.38964704877755e-07
2.09619712104286e-06
-1.01682464644253e-08
-6.87845199821301e-07
1.90365281154892e-06
-5.97975549663031e-09
-6.47736167659033e-07
1.04627654435728e-05
8.90508134436052e-08
-1.36451568720818e-07
3.70112794324276e-06
2.53354688137604e-07
-2.3320098077581e-07
2.48588440396583e-06
2.16522154954116e-07
-3.34478553180781e-07
2.26239797316632e-06
1.48136688936684e-07
-4.35499616880979e-07
2.25143487903564e-06
8.90001073212072e-08
-5.30568507402455e-07
2.32240914064099e-06
4.61158418696993e-08
-6.18775752937807e-07
2.42564233158223e-06
1.71950600945851e-08
-6.98215783910487e-07
2.50370245576656e-06
-5.82733928914164e-10
-7.59871235945845e-07
2.4874864096207e-06
-9.45976766019781e-09
-7.85638899157079e-07
2.33433654609553e-06
-1.17341446160802e-08
-7.6130816431671e-07
2.09807459863251e-06
-9.80942493937008e-09
-7.02468474051486e-07
1.90834770954022e-06
-5.57747636912121e-09
-6.56465285896221e-07
1.04512043370079e-05
7.15460178784217e-08
-1.03095976007422e-07
3.6909290942494e-06
2.46178722542871e-07
-1.95312947410826e-07
2.35972651380726e-06
2.23205842178075e-07
-3.00394385804939e-07
2.11543744021915e-06
1.61763973152971e-07
-4.02637612009779e-07
2.10521473895501e-06
1.03772844835562e-07
-4.98124855988546e-07
2.18353356205427e-06
5.96367134890423e-08
-5.86549901939682e-07
2.30269627704417e-06
2.82206385097941e-08
-6.68133283793916e-07
2.42629805534378e-06
7.16374646186304e-09
-7.40659394373702e-07
2.51089769395462e-06
-5.28719507312728e-09
-7.94860082144554e-07
2.49675345889824e-06
-1.08262295924849e-08
-8.12595056595826e-07
2.34398737170191e-06
-1.13323936823397e-08
-7.80113205339304e-07
2.10738226540075e-06
-8.73972194121559e-09
7.778310981583e-06
-2.15955755716126e-07
-8.85911599869275e-08
8.86215715923269e-06
-1.59032337534484e-07