/*--------------------------------*- C++ -*----------------------------------*\
  =========                 |
  \\      /  F ield         | OpenFOAM: The Open Source CFD Toolbox
   \\    /   O peration     | Website:  https://openfoam.org
    \\  /    A nd           | Version:  12
     \\/     M anipulation  |
\*---------------------------------------------------------------------------*/
/*   Windows 32 and 64 bit porting by blueCAPE: http://www.bluecape.com.pt   *\
|  Based on Windows porting (2.0.x v4) by Symscape: http://www.symscape.com   |
\*---------------------------------------------------------------------------*/
FoamFile
{
    format      ascii;
    class       volVectorField;
    location    "300";
    object      U;
}
// * * * * * * * * * * * * * * * * * * * * * * * * * * * * * * * * * * * * * //

dimensions      [0 1 -1 0 0 0 0];

internalField   nonuniform List<vector> 
10140
(
(6.63104140965636e-06 0.000562066514271672 3.3237428746013e-05)
(8.94193845833931e-06 0.000580276828291706 3.71248600065218e-05)
(2.26713610298809e-05 0.000420588155537903 3.70019630974243e-05)
(6.0973902989572e-06 0.000557821143428945 6.74393018796403e-05)
(1.048976704598e-05 0.00060157364260677 4.11754669170811e-05)
(2.73699581120847e-05 0.000426612830145943 4.11966755030345e-05)
(6.00072732335987e-06 0.000581676075863817 7.22829503924295e-05)
(4.13013559887954e-05 0.000388818941285464 3.58720118113535e-05)
(1.71449500878279e-05 0.00048985633038233 6.89032569195593e-05)
(3.90675430189724e-06 0.000636597147438115 0.000105285968618113)
(1.03086429633317e-05 0.000627885483970569 4.52332327016861e-05)
(2.99091331369757e-05 0.000444559320394111 4.60103673409282e-05)
(5.83295660838405e-06 0.000606827590508951 7.80317305913434e-05)
(4.52058235580627e-05 0.00038987843439451 4.3426334074997e-05)
(1.90977500609388e-05 0.000506502573471572 7.48474467148693e-05)
(4.09327214873894e-06 0.000663075562504777 0.000111505926273729)
(6.13844992666888e-05 0.000371276537605888 3.67735971753519e-05)
(3.18221822210493e-05 0.000470884683808621 7.00633288409532e-05)
(1.28538529603867e-05 0.000608533228331385 0.000108142604666471)
(2.87964176389901e-06 0.000704997094219291 0.000143758535695882)
(9.84596816219125e-06 0.000659246794190157 4.89321615527061e-05)
(2.9405091376916e-05 0.000468326335584476 4.98061546013861e-05)
(6.28094953841176e-06 0.000635060310993384 8.38719070717644e-05)
(4.71836242816265e-05 0.000406570908357371 4.95739429468917e-05)
(1.9650885878667e-05 0.000528258240635973 8.1133013333225e-05)
(4.08726381101275e-06 0.000690490144802055 0.000118487459780625)
(6.43890170015928e-05 0.000370291463117581 4.4974039902657e-05)
(3.35552250622768e-05 0.000484020210108754 7.68529933081069e-05)
(1.32613339904999e-05 0.000631156661099443 0.000114473316401283)
(2.87654346519293e-06 0.000732195489986757 0.000150698890946757)
(8.27125136707111e-05 0.000349422215637687 3.71958089856753e-05)
(4.74615014614193e-05 0.000452961696221341 7.10036357925099e-05)
(2.36926378650228e-05 0.000594975470347408 0.000111206520197333)
(9.39408559674298e-06 0.000686633760660596 0.00014670870618696)
(2.0622903397801e-06 0.00076519225068434 0.000180366427111397)
(9.40085296461574e-06 0.000694335562384106 5.27909601022011e-05)
(2.82800011890324e-05 0.000496803096196285 5.33249550248204e-05)
(6.17930034524656e-06 0.000666350091052399 8.94148476484811e-05)
(4.66071964158705e-05 0.000429531960647664 5.25642252167062e-05)
(1.9168076932067e-05 0.000554783337113309 8.65599526834137e-05)
(3.91001063782419e-06 0.0007201836949978 0.000125848522522175)
(6.59721703342381e-05 0.0003859349419874 5.14059804550351e-05)
(3.41098939466424e-05 0.000504135202939664 8.32497692465609e-05)
(1.31543758323458e-05 0.000656759059414217 0.000121220757569509)
(2.73962276256883e-06 0.000760591742541259 0.000158748523568854)
(8.50168981320736e-05 0.000347056704394732 4.56949559907525e-05)
(4.87102849837547e-05 0.000464357558490005 7.81513863820399e-05)
(2.37846803676813e-05 0.000615417915542754 0.000117126769843082)
(9.348409582622e-06 0.000711513663245048 0.000153679910684314)
(1.96240281261242e-06 0.000792545150893219 0.000188058394608866)
(0.000104709506442618 0.000321652226473868 3.68218468830082e-05)
(6.39058843912001e-05 0.000428421384151563 7.10013114238323e-05)
(3.49457384879084e-05 0.000578120035718754 0.000113871639805187)
(1.71472039291701e-05 0.000674315821699363 0.000148923865229401)
(6.70323363368303e-06 0.000750729148607139 0.00018284275659374)
(1.39631706668567e-06 0.000819742286199429 0.000214486067445834)
(8.85216815897778e-06 0.000733772708979218 5.67238701164548e-05)
(2.70970231572224e-05 0.000528406882162208 5.70117299386691e-05)
(5.86703849952729e-06 0.000700696594538634 9.51326743421514e-05)
(4.51514648681515e-05 0.000457300181350574 5.57756642006959e-05)
(1.82510433461946e-05 0.00058449349887402 9.20913517480719e-05)
(3.60757473988833e-06 0.000752406176915253 0.000133554654033622)
(6.53996326982442e-05 0.000408129693813276 5.44051720426029e-05)
(3.33939282960294e-05 0.00053004483565452 8.84802621763742e-05)
(1.25462005662877e-05 0.000685706482748694 0.000128565997033744)
(2.50361727199575e-06 0.000790980869308066 0.000167650239064876)
(8.61570127115712e-05 0.000361816656969485 5.24046422178874e-05)
(4.90831274047103e-05 0.000483253705067562 8.4643325442328e-05)
(2.34101820060511e-05 0.000639874061756345 0.000123121284578964)
(8.87720913627099e-06 0.000738725193545878 0.000161630420217503)
(1.76466819954126e-06 0.000821306831562448 0.000197121690853848)
(0.000106602563112408 0.000318140112689992 4.56710306691836e-05)
(6.47366614933822e-05 0.000438697851732047 7.8578435423263e-05)
(3.50296249860485e-05 0.000597258750569868 0.000118669652798853)
(1.6808282989384e-05 0.000697779863091312 0.000155873187786729)
(6.40919496087675e-06 0.000776432880935817 0.000190568426757807)
(1.2447295972872e-06 0.000846898141530645 0.000223004494396035)
(0.00012654842677133 0.000286913430731542 3.58954574202822e-05)
(8.06264999308087e-05 0.000399300809473047 7.02200094886472e-05)
(4.71139668605178e-05 0.000555119741385025 0.000113690819326368)
(2.57072700300701e-05 0.000658134732360616 0.000149929904811682)
(1.21595322375193e-05 0.000739358657431449 0.000184606356749313)
(4.54389901545225e-06 0.000806933281753966 0.000216188573079864)
(8.40820343881934e-07 0.000870280540753388 0.000245893867176997)
(8.28104119538394e-06 0.000778154926670099 6.06694479727015e-05)
(2.57286770782144e-05 0.000563847230451629 6.09606875317843e-05)
(5.24524100832186e-06 0.000738677619547282 0.000101136874144186)
(4.33318138251082e-05 0.00048780587491812 5.92836441004324e-05)
(1.71237298138249e-05 0.000616926545986638 9.79439942258368e-05)
(3.21389294275674e-06 0.000787556093233607 0.000141680503298617)
(6.37427281566533e-05 0.000435480028599116 5.78234339892091e-05)
(3.20070684252321e-05 0.000559279212794194 9.41450363933216e-05)
(1.15561752650775e-05 0.000717252377875078 0.000136469051275015)
(2.18975352699694e-06 0.000823678321826747 0.000177280375555109)
(8.54212363169749e-05 0.000383128511049823 5.54167047526181e-05)
(4.81786832429672e-05 0.000508510520367217 8.99217109535189e-05)
(2.25222573646921e-05 0.000668453733399192 0.00013055522399779)
(8.110837815358e-06 0.000768594641634058 0.000170563322462085)
(1.49279226198519e-06 0.000851971840798355 0.000207346766811668)
(0.000107313838369733 0.000332157203772627 5.27939392428616e-05)
(6.48527341385523e-05 0.000456543058627218 8.52316002144467e-05)
(3.46561711926815e-05 0.000620801487989849 0.000124119604182352)
(1.59896312151846e-05 0.000724240975990498 0.000163712879891196)
(5.78415332795413e-06 0.00080425360960713 0.000199591982224137)
(1.01059235494147e-06 0.000875603597870943 0.000233048600457815)
(0.000128343461801426 0.000282402496709357 4.50229472018647e-05)
(8.12383088398021e-05 0.000408756016482178 7.82145801621141e-05)
(4.70372791359134e-05 0.000573498815866026 0.000118913207628315)
(2.50332005352947e-05 0.000680734459837078 0.000156815476098868)
(1.15023295355346e-05 0.000764019968052699 0.000192364671859211)
(4.10203067011571e-06 0.000832788805330733 0.000224727823199494)
(6.55436411573232e-07 0.000896986993425586 0.000255263709295449)
(0.000147640890225608 0.000244997254598529 3.47432287470593e-05)
(9.70899141679709e-05 0.000366034810975264 6.88609428631183e-05)
(5.95385940299955e-05 0.000527784030935016 0.000112431921739447)
(3.48192899685448e-05 0.000636246172055313 0.000149594271189246)
(1.82811390187294e-05 0.000723834485507708 0.000185031065784769)
(8.18692120507278e-06 0.000795876013544069 0.000217382115997472)
(2.76636271076002e-06 0.000857957174959978 0.000246847476024797)
(3.68481269062446e-07 0.000917431160138586 0.000274614014205356)
(7.87469126627904e-06 0.000828015113303978 6.55211296585662e-05)
(2.41060729645334e-05 0.000603833110598726 6.55164311142353e-05)
(4.44280716348883e-06 0.000780941015950207 0.000107720161838385)
(4.10660054661237e-05 0.000521820023834614 6.35049759307951e-05)
(1.57960341233392e-05 0.00065266597535719 0.000104332995784505)
(2.7323800940545e-06 0.000826221805679131 0.000150358777335658)
(6.13870876827554e-05 0.000465484224238748 6.13189432773346e-05)
(3.01255919843335e-05 0.000590996686563568 0.000100146562582671)
(1.02806420925978e-05 0.000751525664992882 0.000144804836778279)
(1.79012013046868e-06 0.000859143607093134 0.000187601309470529)
(8.35007843181185e-05 0.000409816039976965 5.89582373191471e-05)
(4.63870120103055e-05 0.000537245690599373 9.57897079958104e-05)
(2.10577366695856e-05 0.000699701169857597 0.000138850113340126)
(7.11113565525297e-06 0.000800820658125811 0.000180337027817225)
(1.15290501692258e-06 0.000884843543402452 0.000218588044038663)
(0.000106309913930384 0.000352498796230789 5.5850261127859e-05)
(6.37153372074096e-05 0.000480983532542269 9.05806506624269e-05)
(3.33570147908375e-05 0.000648893114747341 0.000131643051379728)
(1.47532851806446e-05 0.00075378654287766 0.000172652727487756)
(4.92296991373829e-06 0.000834431274692131 0.000209847174579356)
(7.12966723754034e-07 0.000906194188535769 0.00024445829681168)
(0.000128841593990125 0.000295774359454918 5.26250247887305e-05)
(8.11279225368497e-05 0.000425704606235656 8.50675461318558e-05)
(4.65890397166357e-05 0.000596253687739596 0.000124109793384602)
(2.38876957675155e-05 0.000706574287765341 0.000164595641512208)
(1.04281205294658e-05 0.000791225519501638 0.000201337321485316)
(3.378516361855e-06 0.000860696158697278 0.000234751970690312)
(3.96371624849388e-07 0.000925322416986357 0.000266253061526268)
(0.000149648905209118 0.00023959427340706 4.40673240063891e-05)
(9.77371156838407e-05 0.000374839373432801 7.71509520997172e-05)
(5.93181995450483e-05 0.000545638581193344 0.000118105555146967)
(3.38256190001648e-05 0.000658288880942821 0.000156522764399479)
(1.71877432529688e-05 0.000747851941719682 0.000192796306608857)
(7.31554387034718e-06 0.000820900419950406 0.000225935401650385)
(2.22180877143353e-06 0.000883580128110293 0.000256216294252071)
(1.56215100531632e-07 0.000943491372373279 0.000284829622627523)
(0.000167470636786588 0.000195836533533782 3.31031638222625e-05)
(0.000112767130025686 0.000328435617319511 6.70334126170747e-05)
(7.15826510057718e-05 0.000496468861921893 0.000110448243228528)
(4.40125812531546e-05 0.000609964194632 0.000148208381359159)
(2.47911144372287e-05 0.000702749245191809 0.000184171554894966)
(1.23042547033314e-05 0.000780631850984184 0.000217300369183558)
(4.95886376091352e-06 0.000846742662563808 0.000247483639231712)
(1.27907925572768e-06 0.000905221449397315 0.000274992068777736)
(-1.64866076420824e-08 0.000961491077290656 0.000300858003841497)
(7.41873009900587e-06 0.000884250419119507 7.14002654793757e-05)
(2.22233099499586e-05 0.000648769190469471 7.08785465544833e-05)
(3.71492636399401e-06 0.000828000525658405 0.000115261668835502)
(3.82235335448378e-05 0.000560078837604839 6.85834913944517e-05)
(1.4082569178237e-05 0.000692268930324404 0.000111407396059236)
(2.141652019087e-06 0.000868904598423495 0.000159733433992084)
(5.83269460119007e-05 0.00049876929521093 6.54150498610247e-05)
(2.77671649498876e-05 0.000625767350067613 0.000106748758450801)
(8.77627885192715e-06 0.000789103777525968 0.000153736340590756)
(1.29610448443631e-06 0.000897900172790661 0.000198664365924071)
(8.05801493869567e-05 0.000439082895280169 6.26340678870074e-05)
(4.38201468045222e-05 0.000568333696979442 0.000101984351987251)
(1.89689645373198e-05 0.00073345815916977 0.000147210899805486)
(5.84674081819416e-06 0.000835699732236479 0.000190843597630039)
(7.31946406018037e-07 0.000920339024713141 0.000230758943744755)
(0.000104055861843073 0.000378314963882199 5.94284767382749e-05)
(6.15500955046572e-05 0.000508946159739048 9.65201627751728e-05)
(3.12989333396244e-05 0.000679690645098291 0.000140243045962133)
(1.31062949645513e-05 0.000785686538459847 0.000182477467667495)
(3.85489532604823e-06 0.00086686588891783 0.000221183292336917)
(3.52517911592038e-07 0.000938930127010475 0.000257098445542157)
(0.000127687546669279 0.00031505806203274 5.57907880079387e-05)
(7.97494045814181e-05 0.000449265364089588 9.05526862252127e-05)
(4.48742914638973e-05 0.000623722348802725 0.000131836785909694)
(2.21751521385926e-05 0.000735708301130487 0.00017354387557622)
(8.99173896832832e-06 0.000821067985044747 0.000211571835254046)
(2.44808039850151e-06 0.000890824768005297 0.00024616862077464)
(8.01485703526601e-08 0.000955536895833712 0.000278748608433615)
(0.000150240347759024 0.000252425939230409 5.21498994093432e-05)
(9.75435321351273e-05 0.000391006129807317 8.42610448139286e-05)
(5.87959578000491e-05 0.000567704281392445 0.000123124721184734)
(3.2342862956133e-05 0.000683553431694263 0.000164313985014368)
(1.56558476729517e-05 0.000774543247980833 0.000201721811106001)
(6.07012222928577e-06 0.000848277701962628 0.000235920792912975)
(1.4276321313089e-06 0.000911219135135404 0.00026717967007172)
(-1.21525258444401e-07 0.000971211701613815 0.000296727959741311)
(0.000170068266911499 0.000189485893974582 4.26446742701256e-05)
(0.000113701040352958 0.000336690431401254 7.54219631548064e-05)
(7.14423773760677e-05 0.0005139077580726 0.000116335750336081)
(4.27569839066769e-05 0.000631615293282675 0.00015517697254409)
(2.32782881464409e-05 0.000726328473462698 0.000191932209011027)
(1.09327438959194e-05 0.000805133000419054 0.000225835309686229)
(3.93732655921126e-06 0.000871666955720459 0.000256839675405639)
(6.57765406609874e-07 0.000930343468349616 0.000285175518536213)
(-2.41945417372318e-07 0.000986739052008783 0.000311886996662243)
(0.000185381033320549 0.000138567673696998 3.06438018736774e-05)
(0.000127149284176214 0.000286038101483538 6.43871889057115e-05)
(8.29250994169076e-05 0.000461027718052142 0.00010766391186505)
(5.28316830059237e-05 0.000579736468494597 0.000145886349199992)
(3.13049699347641e-05 0.000677235612551499 0.000182245535871216)
(1.66678654655003e-05 0.0007600586395796 0.000215985289976293)
(7.4391510006662e-06 0.000831484187695631 0.00024697346315486)
(2.31208303647824e-06 0.00089373398540624 0.000275195594808549)
(6.43076816463136e-08 0.000949389274664037 0.00030084264196193)
(-3.22728162497473e-07 0.00100269863288882 0.000324873215175328)
(6.75348171427714e-06 0.000947416736934841 7.7674359285145e-05)
(2.01520629874479e-05 0.000699173643212307 7.68954539567029e-05)
(2.78159601192163e-06 0.000880379782933022 0.000123624405679055)
(3.46565339716705e-05 0.000602893460261108 7.43431279400482e-05)
(1.18966995809111e-05 0.000736212402220023 0.000119230487955499)
(1.40053928953765e-06 0.000916065043129401 0.000169856936197511)
(5.44011762355225e-05 0.000536081469943869 7.04345779359696e-05)
(2.48864679467342e-05 0.00066409000074164 0.00011410912086986)
(6.94960381281018e-06 0.000830480878080748 0.000163381484775355)
(6.9135990260274e-07 0.000940405277142946 0.000210509237525297)
(7.65701893754206e-05 0.000471405444557867 6.67951932608111e-05)
(4.04635808126676e-05 0.000602270955966956 0.000108693649870973)
(1.63501074826155e-05 0.00077032194583106 0.000156131536421143)
(4.29320612379911e-06 0.000873738762052398 0.000202122720172908)
(2.19200273389634e-07 0.000958911573329691 0.000243837362197176)
(0.000100583509858195 0.000406528046068391 6.31612917100793e-05)
(5.83669778242434e-05 0.000539115932942748 0.000102837392891161)
(2.84854774954453e-05 0.000712854277393448 0.00014888721223868)
(1.09797618961271e-05 0.000820109725656116 0.000193023334253324)
(2.54319722735197e-06 0.000901853528021906 0.000233480776879572)
(-8.30937289223108e-08 0.000974170660127886 0.000270864522253795)
(0.000125205735778755 0.000339789974748489 5.94174526918493e-05)
(7.72443935709319e-05 0.000476288744808685 9.65294252323864e-05)
(4.22212555279282e-05 0.000653835836906421 0.000140619315227998)
(1.98605281572983e-05 0.000767157804535912 0.000183413575326645)
(7.18929561666831e-06 0.000853162562760799 0.000222921089257018)
(1.32567485466001e-06 0.00092314134626019 0.000258844261692473)
(-2.93459309957926e-07 0.000987847884575456 0.000292633415674754)
(0.000149178353926806 0.000270585929089602 5.53854239064881e-05)
(9.60314430718795e-05 0.000413670733901045 8.99346058702877e-05)
(5.66962995335363e-05 0.00059449204079075 0.000131161544518026)
(3.01632326147993e-05 0.000712155978717166 0.000173294442115081)
(1.36377251791863e-05 0.000803991668502238 0.000211916236169565)
(4.49458920737936e-06 0.000878076628994042 0.000247299419403676)
(4.46698398378397e-07 0.00094100104637715 0.000279652815882119)
(-4.50122224727195e-07 0.00100079529745874 0.00031022909528271)
(0.000171150870000817 0.000201868087122476 5.15078525123984e-05)
(0.000113644194359839 0.000352166139201275 8.29079205424935e-05)
(7.09014936681928e-05 0.000535391045269668 0.000121307447475663)
(4.09808463087658e-05 0.000656371478579403 0.000163008583909504)
(2.129175292199e-05 0.000752544992947517 0.000200822511074787)
(9.14649520868841e-06 0.000832064919059417 0.000235760686795599)
(2.57140133195753e-06 0.000898840372413024 0.000267754406804658)
(-1.88282740855078e-07 0.000957443114094515 0.000297028968355193)
(-5.28748578234494e-07 0.00101364493025587 0.000324647904514431)
(0.000189020029186573 0.000131287221763525 4.0636987512866e-05)
(0.000128604937521362 0.00029383463278419 7.29024595319729e-05)
(8.30861898300144e-05 0.000478095814805855 0.000113456578590182)
(5.14407833016488e-05 0.000601096386617646 0.000152867274435058)
(2.94438957727084e-05 0.000700503577593554 0.000189973090553089)
(1.48095009675758e-05 0.000784193482628487 0.000224467141530056)
(5.87302927234761e-06 0.000855962697244083 0.000256279143859684)
(1.18489821699542e-06 0.000918246728499037 0.00028533871345671)
(-6.02345837892185e-07 0.000973796381296832 0.000311805317096854)
(-5.56314060058067e-07 0.00102698219708828 0.000336664783710254)
(0.000200490397824865 7.14854799447843e-05 2.71029593391845e-05)
(0.000139616535369481 0.000238242875242279 6.06660117562658e-05)
(9.32392722133084e-05 0.00042114482332343 0.000103793401318517)
(6.09676583099158e-05 0.00054553883175812 0.000142526801909552)
(3.74869274354829e-05 0.000647798860700659 0.000179318349659034)
(2.10036759712036e-05 0.000735153088936208 0.000213605728543496)
(1.00545836965699e-05 0.000811207035361025 0.000245296975833628)
(3.46449121230504e-06 0.000878382011228762 0.000274365549400299)
(1.5860347796472e-07 0.000937700625538043 0.000300746525987499)
(-9.02466134226495e-07 0.000990764291720437 0.000324611799943153)
(-5.59874647551805e-07 0.00104122228488223 0.000346874637142331)
(5.88834236170429e-06 0.00101792514124336 8.42148469477904e-05)
(1.76630897118225e-05 0.000755614627019268 8.36049555160343e-05)
(1.6795556765277e-06 0.000938528111339765 0.000132548303077807)
(3.01497799067362e-05 0.000650521020881546 8.06126003096012e-05)
(9.06743218217346e-06 0.000785069634327411 0.000127785399939728)
(4.71452833803163e-07 0.000968173494454021 0.000180682106330351)
(4.93099941704189e-05 0.000577639113814668 7.6272012089922e-05)
(2.13269498426829e-05 0.000706416441744118 0.000122122854354176)
(4.66557776060757e-06 0.000876104357862882 0.000173734575972186)
(-4.64555667585999e-08 0.000987087386557007 0.000223123222066625)
(7.13574479533021e-05 0.000507382380804832 7.1682496065435e-05)
(3.62857087158633e-05 0.000639523701298707 0.00011608585399722)
(1.32261554307295e-05 0.000810779641786469 0.000165900772569978)
(2.40264569810551e-06 0.000915386578468045 0.000214200968126791)
(-3.99099739420843e-07 0.00100098745431207 0.00025779539818028)
(9.57043456038394e-05 0.000437504686496564 6.74619365926431e-05)
(5.4070612152967e-05 0.000571956760110503 0.000109723570329079)
(2.48143688881985e-05 0.000748909890670056 0.000157809192243633)
(8.32361454028735e-06 0.0008575533096814 0.000204367256844987)
(9.50889689038103e-07 0.000939823170275443 0.000246705399742355)
(-6.0563372007235e-07 0.00101231072252284 0.000285683745720191)
(0.000121289471331455 0.00036665465709703 6.31850934691908e-05)
(7.35395377304545e-05 0.000505309810281516 0.000102832010316297)
(3.86584893212303e-05 0.000686164098837592 0.000149489675478555)
(1.68566072950066e-05 0.000800989508012575 0.000193982486378311)
(4.95424757211899e-06 0.000887715603834354 0.000235239151646635)
(-2.30013761015356e-08 0.000957909980789185 0.000272661786593308)
(-7.37052384616094e-07 0.00102256328898306 0.00030779696602414)
(0.000146717903155499 0.000294038532188905 5.90283739665357e-05)
(9.33062372888356e-05 0.00043965538172264 9.59877196153924e-05)
(5.3543774725229e-05 0.000623769942535334 0.000140078291885154)
(2.720209748819e-05 0.000742978469865506 0.000183196090840497)
(1.10776858844016e-05 0.000835644678534346 0.000223238982641124)
(2.57864750903603e-06 0.000910053506126972 0.000259947047527925)
(-7.12395663953229e-07 0.000972912055115214 0.000293521368963106)
(-8.30860907547527e-07 0.00103242542475621 0.000325233085342478)
(0.000170511745358502 0.000218916041165862 5.48659350543236e-05)
(0.000112208140857905 0.000373938450504028 8.87817345056602e-05)
(6.85344078704097e-05 0.000561479404926471 0.000129688078766539)
(3.83948460987807e-05 0.000684385127560916 0.000172038039871356)
(1.87082392413894e-05 0.00078151063264514 0.000210980540291377)
(6.91019870421444e-06 0.000861492462087053 0.000247068475926804)
(8.99360636539933e-07 0.000928308184790118 0.000280167022536847)
(-1.20385751068527e-06 0.000986623930875126 0.000310479582557241)
(-8.62753640016888e-07 0.00104238251499866 0.000339080412917566)
(0.000191069665553011 0.000143271330908603 5.04382688992896e-05)
(0.000128959303788738 0.000308688562780948 8.09865432393598e-05)
(8.25702062344183e-05 0.000499081874170491 0.000118717607671543)
(4.94810780233307e-05 0.000625400926859441 0.000160746783372357)
(2.70572925518559e-05 0.000726296736917856 0.000198827736492942)
(1.24872749914588e-05 0.000810712489945516 0.000234319771534787)
(3.90964287727741e-06 0.000882741096839545 0.000267112724220992)
(-2.63447068881138e-07 0.00094492848037575 0.0002971267457413)
(-1.47791176799822e-06 0.00100013232209852 0.000324499927478621)
(-8.48529505211096e-07 0.00105289137366969 0.00035023419571607)
(0.000205815081929547 6.32156441500542e-05 3.80099511207247e-05)
(0.00014187383766179 0.00024568388421099 6.9431264032695e-05)
(9.3766176715147e-05 0.000437947353185467 0.000109606031682983)
(5.95979086897325e-05 0.00056668325034756 0.000149504013538407)
(3.53893992864975e-05 0.000670838766383398 0.000186974821485294)
(1.87260922141742e-05 0.000759021011972039 0.000221997429493475)
(7.95117867965426e-06 0.000835365647366823 0.000254512674558432)
(1.76120072994297e-06 0.000902500276580466 0.000284431342806469)
(-1.04022498325787e-06 0.000961561223252542 0.000311641428526518)
(-1.59449212637271e-06 0.00101426884247958 0.000336300875768809)
(-7.94659677770079e-07 0.0010643861830379 0.000359375398110223)
(0.000211582619857092 -8.06033158066283e-06 2.25095258509174e-05)
(0.000149543261766239 0.000184341955576148 5.56406093593048e-05)
(0.000101992094759048 0.000376479859737266 9.86839814988009e-05)
(6.81688789703652e-05 0.000507215054763241 0.000137936363283035)
(4.31036116496846e-05 0.000614530369442552 0.00017527309803523)
(2.50712286004036e-05 0.000706416447166327 0.000210173682412309)
(1.26281707782763e-05 0.000786779002519285 0.000242564238035053)
(4.66713675249457e-06 0.000858313924180234 0.000272425991403735)
(2.48134731842343e-07 0.000922296067595033 0.000299695133392058)
(-1.55514864914975e-06 0.000978986103995194 0.000324319924780966)
(-1.65178978826037e-06 0.00102957962958086 0.000346485989696424)
(-7.39450812412138e-07 0.0010771901270697 0.000367011824610741)
(4.63980828228085e-06 0.00109654502634605 9.11859042042501e-05)
(1.43398863839576e-05 0.000818708305107829 9.070129225485e-05)
(4.20352922820502e-07 0.00100278726845896 0.00014185365376077)
(2.49251131136455e-05 0.000703637463908712 8.77779414481411e-05)
(5.61690766047044e-06 0.000839343346577418 0.0001369801614031)
(-6.42990638294792e-07 0.00102571462685665 0.000192114297828242)
(4.25493951235698e-05 0.00062388787681257 8.29533692218401e-05)
(1.67900384051437e-05 0.000753232229625885 0.000130844840520615)
(1.81638147518565e-06 0.000926468157869421 0.000184766220570028)
(-9.38427051800657e-07 0.00103839160747129 0.000236425679019613)
(6.46468012453541e-05 0.000547331744664255 7.73875042550487e-05)
(3.117625927836e-05 0.000680281747957418 0.000124289687275845)
(9.40776181847432e-06 0.000855237381664623 0.000176392866260033)
(1.04526734442931e-07 0.000961064264737702 0.000227044001144881)
(-1.13819720079043e-06 0.00104698081514492 0.00027256270757122)
(8.93147905553043e-05 0.000471863961582461 7.25316713664148e-05)
(4.8564509761564e-05 0.000607918765196393 0.000117290600452743)
(2.02763027072781e-05 0.0007883432365053 0.000167459481814174)
(5.07889637210438e-06 0.00089845216104057 0.00021653452733515)
(-9.66120345858103e-07 0.0009811909235006 0.000260822532908385)
(-1.22800660972737e-06 0.0010537470420403 0.000301478190953127)
(0.000115715556622312 0.000395970062958527 6.75679904277171e-05)
(6.84534308188469e-05 0.000536748908060368 0.000109765759106029)
(3.40116358149969e-05 0.000721208486925276 0.000158695520612123)
(1.30632966773813e-05 0.0008376797037449 0.000205297718899979)
(2.21981550010209e-06 0.000925135864436354 0.000248489811037838)
(-1.63711729593238e-06 0.000995500971751037 0.00028754337136666)
(-1.26480489429693e-06 0.00106002833901231 0.000324137483232184)
(0.000142632337565432 0.000319288326238843 6.28073887652326e-05)
(8.92086601711326e-05 0.000467373454029777 0.000102306653901718)
(4.93282688473496e-05 0.000655058003167737 0.00014902981278558)
(2.3344387192546e-05 0.000776021924430715 0.000193786858601969)
(7.87916807435694e-06 0.000869637068192522 0.000235524987289233)
(2.61351396421516e-07 0.000944402710970948 0.000273738441895069)
(-2.08341926227347e-06 0.00100718172435642 0.000308670937509236)
(-1.27627435875142e-06 0.00106636579455402 0.000341629869555547)
(0.000168359653103858 0.000240964143191663 5.83749845791891e-05)
(0.00010947596935401 0.00039880080833239 9.49010992932035e-05)
(6.50401356615593e-05 0.000589822295328505 0.000138723950064611)
(3.48769813912932e-05 0.000714454713052248 0.000181965576371383)
(1.54156295683341e-05 0.00081257993663408 0.000222264366542119)
(4.16846454979189e-06 0.000893046404112143 0.000259642936689107)
(-1.09186145555745e-06 0.000959888761550438 0.000293970540892634)
(-2.38407354811227e-06 0.00101787561986461 0.000325427438525824)
(-1.24613343253342e-06 0.00107310895227767 0.000355096691926503)
(0.000191279011367359 0.00015907827993804 5.39837514079023e-05)
(0.000127873702024908 0.000329582381907526 8.7143425562844e-05)
(8.01015202028082e-05 0.000524464988783434 0.000127416009110513)
(4.66073652382336e-05 0.00065280207964142 0.0001698265780872)
(2.39756562732563e-05 0.000754734491702346 0.000208952057863763)
(9.60582457587148e-06 0.000839698549386359 0.000245545433536077)
(1.52197526265675e-06 0.000911862180600868 0.000279426834809085)
(-1.99853863875285e-06 0.000973812265890493 0.00031049521784198)
(-2.51119836029028e-06 0.00102848925150729 0.000338859421669779)
(-1.18460035100977e-06 0.00108058786657208 0.000365526686006426)
(0.000209385243703531 7.48356842003246e-05 4.88849790059383e-05)
(0.000142971381939598 0.000259962911937904 7.82847416881802e-05)
(9.34117265371931e-05 0.000458519202365365 0.000115431229298672)
(5.75998332848602e-05 0.000590590159632732 0.000157442531586055)
(3.2708669039533e-05 0.000696253664131651 0.000195781034595984)
(1.5923518067251e-05 0.000785168269224573 0.000231762334595795)
(5.39271870516201e-06 0.000861774651029206 0.000265240169850462)
(-3.2404493247456e-07 0.000928822692208775 0.000296116955428712)
(-2.54183074546168e-06 0.000987512355503613 0.000324253181373283)
(-2.4858976963946e-06 0.00103963996631187 0.000349783533249413)
(-1.08938046357317e-06 0.00108912935325835 0.000373696555327636)
(0.000219569287819889 -1.78304812492327e-05 3.40220450875347e-05)
(0.000152923501644688 0.000191566878634893 6.48993838603331e-05)
(0.00010302220329749 0.00039311607606253 0.000104583233334779)
(6.69741000862108e-05 0.000528217335395317 0.000144895004209988)
(4.09012294029857e-05 0.000637404816421402 0.000182815720004217)
(2.24768291854503e-05 0.000730086462658955 0.000218433849343286)
(1.00494884596797e-05 0.000810698887348425 0.000251649848328662)
(2.38813918981455e-06 0.000882143509987946 0.000282373774653225)
(-1.55039794258956e-06 0.000945797747748863 0.000310489605003327)
(-2.79626464817286e-06 0.00100198486828833 0.000335911743605189)
(-2.34574714725708e-06 0.00105192471464706 0.000358829493348419)
(-9.68724182233091e-07 0.00109903734985315 0.000380173937199003)
(0.000216824319359657 -0.000104750889260524 1.72235436317957e-05)
(0.000156094066174916 0.000123360436882343 4.88315230218379e-05)
(0.000108718751692995 0.000326569247627373 9.20241584566454e-05)
(7.4153694502048e-05 0.00046456590878245 0.000131804858320003)
(4.79681504858582e-05 0.000577377907232416 0.000169867128878484)
(2.86983058846654e-05 0.00067400182483989 0.000205550162969144)
(1.49994317308202e-05 0.000758669640119663 0.000238742567595872)