/*--------------------------------*- C++ -*----------------------------------*\
  =========                 |
  \\      /  F ield         | OpenFOAM: The Open Source CFD Toolbox
   \\    /   O peration     | Website:  https://openfoam.org
    \\  /    A nd           | Version:  12
     \\/     M anipulation  |
\*---------------------------------------------------------------------------*/
/*   Windows 32 and 64 bit porting by blueCAPE: http://www.bluecape.com.pt   *\
|  Based on Windows porting (2.0.x v4) by Symscape: http://www.symscape.com   |
\*---------------------------------------------------------------------------*/
FoamFile
{
    format      ascii;
    class       surfaceScalarField;
    location    "0";
    object      phi;
}
// * * * * * * * * * * * * * * * * * * * * * * * * * * * * * * * * * * * * * //

dimensions      [0 3 -1 0 0 0 0];

internalField   nonuniform List<scalar> 
28770
(
-7.21685157155017e-06
1.00990608404437e-07
3.96802610696011e-09
-7.31930913197068e-06
9.75230968626883e-08
4.93357878544617e-09
-7.29769318805981e-06
2.0142977562075e-07
5.46789647770458e-09
-7.7447214567028e-06
1.08271810835023e-07
8.22532109610927e-09
-7.41962381358504e-06
9.42544781233342e-08
6.05929734858223e-09
-7.40111688186521e-06
1.94422244668507e-07
6.52363697563143e-09
-7.85458495093172e-06
1.04609524027008e-07
1.01866364973199e-08
-7.49845601331317e-06
3.03453570126157e-07
6.32968549830548e-09
-8.05364856209332e-06
2.17050520475962e-07
1.3478262397658e-08
-8.57061328286039e-06
1.2024644453705e-07
1.23678059713961e-08
-7.5181550863336e-06
9.11627536799307e-08
7.36771014773595e-09
-7.50237196560579e-06
1.87756487104231e-07
7.75216745052594e-09
-7.96214258620226e-06
1.01164890576286e-07
1.24511389380773e-08
-7.60431605295203e-06
2.93094905155387e-07
7.18645911925316e-09
-8.16767823628899e-06
2.09736462167729e-07
1.54254562904258e-08
-8.69201643585469e-06
1.16224550581871e-07
1.53643579343247e-08
-7.70067081269658e-06
4.04340195630007e-07
9.68471860102667e-09
-8.39762918512625e-06
3.32352603301728e-07
1.21727916962392e-08
-9.10029994803454e-06
2.47073661409785e-07
1.84914457145471e-08
-9.41881208863735e-06
1.32211907150512e-07
1.65863895801959e-08
-7.61527987377925e-06
8.82319437566435e-08
8.89212578690751e-09
-7.60182067997949e-06
1.81426114732019e-07
9.18453010697578e-09
-8.06777032349431e-06
9.79145397369932e-08
1.50800725544971e-08
-7.70796804391286e-06
2.83274943670036e-07
8.13262160620735e-09
-8.27931744117649e-06
2.0287088962539e-07
1.76844547791973e-08
-8.81082416797679e-06
1.12427330787191e-07
1.88306528827283e-08
-7.80866156940056e-06
3.90771669159876e-07
1.03130607440814e-08
-8.51599340319873e-06
3.20864583594593e-07
1.44216257278298e-08
-9.22896281534162e-06
2.38831507149659e-07
2.1480488142543e-08
-9.55190499649436e-06
1.27851976606932e-07
2.06044657461633e-08
-7.81242517926293e-06
5.0433998601145e-07
1.11575667245571e-08
-8.59318942517593e-06
4.50027061777775e-07
1.52775028222126e-08
-9.63057463749405e-06
3.79384845849134e-07
1.88988238464476e-08
-1.00461798405027e-05
2.74523337456768e-07
2.14244343336695e-08
-1.00438314655452e-05
1.40703060312822e-07
2.09411052756009e-08
-7.71140425169999e-06
8.54558694422552e-08
1.0667887680822e-08
-7.69986387538385e-06
1.75417747988683e-07
1.08566847277144e-08
-8.17186371393478e-06
9.48413441563824e-08
1.81434564750085e-08
-7.80976134108815e-06
2.73976841231889e-07
9.24174982344268e-09
-8.38895748761403e-06
1.96409613278631e-07
2.0328680191952e-08
-8.92744447775146e-06
1.08840590931418e-07
2.28589838545687e-08
-7.91441872178008e-06
3.77927012366622e-07
1.11041541002113e-08
-8.63190923453595e-06
3.09961731641135e-07
1.69566745973836e-08
-9.35487536691282e-06
2.31073331981538e-07
2.49500994044962e-08
-9.6820673683375e-06
1.23720857555767e-07
2.52713037452296e-08
-7.92098082020208e-06
4.87586953473889e-07
1.17394240963481e-08
-8.71350982828009e-06
4.34862413868246e-07
1.66346891870495e-08
-9.76613130261256e-06
3.66608104731776e-07
2.22007702587742e-08
-1.01878720243244e-05
2.65531585474795e-07
2.54921972729797e-08
-1.0185234841702e-05
1.36103767655245e-07
2.59032342446982e-08
-7.82168626891562e-06
6.05012215410229e-07
9.29621536090143e-09
-8.63934937616545e-06
5.67551300913687e-07
1.64498523311224e-08
-9.8547607145934e-06
5.17608214235549e-07
1.81920135737032e-08
-1.0664628122874e-05
4.24181865848433e-07
2.28028559315205e-08
-1.0660159666512e-05
2.91765836609279e-07
2.40186361113046e-08
-1.03824491795014e-05
1.45131478037192e-07
2.51734058370207e-08
-7.80697713416334e-06
8.28337827461209e-08
1.27385304924505e-08
-7.79690729916778e-06
1.69696050215705e-07
1.28026112739745e-08
-8.2748574068917e-06
9.19406571760251e-08
2.1720272795234e-08
-7.91013102746263e-06
2.65177921942714e-07
1.0608802348213e-08
-8.49701224946205e-06
1.90317365858808e-07
2.34347024497336e-08
-9.04231467896024e-06
1.05452676191767e-07
2.75602695615977e-08
-8.01831256811907e-06
3.65799990328831e-07
1.2069870904805e-08
-8.74577172469753e-06
2.99625852098123e-07
1.98871769012187e-08
-9.47847757762903e-06
2.23769538927467e-07
2.90011516554812e-08
-9.8097367605784e-06
1.19812809420437e-07
3.07147993890898e-08
-8.02728623515247e-06
4.71767834673521e-07
1.24636897776412e-08
-8.83135446748815e-06
4.20472348253085e-07
1.84372449743142e-08
-9.89880929870204e-06
3.54807535701819e-07
2.58995705315819e-08
-1.03264441783664e-05
2.56998007747969e-07
3.0244285677619e-08
-1.03234005035796e-05
1.3174958022289e-07
3.16865700833763e-08
-7.9290836656833e-06
5.8502995268073e-07
9.95351398943973e-09
-8.75923904530135e-06
5.4865213349948e-07
1.7838418763325e-08
-9.99224084775207e-06
5.00237323214016e-07
2.0484618518472e-08
-1.08144447389372e-05
4.10552153362397e-07
2.6995958424262e-08
-1.08099477207209e-05
2.82240058190914e-07
2.91432844491538e-08
-1.05279054946987e-05
1.40402083366315e-07
3.09567882901777e-08
-7.77039145887632e-06
7.06782083620368e-07
5.88562310629907e-09
-8.6151782169793e-06
6.83433745749164e-07
1.44381309935527e-08
-9.84333237195071e-06
6.5455338531434e-07
1.92006945544834e-08
-1.0879232044883e-05
5.76076765266194e-07
2.18801335290011e-08
-1.12620194105234e-05
4.5056300630044e-07
2.56527962872763e-08
-1.0955152431273e-05
2.99301293397527e-07
2.71359937878439e-08
-1.05172500027624e-05
1.46905711958441e-07
2.88513755201861e-08
-7.90249876891914e-06
8.03680069398299e-08
1.51531186713213e-08
-7.89339505745158e-06
1.64254015255117e-07
1.50669687777496e-08
-8.37723104759976e-06
8.92080653835324e-08
2.59035388674374e-08
-8.00949793967399e-06
2.56853359792504e-07
1.22089681599713e-08
-8.60393291498079e-06
1.84583416073625e-07
2.70798833814171e-08
-9.15590930937485e-06
1.02250820909362e-07
3.30634533323341e-08
-8.12075810114904e-06
3.54372453863864e-07
1.32502584692169e-08
-8.8579921584849e-06
2.89836422262491e-07
2.33094384762797e-08
-9.60023592352391e-06
2.1689206740816e-07
3.37529346617851e-08
-9.93538111867686e-06
1.1611868680393e-07
3.70852330548573e-08
-8.13173927316894e-06
4.56863232445915e-07
1.33889628254248e-08
-8.94712450658661e-06
4.06884300845649e-07
2.05806232327156e-08
-1.00290701903667e-05
3.43766490932821e-07
3.01502915609522e-08
-1.04623693638456e-05
2.48928996039148e-07
3.58093512522004e-08
-1.04587737842701e-05
1.27634729037221e-07
3.84525377408925e-08
-8.03426416171329e-06
5.66201301198964e-07
1.07461690191739e-08
-8.87661416874547e-06
5.30797186322023e-07
1.95130383085115e-08
-1.01270052803205e-05
4.83591567407524e-07
2.44167093392008e-08
-1.09609468929504e-05
3.97482889866793e-07
3.1915909889424e-08
-1.09563091626637e-05
2.73220530644735e-07
3.51338172971149e-08
-1.06698624454412e-05
1.35930394102228e-07
3.77121452770864e-08
-7.87553694040084e-06
6.83507502285438e-07
6.66712644855297e-09
-8.73332619178261e-06
6.60831672518306e-07
1.59210863406448e-08
-9.97961410350322e-06
6.32799526812754e-07
2.15569880114142e-08
-1.10312585000975e-05
5.57216364087308e-07
2.58459315085752e-08
-1.14196079756924e-05
4.35887330278685e-07
3.09363797148029e-08
-1.11083232094603e-05
2.89533249328486e-07
3.3182036771477e-08
-1.06637148958841e-05
1.42114810030009e-07
3.53060391835221e-08
-7.70809162240533e-06
8.08544208614991e-07
3.18825480988321e-09
-8.5736003837898e-06
7.97153540806379e-07
1.0850300361406e-08
-9.77797593074866e-06
7.88481630512538e-07
1.76356974067915e-08
-1.08119289606245e-05
7.27005128646525e-07
2.13652198772227e-08
-1.1429599421547e-05
6.10004089173562e-07
2.53725082866042e-08
-1.15043569569829e-05
4.60622339593651e-07
2.87913989129392e-08
-1.10627166148213e-05
3.01702377156337e-07
3.04126839641566e-08
-1.05520387992037e-05
1.47477635461591e-07
3.1629461310835e-08
-7.99853000756292e-06
7.80643199945476e-08
1.79664378048612e-08
-7.98980845967047e-06
1.59098236596947e-07
1.76826525549303e-08
-8.47952361780671e-06
8.66403726006464e-08
3.08047779155912e-08
-8.10828349259233e-06
2.48997180269623e-07
1.40418223228503e-08
-8.71021996894485e-06
1.79215557692206e-07
3.13459566807495e-08
-9.26874527836957e-06
9.92182650826382e-08
3.95206769452514e-08
-8.2221687573735e-06
3.43587937086271e-07
1.46754224398376e-08
-8.9690259547902e-06
2.80549281971845e-07
2.72762572782992e-08
-9.72065580444991e-06
2.10408830924512e-07
3.93411448395123e-08
-1.00595058696304e-05
1.12626268290571e-07
4.45613343818899e-08
-8.23478135049955e-06
4.42831103770646e-07
1.45826863966403e-08
-9.06125471823051e-06
3.94092033340157e-07
2.31241085456679e-08
-1.01574130378712e-05
3.33453315756595e-07
3.50903247006471e-08
-1.05961489832376e-05
2.4130593826205e-07
4.2344648094431e-08
-1.05918292654817e-05
1.23750188456494e-07
4.6389844150381e-08
-8.13763735195921e-06
5.48486554845288e-07
1.17490704335301e-08
-8.99190814910214e-06
5.13958612172427e-07
2.16077764829538e-08
-1.02593309507331e-05
4.67961747710608e-07
2.87101482459597e-08
-1.11046602338581e-05
3.85117647556932e-07
3.76742003106999e-08
-1.10997183439671e-05
2.64695362486592e-07
4.21572671627671e-08
-1.08087512269653e-05
1.31708430246289e-07
4.56322271520353e-08
-7.97853348816519e-06
6.6160550820098e-07
7.59154936990138e-09
-8.84899572037327e-06
6.39536435640295e-07
1.76756002648316e-08
-1.01128772222613e-05
6.12244172330005e-07
2.41226046587481e-08
-1.11797532737666e-05
5.39655786157911e-07
3.07375083036804e-08
-1.15735925847669e-05
4.21987152012123e-07
3.71329542584949e-08
-1.12578106208072e-05
2.80298907912695e-07
4.02519494374437e-08
-1.08064489814933e-05
1.37587671815986e-07
4.28576606233665e-08
-7.81060945965578e-06
7.81941688235588e-07
4.08292361186614e-09
-8.68947003494761e-06
7.70898892287294e-07
1.24687156661421e-08
-9.91177476628756e-06
7.62440080371553e-07
2.00784943792322e-08
-1.09613632713337e-05
7.0300542800897e-07
2.52012253348568e-08
-1.15884879801469e-05
5.90017771805907e-07
3.06028641645878e-08
-1.16645172644195e-05
4.45567970484737e-07
3.50610131338653e-08
-1.12164623295624e-05
2.91846125399908e-07
3.71956508087086e-08
-1.0697979730002e-05
1.42662242913404e-07
3.85838843048357e-08
-7.66518077287339e-06
9.08885038011907e-07
1.94553971557939e-09
-8.53689388874222e-06
9.08733844839022e-07
7.73499417564402e-09
-9.73638031801713e-06
9.18926279242375e-07
1.49461943147693e-08
-1.0717261737562e-05
8.7400524957674e-07
2.05844318940822e-08
-1.13176982981409e-05
7.66276894132249e-07
2.4899403987607e-08
-1.16239535990233e-05
6.22023444870481e-07
2.8997872544542e-08
-1.15734299188355e-05
4.63139691789015e-07
3.20018991237991e-08
-1.10914931980805e-05
3.02340004195229e-07
3.31688471250427e-08
-1.05504552364954e-05
1.4760345610658e-07
3.33603407642417e-08
-8.09569346179254e-06
7.59097309627412e-08
2.12532911616049e-08
-8.08673967011488e-06
1.54351312074417e-07
2.06437501326912e-08
-8.58231806136904e-06
8.41993510649127e-08
3.65610537836883e-08
-8.2068904787728e-06
2.41597728938579e-07
1.61069680610234e-08
-8.81643924127467e-06
1.74208471626083e-07
3.63333043440704e-08
-9.38139834613834e-06
9.63409807552392e-08
4.71163494914513e-08
-8.32299000115407e-06
3.33369281082128e-07
1.64485319591524e-08
-9.07940456010975e-06
2.71835661389379e-07
3.17997253051839e-08
-9.84029199616595e-06
2.04277542468895e-07
4.59222940261816e-08
-1.01826582552799e-05
1.09317869968648e-07
5.33546233499792e-08
-8.3368410110372e-06
4.29620879186599e-07
1.60260295001626e-08
-9.17409784749422e-06
3.82005486681215e-07
2.60616744827216e-08
-1.02843840316822e-05
3.23780458653402e-07
4.08749724024757e-08
-1.0728324192731e-05
2.34105260558242e-07
5.00367278305666e-08
-1.0723076064005e-05
1.2008517593037e-07
5.57222937391158e-08
-8.23966087340604e-06
5.31828112550845e-07
1.30257843348485e-08
-9.10565745605394e-06
4.98082627468651e-07
2.43406199636601e-08
-1.03897851497122e-05
4.5352355466052e-07
3.35073051553242e-08
-1.12461221157487e-05
3.73424650645394e-07
4.44327223366081e-08
-1.12406806266706e-05
2.56645295089635e-07
5.04109943850894e-08
-1.09450292805253e-05
1.27727892351698e-07
5.49391429817143e-08
-8.07980225529821e-06
6.41021499135671e-07
8.73309021906014e-09
-8.96264322137872e-06
6.19491841996736e-07
1.98625670217882e-08
-1.02435225004434e-05
5.92894816005085e-07
2.73191242951028e-08
-1.13254388961303e-05
5.23034183149138e-07
3.6478394135156e-08
-1.1724481963281e-05
4.0884899804302e-07
4.44091388484091e-08
-1.14040729143057e-05
2.71580273009288e-07
4.85468965632163e-08
-1.09458512945056e-05
1.33311835244181e-07
5.17219040739984e-08
-7.91106804059201e-06
7.56941726927864e-07
5.12165172787624e-09
-8.80293314924137e-06
7.461902860063e-07
1.43999934216884e-08
-1.00425757339422e-05
7.37967063472611e-07
2.27528233695435e-08
-1.11076712113691e-05
6.80380238117447e-07
2.97050871503218e-08
-1.17437380159855e-05
5.71191067918752e-07
3.67826525210145e-08
-1.18208321843356e-05
4.3134209307721e-07
4.24038035533597e-08
-1.13662898387982e-05
2.82533121628966e-07
4.51330772693351e-08
-1.08399648080176e-05
1.38112511546289e-07
4.67292819405531e-08
-7.76510773517303e-06
8.78980626123598e-07
2.88737448874754e-09
-8.65029527300364e-06
8.78826622633442e-07
9.55586406100351e-09
-9.86762383893536e-06
8.88791103957443e-07
1.7360373451147e-08
-1.08636254425511e-05
8.45048470416167e-07
2.43982687530338e-08
-1.14735238948909e-05
7.41037784644665e-07
3.00057551735787e-08
-1.17846767794029e-05
6.0162729611998e-07
3.52657543395825e-08
-1.17335717879522e-05
4.47983070758955e-07
3.90650357731799e-08
-1.12445798655058e-05
2.92454957047635e-07
4.04887238196155e-08
-1.06952759405384e-05
1.42783472665332e-07
4.06202552928029e-08
-7.65015683668876e-06
1.00689021991143e-06
1.74451616704942e-09
-8.51654863134725e-06
1.018182896607e-06
6.05186039163537e-09
-9.71949244016207e-06
1.04624991736984e-06
1.22930039752357e-08
-1.0682109594078e-05
1.01692602998111e-06
1.93853974734768e-08
-1.12100620866453e-05
9.18782616584459e-07
2.44939597626306e-08
-1.14852813707207e-05
7.79804757821211e-07
2.86414623276215e-08
-1.16643000852013e-05
6.24594626698641e-07
3.23335775746816e-08
-1.15859076628313e-05
4.6357023243868e-07
3.46909125616761e-08
-1.10926703624608e-05
3.02474309646896e-07
3.49901732371918e-08
-1.05410288853567e-05
1.47580178430887e-07
3.40424031621559e-08
-8.19468052959692e-06
7.38727462444284e-08
2.51139078986562e-08
-8.18485637189339e-06
1.50001465692722e-07
2.40245243991123e-08
-8.68626180919901e-06
8.18639001421597e-08
4.3332679089457e-08
-8.30602561403828e-06
2.3447881387387e-07
1.9007155694483e-08
-8.92319759775751e-06
1.69401967981722e-07
4.21990069499753e-08
-9.49448859151714e-06
9.35856163813699e-08
5.60652092529313e-08
-8.42382374056215e-06
3.2365695734254e-07
1.87739574519269e-08
-9.18986715743503e-06
2.63865244231685e-07
3.69122621029345e-08
-9.95974920881444e-06
1.98441976449748e-07
5.36890264075721e-08
-1.03054349584884e-05
1.06175444972721e-07
6.37171178037354e-08
-8.43836697181727e-06
4.1717193287808e-07
1.77226835307455e-08
-9.2860973178065e-06
3.70463648897381e-07
2.98193953809384e-08
-1.04105813294359e-05
3.14594375669365e-07
4.76796179357269e-08
-1.0859483167624e-05
2.27289270422302e-07
5.91093547401098e-08
-1.08530631009978e-05
1.16624462034696e-07
6.67166501242901e-08
-8.34075926842774e-06
5.16180359361393e-07
1.45382370275521e-08
-9.21828718067473e-06
4.83120812913999e-07
2.75397160929562e-08
-1.0518998483965e-05
4.39981136650826e-07
3.90736025858164e-08
-1.13859214885826e-05
3.62391663042854e-07
5.23873270667744e-08
-1.13797377536286e-05
2.49048800347468e-07
6.01297595641272e-08
-1.10791829171082e-05
1.23979350190048e-07
6.58960761129212e-08
-8.17977464867445e-06
6.21703361684734e-07
1.00964603844049e-08
-9.07481361546229e-06
6.00591103278526e-07
2.26869863836241e-08
-1.03726071674021e-05
5.74690738771867e-07
3.22573101467283e-08
-1.14688407846945e-05
5.07103887219768e-07
4.32290366834245e-08
-1.18728116425461e-05
3.96437713438204e-07
5.29691851269879e-08
-1.15475928042992e-05
2.63357726672017e-07
5.83004227499415e-08
-1.10823443648623e-05
1.29281983490836e-07
6.21494681123839e-08
-8.00986214298726e-06
7.3348694792353e-07
6.32798617175998e-09
-8.91450073669518e-06
7.2291901582458e-07
1.68727350521875e-08
-1.01708476279276e-05
7.15084872693982e-07
2.59436119937179e-08
-1.12514523783569e-05
6.59029064175338e-07
3.51044889726265e-08
-1.18958879593129e-05
5.53415806115733e-07
4.40604235674937e-08
-1.19737844229107e-05
4.17914150548707e-07
5.10266324145137e-08
-1.15126270102621e-05
2.73743842182299e-07
5.44513632468221e-08
-1.09783524387592e-05
1.33812298386251e-07
5.62964612953771e-08
-7.86304943422784e-06
8.50937615845581e-07
3.94517687634427e-09
-8.76141949365798e-06
8.5069617932075e-07
1.17392847712835e-08
-9.99586978664347e-06
8.60509216601414e-07
2.01029670097306e-08
-1.10070015371206e-05
8.17659170511054e-07
2.88491034500739e-08
-1.16258654271198e-05
7.17230301296102e-07
3.60062842558339e-08
-1.19415523288799e-05
5.82379994800758e-07
4.26190411362384e-08
-1.18896378997083e-05
4.33667135876061e-07
4.73348870803913e-08
-1.13935113502317e-05
2.83115518595856e-07
4.90606547727993e-08
-1.0835908672833e-05
1.38228943730253e-07
4.91321373963614e-08
-7.7475979162724e-06
9.73752600824063e-07
2.66851211376303e-09
-8.6274587208281e-06
9.84655149556575e-07
7.96823703754151e-09
-9.84820726249772e-06
1.01187767343742e-06
1.51833861913587e-08
-1.08259992136769e-05
9.83041346666417e-07
2.32562350895215e-08
-1.13625881697074e-05
8.88412849306172e-07
2.95483274783077e-08
-1.16425950609487e-05
7.54148703812733e-07
3.47969157822226e-08
-1.1824583956514e-05
6.04109293707127e-07
3.94222473372963e-08
-1.17451137168655e-05
4.48393507585406e-07
4.23315712980487e-08
-1.1244620051492e-05
2.92586163507359e-07
4.26348388603094e-08
-1.06845433833259e-05
1.42765095953937e-07
4.13688075884821e-08
-7.65872111838261e-06
1.10212649949108e-06
2.02708965342363e-09
-8.51657163036238e-06
1.12548317541842e-06
5.41209468666984e-09
-9.72085450748828e-06
1.17042775868159e-06
1.12616087673745e-08
-1.06855600854445e-05
1.15619872547881e-06
1.80800857599666e-08
-1.11857302349372e-05
1.06814182536163e-06
2.38867349206623e-08
-1.13737457987709e-05
9.3408875798027e-07
2.8274509014414e-08
-1.15136490259793e-05
7.82446701863964e-07
3.19177328360661e-08
-1.16645553937097e-05
6.24838929922889e-07
3.49461232222647e-08
-1.15831054620514e-05
4.63591783872614e-07
3.64694049017313e-08
-1.10857582594607e-05
3.02427965406029e-07
3.57492422358327e-08
-1.05336182636726e-05
1.47512281613403e-07
3.37379560910943e-08
-8.2962897949528e-06
7.1935053725653e-08
2.96738302995062e-08
-8.28483976656704e-06
1.45872212732973e-07
2.79835270449252e-08
-8.79210387345941e-06
7.96407099640372e-08
5.13148528510363e-08
-8.40654092235873e-06
2.27571950715312e-07
2.29443737232481e-08
-9.03116734548569e-06
1.64741053729694e-07
4.91166757603903e-08
-9.60871920976842e-06
9.09384053260009e-08
6.66244557003293e-08
-8.52527700418534e-06
3.14487362990983e-07
2.1444188754804e-08
-9.30094132893724e-06
2.56491532950263e-07
4.29912529062458e-08
-1.00796974102169e-05
1.9286371927264e-07
6.28686204782194e-08
-1.04284887769596e-05
1.0317300428584e-07
7.59455443073899e-08
-8.53987192721502e-06
4.05430839731202e-07
1.97304770177816e-08
-9.39833352247573e-06
3.59276794008945e-07
3.55980437490026e-08
-1.0536626467978e-05
3.05677792434011e-07
5.57210438516177e-08
-1.09902591451304e-05
2.20811578313596e-07
6.98283462556039e-08
-1.09823842678999e-05
1.13349921295363e-07
7.96878061336698e-08
-8.44137757982447e-06
5.01501234134137e-07
1.62883798027051e-08
-9.33027712591413e-06
4.69000503284728e-07
3.11751113923922e-08
-1.06476514871462e-05
4.27339492112221e-07
4.57266509315325e-08
-1.15246885010288e-05
3.51956037525775e-07
6.17792247807788e-08
-1.15174742450093e-05
2.41875716664455e-07
7.15938869893805e-08
-1.12117324946415e-05
1.20448687810675e-07
7.88168012110227e-08
-8.27887854379263e-06
6.03613671172882e-07
1.16699499434608e-08
-9.1859454195175e-06
5.82816669899704e-07
2.5973529799987e-08
-1.05004466431311e-05
5.57553488401113e-07
3.78061219039136e-08
-1.16106117587612e-05
4.92065282865672e-07
5.11702773804043e-08
-1.20191622246104e-05
3.84729424582161e-07
6.30566360696156e-08
-1.16888836046442e-05
2.55609697643012e-07
6.9789539493348e-08
-1.12163740729127e-05
1.25489245682646e-07
7.44358949145612e-08
-8.10741889683691e-06
7.1153600596625e-07
7.72348910036224e-09
-9.02462295049598e-06
7.01061581639603e-07
1.97474866794499e-08
-1.02976442608614e-05
6.93282754229318e-07
3.08908832267614e-08
-1.13927505939077e-05
6.38907257959222e-07
4.17513032619401e-08
-1.20454682091135e-05
5.36603428360437e-07
5.26427571618911e-08
-1.21238825851436e-05
4.05250437294752e-07
6.11738965903504e-08
-1.16559181631871e-05
2.65458866402176e-07
6.54139018343644e-08
-1.1113519715677e-05
1.29759070694142e-07
6.75568751991259e-08
-7.95938983118513e-06
8.24672724507848e-07
5.15402636440198e-09
-8.87068830796215e-06
8.24288783287062e-07
1.4226385940812e-08
-1.01221272248809e-05
8.33629116366778e-07
2.45851675702341e-08
-1.11479258473553e-05
7.91696249845205e-07
3.41999317696508e-08
-1.17752338295871e-05
6.94782452719582e-07
4.31052851023615e-08
-1.20950709080245e-05
5.64226718621828e-07
5.12655766804596e-08
-1.20420761681261e-05
4.2016164842935e-07
5.70463164574869e-08
-1.15386776695027e-05
2.74301535486813e-07
5.91276832342537e-08
-1.09726689771646e-05
1.33922861712493e-07
5.91331335915713e-08
-7.8431585010879e-06
9.42723348963833e-07
3.7742765505098e-09
-8.73616053914091e-06
9.53278626126598e-07
1.00638659495253e-08
-9.97439815205774e-06
9.79347405497441e-07
1.90912697262845e-08
-1.09670633799754e-05
9.50999721053188e-07
2.7825714036522e-08
-1.15117432709283e-05
8.59755008600584e-07
3.54785492218426e-08
-1.1796170846191e-05
7.29945795498313e-07
4.20151946072926e-08
-1.19807976653194e-05
5.84772948531413e-07
4.77258358871244e-08
-1.1900002945967e-05
4.34059837375646e-07
5.12787864551799e-08
-1.1392168438542e-05
2.83243785669285e-07
5.15932807122846e-08
-1.08236572657843e-05
1.38214803882092e-07
5.0030292950876e-08
-7.75372089737515e-06
1.06578375066477e-06
2.96809050667099e-09
-8.62486599441941e-06
1.08846639898835e-06
7.15104536499193e-09
-9.84726635908554e-06
1.13166632671471e-06
1.45907203861625e-08
-1.08271790744066e-05
1.11767636442998e-06
2.21665985644714e-08
-1.13357844007315e-05
1.0327360966952e-06
2.89862032964095e-08
-1.15276975004119e-05
9.03275398559887e-07
3.43723539921699e-08
-1.16703729355563e-05
7.56726734099045e-07
3.89022791674069e-08
-1.18237249650932e-05
6.0435156455777e-07
4.26326026400939e-08
-1.17410708611185e-05
4.48421166732469e-07
4.44609724055024e-08
-1.123640705034e-05
2.92550510782025e-07
4.3497326648409e-08
-1.06759333467506e-05
1.42706433907253e-07
4.09766162552904e-08
-7.68331932024066e-06
1.19411543876993e-06
2.75449783789088e-09
-8.53439450305793e-06
1.23008708546559e-06
5.7438827995743e-09
-9.73849397444935e-06
1.29160914119961e-06
1.101375551599e-08
-1.07065557876779e-05
1.2926988263693e-06
1.71789278766989e-08
-1.12050039488489e-05
1.21468175236111e-06
2.30924985091892e-08
-1.13568536388684e-05
1.08572128545534e-06
2.78302514195415e-08
-1.14011553271824e-05
9.36937152262883e-07
3.14486237035893e-08
-1.15096347915712e-05
7.82537620124555e-07
3.43927526810251e-08
-1.1657935346985e-05
6.24742946729938e-07
3.65944214250624e-08
-1.15758855731012e-05
4.63483360215868e-07
3.71780902696971e-08
-1.10779948970534e-05
3.02292182403136e-07
3.54655940748624e-08
-1.0528528876254e-05
1.47391139621298e-07
3.2542306334822e-08
-8.40143610079276e-06
7.00840088274168e-08
3.5061909781758e-08
-8.38747832886952e-06
1.41919482752182e-07
3.26537399393994e-08
-8.90068873742131e-06
7.75073717590718e-08
6.07509104947253e-08
-8.50902096945853e-06
2.20906169003364e-07
2.74456793782517e-08
-9.14112209353307e-06
1.60291457081767e-07
5.72871114792241e-08
-9.724905308284e-06
8.84016571143491e-08
7.90988860779201e-08
-8.6280933917312e-06
3.05862507238389e-07
2.45253540804295e-08
-9.41321235588948e-06
2.49693731373548e-07
5.02622703402145e-08
-1.02008793075572e-05
1.87508028901858e-07
7.37285338568774e-08
-1.05525636175909e-05
1.00299969199409e-07
9.0398913961701e-08
-8.64199682305018e-06
3.94364119021723e-07
2.22475958092068e-08
-9.51121268438051e-06
3.48824724509232e-07
4.19896266386629e-08
-1.06632251766909e-05
2.97207329494772e-07
6.52458702047695e-08
-1.11213596036232e-05
2.14638586448213e-07
8.25030743830181e-08
-1.1111697889743e-05
1.10244633701725e-07
9.50140725953134e-08
-8.54201239988276e-06
4.8773762373956e-07
1.83274407233894e-08
-9.44209600018037e-06
4.55646249946976e-07
3.51792792980248e-08
-1.07759525642925e-05
4.15686208428609e-07
5.38900822189631e-08
-1.1663085722502e-05
3.4203283339069e-07
7.28965059986681e-08
-1.16545227784061e-05
2.35090282718541e-07
8.51361626585581e-08
-1.13432412346325e-05
1.17120550454274e-07
9.4075605170209e-08
-8.37756636972807e-06
5.86705045552534e-07
1.34834143850184e-08
-9.29652062274654e-06
5.6614122428471e-07
2.97222448143971e-08
-1.06276360651334e-05
5.41427791766298e-07
4.42755595366979e-08
-1.17514169754919e-05
4.77918339035545e-07
6.05687731213753e-08
-1.21641565805224e-05
3.73682325956846e-07
7.49663034246822e-08
-1.18284952923952e-05
2.48309417815527e-07
8.33443518361376e-08
-1.13484134756505e-05
1.21920731004466e-07
8.89348427221042e-08
-8.20416054325593e-06
6.91023689186511e-07
9.33104576486008e-09
-9.13374254048273e-06
6.80591709535503e-07
2.30138340757138e-08
-1.04232592606003e-05
6.72718011930381e-07
3.64233366368138e-08
-1.15324250462523e-05
6.19965415672275e-07
4.95796668538109e-08
-1.21930857740149e-05
5.20751887970685e-07
6.27644237958684e-08
-1.22716701591647e-05
3.9331861195092e-07
7.31345784920834e-08
-1.17966298325003e-05
2.57656993283312e-07
7.83329227429782e-08
-1.12458614675321e-05
1.25945559435437e-07
8.08314728195239e-08
-8.05456777884157e-06
8.00066649734588e-07
6.64675096218641e-09
-8.97854823510053e-06
7.99655578880687e-07
1.6988820290159e-08
-1.02467523319278e-05
8.08247095661617e-07
2.94075480271853e-08
-1.12864375934716e-05
7.67517538330024e-07
4.07916060363538e-08
-1.19220634544381e-05
6.73640359728512e-07
5.15430527374737e-08
-1.22457441713487e-05
5.4711334497072e-07
6.14520030109466e-08
-1.21913538133229e-05
4.07433885451046e-07
6.84756580359287e-08
-1.16804756531741e-05
2.65994172919156e-07
7.09760396001096e-08
-1.11058832188521e-05
1.29864015027009e-07
7.0906315013504e-08
-7.9372279668743e-06
9.13690925538033e-07
5.05072591206502e-09
-8.84296597460968e-06
9.23904968180748e-07
1.23426369574703e-08
-1.00985103377581e-05
9.4866792919253e-07
2.32990937647219e-08
-1.11053267007152e-05
9.21091148516225e-07
3.34527852198757e-08
-1.16580134485178e-05
8.32749588291284e-07
4.25021017782526e-08
-1.19464919479246e-05
7.07139073647502e-07
5.05130087170092e-08
-1.21333949899303e-05
5.66542404897992e-07
5.74811079851245e-08
-1.20509821366997e-05
4.20539792860735e-07
6.17864384464844e-08
-1.15356630073319e-05
2.74427038029932e-07
6.21173398984207e-08
-1.0958611732313e-05
1.3391333869769e-07
6.01735099223919e-08
-7.84696510186217e-06
1.03164866053905e-06
4.3183734537377e-09
-8.73111057105579e-06
1.0535475997008e-06
9.74931868301156e-09
-9.97115333630309e-06
1.09504750053056e-06
1.82500539496493e-08
-1.09656886471434e-05
1.08154790562296e-06
2.70519142852323e-08
-1.14825429324887e-05
9.99363846908951e-07
3.49744685568972e-08
-1.16780136285143e-05
8.74221827742218e-07
4.15176637848641e-08
-1.18231315289825e-05
7.32463499602418e-07
4.70821511191956e-08
-1.19785852331402e-05
5.85012511129492e-07
5.16323084415313e-08
-1.1894463721292e-05
4.34093606170899e-07
5.38208182097359e-08
-1.13823998464973e-05
2.83218281657121e-07
5.25816944260474e-08
-1.08135375689326e-05
1.38164504449979e-07
4.94690985407698e-08
-7.77595807112947e-06
1.15450962051411e-06
3.91238354902924e-09
-8.64033317621327e-06
1.18928254562796e-06
8.09002076824455e-09
-9.86247449938991e-06
1.24859336236925e-06
1.42039241618941e-08
-1.08455372306145e-05
1.24977681257427e-06
2.14709401763706e-08
-1.13528014542038e-05
1.17438653511438e-06
2.83128298383117e-08
-1.15083913624298e-05
1.04983746331902e-06
3.39608769276462e-08
-1.15545137379045e-05
9.06079938815196e-07
3.83765732237777e-08
-1.16652034254309e-05
7.5683982199725e-07
4.19815527477593e-08
-1.18158058402845e-05
6.04275750469822e-07
4.46473438822438e-08
-1.17324940083029e-05
4.48332405902744e-07
4.5286511610063e-08
-1.12273168690786e-05
2.92433931550749e-07
4.30909155844953e-08
-1.06695964501512e-05
1.42598508129902e-07
3.94448479509872e-08
-7.71793999473714e-06
1.28299377646908e-06
3.17924218479631e-09
-8.56550708529374e-06
1.33185080468894e-06
6.57723870305826e-09
-9.76955242098833e-06
1.4102808290449e-06
1.1033321819422e-08
-1.07391690820624e-05
1.42663697671969e-06
1.66522412288481e-08
-1.12385881300835e-05
1.3585242879237e-06
2.23374748939205e-08
-1.1384381933528e-05
1.23488942458592e-06
2.72417335662406e-08
-1.13868900598555e-05
1.08895874381045e-06
3.10195313333316e-08
-1.13969717183142e-05
9.36894322805894e-07
3.38136005048664e-08
-1.15018255675812e-05
7.82327957236747e-07
3.59002809711301e-08
-1.16499584956664e-05
6.24564258232395e-07
3.71666663217507e-08
-1.15677713135121e-05
4.63288196071435e-07
3.67862822050504e-08
-1.10696143439264e-05
3.02054411341953e-07
3.4191194409908e-08
-1.05162411538052e-05
1.47092237667812e-07
3.05706588853007e-08
-8.51117191653175e-06
6.83137230762102e-08
4.1421715822569e-08
-8.49368660789173e-06
1.38133749481541e-07