/*--------------------------------*- C++ -*----------------------------------*\
  =========                 |
  \\      /  F ield         | OpenFOAM: The Open Source CFD Toolbox
   \\    /   O peration     | Website:  https://openfoam.org
    \\  /    A nd           | Version:  12
     \\/     M anipulation  |
\*---------------------------------------------------------------------------*/
/*   Windows 32 and 64 bit porting by blueCAPE: http://www.bluecape.com.pt   *\
|  Based on Windows porting (2.0.x v4) by Symscape: http://www.symscape.com   |
\*---------------------------------------------------------------------------*/
FoamFile
{
    format      ascii;
    class       volVectorField;
    location    "0";
    object      U;
}
// * * * * * * * * * * * * * * * * * * * * * * * * * * * * * * * * * * * * * //

dimensions      [0 1 -1 0 0 0 0];

internalField   nonuniform List<vector> 
10068
(
(3.52707292580796e-07 0.00448598875042183 2.8056015025355e-05)
(5.88288827785818e-07 0.00455092746350648 2.71005413552757e-05)
(-4.42919683007416e-07 0.00448781689309558 8.68987368577465e-05)
(1.64076162211579e-06 0.00448569215186324 2.84371930353002e-05)
(8.6012901718428e-07 0.00461441280743306 2.6197823260085e-05)
(-1.60358258431413e-07 0.00455264958073665 8.39061596246451e-05)
(2.32724228100836e-06 0.0045505696674376 2.74845199973255e-05)
(-3.39796131864975e-07 0.0044918301220588 0.000149586045808578)
(7.47826520117033e-07 0.00448753207748269 8.66284121389589e-05)
(3.40174181311232e-06 0.00448502893126501 2.90270118198765e-05)
(1.17207748616424e-06 0.00467666701659343 2.53448496740755e-05)
(1.59551693765341e-07 0.00461604185546185 8.1065946861125e-05)
(3.11541186270842e-06 0.00461399781910413 2.65877134311053e-05)
(-1.11106298823677e-07 0.00455645526567405 0.000144460898810447)
(1.48868719141015e-06 0.00455230910339245 8.37321195993386e-05)
(4.52245260108428e-06 0.00454981128360867 2.80675295517267e-05)
(1.02163070886935e-06 0.00449817697735205 0.000213590772548479)
(4.62588904985427e-07 0.00449149407237178 0.000148376122242461)
(3.01038949298121e-06 0.00448689758666952 8.79653419385999e-05)
(5.59308511908528e-06 0.00448396649028961 2.94558873111157e-05)
(1.5310520193633e-06 0.00473792115153586 2.45396757385812e-05)
(5.20270253450353e-07 0.00467820796605625 7.83730996439782e-05)
(4.02316531558274e-06 0.00467618693844782 2.57432355463619e-05)
(1.35619353737707e-07 0.00461965834371743 0.000139597090432801)
(2.32842201000685e-06 0.0046156409300519 8.10129015984042e-05)
(5.80997676885943e-06 0.00461312304471239 2.71627993285805e-05)
(1.17257651453956e-06 0.00456247151416154 0.000206388258046487)
(1.1913006895586e-06 0.00455601124875688 0.000143338010620894)
(4.15610137869084e-06 0.00455158699584867 8.50635678986169e-05)
(7.12599089132904e-06 0.00454858921802311 2.84931978866311e-05)
(1.98727533330271e-06 0.00450685204762255 0.000276339342277952)
(2.99841234649647e-06 0.00449792542560201 0.000212922797589425)
(2.63839824988081e-06 0.00449086331715669 0.000149389093704497)
(5.47181351101829e-06 0.00448586080923075 8.92047030504267e-05)
(7.8819868721235e-06 0.00448247716334348 2.95879306836397e-05)
(1.945990744703e-06 0.00479842253054096 2.37794267059802e-05)
(9.27698630077911e-07 0.00473937884516474 7.58247113078381e-05)
(5.07279116876564e-06 0.00473736440616811 2.49482505242546e-05)
(4.12402622302748e-07 0.00468164107999812 0.000134985915731405)
(3.28631228742333e-06 0.00467773994997026 7.84563872314508e-05)
(7.29804430414281e-06 0.00467517300447549 2.6310875755377e-05)
(1.35527686581431e-06 0.00462534848042148 0.000199571239685066)
(1.99249629088791e-06 0.00461911948211525 0.000138583396808273)
(5.45955198862671e-06 0.00461480412750206 8.23340727624578e-05)
(8.8983073405429e-06 0.00461170902047178 2.75822587322814e-05)
(2.10323785895326e-06 0.00457067996049825 0.00026713440947074)
(3.44470610296877e-06 0.00456213759936666 0.000205704887637654)
(3.84917895507982e-06 0.00455535248298709 0.000144430146682083)
(7.01011060954092e-06 0.00455038937528208 8.63037882675557e-05)
(9.80731829743159e-06 0.00454686459976488 2.86231948298222e-05)
(2.02758951814247e-06 0.00451776051269417 0.000337938238034719)
(4.79295450410273e-06 0.00450661849205015 0.000277422233060908)
(4.66889619438061e-06 0.0044972621247979 0.000213430815260534)
(5.52534936242914e-06 0.00448986393017409 0.000151357451907578)
(7.86753933311886e-06 0.00448438198502702 8.98749524702669e-05)
(9.95868042512022e-06 0.00448057221395089 2.95429527104524e-05)
(2.42699614654117e-06 0.00485843930799961 2.30624919624036e-05)
(1.39223133765973e-06 0.00479980144387509 7.34082513211916e-05)
(6.29112346168482e-06 0.00479777520354575 2.4200581467577e-05)
(7.36552049824564e-07 0.00474263777054287 0.000130622264147033)
(4.3837383140139e-06 0.00473883271207251 7.6051551723709e-05)
(9.02617075374829e-06 0.00473618484425346 2.55093124964552e-05)
(1.57062781961749e-06 0.00468702303396448 0.000193131132882411)
(2.89968068664963e-06 0.004681014232051 0.000134096010176403)
(6.95708616955406e-06 0.00467676434150334 7.97691881175983e-05)
(1.09576673081797e-05 0.00467352862162622 2.67224387419715e-05)
(2.24713926736784e-06 0.0046330981005447 0.0002584377431416)
(4.00792647170919e-06 0.00462491998905069 0.000198866400737753)
(5.18715155870888e-06 0.00461834791629223 0.000139824363774053)
(8.78259751740835e-06 0.00461341711613222 8.35567235258727e-05)
(1.20466642832235e-05 0.00460970270447047 2.77105195096029e-05)
(2.14470440830591e-06 0.00458097946130308 0.000326759920098347)
(5.19040078010041e-06 0.00457037488912359 0.000268171101557276)
(5.43490268827435e-06 0.00456129525723743 0.00020629985063006)
(7.07936000845055e-06 0.00455418934452088 0.00014649784591727)
(9.7886118844311e-06 0.00454867050427296 8.69495267816296e-05)
(1.22498603919728e-05 0.00454464896376896 2.85790661531435e-05)
(1.50484745125878e-06 0.00453077494918083 0.000399321529585347)
(4.83933969514563e-06 0.00451748858127428 0.000340789214059733)
(6.55860775564768e-06 0.00450593885134258 0.000278424051341265)
(6.51514491005343e-06 0.00449604821289725 0.000215287726714954)
(8.0338343818103e-06 0.00448843795146526 0.000152623901258298)
(9.971902465509e-06 0.00448247374204433 9.00297359353683e-05)
(1.16850485838469e-05 0.0044783036286765 2.94856764101617e-05)
(2.98476720891661e-06 0.00491826668214203 2.23895226375248e-05)
(1.92365443363317e-06 0.00485974072662284 7.11177874738305e-05)
(7.70874325974695e-06 0.00485768600057412 2.34988660573661e-05)
(1.10584321402634e-06 0.00480289806933 0.000126491676644594)
(5.64711235461274e-06 0.00479916292165316 7.3793970725795e-05)
(1.10405938545764e-05 0.0047963994130783 2.47552461080508e-05)
(1.82504234548408e-06 0.00474772517707393 0.000187054205571664)
(3.94795558534219e-06 0.00474191361344616 0.000129862481456364)
(8.68897487098979e-06 0.00473769273054714 7.73607565071287e-05)
(1.33605339513124e-05 0.00473426497937606 2.59118830980798e-05)
(2.42919173184309e-06 0.00469432515489741 0.0002502402424281)
(4.6680592209492e-06 0.00468650115425401 0.000192406416348994)
(6.70504600550993e-06 0.00468009936897012 0.000135515089263972)
(1.08366366246862e-05 0.00467514803807106 8.09648356618908e-05)
(1.46613138511575e-05 0.00467118556478515 2.68485657273799e-05)
(2.2891406048625e-06 0.00464280528478971 0.000316220532864419)
(5.67097741739038e-06 0.00463270170542581 0.00025942200584787)
(6.60144180063885e-06 0.00462386336614384 0.000199592342928468)
(8.84990655191903e-06 0.00461701750616809 0.000141863725286494)
(1.20233847992313e-05 0.00461141310302525 8.41820291866613e-05)
(1.49240514512053e-05 0.00460711519391004 2.76677702715388e-05)
(1.64319526283462e-06 0.00459324752147895 0.00038616156310336)
(5.24632142858938e-06 0.00458063950956996 0.000329512350999701)
(7.29834247885067e-06 0.00456955721788554 0.000269170523192911)
(7.76654554992133e-06 0.00456006893377466 0.000208331384757831)
(9.93165126055079e-06 0.00455251318153875 0.000147665641891112)
(1.22589725937176e-05 0.00454644792162131 8.7092023020684e-05)
(1.42955629283476e-05 0.0045420033741025 2.8522424843111e-05)
(9.51400262759506e-07 0.00454579165044019 0.000460690052940909)
(3.8037444875257e-06 0.00453044072948352 0.000402930078176062)
(6.63962794010514e-06 0.00451675077421399 0.000342330671649797)
(7.80785316797467e-06 0.00450459530712957 0.000279754266617649)
(8.55078402120404e-06 0.00449478236527151 0.000216868999765332)
(1.00982105388908e-05 0.0044865528682816 0.00015307515551359)
(1.16999686109849e-05 0.00448020179827214 9.00014355365759e-05)
(1.30181284598811e-05 0.0044757467208161 2.94709601327238e-05)
(3.63090674642546e-06 0.00497823547448575 2.17644212287247e-05)
(2.52995962399203e-06 0.00491948674644849 6.89562468075607e-05)
(9.36087293757781e-06 0.00491739102449002 2.28410057620649e-05)
(1.52075329806263e-06 0.00486267652821652 0.000122584398838685)
(7.1042924901926e-06 0.00485899722969921 7.16841933316171e-05)
(1.33951633748047e-05 0.00485607831622894 2.40452612009656e-05)
(2.12535288273598e-06 0.00480769482310105 0.000181319228529934)
(5.14589013234385e-06 0.0048020516297231 0.000125870138226998)
(1.07005636091876e-05 0.0047978312596644 7.50990689789726e-05)
(1.6173605779941e-05 0.00479415114766864 2.51481023705139e-05)
(2.66166481752074e-06 0.00475460453044076 0.000242523395535968)
(5.44239180145673e-06 0.00474710322157728 0.000186317359978654)
(8.44825354386511e-06 0.00474083268287624 0.000131490062786833)
(1.32290038334618e-05 0.00473580106358224 7.85228668168494e-05)
(1.77241985992956e-05 0.00473151976151087 2.6035460410581e-05)
(2.47401265208555e-06 0.00470346144252455 0.00030629981997691)
(6.27054251506545e-06 0.00469382042989863 0.00025117609487632)
(7.90025235198532e-06 0.0046852465158305 0.000193313060698997)
(1.08882827637141e-05 0.00467855153614951 0.000137488753909741)
(1.46319311316689e-05 0.0046728041045331 8.15687565157264e-05)
(1.8055928735472e-05 0.00466815401754573 2.68074228081823e-05)
(1.81074602705526e-06 0.00465435213822914 0.000373772358220756)
(5.73400077351584e-06 0.00464237639427336 0.000318880636698671)
(8.13452016812305e-06 0.0046316924547985 0.000260378300769256)
(9.51251225793325e-06 0.00462261418102476 0.000201788283464097)
(1.21473682899915e-05 0.00461505031033621 0.000142973620870434)
(1.49297882682478e-05 0.00460881486777838 8.43150558001669e-05)
(1.73482138648081e-05 0.00460401847751629 2.76123092910672e-05)
(1.1150118232436e-06 0.00460738697946181 0.000445531081356475)
(4.2551833520629e-06 0.00459284452917727 0.000389653599325338)
(7.39835841639571e-06 0.00457976723819276 0.000331022649003048)
(9.02274559700496e-06 0.00456806617069436 0.000270584199951568)
(1.03524760252017e-05 0.00455851639849017 0.000209800412769035)
(1.23683183903048e-05 0.00455030770303818 0.000148077710164877)
(1.43083660392344e-05 0.00454379739801554 8.70598760043266e-05)
(1.58821021890063e-05 0.00453901687823351 2.85074578319203e-05)
(6.18530487636127e-07 0.00456276233574095 0.000521545472268682)
(2.69054746921489e-06 0.00454540280734487 0.000463981671430384)
(5.63719137289903e-06 0.00452962507469622 0.000404829674651051)
(7.88989809706469e-06 0.0045153381014094 0.000343486653939378)
(9.08938895635361e-06 0.00450338006977325 0.000280936108002173)
(1.03534484768624e-05 0.00449295519672835 0.000217469056465656)
(1.17703309586314e-05 0.0044842880357782 0.000153174447972106)
(1.30249995184403e-05 0.00447764546260214 8.99712357569472e-05)
(1.39362353127454e-05 0.0044729836595554 2.9477221220935e-05)
(4.38291996680658e-06 0.00503871819404263 2.11849202805158e-05)
(3.20668010165548e-06 0.00497937313284401 6.69633089856848e-05)
(1.12886566742819e-05 0.00497721606028872 2.22212111087975e-05)
(1.98190247545416e-06 0.00492222665792486 0.00011890088927694)
(8.78405394892786e-06 0.00491863494978796 6.97193751129182e-05)
(1.61529757515335e-05 0.00491550834665969 2.33744139537249e-05)
(2.49317544695662e-06 0.00486718477451114 0.00017590359987712)
(6.4972491144688e-06 0.00486169372180765 0.000122139719188786)
(1.30427927777796e-05 0.00485744310645028 7.29712011596729e-05)
(1.94756310568303e-05 0.00485343914943355 2.44277180684782e-05)
(2.94128030520459e-06 0.00481418827508656 0.000235255319225201)
(6.33692413436635e-06 0.00480693500080646 0.000180564909841069)
(1.04591170540908e-05 0.00480079373384143 0.00012772268518862)
(1.60265076756591e-05 0.00479561091353746 7.6223891262629e-05)
(2.13217873665642e-05 0.00479092620427141 2.52688899231275e-05)
(2.71100566950479e-06 0.00476319906837503 0.000296969581329544)
(7.04302542688529e-06 0.00475398651214336 0.0002434195850696)
(9.36913620879684e-06 0.00474563906486032 0.000187497480156166)
(1.32530755767083e-05 0.00473901690035562 0.000133363392299529)
(1.76868149294335e-05 0.004733051052742 7.91040275019322e-05)
(2.17338931473946e-05 0.00472795858089357 2.59959778264343e-05)
(2.02056074591785e-06 0.00471431927535287 0.000362122881614242)
(6.34677918363644e-06 0.00470292415920136 0.000308872669460281)
(9.17421458735508e-06 0.00469252806694104 0.000252122054286826)
(1.14907153901229e-05 0.00468383967935393 0.000195604352351683)
(1.47351042579125e-05 0.00467624274416154 0.000138542969628468)
(1.80585235772628e-05 0.00466975801098274 8.16935288986276e-05)
(2.09291879213525e-05 0.00466451871363486 2.67533182071573e-05)
(1.30823481750692e-06 0.00466764817371126 0.000431277031987598)
(4.79798754393404e-06 0.00465385897336815 0.000377157087654303)
(8.25705284081792e-06 0.0046413124254162 0.000320374423523011)
(1.04090618638182e-05 0.00463011332137034 0.000261991901712379)
(1.25165505821727e-05 0.00462072866264847 0.000203130939107493)
(1.50248322293653e-05 0.00461246291799956 0.000143355327876742)
(1.73595942683885e-05 0.00460571142286655 8.42802744006649e-05)
(1.92347434096871e-05 0.00460051818776527 2.75974087042987e-05)
(7.96287500382332e-07 0.00462335071598245 0.000504388593202959)
(3.2075892400373e-06 0.00460692711255211 0.000448718251688651)
(6.41639692757028e-06 0.00459188049105185 0.000391529456526879)
(9.11657516638183e-06 0.00457819849590163 0.00033214743984686)
(1.08451322024199e-05 0.00456662287335169 0.000271720397865796)
(1.25881310560632e-05 0.00455636085417074 0.000210352973195095)
(1.4370872819495e-05 0.00454766142071159 0.000148163741537601)
(1.58887209247451e-05 0.00454081127089314 8.70288757003599e-05)
(1.69746341225815e-05 0.00453578665818975 2.85136223458892e-05)
(4.9065251715711e-07 0.00458167727738662 0.000581322436947712)
(2.0061176188423e-06 0.00456234422322488 0.000523978051043927)
(4.45988033463926e-06 0.0045444938717119 0.00046594135114208)
(7.21631093242857e-06 0.00452819902532888 0.000405738795082481)
(9.1474085117237e-06 0.00451410140362101 0.000343910266518246)
(1.05722376888676e-05 0.00450158156211062 0.000281373841899247)
(1.1882871228497e-05 0.0044907106339675 0.000217636802641657)
(1.30494404688754e-05 0.00448173384839452 0.000153185477071016)
(1.39307070013681e-05 0.0044748837680998 8.99574323842514e-05)
(1.44262939532693e-05 0.00447009778909984 2.9478228726456e-05)
(5.26500254134639e-06 0.00510012929426047 2.06404653434811e-05)
(3.96928956035045e-06 0.00503978628109784 6.51352958903646e-05)
(1.35471736430637e-05 0.00503752423680186 2.1633880411536e-05)
(2.61117814606413e-06 0.00498188636806339 0.000115433762050292)
(1.07178232304882e-05 0.0049784044786686 6.78515698640681e-05)
(1.93923502889804e-05 0.00497500546216912 2.27400548287083e-05)
(2.96839850955092e-06 0.00492650634171573 0.000170788485985829)
(8.00739520398874e-06 0.00492118182603643 0.00011871551907452)
(1.57765933410635e-05 0.00491681614006445 7.09604222962604e-05)
(2.3359778996629e-05 0.00491240356911544 2.37467730173052e-05)
(3.26985470468252e-06 0.0048733303376713 0.000228396475492716)
(7.45658281587168e-06 0.00486620550629952 0.000175132100847001)
(1.27768458743225e-05 0.00486025134879241 0.000124167701380229)
(1.93079140013196e-05 0.00485483131282347 7.40570950064823e-05)
(2.55566811143771e-05 0.0048496425675743 2.45460559224674e-05)
(2.99352957811225e-06 0.00482227436868466 0.000288200416244723)
(7.95217446025459e-06 0.00481345332867551 0.00023611253624982)
(1.10594560690635e-05 0.0048053167701375 0.000182057189364921)
(1.60135536629223e-05 0.0047986525694642 0.000129481527673357)
(2.12745293196808e-05 0.00479237592830184 7.67813321059582e-05)
(2.60626813774698e-05 0.00478673381495582 2.52312318689368e-05)
(2.27336338827212e-06 0.00477339872983261 0.000351182316604529)
(7.13573156519799e-06 0.00476254783780155 0.000299446691359414)
(1.06746814119142e-05 0.00475240042663701 0.000244439134652916)
(1.37597339654797e-05 0.00474400525551549 0.000189720783284147)
(1.77664856197636e-05 0.00473630007767305 0.000134362933023736)
(2.17333225430114e-05 0.00472947098403598 7.9221263905671e-05)
(2.51403781648845e-05 0.00472368127031953 2.59432456293007e-05)
(1.53452905591418e-06 0.00472680497944996 0.000417892312580487)
(5.48991572488484e-06 0.00471372809593344 0.000365396937511061)
(9.30281049200898e-06 0.00470157179784103 0.000310395368716514)
(1.20937521938676e-05 0.00469097433642463 0.000253880911160151)
(1.50568540126461e-05 0.00468160635050465 0.000196835734414298)
(1.81403549067862e-05 0.00467320239368053 0.000138898341925679)
(2.09396626912941e-05 0.00466611414967854 8.16570096622022e-05)
(2.31709897920984e-05 0.00466040516753168 2.67386116899863e-05)
(9.98312170603959e-07 0.0046826377811051 0.000488283242250808)
(3.82666438628249e-06 0.00466711018652623 0.000434360831114511)
(7.3238356109866e-06 0.00465266137798314 0.000379043356600014)
(1.05158302256213e-05 0.00463966436470407 0.000321442078977507)
(1.29077331044458e-05 0.00462836962965407 0.000263036011071273)
(1.52168899796195e-05 0.00461817980038182 0.000203634896694674)
(1.74154480758305e-05 0.00460936033382523 0.000143430308252757)
(1.92414150612216e-05 0.00460221126381799 8.42489510021794e-05)
(2.05335759257813e-05 0.00459672953036612 2.76035503199717e-05)
(6.69016633815576e-07 0.00464111313193913 0.000562195413133886)
(2.5585350106794e-06 0.00462287178094737 0.000506734968085193)
(5.37927804627689e-06 0.00460583319385554 0.000450659061958676)
(8.45379955297002e-06 0.00459035909933739 0.000392268196532582)
(1.09033343218756e-05 0.00457674135026908 0.000332571593856725)
(1.27856369026653e-05 0.00456450732522439 0.000272134727446684)
(1.44713484598716e-05 0.00455373231626763 0.000210505556754939)
(1.59117259770753e-05 0.00454467643297775 0.000148171877223825)
(1.69704822098883e-05 0.0045375827358423 8.70162839944209e-05)
(1.7552070933411e-05 0.0045324110795873 2.85154843248177e-05)
(4.82108013822958e-07 0.0046025300085531 0.000639662734935764)
(1.70242578441486e-06 0.00458126302173203 0.000582866747483981)
(3.80223384057984e-06 0.00456135390214425 0.000525675397384626)
(6.35840758676678e-06 0.00454318938859845 0.000466445930464616)
(8.81592576590732e-06 0.00452690685770559 0.000405633024270468)
(1.0577797099479e-05 0.00451229248719201 0.000344016036472661)
(1.19550289875164e-05 0.0044993476853934 0.000281473742417396)
(1.30792202420875e-05 0.00448816158930011 0.000217665849580952)
(1.39195707626034e-05 0.00447897145716388 0.000153172211149993)
(1.44070553923558e-05 0.00447199762130467 8.99369548986745e-05)
(1.44884937827506e-05 0.00446717334852722 2.94644553374485e-05)
(6.30352180776248e-06 0.0051629339138146 2.01259006019016e-05)
(4.85541796116695e-06 0.00510114338394275 6.341019483194e-05)
(1.62036752882988e-05 0.00509872365664262 2.10785835684129e-05)
(3.44952933573113e-06 0.00504212259387957 0.000112166796770633)
(1.29576089529182e-05 0.00503866415831129 6.60627927710543e-05)
(2.32057652751445e-05 0.00503492166718138 2.21362429058436e-05)
(3.50959067414882e-06 0.00498601621846162 0.000165928169914325)
(9.87151151244166e-06 0.00498085676403752 0.00011552503364381)
(1.89817365775387e-05 0.00497626638770938 6.90553990234063e-05)
(2.79379484930282e-05 0.00497134625648177 2.31019504947405e-05)
(3.65820996842202e-06 0.00493231183095793 0.000221911899970422)
(9.07441462474876e-06 0.00492531554428335 0.000170031454555764)
(1.54522408394136e-05 0.00491949159462068 0.000120761893044128)
(2.31668961258419e-05 0.00491373729638106 7.2009557158699e-05)
(3.0550549902731e-05 0.00490792649190097 2.38635252470566e-05)
(3.32255064484583e-06 0.00488094165693035 0.000279961423842506)
(8.99458275688434e-06 0.00487245819143485 0.000229192107750713)
(1.31163096438278e-05 0.00486458092430113 0.000176964022058645)
(1.92520997513484e-05 0.00485771708363382 0.000125823368043022)
(2.54981270651353e-05 0.0048510175607715 7.45920159288564e-05)
(3.11666109715708e-05 0.00484469855431455 2.45106086982373e-05)
(2.56756704613591e-06 0.00483184198508902 0.000340925512859791)
(8.06033897172289e-06 0.00482150785813924 0.000290582693379474)
(1.23834117131133e-05 0.00481162632942768 0.000237230472870747)
(1.64059945573185e-05 0.00480335630437503 0.000184180386988164)
(2.13277116101032e-05 0.00479544645481693 0.000130424811360832)
(2.60589034913733e-05 0.00478815931469854 7.6891571351531e-05)
(3.01021689390125e-05 0.00478169196957374 2.5180094361364e-05)
(1.79805774642616e-06 0.00478510056034402 0.000405351391191666)
(6.30403453771431e-06 0.00477270837490663 0.000354336328202457)
(1.08180948622878e-05 0.00476089970165397 0.000300958302150519)
(1.43627210981372e-05 0.0047507843053718 0.000246194481659281)
(1.80444683043699e-05 0.00474136116108647 0.000190890047679828)
(2.18025233997802e-05 0.00473272070356401 0.00013469582737898)
(2.51503078757577e-05 0.00472518306620928 7.91837840405623e-05)
(2.78031933383704e-05 0.00471883691821005 2.5928676654024e-05)
(1.2302440302141e-06 0.00474085044672725 0.000473185170552797)
(4.5394818657904e-06 0.00472618482443969 0.000420864611675142)
(8.68263850749838e-06 0.00471227409016073 0.000367275889403283)
(1.21958238538635e-05 0.00469997620658571 0.000311320177840893)
(1.53619046511106e-05 0.0046888225115796 0.000254846778758141)
(1.83087165649685e-05 0.00467859637629137 0.000197297838110738)
(2.09899069957777e-05 0.00466955598493897 0.000138964386209742)
(2.31780970494177e-05 0.00466200058851328 8.16258461767265e-05)
(2.47140089101602e-05 0.00465595020491373 2.67448010046589e-05)
(8.84854713625844e-07 0.004699286304311 0.000544272929128949)
(3.17166993187113e-06 0.00468209036961864 0.000490560525232002)
(6.57381399719276e-06 0.00466583291757129 0.000436256255559139)
(9.89648296664693e-06 0.00465117533166744 0.000379531347485655)
(1.29603318600411e-05 0.0046379090792747 0.000321876088251096)
(1.53840195357718e-05 0.00462586437181574 0.000263418566461822)
(1.75055664265467e-05 0.00461509107680154 0.000203772547421192)
(1.92634578007902e-05 0.00460586005350362 0.00014343622307794)
(2.05308710230554e-05 0.00459842464494134 8.42377072303617e-05)
(2.12146736622652e-05 0.00459276887563047 2.76062558478686e-05)
(6.66658769508963e-07 0.00466066941900924 0.000618591876265691)
(2.22289695338843e-06 0.00464062350890318 0.000563688662705656)
(4.83513845021394e-06 0.00462177115881276 0.000508339130107524)
(7.73986724754173e-06 0.0046045498233467 0.00045091208403919)
(1.06006675520003e-05 0.00458883068752654 0.00039221101707145)
(1.27950673870895e-05 0.00457461869462186 0.0003326843476052)
(1.45386378252314e-05 0.0045618913160443 0.000272231041621571)
(1.5940677507914e-05 0.00455075165962442 0.000210533243328779)
(1.69622891707663e-05 0.00454144712867588 0.00014816109271581)
(1.75357423659734e-05 0.00453420731131592 8.69992563243053e-05)
(1.76101625932126e-05 0.00452898939310138 2.85036906413649e-05)
(5.87791570277988e-07 0.00462533250589778 0.000696281471636185)
(1.70998656466993e-06 0.00460210249483613 0.000640460558994058)
(3.504220970702e-06 0.00458033877031714 0.000583979552771274)
(5.87851942359539e-06 0.00456027284367618 0.000525797738413462)
(8.35174217619687e-06 0.00454180562084961 0.00046617602022756)
(1.03852197824514e-05 0.00452506113222365 0.000405477267612487)
(1.1918174472919e-05 0.00451004962532153 0.000343971203861767)
(1.30744740764749e-05 0.00449679782317623 0.00028146051787255)
(1.38963310481054e-05 0.00448539654066747 0.000217643547544174)
(1.43664394285216e-05 0.00447608156394642 0.000153134968110733)
(1.44545461249229e-05 0.0044690710350389 8.98960432184514e-05)
(1.4137690598391e-05 0.00446429582306158 2.94345657267457e-05)
(7.52748381355858e-06 0.0052276646431255 1.96395349875828e-05)
(5.89371893717821e-06 0.00516390150037878 6.17691202338743e-05)
(1.93362493131599e-05 0.00516127592474136 2.05518926600372e-05)
(4.40172493466502e-06 0.00510336454599621 0.00010904657001618)
(1.55813381917591e-05 0.00509982164909777 6.43704455029898e-05)
(2.77021315942158e-05 0.00509565340871313 2.15631109629902e-05)
(4.12885458239389e-06 0.00504610935918701 0.000161303304530065)
(1.21735072408001e-05 0.00504101861948685 0.00011255197474495)
(2.27508992375724e-05 0.00503614391189039 6.72457229544101e-05)
(3.33401664262629e-05 0.00503060288967105 2.24887660989601e-05)
(4.14354516414766e-06 0.00499146904650237 0.000215805632446607)
(1.08747457604435e-05 0.00498465664872638 0.000165304577949827)
(1.86064926043895e-05 0.00497882553213472 0.000117543641576713)
(2.77148700763041e-05 0.00497263051116052 7.00719876024859e-05)
(3.64470346522088e-05 0.00496606000885713 2.32178825527255e-05)
(3.70741750184636e-06 0.00493947479924718 0.000272220307990501)
(1.01686495859382e-05 0.0049312495611711 0.00022258593824279)
(1.58542645922322e-05 0.00492363536425035 0.000172201780240887)
(2.30680479159825e-05 0.00491648436003137 0.000122362947631289)
(3.04798236566329e-05 0.0049092340917533 7.25259451150801e-05)
(3.71927334928725e-05 0.00490208833478597 2.38310515706497e-05)
(2.90939313421528e-06 0.0048899080037826 0.000331325226372387)
(9.12200108657635e-06 0.00488004688103747 0.000282254163213427)
(1.43554853766803e-05 0.00487041556535804 0.000230486907091235)
(1.95431043522469e-05 0.00486216714326436 0.000178972762599337)
(2.55237776395042e-05 0.00485392351035524 0.000126714804417745)
(3.11597952564958e-05 0.00484604252083935 7.46965191944807e-05)
(3.5957459063784e-05 0.00483874697689977 2.44612321786335e-05)
(2.10372278628914e-06 0.00484278588619909 0.000393621959041602)
(7.23695455364659e-06 0.00483103792276474 0.000343963604828448)
(1.25392371619194e-05 0.00481960983038534 0.000292073776675406)
(1.69818873717351e-05 0.00480973283862582 0.000238959974081366)
(2.15601149976191e-05 0.00480021845782524 0.000185289314528079)
(2.61155326252485e-05 0.00479122459363586 0.00013073682091605)
(3.01120087239905e-05 0.00478310435852235 7.68537713155958e-05)
(3.32642595303266e-05 0.00477597766393313 2.51658835256398e-05)
(1.5181952272436e-06 0.00479823428107903 0.000459049850718112)
(5.34436596740102e-06 0.00478438467695386 0.000408237041693334)
(1.01888529332123e-05 0.00477103861648569 0.000356122285855284)
(1.44693914444431e-05 0.0047592560923833 0.000301853354882868)
(1.8323816263915e-05 0.00474817096431801 0.000247124443067267)
(2.19514773794214e-05 0.00473780563241651 0.000191324194127964)
(2.51958826794946e-05 0.00472842670951024 0.000134755076772242)
(2.78110615821299e-05 0.00472033856939803 7.91532399948666e-05)
(2.96354301842171e-05 0.00471358806006197 2.59349906982593e-05)
(1.13453037370151e-06 0.00475644506889946 0.000527491782995408)
(3.85167409975882e-06 0.0047402013824348 0.000475399570919518)
(7.88919606002787e-06 0.00472474899602859 0.000422625997316842)
(1.18966855397943e-05 0.00471079067098801 0.000367563204824989)
(1.54137940036012e-05 0.00469780832661567 0.000311797343468167)
(1.84501344779716e-05 0.00468584133748017 0.000255203074320258)
(2.10716265081601e-05 0.004674959620086 0.000197423176578188)
(2.31997388722323e-05 0.00466544090552249 0.0001389689730532)
(2.47129101209535e-05 0.00465754808463818 8.16161494053776e-05)
(2.5518057625587e-05 0.00465129155049414 2.67483188179295e-05)
(9.3410484949349e-07 0.00471759333257723 0.000598829933358277)
(2.95252510805851e-06 0.00469870520052058 0.000545666752179541)
(5.97058021816585e-06 0.00468088910115592 0.000491948437477227)
(9.48437000425497e-06 0.00466450812801995 0.000436289480499451)
(1.27026942702369e-05 0.00464930726155496 0.000379554594404616)
(1.53953217114817e-05 0.0046353969494167 0.000321998009680732)
(1.75665511690668e-05 0.00462278784989475 0.00026350971706137)
(1.9291992125688e-05 0.00461159380164712 0.000203798984216257)
(2.05256746549985e-05 0.00460207248651067 0.00014342801914503)
(2.12011720724265e-05 0.00459446451924515 8.42240492686679e-05)
(2.1269046888556e-05 0.00458875293677694 2.75961025705531e-05)
(8.17293922968973e-07 0.00468208364635059 0.000673254443227926)
(2.35999571255188e-06 0.00466024102159739 0.000619303433532793)
(4.48025869547411e-06 0.00463969666491265 0.000564585757859225)
(7.39390951182945e-06 0.00462060278747035 0.000508315191677863)
(1.0207570890017e-05 0.00460288770522039 0.000450720286416492)
(1.2627895314228e-05 0.0045866670095058 0.000392089400094765)
(1.45108996542417e-05 0.00457199510768935 0.000332653033152496)
(1.59405174113701e-05 0.00455891032639417 0.000272223956102535)
(1.6944696581164e-05 0.00454751972541359 0.000210516545783257)
(1.75013976685653e-05 0.00453806830330223 0.000148130210052954)
(1.7580793142123e-05 0.00453078380738349 8.69641112967146e-05)
(1.7162489443173e-05 0.00452562156710095 2.84769701515389e-05)
(6.51887161890976e-07 0.00465016162149919 0.000751043082061676)
(1.94535058414206e-06 0.00462503045184423 0.000696557688244649)
(3.48007050440601e-06 0.00460140605247633 0.000640962118488731)
(5.64692236958569e-06 0.00457930345095821 0.00058398494155346)
(7.97466209636024e-06 0.00455877435992746 0.000525577034558182)
(1.00952876123311e-05 0.00453990512429209 0.000465913901216307)
(1.17724508217752e-05 0.00452279219371412 0.000405306620721149)
(1.30064332278492e-05 0.00450748754959039 0.000343881115868387)
(1.38449438584696e-05 0.0044940247218237 0.000281404087755209)
(1.43038512258457e-05 0.00448249886991865 0.000217587009846719)
(1.43844570402929e-05 0.00447314821235702 0.000153068720880782)
(1.4087358219938e-05 0.00446619023807246 8.98318425213923e-05)
(1.3406035494015e-05 0.00446155289853459 2.93963479390198e-05)
(8.97040368452619e-06 0.00529493788317813 1.91817468229961e-05)
(7.11032943417397e-06 0.00522858807087578 6.02091953139135e-05)