/*--------------------------------*- C++ -*----------------------------------*\
  =========                 |
  \\      /  F ield         | OpenFOAM: The Open Source CFD Toolbox
   \\    /   O peration     | Website:  https://openfoam.org
    \\  /    A nd           | Version:  12
     \\/     M anipulation  |
\*---------------------------------------------------------------------------*/
/*   Windows 32 and 64 bit porting by blueCAPE: http://www.bluecape.com.pt   *\
|  Based on Windows porting (2.0.x v4) by Symscape: http://www.symscape.com   |
\*---------------------------------------------------------------------------*/
FoamFile
{
    format      ascii;
    class       volScalarField;
    location    "200";
    object      k;
}
// * * * * * * * * * * * * * * * * * * * * * * * * * * * * * * * * * * * * * //

dimensions      [0 2 -2 0 0 0 0];

internalField   nonuniform List<scalar> 
10142
(
0.00023788282787011
0.00023441695071766
0.000660768757657278
0.000238765710228781
0.000230248430973735
0.000650498755890265
0.000235330875764692
0.000960531915772514
0.000660926567654226
0.000239703797504996
0.000225255710147751
0.000638423773705951
0.000231168255142096
0.000945479297152536
0.000650660979142969
0.000236257075273777
0.00119923302289741
0.000959659220758887
0.000659460357455622
0.000238016908250856
0.000219338584793635
0.000624355722297962
0.000226164582824117
0.000927952439368676
0.000638573531092541
0.000232061485134549
0.00118038716255166
0.000944618853244363
0.000649173513744131
0.000234572652395679
0.00140378546907582
0.00119758553455361
0.00095441550676473
0.000653078723561061
0.000232968219981279
0.00021239042130703
0.00060809181878451
0.000220232612037339
0.000907742452059684
0.000624485915495724
0.000227020993202893
0.00115858888373195
0.000927090193657999
0.000637058783170718
0.000230373201897285
0.00138170250703475
0.00117876645172646
0.000939392052490575
0.00064280584064968
0.000229566379777947
0.00158518701697524
0.00140115337255673
0.00118941239422871
0.000942710136347674
0.000639896810248213
0.00022543731381794
0.000204764364835407
0.000589420614232556
0.000213251431639129
0.000884608406713345
0.000608196756645602
0.000221044447240792
0.00113361983443829
0.000906874263100479
0.000622943269744033
0.00022533390768725
0.00135628302599284
0.00115697715858426
0.000921883669661681
0.000630717455767962
0.000225424043985619
0.0015602329924797
0.00137911581509963
0.00117064524612789
0.000927747028679366
0.000629719290243477
0.000222109638746528
0.00174885467727843
0.00158139235103279
0.0013903765035037
0.00117315574762246
0.000923185407810023
0.000620613719906732
0.000216476056924007
0.000200951446612627
0.000568080775397198
0.000205225469092812
0.000858303383936684
0.000589494221333805
0.000214019201294214
0.00110523078661093
0.000883733752261005
0.00060662624057337
0.000219367815962985
0.00132731065462691
0.00113201379653626
0.000901697036771021
0.00061664530492525
0.000220455985449339
0.00153161187101541
0.00135372190802304
0.00114891445631424
0.000910324331146988
0.000617761304239791
0.000218073836532286
0.00172130162040599
0.00155650507456284
0.00136842402299235
0.0011544950064859
0.000908367376266285
0.000610616187802594
0.000213241122445427
0.00189797745080955
0.00174407456460154
0.00156813319450482
0.00137011375005064
0.00114814066336551
0.000896302790589653
0.000596873895062608
0.000206515349197863
0.00020056082273971
0.000544084092850395
0.000197754267717186
0.000828544209432221
0.000568146567779126
0.000205848631226419
0.00107317614350572
0.000857426230734683
0.00058789406054948
0.000212382753891159
0.00129454216148646
0.00110363232044782
0.00087859723545745
0.000600397811723272
0.000214605638557661
0.00149911499812032
0.00132477184727643
0.00112402246756865
0.000890251375862967
0.000603862301342381
0.000213242974104548
0.0016897695723182
0.00152792892482295
0.0013431236085998
0.00113290340458355
0.00089113689159239
0.000598895485268469
0.000209334397811575
0.00186806535486744
0.0017166061688618
0.00154336362096242
0.00134831096696725
0.00112967483458597
0.000881727166118255
0.000587127817453466
0.000203406877635705
0.00203468498152631
0.00189254200049416
0.0017287160164695
0.00154429601542281
0.00134020660742102
0.00111500045260519
0.000863321565391816
0.000569724664642844
0.000195661868253587
0.000189779016075475
0.000518791523682658
0.000193240946964576
0.000794932218385299
0.00054395953684697
0.0001974668228472
0.00103720704323574
0.000827686584516919
0.000566507572328211
0.00020425712040474
0.00125774952769406
0.0010715910345587
0.000852348508921492
0.000581765147669644
0.00020778429953429
0.00146251400797557
0.00129202814920936
0.00109573138462991
0.000867303608668474
0.000587848278358415
0.000207595886196939
0.001654070803505
0.00149547389457898
0.00131428207263988
0.00110818585506517
0.000871309529658354
0.000585300463272799
0.000204691581849204
0.00183381540188651
0.00168513498412544
0.00151491495005648
0.00132319800647929
0.00110833267742167
0.000864805602226089
0.000575732045148299
0.000199685767909003
0.00200270414084971
0.00186272564965086
0.00170139295383457
0.00151971633534561
0.00131864725364042
0.00109683222120696
0.000849080035415085
0.000560300126845204
0.00019274175636459
0.00202885006642664
0.00187560587729564
0.00170188961069918
0.00151008894918405
0.00130156552974103
0.00107480322213117
0.000825144611338257
0.000539529160876484
0.000184692622214738
0.000172888454210153
0.00048879191101275
0.000189414541361259
0.000757810288094579
0.000517639428938804
0.00019475751555083
0.000997060807914434
0.000794166775268485
0.000542173555406885
0.000195524810781927
0.00121672364692062
0.00103564735216005
0.000822692683137079
0.000560499067420024
0.00019986598481899
0.00142160554000215
0.00125526557370745
0.00106380605133163
0.000841248735062301
0.000569526414833397
0.000201066037030018
0.00161400148659362
0.00145891750049176
0.00128166849267674
0.00108011163674653
0.000848672219843503
0.000569687055743373
0.000199361949788736
0.00179512647240996
0.00164949410837255
0.00148260391354553
0.00129458286717575
0.00108392328625305
0.000845363416494911
0.00056256312158028
0.000195346997819306
0.00196580918161369
0.00182854743427748
0.00167007758238074
0.00149149906049315
0.00129383766517634
0.00107586003519271
0.000832575472838561
0.000549327063811289
0.000189389033061462
0.0021267421558201
0.00199696119883631
0.00184595379046383
0.00167479037055593
0.00148579758011416
0.00128035689785977
0.00105703471880545
0.000811324264832716
0.000530506268088356
0.000182116641017917
0.00201075937594204
0.00184641236149463
0.00166404419453761
0.00146663699962508
0.0012552274872407
0.00102828142862567
0.000782169699775625
0.000506552871554108
0.000180551123161797
0.000151915802414353
0.000453243514997566
0.000175220669018527
0.000716528304838891
0.000488328172053677
0.000189103500319891
0.000952584588671903
0.000756910567737728
0.000515900544143062
0.000186980513172209
0.00117127037474091
0.00099553855637997
0.000789302068568763
0.000536240637008412
0.000191219575694266
0.00137621852867594
0.00121427683874344
0.00102801091345612
0.000811835874454101
0.000548667008541049
0.000193571246388669
0.00156938551827217
0.00141805818467614
0.00124506257119699
0.00104845168913777
0.000823004837924671
0.000551887459121137
0.000193256264868102
0.0017518329869623
0.00160948561530346
0.00144621421879054
0.00126224020052396
0.001056223845047
0.000823202632137578
0.000547512517748991
0.000190967066115195
0.00192424808902954
0.00178992687488296
0.00163461019763823
0.00145946078238948
0.00126558798261888
0.00105189997761835
0.000813648717761859
0.000536744853671563
0.000186036205036922
0.00208707475255941
0.00196015044162585
0.00181195224548849
0.00164374302181649
0.0014579328110741
0.00125597522265609
0.00103655007907396
0.000795340939076851
0.000520090015211179
0.000179966453812498
0.00224014407325128
0.00212069115599318
0.00197903735401073
0.00181700932087971
0.00163727198905042
0.00144274558187224
0.00123447933218668
0.00101101264424463
0.000768856080908237
0.00049799352826091
0.000177758108531021
0.00197969108088465
0.00180555409136787
0.00161645067259368
0.00141499455642215
0.00120183729706484
0.000975805207531527
0.000734561714003358
0.000471366327602882
0.000166807187855908
0.000128061702884888
0.000411896318355655
0.000155231014312657
0.00067050146345713
0.000453359634411269
0.000176641564954157
0.000903744821283026
0.000715634543850714
0.000486219074746787
0.000181898967733076
0.00112120616535251
0.000951095384732539
0.000752213025196644
0.000509330704125323
0.000183155219585667
0.00132621643351359
0.00116886854501857
0.000988093927125852
0.000778739963812014
0.000524946481448103
0.000185654948777364
0.00152008826275231
0.00137272502115952
0.0012042603791087
0.00101297951178024
0.000794072080278042
0.00053171798531428
0.000186523110291308
0.00170378299488503
0.00156493445397603
0.00140554767586428
0.00122595482196581
0.00102501377955292
0.000798118711515532
0.000530410951001398
0.000185699675590808
0.0018778895965508
0.00174670445917091
0.00159479849147767
0.00142338930973487
0.0012336783332957
0.00102473862411825
0.000792117617199574
0.000522532559331722
0.000188207004828699
0.00204271637026031
0.00191866672303352
0.00177352709104621
0.00160858681051759
0.00142631151647784
0.00122823532368959
0.00101317520886293
0.000777062206279639
0.000508398805925479
0.000181847802488739
0.00219822462423551
0.00208114950563783
0.0019424229471763
0.00178330449515946
0.00160661933142033
0.00141536206048967
0.00121065072680917
0.00099113037507653
0.000753494023520105
0.000488218952698127
0.000177858745805819
0.00234401693360743
0.00223388877463727
0.00210184838892495
0.00194823059310567
0.00177650925931787
0.00159012202431654
0.00139161914915949
0.00118166044794832
0.000959136236643857
0.000721825338716211
0.000463173407979187
0.00016294271915077
0.00193631875716357
0.00175441547187649
0.00156021071677401
0.00135577190229964
0.00114174157470608
0.000917583068557619
0.000682363183448863
0.000430934629098533
0.00014258924279987
0.000103123154920014
0.000364759439383172
0.000131629438369963
0.00061922886996598
0.00041238144052906
0.000157686988096154
0.000850273416875183
0.000669712599139821
0.000451911054653523
0.000174571645421502
0.0010665761913045
0.000902276378125086
0.000710995881435453
0.000479871370220408
0.000182513512764055
0.00127149214816936
0.00111884810111404
0.000943863506024017
0.000741921999757203
0.000498681433857678
0.000181003780187519
0.00146602467513582
0.00132277946192363
0.00115907071103612
0.000973457612211247
0.000761588719132154
0.000508950336281592
0.000180350048141914
0.00165087218059599
0.00151570486841927
0.00136043364650328
0.00118552787633319
0.000990076379193652
0.000769896829482117
0.000511161564572142
0.000180495765886354
0.00182658604063824
0.00169872875654854
0.00155046909638241
0.00138308928088294
0.0011978992569044
0.00099416510906492
0.00076778467242881
0.000506299626099404
0.000184825017683933
0.00199340933971348
0.00187238600185201
0.00173052351198916
0.00156913209389259
0.00139072482990833
0.0011969238537181
0.000986706723409448
0.000756314577472238
0.000495692869127611
0.000178996493209404
0.00215127922947858
0.00203688106137291
0.00190115369707156
0.0017452210176719
0.00157192410194933
0.00138430598760473
0.001183563398698
0.000968474301730059
0.000736005796737721
0.000477724029220922
0.000173706730194469
0.00229988304497313
0.00219209795421959
0.00206253923395934
0.0019119385281024
0.00174323465755288
0.00155999796088367
0.00136484855698116
0.00115851110252598
0.000939969381676587
0.00070714295335992
0.000453810521855991
0.000158753993141882
0.00243875813273477
0.00233758202945905
0.00221431103104085
0.00206949760863075
0.00190523834001422
0.00172585134063367
0.00153444763318449
0.00133303186310974
0.00112224967780282
0.000901612920016526
0.000670254468900857
0.000422958728793699
0.00013878053163489
0.00188212608512307
0.00169417126138794
0.0014959411037426
0.00128930269201053
0.00107518254290162
0.000853760667972155
0.0006251414580293
0.00038519497907938
0.000115692851025253
7.79976977291162e-05
0.000312398212014403
0.000106278103132979
0.000562377636971469
0.000365537301763169
0.000134415082117767
0.000791887728732831
0.000618637145773411
0.000411621388772523
0.000157073654033236
0.00100728197899214
0.000848856183020761
0.000665372744803847
0.000446868384190867
0.000171402217936409
0.00121202107674111
0.00106426068914402
0.000895258946773817
0.000701108705559073
0.000470547455118395
0.000178099488007625
0.00140716182875915
0.00126810347962259
0.00110929380506494
0.000929657243513197
0.000725418799109144
0.000483735960635828
0.000177646587269648
0.00159306146186244
0.00146170904274961
0.00131073282683707
0.00114077200561194
0.000951190133268542
0.000738294982219904
0.000489765297195001
0.000181505030254719
0.00177025038223989
0.00164589352984108
0.00150148493536481
0.0013383921321006
0.00115805789448139
0.000959973841946497
0.000740458009489224
0.000488087671265045
0.000181028706026951
0.00193897401043788
0.00182116218414188
0.00168279045336977
0.00152520622120793
0.00135098030071081
0.00116183806873354
0.000956943070829113
0.000732866387177208
0.000480411582075782
0.000176743967686212
0.00209914706266477
0.00198765786119691
0.0018551090671424
0.00170260492432628
0.00153299784365607
0.00134937259270901
0.00115301186470303
0.000942848536522722
0.000716192950842826
0.000464986712096848
0.000167646170623447
0.00225044209171231
0.00214524794421702
0.00201850708364384
0.00187103807233495
0.00170564951378888
0.001525917001069
0.00133450709186536
0.00113222011461509
0.000918166368570308
0.000690531828196467
0.000442965617137575
0.00015329649099929
0.00239242201623121
0.00229358087793635
0.00217276237568433
0.00203054237286624
0.0018694091768801
0.00169314749858645
0.00150499017135962
0.00130700965489
0.00109990876723191
0.000883268629149252
0.000656239381034595
0.000413845410971547
0.000134363732198867
0.00252461005963003
0.00243215714388661
0.00231736403080961
0.00218065895161531
0.00202437315089651
0.0018515558418538
0.00166621596160706
0.0014708700519011
0.00126732173589488
0.00105649288229333
0.000838592616308062
0.000613739928916894
0.000377595711324091
0.0001123796985314
0.00181837098160762
0.00162547400931821
0.00142397656906583
0.00121584284188105
0.00100237558057816
0.000784421615380585
0.000562994260042741
0.000334777030114233
8.85521442346477e-05
5.62652169154269e-05
0.000255906096509429
8.09779817277213e-05
0.000499835892712512
0.000313346887545537
0.00010889357682925
0.000728294023512877
0.00056202755483399
0.000365375666570528
0.000134298404894765
0.000943226409715142
0.000790566470942068
0.000614740124379434
0.000407576398488531
0.000153068954484635
0.00114792432417929
0.00100501883065581
0.000842121874695103
0.000656172171760078
0.00043773999661417
0.000164805551948777
0.0013435051132453
0.00120869194837514
0.00105496934903306
0.000881557455490878
0.000685500386621526
0.000456476324884782
0.000170487765208487
0.00153038920590514
0.00140290876966012
0.00125632352775831
0.00109148548487059
0.000908116790622389
0.000703017818467092
0.000466077815116822
0.000173485055437377
0.00170887908863244
0.0015881556215398
0.00144775364460436
0.00128915774101832
0.00111397431072901
0.000921958995871934
0.000709950037260825
0.000468288032837695
0.000173572114391708
0.00187932679591957
0.00176490604523459
0.00163021847994694
0.00147667011332903
0.00130691130513821
0.0011227927299666
0.000923692822290538
0.000706556334120611
0.000462914299624183
0.000169293262433519
0.00204166991619774
0.00193330639769443
0.00180414346932289
0.001655303765004
0.0014896679073709
0.00131037308524139
0.00111880152212381
0.000914055357824661
0.000693716595792089
0.000450195858620995
0.000160405841342068
0.00219556435309093
0.00209320425144984
0.00196953608546717
0.00182540694028717
0.00166359864948405
0.00148769226040438
0.00130039556506745
0.00110259075559219
0.00089352814718052
0.000671567901004721
0.000430267504798387
0.000146779097946815
0.00234053362098665
0.00224424002802892
0.00212616283253314
0.00198690705496292
0.00182904145840286
0.00165622045029767
0.00147167932191457
0.00127753609556004
0.0010745617913966
0.00086244363307232
0.000640388153714951
0.000403161068299126
0.000129168183343405
0.00247609989650754
0.00238595935882403
0.00227361548158284
0.00213948178731227
0.0019859163527377
0.00181633771432949
0.00163422769137049
0.00144222237151132
0.00124218858719076
0.00103509312409875
0.000821179893673986
0.000600633676332927
0.000368831860999837
0.000108535514885813
0.00260180044467715
0.00251785659676551
0.00241136840146398
0.00228257384675818
0.00213369376148721
0.00196804990872987
0.00178844536767644
0.00159826042510484
0.00139972911392924
0.00119474919921311
0.000984609764770253
0.000770165376764924
0.0005523465380581
0.000327794787406036
8.58874949814589e-05
0.00174575298158019
0.00154867190037078
0.00134457927645121
0.0011356333299853
0.000923508338108412
0.000709645917634809
0.000495740945470698
0.000280412495388271
6.22349567058571e-05
3.815449802683e-05
0.000199070569266844
5.83586503375534e-05
0.000431887281192582
0.000257258553160033
8.33362682063363e-05
0.000659236553062369
0.000499783793084408
0.000313829362952684
0.000109031624600791
0.000874256456807686
0.000727125366021776
0.000558714067546878
0.000362351211130364
0.000130439573388178
0.00107925273448778
0.000941025563573905
0.000784206628857314
0.000606338327731917
0.000399225634139034
0.000145861942985532
0.00127530321945838
0.00114464860350244
0.000996023827814888
0.000829034629729106
0.000641441776950888
0.000424198598387466
0.000155564098073869
0.00146298217346499
0.00133930184400988
0.00119718924050798
0.00103769960432407
0.000860870212217672
0.000664257758541842
0.000438750807495211
0.000160696662334486
0.00164256943720337
0.00152554653598372
0.00138922939634697
0.00123526606329308
0.00106545836506442
0.000879890624687104
0.000676016956606504
0.000445001450423949
0.000161994782071577
0.00181448702761981
0.00170360901882902
0.0015727571913942
0.00142342604616397
0.00125837911414939
0.00107961995422475
0.000886778785036251
0.000677237960961156
0.00044304014269271
0.000159072731035485
0.00197877467924299
0.00187374159344073
0.00174816347037585
0.00160320299639565
0.00144179280863089
0.00126714389989092
0.00108075733839329
0.000881925308834616
0.000668473103966337
0.000433187239109458
0.000151419524138984
0.00213510421299813
0.00203581511064479
0.00191545678493688
0.00177489697876478
0.0016169268230882
0.00144515148404052
0.00126233039596534
0.00106943751998218
0.000865860844040044
0.000650068831342609
0.000415751896086513
0.00013927313347657
0.00228296207907777
0.00218945561415114
0.00207438563172537
0.00193837462232324
0.00178400893427905
0.00161491381622496
0.00143433108811655
0.00124441920678884
0.00104602015854847
0.000838918798345717
0.000622393886007725
0.000390845897135838
0.000123203827628135
0.00242180516964323
0.00233417635685576
0.0022245383532849
0.00209330199926715
0.00194284824759192
0.00177666967818816
0.00159812141054024
0.00140984300092882
0.00121374222754185
0.00101084072299082
0.00080143841483911
0.000585677589144201
0.000358725947587134
0.000104067517968636
0.00255115784497498
0.00246949099013963
0.00236543580387253
0.00223921532860345
0.00209304087485249
0.00193024768632847
0.00175399053750606
0.00156713810463921
0.00137204058270393
0.00117065084325411
0.000964288621274811
0.000753832504018074
0.000540120238722679
0.000319744095102983
8.2802714513309e-05
0.00267058689156771
0.00259490975586779
0.00249656072103022
0.00237557090185396
0.00223399011442439
0.00207506131710334
0.00190186555718895
0.00171661071358798
0.00152233829938984
0.00132129169230836
0.00111555848709558
0.000906787028529907
0.000696382661459248
0.000485972671965555
0.000274224498972434
6.02729067095648e-05
0.00166463860441584
0.0014640316001254
0.00125799568523211
0.00104888186098417
0.000838686998059284
0.000629329256680235
0.000423485065433915
0.000222625625757156
3.79402102020694e-05
2.57887229432327e-05
0.000146367831653136
3.99815994739123e-05
0.000359775818524674
0.000201288940788687
6.02110138482575e-05
0.000584566933604533
0.000432204730523611
0.000258760409358529
8.37142309408913e-05
0.00080016138366095
0.000658291868395489
0.000497202667819676
0.000312064359341075
0.000105822893295368
0.00100605346615813
0.00087215185686655
0.000721243839901919
0.000551285751137132
0.000355249448528395
0.000123675817761562
0.00120280492736446
0.00107601943977939
0.000932371211395812
0.000771845359821193
0.000592698442354089
0.000386673748720839
0.000136514727156072
0.00139107038162912
0.00127113972035061
0.00113343768245698
0.000979352110508111
0.000809300906674567
0.000621416634984658
0.000407091792920005
0.000144382769159226
0.00157154226840987
0.00145818084768625
0.00132589809715582
0.00117666915578749
0.00101251272605416
0.000833798940472316
0.000638399400425167
0.0004179676648952
0.000147588072754705
0.00174459246967125
0.00163735978022236
0.00151042577982955
0.00136541829401616
0.00120527009553631
0.00103215966548673
0.000846020838720285
0.000644642282886606
0.000420034008141338
0.000146701297683193
0.00191049343981449
0.00180897726883739
0.00168715094370604
0.0015462419165762
0.00138926912296939
0.00121954934405498
0.0010387271349123
0.000846308816800855
0.000640390573069632
0.000413578174479667
0.00014099899241852
0.00206899240914936
0.00197300603432716
0.00185618020318676
0.00171940750645264
0.00156551307111759
0.00139815149292515
0.00122015311044741
0.00103259929742909
0.000835027408925498
0.000626087148002732
0.000399076453323216
0.000130742095002555
0.00221955908845833
0.00212908858805231
0.00201728294297459
0.00188477403561
0.00173415864261199
0.00156906961897216
0.00139277498478348
0.00120748237299347
0.00101411004092968
0.00081253144943227
0.000602106004641571
0.000376845736497693
0.000116479883762851
0.00236158329504953
0.00227670379203122
0.00217003518233092
0.00204198756668911
0.00189494744234484
0.00173242161939985
0.00155774060295672
0.00137355243587803
0.0011817991911138
0.000983555147654226
0.000779180294387675
0.000568722719880544
0.000347199036750502
9.90015529359102e-05
0.00249450297954416
0.00241530758166686
0.00231393087909413
0.00219058070180542
0.00204745967614387
0.00188792085617577
0.00171519203004969
0.00153202141373896
0.00134076114244453
0.00114339610235067
0.000941280967704985
0.000735301592022353
0.000526189887158294
0.000310522728387676
7.92167650054094e-05
0.0026178644688534
0.00254441821312957
0.00244847428319148
0.00233004931562033
0.00219118319133062
0.00203509653988736
0.0018648787070834
0.00168307690309491
0.00149223890853174
0.00129471710181498
0.00109264395472026
0.000887682554461604
0.000681207869442473
0.000474772397330814
0.000267120210363043
5.80227983136087e-05
0.00273127013320962
0.00266357528385553
0.00257316911803059
0.00245987386660334
0.00232555616376335
0.00217331581974617
0.00200616470219294
0.00182656751488326
0.00163642379136002
0.00143872116882081
0.00123580745717602
0.00102995682382385
0.000823120195583791
0.000617167044703674
0.000414737243903008
0.000217335246271604
3.66700511885998e-05
0.00157529712840719
0.00137179475311767
0.00116442595961858
0.000955695835649022
0.000747850448442482
0.000543394625089989
0.000346537067683494
0.000162162223019458
1.78154461200624e-05
1.58231274624142e-05
0.000102505255297115
2.64638681512194e-05
0.000285682929208275
0.000150282104708435
4.1371226548038e-05
0.000504388565169553
0.00036058039685526
0.000204014757544496
6.07769560400866e-05
0.000720635624246572
0.000583899336065332
0.000430567387542258
0.00025871360837936
8.14071112618169e-05
0.000928304829958993
0.000798195427556068
0.000653003788412408
0.000491024511600167
0.000306796642237772
0.000100176258353078
0.0011263529682882
0.00100286420089386
0.000863890482975139
0.000709747510982715
0.000539019871382217
0.000344315307452311
0.000115243821846718
0.00131523387704023
0.0011986537301302
0.00106510530322967
0.000916363007587979
0.000753198860244511
0.000574081233530032
0.000370813906864978
0.000125786340869421
0.00149617554704676
0.00138628276964051
0.00125799473090316
0.00111348054725826
0.000955088978332067
0.000783519692273588
0.000596931605637745
0.000387008023013638
0.000131480102705425
0.00166992830482506
0.00156636533890992
0.001443320189696
0.00130261738706567
0.00114749541375558
0.000980339080962611
0.000801305806675558
0.000608451990092731
0.000393688363664162
0.000132575562597616
0.00183698115311114
0.00173914135318077
0.00162117778955123
0.00148442183280921
0.00133203171914216
0.00116747868557356
0.000992577344388944
0.000807054539058127
0.000609173051024921
0.000391251407074244
0.000129293974466277
0.00199726014051518
0.00190480342659595
0.0017917092213852
0.0016589061299032
0.00150928461933447
0.00134658443919368
0.00117373347365233
0.000991938850515433
0.000800898077529896
0.000599332055422391
0.000380181477280821
0.00012122639520706
0.00215024807110733
0.00206306847859904
0.00195477629890535
0.00182600826922228
0.00167938039156173
0.00151856075630506
0.00134686788446703
0.00116657443951529
0.000978686470600237
0.000783184122714374
0.000579375938798018
0.000361025271410228
0.000108997465938678
0.00229527345423809
0.00221340029779394
0.00210997082157629
0.00198538828940021
0.00184203756870185
0.00168343550688031
0.00151292580588836
0.00133318372974069
0.00114619160936773
0.000953077235710723
0.000754252252926888
0.00054964680279767
0.000334186130617942
9.3352475494852e-05
0.00243167793033771
0.00235519118073038
0.00225675586623393
0.00213656583460334
0.00199681026497115
0.00184084486114498
0.00167191691721819
0.00149275513960247
0.00130571729842338
0.00111281114159141
0.000915421915196971
0.00071442455910021
0.000510439418454769
0.000300066828504878
7.51686823390686e-05
0.00255890520466307
0.00248788109101822
0.00239458463809933
0.00227901142108621
0.00214317930961707
0.0019902958020776
0.00182347027952287
0.00164532410952972
0.00145828834513508
0.00126471192840059
0.00106674710952898
0.000866066004082755
0.000664005881542819
0.000462043144973992
0.000258991444594078
5.53877318124359e-05
0.00267653120656013
0.00261101052913199
0.00252297163042358
0.0024122214353351
0.00228061620949375
0.00213123242215311
0.00196705570618842
0.00179056200487731
0.00160397548521627
0.00140980749513475
0.00121050498674626
0.00100837394025719
0.000805354618246161
0.000603272566790039
0.000404730742868891
0.000211293498270961
3.52319077296404e-05
0.00278419315197543
0.00272415402485036
0.00264145092784347
0.00253570464394184
0.00240859717747387
0.00226307217220644
0.00210200617729858
0.00192778687770133
0.00174254402719249
0.00154815907839624
0.00134765436373135
0.00114347770590379
0.000938048719969155
0.000733556486931335
0.000532459353612255
0.000338921836953658
0.000157862124503613
1.71627205635491e-05
0.00147795856584512
0.00127213825467478
0.00106394565712979
0.0008559811110636
0.000650786688176393
0.000451899205401024
0.000265635039295734
0.000100636667728854
4.78077305511925e-06
7.33561554828959e-06
6.40489420896772e-05
1.57104301021386e-05
0.000212713608021824
0.000106784879463137
2.69088766479099e-05
0.000419094132372474
0.000287398419749918
0.000153974864654258
4.1847698339575e-05
0.000635167761688992
0.000503982519412662
0.000360106315398797
0.000205744693486853
5.93564311782377e-05
0.000845734461195489
0.000718819838054832
0.000579302927587607
0.000426003263083364
0.000255737400201048
7.72099368102209e-05
0.00104628862392743
0.000925158439755726
0.000790379162117832
0.00064253859231879
0.000480504439876639
0.000298153013007414
9.32755659424314e-05
0.00123616358684574
0.00112216738287414
0.000992230222193475
0.000848607174796025
0.000692355277890071
0.00052213847545742
0.000330433133850252
0.000105883082532289
0.00141711185746645
0.00131040780994555
0.00118572158309932
0.0010457150382885
0.000893101414966381
0.000728850243862865
0.000551255739062187
0.000352265056060808
0.000114039982017478
0.0015909806155205
0.00149098032549452
0.00137162850428911
0.00123521024531224
0.00108516638008138
0.000924162645424386
0.000752574612468579
0.000568543411758117
0.000364034711275393
0.000117362828341128
0.00175854426552037
0.00166450305232289
0.00155042332141522
0.00141780998674088
0.00127003765267767
0.00111082882412547
0.000942177146820068
0.000763979234980903
0.000574552798838504
0.000366156756586278
0.000116429570176922
0.00192005472069865
0.00183135201977483
0.00172215195801647
0.00159343998799966
0.00144822215681705
0.00129037753646413
0.00112296613407775
0.000947333945115635
0.000763318204140016
0.000569617220211775
0.00035902367081847
0.000110801633525554
0.0020750454369551
0.00199142104984219
0.00188688062511469
0.00176206341756183
0.00161962456416859
0.00146330309678166
0.00129649972163613
0.00112157173071644
0.000939621477970191
0.000750713767622144
0.000554058460827792
0.000343328360423517
0.000100784069791463
0.00222278253532838
0.00214418846948964
0.00204427108189719
0.00192341710372088
0.00178401030036574
0.00162959148234245
0.00146354546957654
0.0012885958530358
0.00110677671486235
0.000919274912720997
0.000726523317855934
0.000528327123456157
0.000319617642051149
8.71336726763939e-05
0.00236250410289692
0.00228898841249439
0.00219377381542245
0.00207703297625596
0.0019409358592856
0.00178883732364984
0.00162400332606219
0.00144918013771605
0.00126674732022684
0.00107873770342838
0.000886561527943298
0.000691067249715325
0.000492768365554187
0.000288326621825046
7.06898261056532e-05
0.00249353435119336
0.00242516871250396
0.00233478383109683
0.00222235281065235
0.00208986526868443
0.00194051266581496
0.00177741461661737
0.00160321795794737
0.00142033417116709
0.00123110995263636
0.00103770516922421
0.000841788546223978
0.000644649637335301
0.000447691004561206
0.000249796031941325
5.24035575065619e-05
0.00261533501886935
0.0025521757815043
0.00246674509043031
0.00235882545774407
0.00223024371119438
0.00208404957490225
0.00192321972520315
0.00175025554203498
0.00156745274699096
0.00137720621285507
0.0011819515782911
0.000983998790743943
0.00078527066021477
0.000587545594327256
0.000393379089756647