/*--------------------------------*- C++ -*----------------------------------*\
  =========                 |
  \\      /  F ield         | OpenFOAM: The Open Source CFD Toolbox
   \\    /   O peration     | Website:  https://openfoam.org
    \\  /    A nd           | Version:  12
     \\/     M anipulation  |
\*---------------------------------------------------------------------------*/
/*   Windows 32 and 64 bit porting by blueCAPE: http://www.bluecape.com.pt   *\
|  Based on Windows porting (2.0.x v4) by Symscape: http://www.symscape.com   |
\*---------------------------------------------------------------------------*/
FoamFile
{
    format      ascii;
    class       volScalarField;
    location    "200";
    object      nut;
}
// * * * * * * * * * * * * * * * * * * * * * * * * * * * * * * * * * * * * * //

dimensions      [0 2 -1 0 0 0 0];

internalField   nonuniform List<scalar> 
10142
(
7.63256623978905e-05
7.57788150167669e-05
0.000625119213876943
7.78384290982838e-05
7.51037769665448e-05
0.000619791836420523
7.72890565169841e-05
0.00148974453900082
0.000634564633411534
7.95913176428666e-05
7.42878006312176e-05
0.000613346806595108
7.65979345474985e-05
0.00147648685610579
0.000629161264895789
7.90300903030817e-05
0.00244510661058155
0.00150201149023797
0.00064630509828488
8.05674312062528e-05
7.33027067762242e-05
0.000605662418275239
7.57609366185897e-05
0.00146051631998919
0.00062260100724719
7.8314796069147e-05
0.0024223220939347
0.00148864400576035
0.000640786042129574
7.99955621489197e-05
0.00337875206820123
0.00245408904600245
0.00151590893684792
0.000653128995870623
8.02258345512656e-05
7.20994675855771e-05
0.000596558832280992
7.47531962274408e-05
0.00144151989541782
0.000614776595042323
7.74472411141419e-05
0.00239500655805227
0.00147253351614371
0.000634069324972765
7.92616758725769e-05
0.00334577506191856
0.00243122053854547
0.00150238042993403
0.000647517288826858
7.96505393103368e-05
0.00423979722335416
0.0033812837807199
0.00246058617737744
0.00152202022802857
0.000651082838748594
7.89264000136997e-05
7.06190660100291e-05
0.000585728352845354
7.35338913124695e-05
0.00141909079840112
0.000605504584280211
7.6411811170461e-05
0.002362604342321
0.00145336400258314
0.000626054786901005
7.83706774018426e-05
0.00330639960405491
0.002403794606449
0.0014860739766028
0.000640684172695815
7.89129925897727e-05
0.00419653835034827
0.00334828577651111
0.00243760185019
0.00150837054065797
0.000645448468389806
7.83532217125672e-05
0.00501094346142995
0.00423547862523595
0.00337601134133018
0.0024566185615204
0.00151430948336415
0.000641633385126647
7.72304802555678e-05
6.89604636121298e-05
0.000572142431774959
7.20568097113813e-05
0.00139271644317082
0.000594516540264483
7.51645347030934e-05
0.00232442061142491
0.00143071411475911
0.000616568864876912
7.73143832930887e-05
0.00325983020927229
0.00237125842487031
0.00146667595754737
0.000632533590735987
7.8020247967074e-05
0.00414506938197774
0.00330887604021729
0.00241004545690329
0.00149193282150502
0.000638597245916279
7.76216080116971e-05
0.0049576529044561
0.00419227960319885
0.0033429996995212
0.00243357681353803
0.0015006572904783
0.000636043632365281
7.66614308786258e-05
0.00569174228098376
0.00500158794344422
0.00421803507144263
0.00335686610762881
0.00243666220627802
0.00149357717155163
0.000628133065586899
7.53723580008653e-05
8.13022008783598e-05
0.000554567062423801
7.06382861500163e-05
0.00136160645955182
0.000581152772983001
7.36694132873833e-05
0.0022796246390075
0.00140406042873583
0.000605334498833009
7.60469435588144e-05
0.00320506940879809
0.00233290816443877
0.00144374633088092
0.000622910650816125
7.69611624138165e-05
0.00408436445743676
0.0032622649599007
0.00237736608163783
0.00147239431689319
0.000630446060325804
7.67398564619583e-05
0.00489442370843105
0.00414087017977607
0.00330358822963166
0.00240598403037307
0.00148424834556323
0.000629264526204615
7.59382615616516e-05
0.00562886388037424
0.00494842664329781
0.00417494902287026
0.00332392704178422
0.00241370648795572
0.00148005463830995
0.000622634412886685
7.48129938078624e-05
0.00628901803894667
0.00567946792664661
0.0049743817955806
0.0041829648779369
0.00331985552739176
0.00240056246101318
0.00146362483806974
0.000612465054778209
7.33596356342275e-05
7.69236204199507e-05
0.000552066726598457
6.9138894833822e-05
0.0013244303196896
0.000563622489713034
7.22173946091357e-05
0.00222714944879255
0.00137258244087498
0.000591881979346762
7.45341722129326e-05
0.00314091938850607
0.00228789283979533
0.00141673481190506
0.000611529660941183
7.56996612152903e-05
0.00401314347365609
0.00320745593823083
0.00233885278359614
0.00144933633303207
0.000620843019351617
7.56987429863925e-05
0.00482002606582799
0.00408023467561309
0.00325699415496136
0.00237329702311306
0.00146478788641164
0.000621224645873096
7.50742903066271e-05
0.00555436511229896
0.00488533593463026
0.00412369090853392
0.00328464662639575
0.0023862694439386
0.00146384732607393
0.00061598678581367
7.41065721538079e-05
0.00621705895251126
0.00561676310117169
0.00492145119240141
0.00414011254357957
0.00328715258330475
0.00237786357366797
0.00145034875492134
0.000607091700114293
7.28055151663394e-05
0.00627510208245933
0.00564549543494983
0.00492560280886485
0.00412756913895117
0.00326444833582064
0.00235077249460754
0.00142698601683479
0.000595034497781031
7.13496393020462e-05
7.00390520551803e-05
0.000528925551388486
7.94925056945808e-05
0.00128538088198908
0.000547892811777841
8.51365065416911e-05
0.00216540694988212
0.00133471660021737
0.000574791186738914
7.29359594482538e-05
0.00306588398292778
0.00223508705232739
0.00138479874611084
0.000597910446867237
7.41975491021443e-05
0.00392987348215923
0.00314324607927894
0.00229363283305932
0.00142219190025832
0.000609540750759176
7.44670269650391e-05
0.00473292500909262
0.00400910009958476
0.00320222779934382
0.0023348197723238
0.00144188597737133
0.000611802081203283
7.4083136233398e-05
0.00546689385310832
0.00481110049302211
0.00406325702706488
0.00323825540524191
0.00235383144248104
0.00144468717647512
0.000608144682109816
7.32913996275942e-05
0.00613184518270022
0.00554245949670673
0.00485865050424848
0.00408918397984568
0.00324822081634144
0.00235080244060938
0.00143449168704253
0.000600626084359402
7.21318841965382e-05
0.00673076013539755
0.00620333068963844
0.00558311028646588
0.00487306631455414
0.00408514041368406
0.0032321765731922
0.00232849476232533
0.00141406488687615
0.000589837009249605
7.07477426436753e-05
0.00623644097472762
0.00558594680275609
0.00485313583440296
0.00405121753048433
0.00319158222103227
0.00228896667806093
0.00138441921907802
0.000577305718863367
8.22629176719689e-05
6.14921111277991e-05
0.000491605209228488
7.34847374532281e-05
0.00123150356091652
0.000536275735650396
8.26334649421696e-05
0.00209234553126023
0.00129235990521892
0.00056782732168144
7.13183485514356e-05
0.00297791284676654
0.00217278813085409
0.00134639292011901
0.000580082873561163
7.25541295143612e-05
0.00383268135276611
0.00306812319251744
0.00224053952665792
0.00139009818140271
0.00059613310895396
7.29912588928878e-05
0.00463128412239414
0.00392593862305933
0.00313808776591745
0.00228968286757857
0.00141503539015186
0.000600784496461576
7.28978410157053e-05
0.00536468492027379
0.00472419560348087
0.00399239124823968
0.0031837847943348
0.00231573423164709
0.00142224704238281
0.000599193840223574
7.25532741612487e-05
0.00603198503206043
0.0054552138846675
0.00478478139673352
0.00402919358236723
0.00320231834088253
0.00231889516919178
0.00141582056999089
0.00059351823226671
7.16176402149564e-05
0.00663553646266395
0.00611836083459547
0.00550920775322209
0.00481078772886587
0.00403479155905448
0.00319384081972871
0.00230201525282362
0.00139869945132848
0.000583920441298656
6.99034507646527e-05
0.00717843845116726
0.00671588835239216
0.00616504506187306
0.00552409686825836
0.00480122380082907
0.00400943469154515
0.00315993459413453
0.00226726193553986
0.00137199314827173
0.000572150430488356
8.09905672951715e-05
0.00616838862920163
0.00549864371993167
0.00475630602058321
0.00395374090271992
0.00310155645661169
0.0022153343083922
0.00133666350110344
0.000571282737891942
7.59896296021882e-05
5.16986629989975e-05
0.000443129117425497
6.50236564527747e-05
0.00115964995719255
0.000501306333978325
7.7130318200196e-05
0.002003797354238
0.00124087721435452
0.000546296405769408
6.94097995890919e-05
0.00287394038957805
0.00209913669998509
0.00130446232026215
0.000559561319176539
7.10446506595172e-05
0.00371919903482051
0.00298004369600593
0.0021778768439049
0.00135118611577699
0.000578941818600509
7.13035186581797e-05
0.00451289742362744
0.00382888080210281
0.00306305758695771
0.0022367321334586
0.00138350071530477
0.000587809799781159
7.14830120271713e-05
0.00524561364790201
0.00462279413764401
0.00390958312538958
0.00312005561427179
0.00227116827760166
0.00139611922301673
0.000588654179066093
7.14639577336776e-05
0.00591550516377873
0.00535327454540974
0.00469834186807952
0.00395891368973593
0.00314851715349882
0.00228154998022899
0.00139424746462454
0.000586709589990247
8.57385473097199e-05
0.00652404467414642
0.00601877505618758
0.00542245839078857
0.00473759168983189
0.00397556807905272
0.00314873898184791
0.00227089102472822
0.00138109274732503
0.000579973191103413
8.28540389486892e-05
0.00707379604780701
0.00662096101172731
0.00608057505661187
0.0054508892266785
0.00473976719158046
0.00395994388068217
0.00312243238806208
0.00224154987760587
0.00135760983356188
0.000566940561950547
8.10365261063416e-05
0.00756760431603696
0.0071625909752273
0.00667402981022212
0.00609764986083141
0.00543761786892452
0.00470528262275613
0.00391282804991792
0.0030707092280119
0.00219433730912465
0.00132474417156486
0.000565397277086172
7.42293436170993e-05
0.0060683147092529
0.00538286484099913
0.00463436623681774
0.00383421959948978
0.00299347814452342
0.00212909799900058
0.00128522791793572
0.000541150443694976
6.49652018809344e-05
4.16309738278825e-05
0.000384687930086344
5.5032384351284e-05
0.00106965574029765
0.000453037784405569
6.87679125647237e-05
0.00189570316639402
0.00117040473783172
0.000512887860599511
7.86607686048882e-05
0.00275127240227935
0.00201100212449925
0.00125146311786371
0.000537086513084632
8.33888125133108e-05
0.00358635687501213
0.00287601546661138
0.00210400996685726
0.00130575282107831
0.000559133166295912
6.96886552073163e-05
0.00437509302309398
0.00371556805299944
0.00297512621526422
0.00217427712100784
0.00134567103163579
0.000572022806393773
6.99172671982452e-05
0.00510715218872538
0.00450469915885435
0.00381297912034708
0.0030455843481753
0.00221907309816685
0.00136568611522391
0.000576492463321557
6.99505122511338e-05
0.00578000114449781
0.00523452799887479
0.0045975286394848
0.00387686679924735
0.00308569339823244
0.00223805175311237
0.00136922208509309
0.00057699223438654
8.41973210914215e-05
0.00639416211996597
0.00590261584089063
0.00532113673987818
0.00465201053835665
0.00390628588103246
0.00309600223309232
0.0022346676375015
0.00136149585760236
0.000587887783757315
8.15546280021604e-05
0.00695141130996526
0.00650978601093178
0.00598159533255643
0.00536501745520118
0.0046676259724041
0.00390183363643395
0.0030784177878542
0.0022115633358993
0.00134238147614249
0.000575128251889286
7.91449631455289e-05
0.00745408220348917
0.00705826669507287
0.00657969968495948
0.00601403702826585
0.00536547313496982
0.00464497620328013
0.00386446842726069
0.00303425062274244
0.00216967201583756
0.00131150996435758
0.000560254893931876
7.23212411989707e-05
0.00790475100612971
0.00755080754953591
0.00711770725760525
0.00659969475261217
0.00599859799669392
0.00532298779272119
0.00458450068626194
0.00379438717443731
0.00296357150404593
0.00210882581398516
0.00127321184520721
0.000534368480547941
6.32300076559056e-05
0.00593542105294514
0.00523768323082285
0.00448559976535393
0.0036906785159837
0.00286528188998094
0.00202800176843173
0.00121547064847069
0.00049764742880542
5.2781271860868e-05
3.12475571283321e-05
0.000318802220051434
4.43687659960698e-05
0.000961793813055291
0.000394269371465952
5.85240957457309e-05
0.00176606718813729
0.00108112274762849
0.000465239121409338
7.06886634910406e-05
0.0026064942835633
0.00190355221503691
0.0011826186710005
0.00051806624684812
7.82525066955292e-05
0.00343078290208628
0.00275359229924852
0.00201617909185888
0.00125306068670688
0.000551051036717744
8.14110861650779e-05
0.00421465432512794
0.00358291785513229
0.00287143991749197
0.00210027072451243
0.00130123294279215
0.000553963370650251
8.10240861459242e-05
0.00494630290353162
0.00436724981995287
0.00370026285840167
0.00295841042086477
0.00215785592924974
0.00133012463289295
0.000564192112179485
8.26881240840918e-05
0.0056226317222707
0.00509645731836115
0.00448017290270356
0.00378124798335701
0.00301243696145472
0.00218742879560687
0.00134045559061915
0.000566073554988957
8.24662150206512e-05
0.00624324471911087
0.00576749401717717
0.0052031573832734
0.00455228173898461
0.00382552264442314
0.00303458259575799
0.00219263037651146
0.00133803460553306
0.000579415471203604
8.05278272400733e-05
0.00680899089793128
0.00638026712777069
0.00586617680564362
0.00526479443827023
0.00458338026588693
0.00383397658058913
0.00302710140177061
0.00217694175604363
0.00132756682883307
0.000569222288553727
7.63833585467656e-05
0.00732148888232835
0.00693623406118064
0.00646923175537783
0.00591612415748589
0.00528094112591446
0.00457429416424198
0.00380779957894732
0.00299159496883127
0.00214122667826027
0.00129943706773047
0.000553290192911041
6.98352123928031e-05
0.00778290529533316
0.00743763277639982
0.00701405000692338
0.00650637790423262
0.00591628839786675
0.00525230500977188
0.00452567145043979
0.00374740940840909
0.00292834646310772
0.00208521195904352
0.00125989398486938
0.000526854650989605
6.12177296242798e-05
0.00819566632089468
0.00788704402669217
0.0075031969141447
0.00703738174974671
0.00648973125540016
0.0058671267133142
0.00517928525660363
0.00443715366014593
0.00365210923009595
0.00283637191874003
0.00200811323089836
0.00120266667753876
0.000490665677859617
5.12697727519364e-05
0.00576879361027011
0.00506098366789815
0.00430720497316501
0.00352003571348352
0.00271336769163548
0.00190492060150595
0.00112558709548089
0.000445339696915452
4.05051693561625e-05
2.27164501577478e-05
0.000248377949485648
3.37251490768257e-05
0.000837294310265857
0.000327505235048802
4.73413105451065e-05
0.00161397375325862
0.00097354418426564
0.000406228926730565
6.0343090081133e-05
0.00243713679900789
0.00177447750002225
0.00109448197409663
0.000473009380376421
6.97934485541768e-05
0.00324982897490479
0.00260927777948605
0.00190996807204455
0.00118883683778726
0.000520338392531739
7.52750800197848e-05
0.00402779755856749
0.00342775603847359
0.00274978411211682
0.00201349884883397
0.00125300520511966
0.00054623921117837
7.77282433675335e-05
0.00475957953184205
0.00420723853038522
0.0035684382960575
0.00285577557401385
0.00208540054775253
0.00128802878089382
0.000558483809555229
7.9021234569479e-05
0.00544006280725908
0.00493607469760306
0.00434365073140845
0.00366980621485233
0.00292686725320589
0.00212833073193258
0.00130797657382951
0.000567503632490207
7.90645812568542e-05
0.00606816786565714
0.00561058067119024
0.00506603607618087
0.0044362877280256
0.00373154304564074
0.00296314587581699
0.00214394075836304
0.00131120193001862
0.000567820506532405
7.71316132241599e-05
0.00664368471099751
0.00622977897800884
0.00573196404231582
0.00514818090295371
0.00448532614683773
0.00375501935612263
0.00296748269741056
0.00213665032193349
0.00130573483132909
0.000559789858927484
7.30840484831339e-05
0.00716736432417331
0.00679421781545499
0.00634056393043515
0.00580202255669416
0.00518238710023362
0.00449187648136588
0.00374175896860092
0.0029420047037509
0.00210861948484216
0.00128165547361723
0.000542809477115756
6.68659357031615e-05
0.00764077089539705
0.00730542811610574
0.00689281532355752
0.00639715851288376
0.00581999817192089
0.00516960027186639
0.00445684153282009
0.00369247868148062
0.00288724983212998
0.00205805455583139
0.00124364536427147
0.000517377020255493
5.8850654604022e-05
0.00806604563098608
0.00776557833797254
0.00739076554115211
0.00693488337945905
0.0063979538488493
0.00578660335640229
0.00511046410903096
0.00438011513707575
0.00360673221555476
0.00280242289107701
0.00198494541043735
0.00118787251572479
0.000482509988106618
4.95160226386017e-05
0.00844555293089643
0.00817712023151763
0.00783696770020119
0.00741757850336778
0.00691784916306657
0.00634325436229262
0.00570232476780111
0.00500439151978986
0.00426042646885924
0.00348286875076884
0.0026853664136538
0.00188503085692132
0.00111257076919904
0.000438651723801193
3.92863306137363e-05
0.00556617028081558
0.0048494426986181
0.00409535203539409
0.00331790047611171
0.00253195018828348
0.00175441864619803
0.00101584180837121
0.000384640584124405
2.84539228379481e-05
1.5176452751332e-05
0.000182842977191883
2.43094404584916e-05
0.000698898620398766
0.000256894424359301
3.62035167723786e-05
0.00143935577417753
0.000849096634331539
0.000338883855802338
4.89268690021343e-05
0.00224142130196258
0.00162291024155305
0.000987704928552036
0.000414759091754027
5.9376418965147e-05
0.00304068172091894
0.00244041145422271
0.00178223728013413
0.00110299204367568
0.000474119410385422
6.65328307535952e-05
0.00381162078717242
0.00324733088859101
0.0026067053283771
0.00190951944548157
0.00118743427600544
0.000513714780248693
7.08667847268358e-05
0.00454310105965059
0.00402087997754333
0.0034143962093408
0.00273571694054404
0.00200091172527999
0.00124082199421189
0.000536639360839504
7.31671625336576e-05
0.00522847215240442
0.00474989802783644
0.00418480747105439
0.00353968118867382
0.00282636432956256
0.00205843525839468
0.00127018054908831
0.000550622694736303
7.37787465298048e-05
0.00586528387090142
0.00542855145133482
0.00490682457637936
0.00430147198226081
0.00362218226910426
0.00287992840359099
0.00208738331498902
0.00128306632976068
0.00055278128668292
7.24706811536593e-05
0.00645212977967654
0.00605521087879351
0.00557616539344017
0.00501274909506399
0.00437141761797063
0.00366330225457013
0.00289829820264739
0.00208995867292378
0.00127894151787735
0.000545742718748506
6.89883343864226e-05
0.00698867850232238
0.00662938606282578
0.00619111032427898
0.00566942905734115
0.00506783590667549
0.00439609089130824
0.00366505765094474
0.00288444764925621
0.00206993331304682
0.00125929262609426
0.000530146530089065
6.34461508252177e-05
0.00747574601023297
0.00715174915487853
0.00675175519890027
0.00627001543974145
0.00570789492713551
0.00507330468083258
0.00437671904811465
0.00362858957859795
0.00283953686368645
0.00202580683381863
0.00122321706729144
0.000505874077543436
5.61331214474633e-05
0.00791501364012055
0.00762387060578959
0.00725945021580854
0.00681507199675629
0.00629063810491916
0.00569252223156525
0.0050300664412055
0.00431350837282621
0.00355378188086989
0.00276282582151776
0.00195752360353013
0.00117001222219012
0.000472834951944141
4.74776483349048e-05
0.0083086794031899
0.00804791305126349
0.00771632573554112
0.00730645500623125
0.00681712845503772
0.00625358895721442
0.00562407214271151
0.00493782477397296
0.00420547477034171
0.00343924861701787
0.00265254037863157
0.00186175058008629
0.00109733299897201
0.000430803172903674
3.78753235434718e-05
0.00865907766387746
0.00842625992929016
0.00812485463021554
0.00774667160439835
0.00728963123873422
0.00675808153409671
0.00615941821098077
0.00550192740295443
0.00479498029519455
0.00405047529015233
0.00328223468836858
0.00250479932039898
0.00173486230543852
0.00100322886541558
0.000378519203271064
2.75568782087185e-05
0.00532394857591756
0.00459874617836818
0.00384510978938365
0.00307839903169008
0.00231452388710528
0.00157205987207618
0.000883474759391861
0.000313940067083041
1.71201948905036e-05
1.04590672480512e-05
0.00012592610760631
1.65392780604799e-05
0.00055427814811727
0.000190689355878184
2.61122073668505e-05
0.0012429657874471
0.000710848137625979
0.000267988269954402
3.75505998492685e-05
0.0020179280453618
0.00144888961022131
0.000863939570105521
0.000348050491382202
4.81062552713588e-05
0.0028009049502985
0.00224528494520729
0.00163204316053835
0.000998027490570569
0.000416858695589572
5.63111808465139e-05
0.00356307034058737
0.00303875259278307
0.00243934415153948
0.00178410636895873
0.00110271516089944
0.000468065015600629
6.21007799679576e-05
0.00429282649332563
0.00380532874612446
0.00323545106782063
0.00259484038397385
0.00189876151122754
0.00117539346940971
0.000502177831976977
6.56848641774023e-05
0.00498368277415521
0.00453402742276127
0.00399991039397036
0.00338772999575078
0.00270880578751861
0.00197601597001119
0.00122004478809093
0.000523172201462522
6.71906906705349e-05
0.00563043931714962
0.00521758626566979
0.00472208620322916
0.00414476417200428
0.00349473092305959
0.00278243693740024
0.00202036983263876
0.00124366622932957
0.000531427022207804
6.6823519362716e-05
0.00623041587689015
0.00585292516736589
0.00539550000946464
0.00485561990411204
0.00423918354842063
0.00355674859938582
0.00281783652865475
0.0020357952016526
0.00124633651562009
0.000527593022906425
6.42367641011913e-05
0.00678187724853638
0.00643839004531611
0.0060178018549131
0.00551561502425056
0.00493493724113683
0.00428497381460852
0.00357610828525146
0.00281768574274225
0.00202441052166677
0.00123114133740545
0.000514462830405087
5.95586006864974e-05
0.00728465317225427
0.00697358369211377
0.00658807783010382
0.00612242063466819
0.00557774650077091
0.00496152204921522
0.00428374900101521
0.0035545005254687
0.00278406569858914
0.00198778839119856
0.00119884528476869
0.000492431583715098
5.30692073409208e-05
0.00773984966666587
0.00745933366338938
0.00710683198634996
0.00667573876415484
0.00616581978419878
0.00558312344586759
0.00493660031824845
0.00423611290163296
0.00349229553344125
0.00271670976323211
0.00192509118249577
0.00114873192056227
0.000461543069128123
4.51664498857514e-05
0.00814935448031694
0.00789734609094755
0.00757559989297613
0.00717673682721521
0.00669949940827672
0.00614886949457306
0.00553278033926973
0.00486020144798484
0.00414143662807184
0.00338843490335899
0.00261417679397232
0.0018343557004003
0.00107940790382656
0.000421621028307295
3.62350563864784e-05
0.00851543840877198
0.00828983306208735
0.00799655201884505
0.00762748799369117
0.00718052446513679
0.00665980696895182
0.0060724391330839
0.0054264261012532
0.00473105631012661
0.003997888303726
0.00324048304649364
0.00247303294921259
0.00171199759053126
0.000988487486294204
0.000371391305117047
2.6528135399692e-05
0.00884040351846706
0.00863913789540739
0.0083720934214177
0.00803047086544878
0.0076113601673004
0.00711817713817554
0.00655730196956703
0.0059359352761449
0.00526233466351906
0.00454674012571996
0.00380237103790343
0.0030443828614564
0.00228849236350417
0.00155333499090548
0.000871670622205462
0.000308454274715449
1.65470495139702e-05
0.00503755369054376
0.00430365098710625
0.00355039376579401
0.002794540966307
0.00205405113885174
0.0013513096206714
0.000722819060517222
0.000230944347897929
7.7898944957929e-06
6.33859919656343e-06
8.37610524329975e-05
1.08946785707207e-05
0.000409868985464476
0.000135105840223421
1.78075237161197e-05
0.00102669162108175
0.000565953656186093
0.000201401703113485
2.72196892388627e-05
0.00176487363262584
0.00125310020986773
0.000726528381971428
0.000278082600885147
3.69956571078807e-05
0.0025278352871048
0.00202252232476921
0.00145945951055858
0.000876427339369554
0.00035208864070213
4.55425601483289e-05
0.00327930101639648
0.00279964194954692
0.00224590403310535
0.00163648379147131
0.00100042109119211
0.000412939614985829
5.23232547639423e-05
0.00400588899989809
0.0035574674091763
0.00302863945267187
0.00243011788885888
0.0017760660236502
0.00109264684540931
0.000457746446948518
5.71410285111923e-05
0.00470141687367829
0.00428444538330858
0.00378612986673745
0.00321138713332771
0.00257086290514725
0.00187606164404451
0.00115479484142088
0.000487535488034846
5.98074386279781e-05
0.00535913499737623
0.00497349421558793
0.00450796572592865
0.00396251716245672
0.00334590476023299
0.00266786718813001
0.00193938433650036
0.0011915684577581
0.000503752262062832
6.03652047445413e-05
0.00597411030145575
0.00561876964876167
0.00518619430192255
0.00467343341184273
0.00408565566227575
0.00343273059286976
0.00272362545517803
0.00197042233375158
0.00120505612835987
0.000505433100196934
5.88944949165267e-05
0.0065428524884995
0.00621732948802349
0.00581704826990065
0.00533737497855757
0.00478090196553081
0.00415614727659038
0.00347290680557879
0.00274003960732043
0.00197062966820916
0.00119671344524616
0.000495836425655377
5.52204115042625e-05
0.00706379477871559
0.00676739148235091
0.00639847782981147
0.00595137425176678
0.00542690993159523
0.00483199414905219
0.00417605523416661
0.00346868445764115
0.00271958131642816
0.0019427326459545
0.0011695888694055
0.00047677636625086
4.96590835697895e-05
0.00753725859591194
0.00726880750194637
0.0069299387298034
0.0065141520036338
0.00602104793855207
0.00545626274104417
0.00482825967741725
0.00414645343515034
0.00342107066250227
0.00266312084736057
0.00188713384315999
0.00112386818633509
0.000448543907810574
4.2588853553475e-05
0.00796475410185856
0.0077227124359991
0.00741222804847993
0.00702604452003483
0.00656281316012202
0.00602720723015385
0.0054267762896747
0.00477011600655624
0.00406716603578351
0.00332950236975462
0.00256953469630558
0.00180232921440519
0.00105852225941633
0.000411015594715456
3.43833580735581e-05
0.00834837755708579
0.00813101106363418
0.00784705905953702
0.0074885319388922
0.00705326478200329
0.00654516239804605
0.00597100224638033
0.00533849594342503
0.00465666779972805
0.0039367437061196
0.00319194162447458
0.00243605496234804
0.00168537305400888
0.000971334273741245
0.000363004487858808
2.53233796960213e-05
0.00869044932400115
0.00849597760898266
0.00823665068900084
0.00790377554724961
0.0074944301533471
0.00701184968583454
0.00646214061551112
0.0058522127537129
0.0051900677160639
0.00448585004777063
0.00375243271857652
0.00300469206597788
0.00225815640993855
0.00153155319083097
0.000857956724898207
0.000302091890966001
1.58981044686474e-05
0.00899322126427487
0.00881991567716141
0.00858335559017709
0.00827419212050755
0.00788877626842473
0.00742971702031494
0.0069024943149716
0.00631325356885785
0.00566908681801134
0.00497898170619673
0.00425444581714091
0.00351007941968684
0.00276248626752192
0.00202957065303045
0.00133386743153098
0.00071200722493762
0.000226104006125542
7.50448756961417e-06
0.00470163288806144
0.003958035582916
0.00320416299222723
0.00245849217610823
0.00174226248371862
0.00108416302647773
0.000527466813536867
0.000134351207628167
2.00731258487081e-06
2.50728705629169e-06
4.66138185939659e-05
6.39880024005421e-06
0.000273552639637507
9.14973728530414e-05
1.13941175065508e-05
0.000790538788989184
0.000422626321885765
0.000145350436342912
1.85753313176374e-05
0.00147863603533845
0.00103686307964065
0.000582281290733747
0.000212247982019527
2.69400258894994e-05
0.00221723436934546
0.00177019791336781
0.00126495869406161
0.000741671650462396
0.000284590640434128
3.50878349635964e-05
0.0029567631488895
0.00252740256158878
0.00202493004911927
0.00146673363700308
0.000882641107131741
0.000351360627484066
4.22779036983772e-05
0.00367903649600262
0.00327444002945195
0.00279146556080031
0.00223961106719061
0.00163207760147814
0.000994116837670837
0.000405424388444143
4.80026147264869e-05
0.00437775587476946
0.00399825878810046
0.00354031152339704
0.00300758976038806
0.00240968971786288
0.00175670400146775
0.00107470284257146
0.000444682189800699
5.17973617380265e-05
0.00504683508985989
0.00469195886043267
0.00426043212297729
0.00375180273113564
0.00317322858048031
0.0025334708697919
0.00184189356610859
0.00112702954390036
0.000469343841254829
5.33937127608966e-05
0.00567842817348873
0.00534823007604397
0.00494409421276405
0.00446240229829932
0.00390729306016797
0.00328795668360539
0.0026124572912691
0.00189104653070124
0.001153742551305
0.000479120776853881
5.30136234077219e-05
0.00626696982708127
0.00596177231074268
0.00558474742281109
0.00513101640261596
0.00460246327183634
0.00400674255974006
0.00335290360243282
0.00264899447702742
0.00190639004159818
0.00115533271242816
0.000474217384397488
5.04634365124995e-05
0.00680893023094021
0.00652907379016917
0.00617910416018789
0.00575336825845203
0.00525227855183956
0.00468203398810032
0.00405135535677578
0.00336921763998239
0.00264446830492443
0.00188957633996197
0.00113507164455758
0.000458789491015024
4.59141682717706e-05
0.00730343966585261
0.0070486076944764
0.00672527333085924
0.00632707902047068
0.00585341638731599
0.00530940016841905
0.0047028891493002
0.00404274624749356
0.00333864568620139
0.00260081424136334
0.00184270626353909
0.00109493886379592
0.000433687600944708
3.97508204185155e-05
0.00775148616486524
0.00752073389321302
0.00722308970042887
0.00685146703915941
0.00640441958510128
0.00588624701156835
0.00530401836894734
0.00466586301939556
0.00398127528801847
0.00326134343740273
0.00251780694587241
0.00176519326103173
0.00103443564326873
0.000398896522237241
3.23343802015535e-05
0.00815497567894297
0.0079469827555306
0.00767369343655998
0.00732728128006645
0.006905535551223
0.00641208121893321
0.00585331125379353
0.00523656409905816
0.00457050609359489
0.00386598007710827
0.00313577105380253
0.00239323667639385
0.00165457166267853
0.000951540499087605
0.00035330313051485
2.39589659987119e-05
0.00851616079632091
0.00832945666609955
0.0080789930514476
0.00775622191948022
0.00735820381451396
0.0068879583081722
0.0063512740664967
0.00575473731759579
0.00510607354258649
0.00441516134680358
0.00369452656435448
0.0029587140542659
0.00222305512738332
0.00150638708126241
0.000842033111909956
0.000294562852003875
1.51192497673257e-05
0.00883736990189446
0.00867047163961886
0.00844125682340804
0.00814050218050045
0.00776456638086865
0.00731589358336854
0.00679970407706278
0.00622186543388424
0.005589194956147
0.00491044292465158
0.00419700232166078
0.0034631390640377