/*--------------------------------*- C++ -*----------------------------------*\
  =========                 |
  \\      /  F ield         | OpenFOAM: The Open Source CFD Toolbox
   \\    /   O peration     | Website:  https://openfoam.org
    \\  /    A nd           | Version:  12
     \\/     M anipulation  |
\*---------------------------------------------------------------------------*/
/*   Windows 32 and 64 bit porting by blueCAPE: http://www.bluecape.com.pt   *\
|  Based on Windows porting (2.0.x v4) by Symscape: http://www.symscape.com   |
\*---------------------------------------------------------------------------*/
FoamFile
{
    format      ascii;
    class       volScalarField;
    location    "200";
    object      omega;
}
// * * * * * * * * * * * * * * * * * * * * * * * * * * * * * * * * * * * * * //

dimensions      [0 0 -1 0 0 0 0];

internalField   nonuniform List<scalar> 
10142
(
3.11668212756559
3.09343647912405
1.05702839232734
3.06745283781743
3.06573704111179
1.0495439237262
3.04481496307279
0.644762837269234
1.04154333988165
3.01168273882044
3.03220324513273
1.0408854612777
3.01794371490198
0.640357408697984
1.034172024641
2.98945723543687
0.490462468060721
0.63891603159896
1.0203545650586
2.95425713203555
2.99223036146841
1.03086422974032
2.9852400579829
0.635359171731504
1.02565451012676
2.96318827070243
0.487295709149189
0.634549865239194
1.01308934818037
2.93232081998497
0.415474542298441
0.487995957809437
0.629599498733267
0.999923028513694
2.90390522310377
2.94579736049974
1.01933252158789
2.94612970617696
0.629712052497601
1.01579324998983
2.93129864843486
0.483751862739853
0.629588517676578
1.00471471821805
2.9064891621474
0.412969336391205
0.484845546933261
0.62526909547925
0.992723826439115
2.88216981034496
0.373882743316951
0.414385027528926
0.48338579041211
0.619380819641759
0.982819346733388
2.85629794059794
2.89956206453264
1.00630370950845
2.90004279432125
0.6233627951855
1.00444616347305
2.89280470983317
0.479817891693466
0.623982884871679
0.995029960281313
2.87523235931545
0.410199367411465
0.481312819107035
0.620348437679479
0.984443634863156
2.85661507170917
0.371790476393529
0.411887128862896
0.480244649484756
0.615065730649095
0.975630621317348
2.83472247716016
0.349007066381741
0.373368039590732
0.411839997834806
0.477549004146738
0.609641171736637
0.967240381022621
2.80298732064923
2.91400950757646
0.992900969842141
2.84810651366371
0.616280067737674
0.991552263746197
2.84734286109278
0.475486571224906
0.61768716974586
0.983874267952977
2.8373480666772
0.40717171429711
0.47738946740829
0.614789539660058
0.974881514525972
2.82562528566143
0.369502107172119
0.40911835063309
0.476718998400346
0.610164424312802
0.967372327692093
2.80944755098894
0.347200914137983
0.37127892743012
0.409340157340827
0.474402533778028
0.605313006527138
0.960022483885062
2.78159590815675
0.333461593500242
0.348704168420665
0.371768647710294
0.408152635857867
0.471194021234186
0.600104773734933
0.950234795401061
2.73993483387494
2.46685600848344
0.981097020930907
2.79953377262311
0.608504905084646
0.977619989427021
2.7942211297843
0.470768794626189
0.610676159790844
0.971188758748838
2.79278487671109
0.403904563792867
0.473071481025622
0.608553744286479
0.963858638372362
2.78849268678839
0.367037519237723
0.406089592219007
0.472801591749085
0.604628370028915
0.957833412473567
2.77877733860835
0.345243827053109
0.36898740083312
0.406565078708236
0.470869045796568
0.600396082135589
0.951738832126267
2.75663932129424
0.331872540279521
0.346899386936812
0.369672446898853
0.405637954749903
0.46802494015863
0.595739605346656
0.942973605861902
2.71887097792266
0.323529837078841
0.3332252290069
0.347523790394486
0.369186942871125
0.403694256079255
0.464474668213628
0.589851677107628
0.93021578977948
2.66715976111387
2.46710977771731
0.939726121295476
2.79496725293394
0.600206901463568
0.965113257144734
2.73433878244924
0.465710571779572
0.603014114029678
0.957129279309102
2.7404493045312
0.400439926060085
0.468374661574869
0.601628831139791
0.951327768426262
2.74485111555982
0.364431029584691
0.402820233260014
0.468490959463106
0.598414314815416
0.946854937617467
2.74239542173449
0.343166360703251
0.366516637760368
0.403526076532203
0.466939386125196
0.594836657062232
0.94217199391726
2.72652037086437
0.330157518422028
0.344937381312954
0.367368695583217
0.402843336584806
0.464462502437421
0.590775818503911
0.934649993161464
2.69457569153996
0.322130472969177
0.331636854910667
0.345709606235956
0.367071261795132
0.401151823720552
0.461267935365628
0.585431629829706
0.922925032148719
2.64735104097857
0.323317459981702
0.332230518810492
0.345519051523238
0.36585430754717
0.398709183251274
0.457212777755683
0.578242955154192
0.906719127863116
2.5885571955434
2.4684579407777
0.924122326345587
2.38279746884582
0.589560883247226
0.944782296484475
2.2875911105826
0.460449620321349
0.595007790522086
0.943253076796314
2.68077382214526
0.396858998480008
0.463358843711092
0.594088264051062
0.937429794640266
2.69370063078288
0.361743335111404
0.399353261579638
0.463808346304798
0.591515628031281
0.934353304720084
2.70006800626558
0.341015647510344
0.363901490173037
0.400242760037051
0.46261028347876
0.588584834836038
0.931162337046847
2.69105710050731
0.328363147455168
0.342851726079081
0.364880661909912
0.399777875790819
0.460493163057822
0.585153263807261
0.925048163914873
2.66534680483518
0.320590152399774
0.329916246634546
0.343732808301482
0.364742468875034
0.398321954796665
0.457656507670554
0.5803975584934
0.91459075474082
2.62559387115734
0.315973547272234
0.321917579240436
0.330631797644879
0.34368306574321
0.363707836121657
0.396128388677494
0.453956236409935
0.573753207764767
0.89941163367024
2.57416893052202
0.322420974413193
0.330545998143701
0.342880201856604
0.36202375917586
0.393293169440804
0.449233900380222
0.564980382384844
0.877443016763179
2.19480573107997
2.47049254982686
0.921966461073253
2.38444982034606
0.581832101488713
0.910591584870853
2.28846146597185
0.45527116551259
0.585680942809436
0.908551815744595
2.62177289533501
0.393319225582001
0.458184828167594
0.586234565537523
0.924420736155161
2.63554365511912
0.359074601305611
0.395771865257831
0.458822931363119
0.584013334680359
0.920376674772854
2.65197846049934
0.338866171195059
0.361202331678609
0.396758364988871
0.457902578555149
0.581614314138352
0.918611352941985
2.65105608308025
0.32654909151177
0.340689876201899
0.362242608218371
0.396459020336418
0.456107540585844
0.578804249617841
0.913748575160086
2.63209439302178
0.319007437651458
0.328113051609902
0.341626933835294
0.362221559365241
0.395209922280898
0.453621186327698
0.574683498041771
0.904344339383942
2.59763103724927
0.314529919969955
0.320371827457843
0.328895247130363
0.341678559615849
0.361340304631685
0.393249160978154
0.450279414005853
0.56862890617526
0.890686433334108
2.57450028351818
0.312065651672059
0.315772247053184
0.32100938989884
0.32892423217998
0.341011387298318
0.359837656145045
0.390666102544693
0.445917883768421
0.560393528114004
0.870389152439945
2.19480014114704
0.320941367330949
0.328363535324726
0.339854219976257
0.357887527594114
0.387494896152171
0.440477630773356
0.549548718429855
0.825101646414601
2.19513095048833
2.47707958883524
0.929517610462388
2.3873006038256
0.5781929790955
0.904356485611194
2.29017031273842
0.451016076736314
0.576716644944577
0.890027958470627
2.62065254200305
0.390128538997682
0.453088826820708
0.576646035314747
0.910232152706452
2.57802970224235
0.356586571758344
0.392232015451709
0.453695960766182
0.576338044566279
0.90673443268802
2.60372773000686
0.336831999502987
0.358518609512634
0.393156297235926
0.452883694308935
0.573958561418681
0.904574890572151
2.60933479160628
0.324801464470504
0.338525663782552
0.359513439357865
0.392927233847381
0.451315646516217
0.571669452262793
0.901056970058212
2.59850813584729
0.317452110100303
0.326287106023481
0.339438579877023
0.359540374276211
0.391828366545428
0.449141431482207
0.568132729158581
0.890615337206962
2.195127054682
0.31310582196888
0.318780267599641
0.327070668547498
0.339536818668869
0.358769234513446
0.390072130706994
0.446157564511129
0.562643028706573
0.876590183346643
2.1947970768372
0.310756008425913
0.314327406844959
0.319447244560226
0.327158454519927
0.338965874584361
0.357419726929526
0.387726802808549
0.44216298061372
0.555015148603635
0.861146627114525
2.19479726429068
0.309743590668461
0.3118827785034
0.314929427750788
0.319505159786271
0.326707264493604
0.337943998650844
0.355655585015725
0.384816783422172
0.437096080286065
0.544879044731747
0.819199926759809
2.19512542090208
0.31908673988366
0.325925975052134
0.336661074469883
0.353597874905249
0.381409691196477
0.430972679035132
0.530927763026535
0.796330547483452
2.19485568691378
2.47707765247967
0.948195695407705
2.39185417680148
0.578904825765411
0.910258381803949
2.29303147667512
0.448526663851367
0.57220598780258
0.881110841900776
2.21929747849747
0.387666517652295
0.448670027312754
0.568131710225027
0.893471272373565
2.18870502245036
0.354535868147549
0.389027150272006
0.44860220288493
0.568194828133332
0.891883121799573
2.59732060618837
0.335084229614638
0.356010021362898
0.3895870720003
0.447715520163327
0.565954606458589
0.889737840157438
2.57947793683848
0.323247109071955
0.336471940737715
0.35679021666907
0.389261219129747
0.446166635975869
0.563743616413564
0.886675190213242
2.58033515520722
0.316018283556402
0.32452376927083
0.337239682003624
0.35675439794616
0.388210720349141
0.444210062471689
0.560745171136068
0.877480832368055
2.19514130958217
0.311754582119367
0.317212919207951
0.325216884396167
0.33730192160031
0.356022286198047
0.386603033074237
0.441545179627987
0.55550266513784
0.843175998588596
2.1948048515979
0.30947373613105
0.312895240788624
0.317833887345073
0.325296428622049
0.336771650351344
0.354783447115367
0.384471335686699
0.437913889242626
0.54828363607395
0.830639127275712
2.19479197779223
0.308540070016478
0.310571709588392
0.313470117591247
0.317912663177219
0.324898590245701
0.335846276194495
0.353178860863051
0.381811276182217
0.433231094292254
0.539182295657435
0.810007242723295
2.19512262939621
0.308518020471947
0.309580401052961
0.31109891864053
0.313574746439847
0.317613939301196
0.324226056462811
0.334703327187334
0.351316774442614
0.378681491663252
0.427542623026177
0.52642808140995
0.791511371254528
2.19485236171608
0.317100685584751
0.323458137257716
0.333498569198486
0.349340287003264
0.375244944192478
0.420986155565522
0.514320488788319
0.774031888407468
2.19192995822876
2.49612145387186
0.979912285315962
2.39533601503348
0.584717461619957
0.92712578814846
2.29674769691033
0.448390488228283
0.572217305694872
0.88475231301617
2.22204871723377
0.386450868257843
0.445932702195039
0.562626619315033
0.862569964574192
2.19037351229288
0.353278278262397
0.386499006927956
0.444037412345351
0.559516959550962
0.853909027957088
2.18765645315788
0.333873603908533
0.353930380459635
0.386319699154228
0.442636862316411
0.557485731611251
0.873227340045987
2.192515777959
0.32207114948925
0.334697831131946
0.354226950083011
0.385603024369582
0.440803355022529
0.555056995384073
0.868082496408942
2.19505560520556
0.314843736826672
0.322948555639105
0.335139952848412
0.353955132800461
0.38442560269283
0.438859470019991
0.552392794413435
0.862233656674823
2.19518630728496
0.310571521328098
0.315763168321972
0.323417173345446
0.335042141207219
0.353149210260271
0.382865857847355
0.436436109378197
0.547718559853869
0.829131436683657
2.19481853346539
0.308290478593904
0.311532075600009
0.316238178392044
0.323394378316065
0.33446883189375
0.351951182889507
0.380896346593678
0.433106918871477
0.53947788938984
0.816880718564763
2.19479967643484
0.307374924401528
0.309281365838434
0.312016505200307
0.316260785360202
0.322982111165559
0.333585236602697
0.350466736548747
0.378467047314704
0.428803908475636
0.531408442428472
0.800602690618801
2.19511741636928
0.307394465877128
0.308375117041817
0.309772866395257
0.312084911567356
0.315976681859213
0.322362752246178
0.332545167681885
0.34877685153832
0.375607456661609
0.423586976527031
0.520868730953288
0.78550205487265
2.1948499727696
0.308042075016352
0.308373724763732
0.308850221755612
0.309867935144175
0.311934819983804
0.315581362449882
0.321707702714892
0.331489545902435
0.347010906862055
0.372480377242857
0.41760225638915
0.510315900805453
0.769558027721115
2.19192893783902
0.315208188133199
0.321177485639521
0.330603390815522
0.345406393811221
0.36942121175401
0.411787039712025
0.500178317877933
0.751734086211026
2.18619365483965
2.47684900258225
1.03030924057216
2.40111560495267
0.59696559093278
0.956769095611082
2.30018086900016
0.451242792543836
0.57730051077028
0.899432912154152
2.22558050497906
0.387022349381089
0.44552070732492
0.561672223872699
0.861666629452847
2.19317081553601
0.353226072215976
0.385171267910682
0.440908875400019
0.551944683158868
0.841260231604896
2.18937730661276
0.33355825204957
0.352619012207584
0.383655336571471
0.437823669976962
0.547085027117714
0.835671104423375
2.19338245433317
0.321538740064472
0.333451207847649
0.352065364040715
0.382202822519586
0.435463964752998
0.545809091299372
0.834541319090346
2.19542324772009
0.314128558654168
0.321744649105696
0.333303420124418
0.351287688107584
0.380602949965988
0.433184082736413
0.542784979078199
0.825171868562049
2.19532073189423
0.309702506180759
0.314567448303026
0.321793697366624
0.332861663593275
0.35023347959632
0.378919154514128
0.430838780730026
0.538861572687416
0.815247590213202
2.19486220185125
0.307309874717278
0.310333063904677
0.314751358522824
0.321531779128873
0.332120309338298
0.348965733852957
0.377020402882243
0.427798291766113
0.531284437810368
0.804222962315782
2.19481329607905
0.306327996427637
0.30808612680747
0.310624749955325
0.314615622819509
0.321010109300607
0.331196164136733
0.347535898485113
0.374775320442705
0.423750303743117
0.523984732893428
0.792667635584835
2.19512516206178
0.306321659558806
0.30720171252951
0.308460727979548
0.310592124763099
0.314268390534422
0.320376888578992
0.33020678681913
0.345983336875426
0.37217485630742
0.419057711870966
0.514928268228695
0.779240384700571
2.19484701083643
0.306978166227512
0.307248121773112
0.307629225812028
0.308510132073651
0.310398668020226
0.313886679708208
0.319780680678798
0.32926585863087
0.344408321148315
0.369356504828203
0.413704018939771
0.505638162666343
0.764402541068928
2.19192716018351
0.308067507949535
0.307914831319314
0.307691506933489
0.307724932836481
0.308433114280476
0.310258708909565
0.313634428150273
0.319371579698455
0.328542019011544
0.343035952459985
0.366657510782881
0.408569108530551
0.496459688991959
0.747278010366601
2.1861928472248
0.313636287340529
0.319350489657727
0.328318363068834
0.34227468188442
0.364741906212025
0.404490638065591
0.488009984808133
0.729024723240272
2.1872188611848
2.51405902630846
1.08875151960543
2.4006579023158
0.617954118933821
1.00141742586138
2.30188323223664
0.458008065058874
0.588606494098128
0.926067611600041
2.22846110581968
0.39004557333429
0.448037942829144
0.565669008421317
0.873642599606366
2.19682452498093
0.354937751972808
0.385601191121121
0.440012470616873
0.549721397546368
0.842036047025569
2.19233033276058
0.334582921719355
0.352489057251291
0.382100660543399
0.434158778372655
0.54019139409443
0.825747310953578
2.19516235530522
0.322022810907382
0.333086750037281
0.35062985286617
0.379315414158932
0.430238976233303
0.535336866722567
0.817589687809781
2.19629485099363
0.314158589607864
0.321174586705518
0.331969727629295
0.348976644350246
0.376971345809945
0.427456059693277
0.53222115319883
0.808178548901009
2.19568357678908
0.309360478973875
0.313823868872078
0.320524438343526
0.330916033403019
0.347409108835537
0.374877359061624
0.424827955013579
0.527827708710489
0.801474567547801
2.19499428600931
0.306685504912796
0.309442830472334
0.313506387818482
0.319825103150348
0.329822710761784
0.345902088289358
0.37289376828309
0.421982176135968
0.522676834415226
0.793757249025401
2.19485693466437
0.305509004640666
0.30708953911443
0.309388249378347
0.313064500995303
0.319056664987583
0.328735578897564
0.344423066753112
0.370759899302713
0.418303738860818
0.516217452458862
0.784220724818602
2.1951392112067
0.305382509779331
0.306142674573201
0.307236499342164
0.309149896192787
0.312551116839559
0.318315953371824
0.327718337034773
0.342948459679386
0.368377030749466
0.414115889205666
0.508817202318708
0.77261499350553
2.19485081982205
0.305976120794954
0.306166838020989
0.30643344704543
0.307157723390668
0.308847562868488
0.31210588310687
0.31771377758526
0.326843691740673
0.341535375053674
0.365872041269512
0.409414432292834
0.500573906867301
0.758670538445121
2.19192655109092
0.307047332214494
0.306848617077433
0.306549501011527
0.3064708297928
0.307026761877397
0.308662385637235
0.31187198403547
0.317374183243505
0.326251055500317
0.340379825250658
0.363534002740528
0.404905207003151
0.492211789154857
0.742204596470038
2.18619160885243
0.308414705957476
0.307955104357478
0.30727450947193
0.30665697775354
0.30646133408695
0.307048872765738
0.30877357114644
0.31200170192471
0.317485830111857
0.326206580131654
0.339877733621194
0.362019831746628
0.401405148567813
0.484408581848616
0.724466543844162
2.18721824195948
0.31266992546579
0.318354513021829
0.327167689387034
0.340723164926517
0.362358324635055
0.40032143041034
0.479340310441263
0.709134159986878
2.21610854576862
2.46568095716546
1.16233110381474
2.4173727128663
0.649088945228551
1.05558561389905
2.30585691214659
0.470300099574874
0.608012749343406
0.965566177215729
2.22937133566249
0.396526221784824
0.454342321010182
0.575506302783362
0.896606575964837
2.19977407716397
0.359188720792153
0.388437048370283
0.441926940010588
0.552375316657825
0.852205920823981
2.19629238638525
0.337575408956473
0.354099061020927
0.38222208654215
0.432622949646028
0.537490063953277
0.826111193601284
2.1982771750453
0.324045330924025
0.334042025053737
0.350318289072581
0.377422872156894
0.426225674940797
0.52868818073044
0.810652655290187
2.19811323304673
0.315337540454963
0.321608299139533
0.331481949984313
0.347332626054431
0.373785647800785
0.421959616281641
0.52325898742136
0.798910308549989
2.19655537518424
0.309850150477146
0.313815564678962
0.319864084394871
0.329432082828464
0.344882087368579
0.370955277229437
0.418745531166101
0.518340265003512
0.790388878601457
2.19535425673861
0.306639793805882
0.30907233855025
0.312695939346954
0.318443771776029
0.327720917742989
0.342883200759698
0.368625761057967
0.41571412296966
0.513818350857687
0.783896216446024
2.1949890283453
0.305076652573722
0.306444005479679
0.308448208820854
0.311734502660701
0.317230593748535
0.326291723921045
0.341195795295
0.36647071096869
0.412479287174417
0.508542056854471
0.775714842234539
2.19518412950551
0.304689741017757
0.305307669923004
0.306202050886033
0.307847851050526
0.310906679314363
0.316247635989109
0.325129923451025
0.339705217186387
0.364255068206039
0.408761542742658
0.502238289036392
0.765275317343823
2.19486760023708
0.30512004712707
0.305215438103453
0.305344939418702
0.305881886459292
0.307330980902336
0.310296133731759
0.315549265189331
0.324248306825945
0.338401827622325
0.362039096323663
0.404749812098518
0.495087417438675
0.752257069760309
2.19192682148663
0.306098229690353
0.305837879440974
0.305445233616356
0.305233528070645
0.305613830432523
0.307035440879342
0.310005444798858
0.315217677731069
0.323743005834368
0.337440775744934
0.36006783086567
0.400850059703194
0.48748011321107
0.736497251179213
2.18619129940061
0.307425682999089
0.306932382603238
0.306191253107751
0.305480561562018
0.305156427217726
0.305578907823459
0.307105376639044
0.310163056068563
0.315413474436494
0.323850243792032
0.337185518036439
0.358944895879467
0.397902352906399
0.480301879299165
0.719241960386924
2.18721736146907
0.308953106892029
0.308314940229336
0.30735074114771
0.306317513358648
0.305537527149786
0.305319153704456
0.305943620029048
0.307713516052609
0.310969160267298
0.31642916222158
0.325009696543824
0.338313829335885
0.359677929763076
0.397317415957977
0.475795826241865
0.704594697130059
2.21610814409181
0.312710737230306
0.318751394392243
0.327970934051638
0.341986697340129
0.364085603467763
0.402124440452072
0.479424363042564
0.702170131009786
2.28699453242711
2.49631298205334
1.22378184513753
2.42906369191476
0.697010360236286
1.11232870807004
2.32324422011512
0.491275622409497
0.637120006053457
1.0129743412822
2.23283063618936
0.408321372660763
0.465963800394675
0.592636706599015
0.930348060453495
2.20045047515796
0.367233116293034
0.394653457111851
0.447428506024456
0.560256954048671
0.871361943475264
2.1996185112741
0.34347349104472
0.358211592398863
0.384651556896962
0.43370274406727
0.538792990399592
0.833815151070275
2.20253541884279
0.328325092650767
0.336940185885705
0.351677814369758
0.377085824432278
0.424082691867797
0.525404192527528
0.810085822264575
2.20133141014048
0.318239285570136
0.323561778857356
0.332264020300813
0.346728843652196
0.371505215785655
0.417640696808041
0.516915718902302
0.793804825518625
2.19839046315416
0.311604075217855
0.314942628062302
0.320171065497325
0.328734825279107
0.342955193284005
0.367461725727719
0.413175352401537
0.510631165277333
0.781511852774684
2.19622484771915
0.307490330847006
0.309523518830151
0.31259488078768
0.317629824156177
0.326026427396038
0.34010204237949
0.364432393779366
0.409584547045575
0.505514255053026
0.774091382067773
2.19534906699734
0.305258317228732
0.306370030776911
0.308010031592157
0.310809365384241
0.315690350945505
0.323998248757534
0.337968606519148
0.362016245263506
0.406417344897545
0.500815009477154
0.766747777310455
2.19531857703927
0.304404097014028
0.30485431262244
0.305506458082539
0.306821280594174
0.30945425900372
0.314272060243064
0.322521568548126
0.336316103053263
0.359866595894115
0.403135307550041
0.495367178975048
0.757221408118773
2.19491497029936
0.304523644111534
0.304506660439316
0.304471785948409
0.304780773966081
0.305933051439019
0.308532705768885
0.31334806057856
0.321523863849289
0.335038858428424
0.357879829845243
0.399681376951991
0.489066964863606
0.74504663824143
2.19194619497417
0.305304834178155
0.304969426253884
0.30446390093148
0.304092271051073
0.304261330659918
0.305422526694506
0.308086574417905
0.312938959461524
0.321038602047591
0.334227466452719
0.356259799298738
0.396389601516829
0.482218880060424
0.730061906075882
2.18619374460913
0.306515270442119
0.305974382711792
0.305156953698346
0.304333538226632
0.303856352463258
0.304086542248634
0.305387639173687
0.30819993626784
0.31316134365871
0.321258385816332
0.334200068494225
0.355519894858193
0.393981546081678
0.475678823927793
0.71346623321862
2.18721720707518
0.307985364941733
0.307323141526575
0.306310383393184
0.305198625759877
0.304308154566656
0.303947248963232
0.304396920962519
0.305963245054838
0.309047120956008
0.314278783312295
0.322592056282215
0.335599761344933
0.356642531359497
0.393895928918226
0.471737945660267
0.699434525022521
2.21610744847733
0.309587974115071
0.308863953416741
0.307741057689184
0.306459483537626
0.305319493862999
0.304597357613832
0.30452849091658
0.305355528124318
0.307376493451507
0.310938896696373
0.316763785850022
0.325769753097441
0.33956683549802
0.361434319044782
0.399184612372694
0.476008985700041
0.698183668696084
2.28699433563476
0.314350056891512
0.321406472484908
0.332051041008447
0.348173209328089
0.373529645652117
0.416818499030696
0.503605217387135
0.749056666519726
2.38167841478807
2.9257182698255
1.37403336653411
2.45521496417358
0.777596620174079
1.16708137221218
2.36164640503656
0.530137342037757
0.680029626331702
1.05933541397151
2.25286416828756
0.429563291106729
0.486064678460079
0.618440470489817
0.969359951172231
2.20328040595438
0.381436655000596
0.406067498230903
0.457961932122499
0.57438256244225
0.898614936214818
2.20047594530486
0.353862846376583
0.366051080985749
0.390324180561992
0.438074491583669
0.544393905964907
0.848566941442337
2.20624860229321
0.336001990789943
0.342705126000418
0.355451357210727
0.378908278864922
0.424217131135811
0.525228479864361
0.815030233179415
2.20577739641055
0.323707373824512
0.32774462069478
0.334920126453049
0.347692046322691
0.370629217673079
0.414896444280825
0.51293782543944
0.792172621572024
2.20165618848028
0.315243234065069
0.317773529104862
0.321945864808329
0.329231128028513
0.341975484135193
0.364781240014928
0.408587459295252
0.504461852695126
0.775624775009545
2.19806457113579
0.309688563770272
0.311225027468172
0.31359097434117
0.31772347985775
0.325042845038881
0.337847767175388
0.360647865888124
0.403998115634735
0.497990472994714
0.764226421134615
2.19621981469697
0.306376889258598
0.307182482711537
0.308367026766919
0.310550554308747
0.314662403865142
0.322051521210748
0.334923477448902
0.357620203941945
0.400399806694387
0.493033057996437
0.757086691949566
2.19568149105559
0.304753517303784
0.305008200832509
0.305364754533821
0.306266405765571
0.308366083059577
0.312535769817292
0.320016292687773
0.332887883942786
0.355315840322405
0.397292108154388
0.488126422225753
0.748335276084765
2.19505380550317
0.304347353716229
0.304200284996697
0.30396847552901
0.303997642118558
0.304781034240378
0.30692572242632
0.311201353702824
0.31874269967716
0.33150469348594
0.35345658221216
0.394269739150167
0.482517463691587
0.736976665588136
2.19199683827929
0.304780793340678
0.304357054111442
0.303716817374177
0.303151568034221
0.303061945504138
0.303901164890669
0.30618357876926
0.310592088042864
0.318176269809597
0.330764828707359
0.352116562946452
0.39149665080378
0.476364449311781
0.722810568033896
2.18621249781237
0.305768459571491
0.305168488105274
0.304258158134537
0.303298416658053
0.302636233378641
0.302633825049677
0.303659679034739
0.306158375534011
0.310760808996087
0.318447050445543
0.330925042491817
0.351736438993737
0.389617235612327
0.470490751565992
0.707030338444241
2.18722116427642
0.307102587823283
0.306403632771333
0.305328284691162
0.304120418707945
0.303096213072442
0.30256419706107
0.302808492448505
0.304141691521413
0.30697809851696
0.311926587655084
0.319919631839924
0.332576508813079
0.353239400382789
0.390036267328362
0.467177696687436
0.693838386593634
2.21610681721688
0.308633931898439
0.307893213156505
0.306731067179979
0.305382353025361
0.30414562468502
0.303297767966733
0.30307511493912
0.303720175753944
0.305534616333671
0.3089267179582
0.314532435043727
0.323292380217555
0.336828802888062
0.35841657388849
0.395817490402017
0.472094472951742
0.693608030365986
2.28699422060006
0.310251039002422
0.30950762547577
0.308315668718743
0.306905124542592
0.305563438631669
0.304548117793567
0.30406811774391
0.304330735866117
0.30559104365034
0.308181540262985
0.31250170932851
0.3193533915432
0.329804324782987
0.345737491759771
0.370902335216189
0.41397563363337
0.500950108643274
0.747018423370338
2.38167751245985
0.318491406206856
0.327715117208487
0.341695351022838
0.36334041479528
0.398667712749518
0.46286536990279
0.610623777896792
1.09044815124285
3.68516580399512
2.94890112223629
2.93624876935594
1.01922085806394
1.30099825962553
2.41074114632021
0.618216283118898
0.755310804111119
1.10930818598688
2.30196937991196
0.471466374748167
0.523467086719528
0.656414303967392
1.00735936311068
2.2231212117153
0.406988149059172
0.42678373217818
0.476635870906638
0.595991162321844
0.928810181751931
2.20294350372899
0.371796593563277
0.379928853077869
0.4010229437896
0.447091147569365
0.555043395133988
0.868770061839769
2.20741119446383
0.349076188870525
0.352879137412341
0.362821937134416
0.383792811754676
0.427240647179757
0.528365896889628
0.824970592411987
2.20974604523943
0.333090175551457
0.335274307108162
0.340343001351437
0.350937913563483
0.371720659446023
0.414045042575884
0.511206709526469
0.794120659136282
2.20619056007993
0.321701102594099
0.323138771503188
0.325872381465798
0.331495764199587
0.342439196474619
0.36334166914797
0.405238395450718
0.499713185264286
0.772100659152816
2.20134560439283
0.31388544440365
0.314791446656874
0.316233773347632
0.319200824443334
0.325161890117978
0.33645087936654
0.357574115475825
0.399137017595983
0.491424828284081
0.756082581255862
2.19805979278028
0.308890067877355
0.30932893219627
0.309934676084027
0.31132604657723
0.314465416822711
0.320732692854227
0.332328372701472
0.353560873538872
0.394661030670546
0.485252753688047
0.74667872988128
2.19655342292587
0.306059366463452
0.306089724445208
0.306083253393267
0.306462518379899
0.307886980716662
0.311249035481626
0.317796169801818
0.329589012876737
0.35076779864843
0.391325294982893
0.480464098248783
0.738525308695196
2.1954216347598
0.304816515551424
0.304522685558933
0.304055485253804
0.303738432790723
0.304059265611423
0.305634776691026
0.309243862528786
0.316017389875128
0.327894945909193
0.348842040953069
0.388534222105597
0.475392313251303
0.727974619970597
2.19214133690418
0.304685010565224
0.304160391310502
0.303360953665582
0.302560384864119
0.302150963859836
0.302589331310413
0.304397112248048
0.308259350510065
0.315220438458978
0.327103145103809
0.347672977376156
0.386174998679289
0.469877168076488
0.714674609936733
2.1862668380172
0.305298574554892
0.304628532189914
0.303607442135738
0.302483192385059
0.301595278996236
0.301306814538157
0.301991803061264
0.304099228628153
0.3082588713038
0.315447789750666
0.327375933288948
0.347589665219579
0.384778440761396
0.464677784839096
0.699826265138655
2.18723936276593
0.30639025238867
0.305644201566237
0.304491683267543
0.303166925842303
0.301980255377894
0.301240206105048
0.30123486917821
0.30228244105375
0.304802056854491
0.309398005285225
0.317002501788163
0.329240328573843
0.349450167099907
0.385703995806621
0.462063998491687
0.687686685782265
2.21609764042036
0.307770520379983
0.307001142136467
0.305786955291536
0.304355279707396
0.303000508474648
0.301999507921042
0.301590880811376
0.302020619609732
0.303597099821264
0.306742863556246
0.312075279069859
0.320537888292424
0.333760158617736
0.355009808200622
0.39200144373894