/*--------------------------------*- C++ -*----------------------------------*\
  =========                 |
  \\      /  F ield         | OpenFOAM: The Open Source CFD Toolbox
   \\    /   O peration     | Website:  https://openfoam.org
    \\  /    A nd           | Version:  12
     \\/     M anipulation  |
\*---------------------------------------------------------------------------*/
/*   Windows 32 and 64 bit porting by blueCAPE: http://www.bluecape.com.pt   *\
|  Based on Windows porting (2.0.x v4) by Symscape: http://www.symscape.com   |
\*---------------------------------------------------------------------------*/
FoamFile
{
    format      ascii;
    class       volScalarField;
    location    "200";
    object      p;
}
// * * * * * * * * * * * * * * * * * * * * * * * * * * * * * * * * * * * * * //

dimensions      [0 2 -2 0 0 0 0];

internalField   nonuniform List<scalar> 
10142
(
83333.3278247786
83333.3277845907
83333.3278217491
83333.3278256474
83333.3277417668
83333.3277815151
83333.3277855636
83333.3278188059
83333.3278227545
83333.3278275595
83333.3276961738
83333.3277387381
83333.32774285
83333.3277784503
83333.3277826346
83333.3277877352
83333.3278185444
83333.3278198771
83333.3278247184
83333.3278306741
83333.3276476634
83333.3276932001
83333.3276974152
83333.3277354387
83333.3277399737
83333.3277453084
83333.3277777368
83333.3277796662
83333.3277848807
83333.3277912964
83333.3278214668
83333.327819748
83333.3278219407
83333.3278279741
83333.3278351233
83333.3275963782
83333.3276447625
83333.3276490545
83333.3276895193
83333.327694597
83333.3277002223
83333.3277339577
83333.3277367805
83333.3277425244
83333.3277493726
83333.3277798688
83333.3277791016
83333.3277820369
83333.3277886103
83333.32779639
83333.3278283017
83333.3278228706
83333.3278220012
83333.3278253952
83333.3278326025
83333.3278409331
83333.327542608
83333.3275934576
83333.3275977637
83333.3276404985
83333.3276463343
83333.3276522272
83333.3276868674
83333.3276910272
83333.3276974955
83333.3277048766
83333.3277348235
83333.3277354509
83333.3277394613
83333.3277467881
83333.3277552085
83333.3277857201
83333.3277814492
83333.3277816905
83333.3277859969
83333.3277939132
83333.327803045
83333.3278393386
83333.3278298225
83333.327825397
83333.3278257252
83333.3278303298
83333.3278386049
83333.327847985
83333.3274830791
83333.3275392788
83333.3275436554
83333.3275881997
83333.3275951237
83333.3276012538
83333.3276361914
83333.3276421861
83333.3276496461
83333.3276575445
83333.3276858601
83333.3276885036
83333.3276940817
83333.3277023696
83333.3277115782
83333.3277391002
83333.327736547
83333.3277383669
83333.3277439748
83333.3277528631
83333.3277628472
83333.3277957876
83333.3277874464
83333.3277843506
83333.3277859637
83333.3277916441
83333.3278007738
83333.327811122
83333.3278546937
83333.3278409056
83333.3278325991
83333.3278294555
83333.3278310243
83333.327836702
83333.3278458543
83333.3278560772
83333.3274177052
83333.327480126
83333.327485753
83333.3275323074
83333.327540879
83333.3275472616
83333.3275815106
83333.3275900646
83333.327598838
83333.3276073007
83333.3276325229
83333.3276380031
83333.327645654
83333.3276552336
83333.3276652588
83333.3276877893
83333.3276877464
83333.3276917786
83333.3276992228
83333.3277093519
83333.3277203591
83333.3277475572
83333.3277410071
83333.3277398218
83333.3277432427
83333.3277504376
83333.3277607203
83333.327772129
83333.3278103958
83333.3277975976
83333.3277906525
83333.3277890221
83333.3277920364
83333.3277989157
83333.3278090543
83333.3278203803
83333.3278743677
83333.3278562686
83333.3278438724
83333.3278369932
83333.3278351854
83333.3278378366
83333.3278443376
83333.3278541434
83333.3278650081
83333.3273502262
83333.3274162252
83333.3274223005
83333.3274718724
83333.3274828849
83333.3274902357
83333.3275222772
83333.3275343428
83333.3275449521
83333.3275540996
83333.3275741012
83333.3275835187
83333.3275940069
83333.3276052247
83333.3276161934
83333.327631075
83333.3276346098
83333.3276417351
83333.3276515643
83333.3276632395
83333.3276753702
83333.3276937969
83333.3276899099
83333.3276914562
83333.3276973781
83333.3277066289
83333.3277183696
83333.3277310269
83333.3277608002
83333.3277495964
83333.3277446567
83333.327745172
83333.3277502028
83333.3277587469
83333.3277701942
83333.3277827821
83333.3278297306
83333.3278122655
83333.3278010591
83333.327795742
83333.3277956133
83333.3277998243
83333.3278076087
83333.3278185093
83333.3278305488
83333.3278759158
83333.3278593599
83333.3278485707
83333.3278431723
83333.3278425307
83333.3278459821
83333.3278530175
83333.3278632443
83333.3278745945
83333.3272813097
83333.3273495631
83333.3273544861
83333.3274068995
83333.3274201512
83333.3274295061
83333.3274577797
83333.3274744901
83333.3274878324
83333.3274980751
83333.3275097411
83333.3275244915
83333.3275388173
83333.3275522622
83333.3275644465
83333.3275679875
83333.327576402
83333.3275878073
83333.327600776
83333.3276144207
83333.3276278318
83333.3276335361
83333.3276334685
83333.3276388743
83333.3276481576
83333.3276600554
83333.3276735835
83333.3276876288
83333.3277048543
83333.3276961206
83333.3276940931
83333.3276976032
83333.3277053772
83333.32771615
83333.3277292333
83333.3277432349
83333.3277792655
83333.3277629399
83333.3277535818
83333.3277505323
83333.3277527635
83333.3277591278
83333.3277686676
83333.3277810111
83333.3277944984
83333.327853904
83333.3278316418
83333.3278159275
83333.327806545
83333.3278028898
83333.3278040415
83333.3278091109
83333.3278174743
83333.3278288628
83333.3278414042
83333.3278790566
83333.327864304
83333.3278551785
83333.3278510869
83333.3278513114
83333.3278552528
83333.3278625343
83333.3278729762
83333.3278845307
83333.3272132608
83333.3272813468
83333.327285684
83333.3273379794
83333.3273535872
83333.3273633887
83333.3273874183
83333.3274100713
83333.3274271219
83333.327439357
83333.3274383763
83333.3274602747
83333.3274797696
83333.3274963066
83333.3275102913
83333.3274971578
83333.3275123016
83333.3275294303
83333.3275466023
83333.327562935
83333.3275779633
83333.3275654149
83333.3275707169
83333.3275813086
83333.3275951745
83333.327610536
83333.3276262925
83333.3276418708
83333.3276413437
83333.3276362283
83333.3276383323
83333.3276459401
83333.3276573652
83333.3276709639
83333.3276860605
83333.3277016805
83333.3277217267
83333.3277073401
83333.3277007473
83333.3277009129
83333.3277063817
83333.3277156376
83333.3277274919
83333.3277416122
83333.327756609
83333.3278032485
83333.3277814908
83333.3277672021
83333.327759973
83333.3277588238
83333.3277624734
83333.3277697548
83333.3277799123
83333.3277928751
83333.3278068703
83333.3278830855
83333.3278558139
83333.3278354398
83333.3278217564
83333.3278142377
83333.3278120162
83333.3278140842
83333.3278196474
83333.327828256
83333.327839857
83333.3278530998
83333.3278841644
83333.3278712799
83333.3278636446
83333.3278605496
83333.3278613198
83333.3278654485
83333.3278727011
83333.3278830946
83333.3278940879
83333.3271482194
83333.3272134317
83333.3272179827
83333.3272658681
83333.3272856024
83333.3272947269
83333.3273108428
83333.327341416
83333.327361999
83333.3273756371
83333.3273586478
83333.3273903128
83333.3274165837
83333.3274374397
83333.3274534371
83333.3274169045
83333.3274412373
83333.3274660638
83333.327488792
83333.3275088258
83333.3275260917
83333.3274876087
83333.3275002999
83333.3275180271
83333.3275379826
83333.3275579106
83333.3275766581
83333.3275939946
83333.3275685578
83333.3275685781
83333.3275764542
83333.3275896131
83333.3276058412
83333.327623056
83333.3276405843
83333.3276583035
83333.3276556969
83333.3276442927
83333.3276416779
83333.3276463171
83333.327656153
83333.3276691977
83333.3276839757
83333.3277002894
83333.3277170964
83333.3277449754
83333.3277243385
83333.3277123461
83333.3277082453
83333.3277105844
83333.327717619
83333.3277278407
83333.3277403352
83333.3277551012
83333.3277708101
83333.3278329846
83333.3278055234
83333.3277859661
83333.3277740515
83333.3277689644
83333.3277694062
83333.3277740203
83333.3277817843
83333.3277921933
83333.3278053703
83333.3278197188
83333.3279173288
83333.3278849653
83333.3278596617
83333.3278415234
83333.3278299319
83333.327824053
83333.3278228863
83333.3278254882
83333.3278311911
83333.3278397143
83333.3278515264
83333.32786372
83333.3278914144
83333.3278802263
83333.327873766
83333.3278713396
83333.3278723477
83333.3278763742
83333.327883347
83333.3278932029
83333.3279041167
83333.3270887368
83333.3271475372
83333.3271535766
83333.3271918857
83333.3272179986
83333.3272277665
83333.3272281866
83333.3272697161
83333.3272945838
83333.3273087264
83333.3272692759
83333.3273142604
83333.327349016
83333.3273743261
83333.3273918639
83333.327325044
83333.3273620412
83333.3273971731
83333.3274272108
83333.3274518396
83333.3274711852
83333.3273976774
83333.3274205944
83333.3274480307
83333.3274760738
83333.3275019786
83333.327524805
83333.3275440172
83333.3274841759
83333.3274914092
83333.3275070981
83333.3275278245
83333.327550436
83333.3275723933
83333.3275929443
83333.3276132302
83333.3275791801
83333.3275721279
83333.3275750643
83333.3275858751
83333.3276015653
83333.3276195495
83333.3276380014
83333.3276570715
83333.327676291
83333.3276775049
83333.3276588399
83333.3276502723
83333.3276505827
83333.3276576894
83333.3276692309
83333.3276832669
83333.3276987375
83333.3277157525
83333.3277332213
83333.3277749928
83333.3277476721
83333.3277296392
83333.3277204553
83333.327718828
83333.3277229297
83333.3277309611
83333.3277416293
83333.3277543238
83333.3277693584
83333.3277849886
83333.327868609
83333.3278352593
83333.3278101229
83333.3277931784
83333.3277836767
83333.3277804225
83333.3277819774
83333.3277870912
83333.3277949293
83333.3278052104
83333.3278183447
83333.3278320594
83333.3279565166
83333.3279191662
83333.3278887939
83333.3278658873
83333.3278500713
83333.3278403599
83333.3278357368
83333.3278352299
83333.3278380003
83333.3278435067
83333.3278517711
83333.3278627552
83333.3278746163
83333.3279007268
83333.3278909189
83333.3278853
83333.327883229
83333.3278841796
83333.3278878483
83333.3278942805
83333.3279036458
83333.3279135106
83333.3270371465
83333.3270856657
83333.3270949706
83333.3271175436
83333.3271525935
83333.3271645119
83333.3271399323
83333.3271962212
83333.3272278035
83333.327243618
83333.3271691516
83333.3272321654
83333.3272782546
83333.3273086514
83333.327327481
83333.3272189773
83333.3272734277
83333.3273222925
83333.3273614876
83333.3273908168
83333.3274124721
83333.3272923454
83333.327329475
83333.327370177
83333.3274089837
83333.3274425263
83333.3274699445
83333.3274921208
83333.3273850163
83333.3274023456
83333.3274288241
83333.3274597164
83333.3274907174
83333.3275188838
83333.3275431242
83333.3275651671
83333.3274894277
83333.3274885948
83333.3274993972
83333.3275184739
83333.3275419807
83333.3275664323
83333.3275895842
83333.3276119311
83333.327633267
83333.327598649
83333.3275830484
83333.3275793905
83333.3275858245
83333.3275993913
83333.3276168893
83333.3276358334
83333.3276550445
83333.3276749531
83333.3276944182
83333.3277073997
83333.3276807752
83333.3276652346
83333.3276600003
83333.3276631629
83333.3276721972
83333.3276847314
83333.327699153
83333.3277147703
83333.327731899
83333.3277492085
83333.3278119957
83333.3277777147
83333.3277531646
83333.3277382416
83333.3277318751
83333.3277323029
83333.3277375609
83333.3277460207
83333.3277566497
83333.3277691609
83333.3277838055
83333.3277992257
83333.3279100702
83333.3278708434
83333.3278398813
83333.3278175634
83333.3278033109
83333.3277959288
83333.3277940179
83333.3277961988
83333.327801377
83333.3278089059
83333.3278187677
83333.3278311747
83333.3278441635
83333.3280003978
83333.3279582844
83333.3279229226
83333.327895044
83333.3278746657
83333.3278609768
83333.3278527626
83333.3278489917
83333.327848769
83333.3278513611
83333.3278564031
83333.3278639207
83333.3278742108
83333.3278848977
83333.3279118526
83333.3279030888
83333.3278979914
83333.3278959728
83333.3278965922
83333.3278996541
83333.3279053482
83333.3279135683
83333.3279219974
83333.3269962846
83333.3270300262
83333.3270446049
83333.3270452448
83333.3270913985
83333.3271071332
83333.3270472661
83333.3271225494
83333.3271634987
83333.3271821981
83333.3270575076
83333.3271446046
83333.3272059025
83333.3272437049
83333.32726544
83333.3270958023
83333.3271742598
83333.3272415471
83333.3272927027
83333.3273276535
83333.3273522087
83333.3271673977
83333.3272243949
83333.3272832511
83333.3273362996
83333.3273792899
83333.3274118541
83333.3274372734
83333.3272667323
83333.3272982156
83333.3273396354
83333.3273842678
83333.327426267
83333.3274621528
83333.3274912501
83333.3275149312
83333.3273826541
83333.3273905824
83333.3274122127
83333.3274426932
83333.327476634
83333.327509533
83333.3275386783
83333.3275641661
83333.3275878513
83333.3275053673
83333.3274942894
83333.3274975561
83333.3275124538
83333.3275347085
83333.327560084
83333.3275853581
83333.3276091772
83333.3276320065
83333.3276537541
83333.3276279173
83333.3276027107
83333.3275909122
83333.3275912442
83333.3276009589
83333.3276165881
83333.3276350047
83333.3276542057
83333.3276735186
83333.3276932031
83333.3277125406
83333.327745727
83333.327710722
83333.3276874463
83333.3276756347
83333.3276736976
83333.3276791493
83333.3276893436
83333.3277021764
83333.3277163918
83333.327731624
83333.3277481932
83333.327765333
83333.3278559768
83333.327814684
83333.3277832747
83333.3277620984
83333.3277503463
83333.3277463904
83333.3277482429
83333.3277540509
83333.3277624139
83333.3277725693
83333.3277844144
83333.3277984487
83333.3278128683
83333.3279571212
83333.3279122199
83333.327875396
83333.3278473953
83333.3278280271
83333.3278161987
83333.3278104472
83333.3278093765
83333.3278117274
83333.3278165627
83333.3278234405
83333.3278324188
83333.327843854
83333.3278555047
83333.3280486075
83333.3280020573
83333.3279619036
83333.3279290834
83333.32790389
83333.3278858738
83333.3278739369
83333.3278668118
83333.3278635071
83333.3278632086
83333.3278653089
83333.3278695478
83333.3278761198
83333.3278850782
83333.3278941265
83333.3279244957
83333.3279164499
83333.3279115606
83333.3279093034
83333.3279093223
83333.3279115155
83333.3279160211
83333.3279226802
83333.3279293887
83333.3269662162
83333.3269822611
83333.3270042984
83333.3269778677
83333.3270363008
83333.3270578762
83333.3269522599
83333.3270509112
83333.327103431
83333.3271264796
83333.3269343503
83333.3270527443
83333.3271335171
83333.3271812064
83333.3272068143
83333.3269525797
83333.3270638215
83333.3271555924
83333.3272225158
83333.3272656045
83333.3272936222
83333.3270177827
83333.3271025961
83333.3271862407
83333.3272582023
83333.3273134155
83333.3273522685
83333.3273811777
83333.3271235103
83333.3271749937
83333.3272371883
83333.3273004374
83333.3273567988
83333.3274022395
83333.3274368195
83333.3274643158
83333.3272536301
83333.3272739619
83333.3273107198
83333.327356801
83333.327404675
83333.3274484756
83333.3274852503
83333.327514573
83333.3275411431
83333.3273934676
83333.3273889086
83333.3274019718
83333.3274284439
83333.3274624439
83333.3274982184
83333.3275316463
83333.3275609125
83333.3275870042
83333.3276115279
83333.3275333744
83333.3275105202
83333.3275041441
83333.3275122401
83333.3275308744
83333.3275553043
83333.3275813945
83333.3276066234
83333.327630211
83333.3276527852
83333.327674517
83333.3276675103
83333.3276320638
83333.327610975
83333.3276036874
83333.3276078865
83333.3276201204
83333.3276368363
83333.3276553185
83333.3276740711
83333.3276926873
83333.327711654
83333.3277305924
83333.3277925223
83333.3277490201
83333.3277175117
83333.327698311
83333.3276902582
83333.3276910616
83333.3276979901
83333.3277085874
83333.3277210787
83333.3277345409
83333.3277488358
83333.3277647087
83333.3277807195
83333.3279066813
83333.3278585686
83333.3278201858
83333.3277923446
83333.3277746708
83333.3277657133
83333.3277635304
83333.3277661723
83333.3277719711
83333.3277797569
83333.3277889957
83333.3277997949
83333.3278126351
83333.3278255196
83333.3280093482
83333.3279591367
83333.3279166096
83333.3278828256
83333.3278579839
83333.3278413341
83333.3278314504
83333.3278268183
83333.3278261133
83333.3278282031
83333.3278323177
83333.3278381592
83333.3278459102
83333.3278558188
83333.3278656317
83333.3281006826
83333.3280501191
83333.3280054636
83333.3279678554
83333.3279378242
83333.3279151945
83333.3278991836
83333.3278885919
83333.3278821605
83333.3278789464
83333.3278782312
83333.3278795177
83333.3278826627
83333.3278878185
83333.3278949677
83333.3279020605
83333.3279383395
83333.3279306858
83333.3279256948
83333.3279229109
83333.3279220545
83333.3279230351
83333.3279259587
83333.3279307267
83333.3279354466
83333.326947567
83333.3269416881
83333.3269741316
83333.3269182604
83333.3269880604
83333.3270179892
83333.326857832
83333.326983925
83333.3270491381
83333.3270784966
83333.3268008022
83333.3269586501
83333.3270630888
83333.3271227697
83333.3271533664
83333.326786787
83333.3269421488
83333.3270655899
83333.327152416
83333.3272058237
83333.3272381975
83333.3268376485
83333.3269613978
83333.3270785813
83333.3271754085
83333.3272465172
83333.3272935384
83333.3273266596
83333.3269479915
83333.3270278813
83333.3271189842
83333.3272074331
83333.3272826383
83333.3273401286
83333.3273811714
83333.3274132512
83333.3270952325
83333.3271331949
83333.3271912211
83333.3272587916
83333.3273253019
83333.3273831433
83333.327429211
83333.3274642379
83333.3274943306
83333.3272571295
83333.3272618997
83333.3272887051
83333.3273312528
83333.3273811614
83333.3274306275
83333.3274745091
83333.327510647
83333.3275408252
83333.3275685214
83333.3274194182
83333.327400157
83333.3274015269
83333.3274204272
83333.3274512243
83333.3274873875
83333.3275234728
83333.3275562615
83333.327584944
83333.3276109244
83333.3276354312
83333.3275742041
83333.327538658
83333.3275209581
83333.3275201021
83333.327532746
83333.3275541098
83333.32757942
83333.3276051589
83333.3276294922
83333.3276520956
83333.327673867
83333.3276949832
83333.3277175114
83333.3276716287
83333.327640513
83333.3276244001
83333.3276215912
83333.3276288916
83333.3276425901
83333.3276594448
83333.3276772176
83333.3276948249
83333.3277121505
83333.3277301157
83333.3277478838
83333.3278474941
83333.3277957006
83333.3277557609
83333.3277285919
83333.3277135846
83333.3277087677
83333.3277114778
83333.3277190768
83333.3277293883
83333.3277409563
83333.3277531477
83333.3277661265
83333.3277806011
83333.3277949012
83333.327963625
83333.3279091116
83333.3278638835
83333.3278291849
83333.3278051222
83333.3277906211
83333.3277838297
83333.3277827665
83333.3277856081
83333.3277908801
83333.3277976333
83333.3278055416
83333.3278148209
83333.3278259163
83333.3278367558
83333.3280661986
83333.3280111806
83333.3279632656
83333.3279237949
83333.3278933164
83333.3278714542
83333.3278570653
83333.3278486142
83333.3278446116
83333.3278438179
83333.3278452406
83333.3278482629
83333.3278527096
83333.3278587767
83333.3278666468
83333.3278742309
83333.3281560779
83333.3281020103
83333.3280532367
83333.3280110816
83333.3279763137
83333.3279490022
83333.327928611
83333.3279142076
83333.3279045588
83333.3278984288
83333.3278949393
83333.327893471
83333.3278936338
83333.3278953105
83333.3278986059
83333.3279035942
83333.327908453
83333.3279530328
83333.3279454395
83333.3279400337
83333.3279364285
83333.3279343849
83333.3279338004
83333.3279347373
83333.3279373254
83333.3279400028
83333.3269399819
83333.3269095006
83333.3269544563
83333.3268663758
83333.326946153
83333.3269875359
83333.3267682966
83333.3269241277
83333.3270009768
83333.3270390569
83333.3266594225
83333.3268653585
83333.3269971829
83333.3270697734
83333.3271069656
83333.3265964156
83333.3268104625
83333.3269735342
83333.3270843353
83333.3271497893
83333.3271875666
83333.3266199768
83333.3267983621
83333.3269604363
83333.3270891316
83333.3271799299
83333.327237106
83333.3272750958
83333.3267309504
83333.3268514263
83333.3269826786
83333.3271049396
83333.3272045862
83333.3272773091
83333.3273264402
83333.3273633147
83333.3268982465
83333.3269613395
83333.3270494184
83333.327146621
83333.327238025
83333.3273139407
83333.3273714471
83333.3274132767
83333.327447597
83333.3270884362
83333.3271065304
83333.3271527724
83333.3272177249
83333.3272892652
83333.3273567677
83333.3274138899
83333.3274588748
83333.3274942331
83333.3275254808
83333.32728004
83333.3272660635
83333.3272784546
83333.3273124297
83333.3273598777
83333.3274117222
83333.3274608008
83333.3275031891
83333.3275382533
83333.327568267
83333.327595896
83333.3274615435
83333.3274263022
83333.3274136184
83333.3274218276
83333.3274460875
83333.3274797522
83333.3275163755
83333.3275514124
83333.327582652
83333.3276100139
83333.3276350848
83333.3276587755
83333.3276279829
83333.3275794562
83333.3275493714
83333.3275378293
83333.3275423455
83333.327558472
83333.327581173
83333.3276061659
83333.3276306207
83333.3276532971
83333.3276742492
83333.3276946979
83333.3277145153
83333.3277775569
83333.3277214852
83333.3276800348
83333.3276542578
83333.3276432039
83333.327644145
83333.3276534493
83333.3276675854
83333.3276837321
83333.3277000945
83333.3277159542
83333.3277315427
83333.3277478937
83333.3277638042
83333.3279100442
83333.3278504724
83333.3278022204
83333.3277667855
83333.3277441779
83333.3277329
83333.3277304887
83333.3277342659
83333.3277417998
83333.3277512011
83333.3277613143
83333.3277717846
83333.327782916
83333.3277954068
83333.3278074246
83333.328026132
83333.3279658323
83333.3279141116
83333.3278726008
83333.3278418808
83333.3278213318
83333.3278094003
83333.3278041163
83333.3278035578
83333.3278060467
83333.3278103095
83333.3278156086
83333.3278217643
83333.327829054
83333.3278378704
83333.3278462295
83333.3281270088
83333.3280678036
83333.3280149537
83333.3279700472
83333.3279339604
83333.3279066705
83333.3278873666
83333.3278747352
83333.327867216
83333.3278633649
83333.3278620464
83333.3278624135
83333.3278639864
83333.3278666495
83333.3278705611
83333.3278760001
83333.3278810616
83333.3282141862
83333.3281571914
83333.3281047704
83333.3280584008
83333.3280190809
83333.327987137
83333.3279622623
83333.327943731
83333.3279305318
83333.3279214174
83333.3279151948
83333.3279110652
83333.3279085097
83333.3279072041
83333.3279070191
83333.3279080232
83333.3279105424
83333.3279131445
83333.3279681792
83333.327960301
83333.3279541508
83333.3279493937
83333.3279457984
83333.3279432242
83333.3279417632
83333.3279420671
83333.3279434179
83333.3269498959
83333.3268893154
83333.326946048
83333.3268228783
83333.3269137914
83333.3269667178
83333.326688242
83333.3268722098
83333.3269588531
83333.3270083272
83333.3265167768
83333.3267771602
83333.3269382349
83333.3270223524
83333.327068273
83333.326380946
83333.3266716654
83333.3268825053
83333.3270207507
83333.3270988215
83333.3271432127
83333.3263562452
83333.3266119656
83333.3268331773
83333.3270014045
83333.3271155699
83333.3271842139
83333.3272278176
83333.3264596025
83333.3266392456
83333.3268263819
83333.3269934234
83333.3271239077
83333.3272152111
83333.3272739124
83333.3273159259
83333.3266506011
83333.3267498321
83333.3268805712
83333.3270185202
83333.3271428565
83333.3272417659
83333.327313372
83333.3273630138
83333.3274020701
83333.326877104
83333.3269141135
83333.3269879892
83333.3270843205
83333.3271852794
83333.3272764493
83333.3273502667
83333.3274059726
83333.3274475341
83333.3274828666
83333.3271071336
83333.3271007561
83333.3271288506
83333.3271839696
83333.327254325
83333.3273271532
83333.3273930564
83333.3274475795
83333.3274906043
83333.3275253719
83333.3275565362
83333.3273237187
83333.3272892587
83333.3272838448
83333.3273048275
83333.3273451216
83333.3273953944
83333.3274469171
83333.3274938777
83333.3275337699
83333.3275669313
83333.327595786
83333.3276224248
83333.3275199866
83333.3274683833
83333.3274401633
83333.3274352159
83333.3274499161
83333.3274780281
83333.3275126967
83333.3275482498
83333.3275811449
83333.3276100254
83333.3276353082
83333.3276587097
83333.3276808749
83333.3276942173
83333.3276330419
83333.3275901272
83333.327566704
83333.3275613223
83333.3275701818
83333.32758833
83333.3276110484
83333.327634687
83333.3276570527
83333.3276773967
83333.327696124
83333.3277146743
83333.3277324186
83333.3278468688
83333.327781273
83333.3277296163
83333.3276937381
83333.3276735171
83333.3276668668
83333.3276704538
83333.3276806774
83333.3276943339
83333.3277090241
83333.3277233621
83333.3277369764
83333.3277503151
83333.327764425
83333.3277777891
83333.3279793189
83333.3279127439
83333.3278566029
83333.3278129116
83333.3277823111
83333.3277638832
83333.3277555335
83333.3277546728
83333.327758741
83333.3277655382
83333.3277734646
83333.327781652
83333.3277899425
83333.3277987319
83333.327808666
83333.3278179245
83333.3280933797
83333.3280280621
83333.3279703966
83333.3279223401
83333.3278849205
83333.3278579927
83333.327840399
83333.3278303866
83333.3278259769
83333.3278253366
83333.3278269541
83333.3278297624
83333.3278332049
83333.3278372004
83333.327842004
83333.3278481227
83333.3278537089
83333.3281910369
83333.3281283497
83333.3280711354
83333.3280211802
83333.3279796631
83333.3279469103
83333.3279224383
83333.3279052109
83333.3278938326
83333.3278867451
83333.3278825753
83333.3278803088
83333.3278792412
83333.3278789938
83333.3278794558
83333.3278807624
83333.3278834455
83333.3278860019
83333.3282743598
83333.3282150615
83333.3281595353
83333.3281093718
83333.3280657738
83333.3280293258
83333.3279999725
83333.3279771854
83333.3279601181
83333.3279477022
83333.3279387004
83333.3279319831
83333.327926838
83333.3279228275
83333.327919651
83333.3279171458
83333.3279154171
83333.3279154035
83333.3279166257
83333.3279833275
83333.3279747908
83333.3279675191
83333.3279611967
83333.3279555547
83333.3279504996
83333.3279465098
83333.3279450848
83333.3279449702
83333.3268904717
83333.3269572272
83333.3267910516
83333.3268951318
83333.3269574556
83333.3266241694
83333.3268296014
83333.3269270149
83333.3269868994
83333.3263849919
83333.3266986908
83333.3268871918
83333.3269811029
83333.3270377318
83333.326146672
83333.3265325102
83333.3267967463
83333.3269638962
83333.3270531161
83333.3271058146
83333.326035618
83333.3264022296
83333.3267000073
83333.3269153001
83333.3270557116
83333.3271359857
83333.3271860235
83333.3261150018
83333.3263839202
83333.3266492831
83333.3268745733
83333.3270426812
83333.3271555841
83333.3272246795
83333.3272722934
83333.326334508
83333.3264872902
83333.3266795566
83333.3268734432
83333.3270406129
83333.3271679836
83333.3272563358
83333.327314681
83333.3273588799
83333.3266094323
83333.3266734925
83333.3267870089
83333.3269273997
83333.3270681565
83333.3271900119
83333.327284594
83333.3273529963
83333.3274016551
83333.3274415367
83333.3268902779
83333.3268945917
83333.3269449455
83333.3270299511
83333.3271319251
83333.3272327706
83333.3273203059
83333.3273898265
83333.3274423783
83333.3274827212
83333.3275178343
83333.3271530077
83333.327119867
83333.3271248631
83333.3271639114
83333.3272264498
83333.3272991976
83333.327370297
83333.3274324647
83333.3274831142
83333.3275232929
83333.3275564958
83333.3275864483
83333.3273882558
83333.3273328573
83333.3273076139
83333.3273120839
83333.3273409615
83333.3273854001
83333.3274359736
83333.3274852111
83333.3275287635
83333.327565279
83333.3275957079
83333.3276225214
83333.3276473429
83333.3275940222
83333.3275265518
83333.327482189
83333.3274624152
83333.3274650503
83333.3274847642
83333.3275147607
83333.327548721
83333.3275819431
83333.3276117943
83333.3276375908
83333.3276600829
83333.3276811888
83333.3277009996
83333.3277718472
83333.3276989309
83333.3276433518
83333.3276074279
83333.3275908454
83333.3275906853
83333.3276024034
83333.3276211611
83333.3276427547
83333.3276641592
83333.3276837498
83333.3277011989
83333.3277171812
83333.3277331626
83333.3277480522
83333.3279243334
83333.3278502257
83333.3277889059
83333.3277429084
83333.3277129603
83333.3276977448
83333.3276944248
83333.327699542
83333.3277097045
83333.3277220686
83333.3277346503
83333.3277464449
83333.3277573485
83333.3277679263
83333.3277791664
83333.3277894476
83333.3280542762
83333.3279816727
83333.3279183301
83333.3278666906
83333.3278279926
83333.327801945
83333.3277869506
83333.3277806795
83333.3277805636
83333.3277842027
83333.3277896514
83333.3277955998
83333.3278014252
83333.3278071066
83333.3278130294
83333.3278199609
83333.3278261789
83333.3281644473
83333.3280949883
83333.3280320843
83333.3279779432
83333.3279339953
83333.3279005666
83333.3278769356
83333.3278616715
83333.3278529373
83333.3278487844
83333.3278475004
83333.3278477585
83333.3278486888
83333.3278498804
83333.3278512795
83333.3278531264
83333.3278562338
83333.3278591296
83333.3282574928
83333.328192085
83333.3281311683
83333.328076671
83333.3280300359
83333.3279919268
83333.3279621986
83333.3279400976
83333.3279244491
83333.3279138069
83333.3279066462
83333.3279016891
83333.3278980494
83333.3278951451
83333.327892649
83333.3278904334
83333.3278886827
83333.3278885658
83333.327889678
83333.3283359315
83333.32827498
83333.328216943
83333.3281634816
83333.3281159682
83333.3280752304
83333.3280414756
83333.3280144022
83333.3279933237
83333.3279772949
83333.3279652167
83333.3279558856
83333.3279482472
83333.3279416663
83333.3279357472
83333.3279301637
83333.3279248191
83333.327920272
83333.3279184701
83333.3279182629
83333.3279979591
83333.3279883325
83333.3279794645
83333.3279710124
83333.3279627375
83333.3279550125
83333.3279491342
83333.3279468146
83333.3267716437
83333.3268989315
83333.32696873
83333.3265909603
83333.3268007176
83333.3269102317
83333.3269769093
83333.3262807599
83333.3266378938
83333.3268468459
83333.3269506942
83333.3270167818
83333.3259143427
83333.3264046215
83333.3267214803
83333.3269150286
83333.3270138597
83333.327076211
83333.3256545221
83333.3261759884
83333.3265675066
83333.3268349236
83333.3270022612
83333.3270929586
83333.3271505317
83333.3256651447
83333.3260766189
83333.3264526131
83333.3267519181
83333.3269638919
83333.3271004216