/*--------------------------------*- C++ -*----------------------------------*\
  =========                 |
  \\      /  F ield         | OpenFOAM: The Open Source CFD Toolbox
   \\    /   O peration     | Website:  https://openfoam.org
    \\  /    A nd           | Version:  12
     \\/     M anipulation  |
\*---------------------------------------------------------------------------*/
/*   Windows 32 and 64 bit porting by blueCAPE: http://www.bluecape.com.pt   *\
|  Based on Windows porting (2.0.x v4) by Symscape: http://www.symscape.com   |
\*---------------------------------------------------------------------------*/
FoamFile
{
    format      ascii;
    class       surfaceScalarField;
    location    "200";
    object      phi;
}
// * * * * * * * * * * * * * * * * * * * * * * * * * * * * * * * * * * * * * //

dimensions      [0 3 -1 0 0 0 0];

internalField   nonuniform List<scalar> 
28893
(
1.15158068974303e-05
-3.78096859636625e-07
-5.21089882372487e-07
1.24918654887928e-05
-3.77724202459262e-07
-5.98329020141155e-07
4.48032945762151e-06
-5.99756416160754e-07
-1.9000037171796e-07
1.3517533812229e-05
-4.30160368793722e-07
-1.10219970730207e-06
1.35385187251669e-05
-3.63553133117415e-07
-6.83094772294703e-07
4.92087859405983e-06
-5.99012417552157e-07
-2.19255867315343e-07
1.46197425767944e-05
-4.33373432212421e-07
-1.26715113243472e-06
3.75388862515894e-06
-8.00299417452829e-07
-1.56072112436318e-07
5.27912948124501e-06
-6.84811015212411e-07
-4.00240506801205e-07
1.4940061320319e-05
-4.91493355972704e-07
-1.70887092472843e-06
1.46502359090042e-05
-3.28713119110493e-07
-7.82997564799971e-07
5.38762377978362e-06
-5.78398225342727e-07
-2.51893900205881e-07
1.58091253750822e-05
-4.15988815870909e-07
-1.45646853037922e-06
4.13499402880056e-06
-7.98874947193871e-07
-1.81241672840073e-07
5.7751778490447e-06
-6.83048355385759e-07
-4.65623825706357e-07
1.61403564071987e-05
-4.98228464857359e-07
-1.96920422426055e-06
3.56509196610353e-06
-9.98054642412918e-07
-1.39584925992298e-07
4.37634852125411e-06
-9.17842654447871e-07
-3.26260587915412e-07
5.95189825896977e-06
-7.88288905320121e-07
-6.15354265794638e-07
1.64993819404012e-05
-5.54141554017107e-07
-2.34854059468975e-06
1.58085829481724e-05
-2.66635178807127e-07
-8.91702549731047e-07
5.88041569928138e-06
-5.31566781688614e-07
-2.89932122610062e-07
1.70773043515444e-05
-3.74005462629805e-07
-1.67715229297808e-06
4.54040170735953e-06
-7.74852093709324e-07
-2.08952241116905e-07
6.30451324026457e-06
-6.55707144576328e-07
-5.41502584096931e-07
1.74374971959065e-05
-4.7791339306886e-07
-2.27567725711671e-06
3.92743606144703e-06
-9.98415765582644e-07
-1.6280256550047e-07
4.80544866372202e-06
-9.12719998604165e-07
-3.80667535020164e-07
6.49607556730482e-06
-7.87321696492322e-07
-7.20698670670258e-07
1.78050980474099e-05
-5.64843067734273e-07
-2.71006131537861e-06
3.46343726144151e-06
-1.19216720718549e-06
-1.29410648993679e-07
4.10151485770023e-06
-1.1446805368832e-06
-2.92527222156637e-07
4.99635481928417e-06
-1.06508585034098e-06
-5.00582786209853e-07
6.60376715694841e-06
-8.84986496245056e-07
-8.39543808409833e-07
1.75210979936267e-05
-6.04413216877049e-07
-2.98554883306671e-06
1.69410240129395e-05
-1.58337784051228e-07
-9.74096433942252e-07
6.39599680553939e-06
-4.50840802999371e-07
-3.31369745592951e-07
1.8415759792551e-05
-3.02768666289991e-07
-1.9273701417332e-06
4.9709078105319e-06
-7.21120912015276e-07
-2.40951497724124e-07
6.8667416524824e-06
-5.96944597007576e-07
-6.29214027495616e-07
1.88240683567935e-05
-4.29905704642247e-07
-2.63380003679804e-06
4.31540369988683e-06
-9.74337075023289e-07
-1.88481897943769e-07
5.26359984262141e-06
-8.80172543281325e-07
-4.42635996990181e-07
7.0776158847968e-06
-7.55720361260808e-07
-8.45229392972478e-07
1.92140683542446e-05
-5.43068120215506e-07
-3.14156315325827e-06
3.81288406478286e-06
-1.19693022981672e-06
-1.50931973356463e-07
4.50871932561255e-06
-1.14068417406908e-06
-3.42041092118384e-07
5.47416700725545e-06
-1.05871844969851e-06
-5.87080453258397e-07
7.19119991310627e-06
-8.85605717816813e-07
-9.87359770638653e-07
1.88767902746379e-05
-6.19921034734151e-07
-3.44582613253186e-06
3.35610613978748e-06
-1.37884754020172e-06
-1.22767587954139e-07
3.9182828971359e-06
-1.36381732016565e-06
-2.70963941674164e-07
4.67718608377556e-06
-1.32884726215515e-06
-4.54750366639499e-07
5.49746552308815e-06
-1.19375901473691e-06
-6.7769643559979e-07
6.95297095313823e-06
-9.49442714519246e-07
-1.06485365650111e-06
1.78219762777389e-05
-6.34932504226747e-07
-3.57676268683455e-06
1.78630864308131e-05
4.37330828592392e-08
-9.65790571129068e-07
6.93186686161899e-06
-3.23121151268415e-07
-3.71081212354191e-07
1.98169623028799e-05
-1.85506682884959e-07
-2.18977014333177e-06
5.42571851858906e-06
-6.29116719985614e-07
-2.7653390588212e-07
7.45794858935277e-06
-4.98376742141098e-07
-7.26963198206063e-07
2.02988309979246e-05
-3.52313102162289e-07
-3.04980175655662e-06
4.73035656364071e-06
-9.18292886847524e-07
-2.17779912405585e-07
5.75239360885587e-06
-8.12699582025852e-07
-5.13986948893032e-07
7.69634621457649e-06
-6.88642637645666e-07
-9.89201414959297e-07
2.07209975156312e-05
-4.9090579132006e-07
-3.64980212957353e-06
4.18970078801146e-06
-1.17620507670903e-06
-1.74948118426011e-07
4.94609265402829e-06
-1.10785315027715e-06
-3.98172934676983e-07
5.9838827399135e-06
-1.02047397737646e-06
-6.87595088706377e-07
7.81786963243381e-06
-8.51403674728114e-07
-1.16355730812934e-06
2.03347350253495e-05
-6.01228887873577e-07
-3.99825820429264e-06
3.69218203258176e-06
-1.39022467149961e-06
-1.42781112572929e-07
4.30774875805805e-06
-1.36473875017714e-06
-3.16342033003422e-07
5.13245338240194e-06
-1.32316398606576e-06
-5.32861303680728e-07
6.00990047566276e-06
-1.18750083905696e-06
-7.9761797778125e-07
7.55396455693703e-06
-9.53763469326863e-07
-1.25450362623301e-06
1.91564884146803e-05
-6.55243016495218e-07
-4.12508074657731e-06
3.23075222414251e-06
-1.55529063576829e-06
-1.18233006018462e-07
3.7614952962109e-06
-1.57169765564826e-06
-2.58438001922437e-07
4.42879666487949e-06
-1.57705111863439e-06
-4.24961944470346e-07
5.10873110877434e-06
-1.48317873788436e-06
-6.2228661319994e-07
5.68824422529319e-06
-1.26735602527593e-06
-8.50960455402661e-07
7.00230383816224e-06
-9.79779353201458e-07
-1.27818550030875e-06
1.75795547883864e-05
-6.51421794860899e-07
-4.08929696802941e-06
1.89321535534683e-05
2.24138516336582e-07
-1.29319781480279e-06
7.50832080729993e-06
-1.29153612681308e-07
-4.03561061525411e-07
2.12740031773486e-05
1.06954895388802e-08
-2.43350903709883e-06
5.90495688442978e-06
-4.86794703634028e-07
-3.15563542718783e-07
8.07897535828057e-06
-3.45442923451721e-07
-8.32164410722327e-07
2.1862649150559e-05
-2.2815191663968e-07
-3.52541491878021e-06
5.17382035338915e-06
-8.21043408202914e-07
-2.5153603161324e-07
6.27005405441662e-06
-6.98946536614336e-07
-5.93621688484977e-07
8.34685675020797e-06
-5.76742043361828e-07
-1.15303753685601e-06
2.23264953623038e-05
-4.08777477615542e-07
-4.24650873465761e-06
4.59640167900241e-06
-1.12242443841306e-06
-2.02568858568271e-07
5.41506176059741e-06
-1.03733244308144e-06
-4.62114495271199e-07
6.52866326810573e-06
-9.4489981623344e-07
-8.02506694868924e-07
8.48364314635316e-06
-7.77749545756015e-07
-1.36812194091165e-06
2.18869098303783e-05
-5.51644991869168e-07
-4.65031739401741e-06
4.05726488888751e-06
-1.37602161805708e-06
-1.65265832596839e-07
4.72891771352813e-06
-1.33604479334353e-06
-3.67924037792752e-07
5.62135956510709e-06
-1.28454967719812e-06
-6.23000944356293e-07
6.5553356372511e-06
-1.14619096228601e-06
-9.38240099824626e-07
8.19232200962525e-06
-9.21794787751425e-07
-1.48134101505428e-06
2.05855982282141e-05
-6.42862159977769e-07
-4.78448868833906e-06
3.55246461610043e-06
-1.57500904248288e-06
-1.36927695815304e-07
4.13476159882116e-06
-1.58036985347702e-06
-3.00415225475698e-07
4.86201970869844e-06
-1.57669292570781e-06
-4.96035007508856e-07
5.59539514762687e-06
-1.47712218380239e-06
-7.29902392566461e-07
6.20366910454369e-06
-1.26382656831043e-06
-1.00297798386999e-06
7.58791693552639e-06
-9.88943101031718e-07
-1.50641014644661e-06
1.88401840720074e-05
-6.75614156206378e-07
-4.71007487363014e-06
3.09582377386585e-06
-1.72038630323114e-06
-1.14740590074093e-07
3.61490108126868e-06
-1.76684021936623e-06
-2.50941775324005e-07
4.22781400912138e-06
-1.80909694415508e-06
-4.08126925957962e-07
4.79942478606394e-06
-1.75050537935748e-06
-5.86800309148764e-07
5.23931476067568e-06
-1.56263616506839e-06
-7.85979395263389e-07
5.62625949546695e-06
-1.29242455972704e-06
-1.01123037645864e-06
6.86551942372958e-06
-9.90565401364947e-07
-1.46776695134857e-06
1.70450132905584e-05
-6.59486646311381e-07
-4.5064574628646e-06
2.04420292298295e-05
4.0223967569258e-07
-1.91211119726343e-06
8.11107562452786e-06
1.19034544699136e-07
-4.97645852950088e-07
2.25595575829062e-05
2.85856135279005e-07
-2.86459331491813e-06
6.41357069852816e-06
-2.79468027198655e-07
-3.58298338640562e-07
8.74905100501267e-06
-1.18260363224923e-07
-9.44673959099651e-07
2.35397893353399e-05
-3.72737825041066e-08
-4.07335542783406e-06
5.64739671279627e-06
-6.7077194417667e-07
-2.89598169354785e-07
6.81799639760193e-06
-5.25944260281143e-07
-6.83001737841856e-07
9.02993587863505e-06
-4.0549093489338e-07
-1.33789659397665e-06
2.40286608064649e-05
-2.802344204267e-07
-4.94732253187132e-06
5.036397369508e-06
-1.02661528171979e-06
-2.344232664047e-07
5.91840659325187e-06
-9.17790692195012e-07
-5.36034875247236e-07
7.1039416186261e-06
-8.11648456427079e-07
-9.33989321553514e-07
9.18219642685507e-06
-6.57434232646699e-07
-1.60292441643992e-06
2.35286966858617e-05
-4.72744010799909e-07
-5.41553132398426e-06
4.45509622552073e-06
-1.32897169697925e-06
-1.91283737146316e-07
5.18491941372854e-06
-1.26868537835288e-06
-4.27216189177095e-07
6.14439765702962e-06
-1.20318832531756e-06
-7.26862310306478e-07
7.13591003536842e-06
-1.06085450504516e-06
-1.09997297593108e-06
8.86739136005149e-06
-8.49879791480185e-07
-1.74494830269522e-06
2.20962987956638e-05
-6.00269903921383e-07
-5.56072735687465e-06
3.90437614195794e-06
-1.56993217133027e-06
-1.5800059970476e-07
4.54141297298902e-06
-1.55969153048096e-06
-3.48269500675745e-07
5.33018818403724e-06
-1.54280636509374e-06
-5.77834273267009e-07
6.11622657163887e-06
-1.43523315280974e-06
-8.54788403330628e-07
6.74992344571563e-06
-1.22475385296398e-06
-1.18153193373989e-06
8.20646357213003e-06
-9.63078452370021e-07
-1.77966179212961e-06
2.01824023252696e-05
-6.68320517032193e-07
-5.4583666065225e-06
3.4028872705819e-06
-1.74969072223347e-06
-1.32381589203801e-07
3.97307215553495e-06
-1.7852649183347e-06
-2.90202864646314e-07
4.64168351027923e-06
-1.81725338321957e-06
-4.73723392691071e-07
5.26040149066135e-06
-1.74982758710942e-06
-6.84305001738217e-07
5.72599999618786e-06
-1.55861793688359e-06
-9.2179419814536e-07
6.11941266955485e-06
-1.29311874424962e-06
-1.1919522172985e-06
7.41687905371181e-06
-1.00465449212442e-06
-1.72872188411332e-06
1.82075208076162e-05
-6.89065013413291e-07
-5.18350651238187e-06
2.95743692690253e-06
-1.1133502415046e-07
3.46964686262779e-06
-1.94923272043595e-06
-2.45005309086101e-07
4.06186417368448e-06
-2.02628503383265e-06
-3.98465442649948e-07
4.56439507479965e-06
-1.99833113086592e-06
-5.66828505082428e-07
4.89599957448724e-06
-1.83349112869115e-06
-7.45449421749216e-07
5.14413093134638e-06
-1.58164669663849e-06
-9.36267925308186e-07
5.43483150472318e-06
-1.29384628057182e-06
-1.15032474939927e-06
6.64017279757034e-06
-9.95282959409437e-07
-1.62289119687963e-06
1.63954619085978e-05
-6.65885342893093e-07
-4.82468096755686e-06
2.19498924873757e-05
7.04631148184654e-07
-2.21249206353329e-06
8.70221315060494e-06
4.40582076991573e-07
-6.29477950068789e-07
2.38250420490884e-05
5.49883067059359e-07
-3.72747347984157e-06
6.94323422075358e-06
5.76653114027183e-09
-4.16394797683036e-07
9.45281974977503e-06
1.93101248871129e-07
-1.10865580866444e-06
2.51866946621645e-05
2.60021710549642e-07
-4.7715076451358e-06
6.15392715388776e-06
-4.53021423015451e-07
-3.32976551023643e-07
7.40124445900543e-06
-2.75923935720744e-07
-7.83880357716516e-07
9.75381846166775e-06
-1.55397372337899e-07
-1.55042473816534e-06
2.58292585238544e-05
-8.58095324162353e-08
-5.78812101454409e-06
5.51339853533785e-06
-8.76622222510902e-07
-2.71150268574639e-07
6.45814143393074e-06
-7.35381920565962e-07
-6.19892913970801e-07
7.71168667577324e-06
-6.14099433031902e-07
-1.08213465219408e-06
9.91105908065742e-06
-4.74254033878446e-07
-1.87273125998315e-06
2.52465683993827e-05
-3.49103019408363e-07
-6.31607319621429e-06
4.89038371710702e-06
-1.24032663301623e-06
-2.21575601832774e-07
5.68014050371242e-06
-1.15189008672788e-06
-4.9554361067544e-07
6.70623643969913e-06
-1.06547663190589e-06
-8.44044165908915e-07
7.74823521390615e-06
-9.19751034965541e-07
-1.28399424590927e-06
9.57169026981177e-06
-7.32054638452901e-07
-2.04790306570804e-06
2.36759510295387e-05
-5.31620728876448e-07
-6.46354751950762e-06
4.2912259809199e-06
-1.53331442344457e-06
-1.82506879990767e-07
4.98599711695167e-06
-1.50099202484014e-06
-4.03559855632064e-07
5.83674687750146e-06
-1.4651325677035e-06
-6.71829015362476e-07
6.67339174267869e-06
-1.34679102705312e-06
-9.98089058864204e-07
7.32857597399976e-06
-1.14140120166961e-06
-1.38710065754528e-06
8.85564478447507e-06
-8.97373383354433e-07
-2.09701704565386e-06
2.15878089529485e-05
-6.34336985275742e-07
-6.33178131046404e-06
3.74077778131098e-06
-1.75569133997357e-06
-1.52131060207392e-07
4.36597752579511e-06
-1.77555241329641e-06
-3.3504411126886e-07
5.09219626602012e-06
-1.79235771189654e-06
-5.49229768574348e-07
5.75722310906012e-06
-1.71293313084116e-06
-7.96954387080403e-07
6.2444753835818e-06
-1.51859255856915e-06
-1.07942344284138e-06
6.63878510856745e-06
-1.2599802342263e-06
-1.40399938736599e-06
7.99528462685372e-06
-9.85790296939377e-07
-2.04058814163719e-06
1.94310458896217e-05
-6.89396458223743e-07
-5.99247978667201e-06
3.24968797796593e-06
-1.91378153276534e-06
-1.28160010714668e-07
3.81298374866113e-06
-1.97896761408099e-06
-2.82015098968429e-07
4.45948273924956e-06
-2.04515649634876e-06
-4.59917553680654e-07
5.00405343133703e-06
-2.00644636482464e-06
-6.56761969544616e-07
5.35556416697417e-06
-1.83425450835502e-06
-8.68231290463972e-07
5.6075855687735e-06
-1.58118631228454e-06
-1.09717857281871e-06
5.89258931005149e-06
-1.2993114639319e-06
-1.35505030081037e-06
7.14836272188834e-06
-1.01447485514259e-06
-1.91148969436964e-06
1.7478082363809e-05
-7.00601792529387e-07
-5.56551056596339e-06
3.32103860409097e-06
-2.38500487609188e-07
3.90747152946434e-06
-2.22978349887606e-06
-3.90369186203373e-07
4.38637150217042e-06
-2.23054247169599e-06
-5.55254288908374e-07
4.64999003629004e-06
-2.08447634252625e-06
-7.22601457462811e-07
4.79298437046116e-06
-1.84667987593765e-06
-8.90963886575468e-07
4.9443867546238e-06
-1.57357565892335e-06
-1.06634874360218e-06
5.19278932722901e-06
-1.28933693140145e-06
-1.26285247672042e-06
6.37690950022477e-06
-1.00055111011719e-06
-1.73998545055171e-06
1.57956868754078e-05
-6.76078251992335e-07
-5.06106545358835e-06
2.32705470330623e-05
1.1628531239196e-06
-2.48351172966732e-06
9.2410751911729e-06
8.81590469900464e-07
-7.15822697052335e-07
2.52463331219802e-05
8.49251418601159e-07
-4.48303609889035e-06
7.47733727337104e-06
3.9203335144539e-07
-4.85553453846218e-07
1.01518156579635e-05
5.85870124378451e-07
-1.36445728506958e-06
2.65264309105112e-05
6.66133326180601e-07
-5.73333259842321e-06
6.69429090359088e-06
-1.4983760269789e-07
-3.84758855949107e-07
8.01496409829456e-06
6.95422725758472e-08
-9.06552693999977e-07
1.0520047907992e-05
1.96707938398701e-07
-1.81156543949587e-06
2.76682316239838e-05
2.11966777682645e-07
-6.8224311023282e-06
6.03282759643848e-06
-6.5871730113431e-07
-3.13732540637876e-07
7.03801663329324e-06
-4.72738862474511e-07
-7.16034159511432e-07
8.3536123863436e-06
-3.29925959652175e-07
-1.25127274713763e-06
1.06707327611172e-05
-2.07847635593088e-07
-2.1880497264585e-06
2.70225381424373e-05
-1.56107828684639e-07
-7.40796505235452e-06
5.36984315651083e-06
-1.09919094565712e-06
-2.56890405874322e-07
6.21933079219298e-06
-9.7103354123829e-07
-5.74687566903384e-07
7.3074756957457e-06
-8.56796910891719e-07
-9.78432267436528e-07
8.39140635668078e-06
-7.0652447212331e-07
-1.49303188997818e-06
1.02987291181049e-05
-5.5250734454979e-07
-2.39635575987342e-06
2.52999645257085e-05
-4.22232390836106e-07
-7.51783623090298e-06
4.71931423136491e-06
-1.45720054094834e-06
-2.1121402936025e-07
5.47413851533761e-06
-1.39372044727341e-06
-4.67885611943769e-07
6.38621611940734e-06
-1.33089406360653e-06
-7.79593648837596e-07
7.26880433162103e-06
-1.19819963841915e-06
-1.16100543555506e-06
7.93524506489724e-06
-1.00269767153847e-06
-1.62001718656809e-06
9.52778426480136e-06
-7.92098178197244e-07
-2.45955309846242e-06
2.30609456478384e-05
-5.78767325965826e-07
-7.35788743930893e-06
4.11507758125066e-06
-1.73238216576674e-06
-1.75231719731726e-07
4.79932904473768e-06
-1.72978990525444e-06
-3.8705945872989e-07
5.58429424030124e-06
-1.72455402487981e-06
-6.3623487450337e-07
6.29360888354542e-06
-1.62884496356446e-06
-9.26158631046768e-07
6.79681173169882e-06
-1.43197265505841e-06
-1.25985259014444e-06
7.1860868777779e-06
-1.18479626147047e-06
-1.64697510615699e-06
8.5981139504238e-06
-9.31660692909126e-07
-2.40251341285891e-06
2.06829440970478e-05
-6.60035504876435e-07
-6.92362762195305e-06
3.57299144692822e-06
-1.93218875647044e-06
-1.46805843159735e-07
4.19189013981016e-06
-1.98230050632481e-06
-3.24288763611687e-07
4.89523792598413e-06
-2.03240709454203e-06
-5.30748961980782e-07
5.48142352698183e-06
-1.97896190551211e-06
-7.60569810180158e-07
5.84871252784797e-06
-1.79870770271772e-06
-1.00998614202724e-06
6.09834736956237e-06
-1.54660480828622e-06
-1.28355815668781e-06
6.37113272013176e-06
-1.27362098188746e-06
-1.59470914272878e-06
7.6751948188246e-06
-1.00358177226786e-06
-2.25322733461856e-06
1.85681767593899e-05
-7.04727433360658e-07
-6.37782748804842e-06
3.09141030429e-06
-2.06734718294961e-06
-1.23434959420123e-07
3.64899102469136e-06
-2.16143230677645e-06
-2.73647056620161e-07
4.28983816865791e-06
-2.2612433889724e-06
-4.48294070920623e-07
4.80948929044496e-06
-2.24984697405644e-06
-6.39633910765396e-07
5.08831432056018e-06
-2.09350032229632e-06
-8.35839284775918e-07
5.23001942049254e-06
-1.85017564678186e-06
-1.03627575206669e-06
5.37353688427843e-06
-1.57744922408316e-06
-1.24818911159995e-06
5.60971179628005e-06
-1.3000775119725e-06
-1.48636790063811e-06
6.84169332906044e-06
-1.02493824547617e-06
-2.05192898985309e-06
1.67819480758348e-05
-7.09984217693477e-07
-5.84177496935267e-06
3.74959456102906e-06
-3.80782430735542e-07
4.22721128018755e-06
-2.44903695431171e-06
-5.44872786427343e-07
4.47378913181063e-06
-2.32045924689633e-06
-7.09239799267989e-07
4.55198139967885e-06
-2.09268911440769e-06
-8.6563996963701e-07
4.60102165047808e-06
-1.82967336894744e-06
-1.017536602742e-06
4.708678821975e-06
-1.55893527482854e-06
-1.17287458195775e-06
4.93222048484477e-06
-1.28457497079763e-06
-1.34719555958441e-06
6.10027426887377e-06
-1.00746360130503e-06
-1.81928910090911e-06
1.51588542078465e-05
-6.92487368929895e-07
-5.03602363176899e-06
2.43135351696425e-05
1.8520755646151e-06
-2.89507151529229e-06
9.7043690973953e-06
1.49084890117732e-06
-7.91296856610366e-07
2.65568544140282e-05
1.34600510211145e-06
-5.14005643601418e-06
8.00014631634417e-06
9.13252358484898e-07
-5.54470913142863e-07
1.07936357907209e-05
1.09711509040548e-06
-1.60550510174416e-06
2.76151177938524e-05
1.02215411840724e-06
-6.59386959321175e-06
7.26478294713008e-06
2.63602417051517e-07
-4.42060645444086e-07
8.6407312107276e-06
5.320071565288e-07
-1.05745567485127e-06
1.13000268613555e-05
6.68294366043619e-07
-2.14659214328899e-06
2.91337128619801e-05
6.70495249628835e-07
-7.86930039132103e-06
6.60149341089705e-06
-3.54134043136055e-07
-3.64368954592933e-07
7.65897510430807e-06
-1.07968797544283e-07
-8.28204242372667e-07
9.02820333938663e-06
6.38063371183913e-08
-1.44823976697169e-06
1.14631247176496e-05
1.67707925760879e-07
-2.55968891161941e-06
2.87302742768179e-05
1.53143831779118e-07
-8.68328903856338e-06
5.90158286502862e-06
-8.92106995050827e-07
-2.98349488417687e-07
6.8091424165749e-06
-7.09743980314906e-07
-6.66537684609632e-07
7.95159730173007e-06
-5.57247079057227e-07
-1.13283300934074e-06
9.06524614034267e-06
-4.00730639177188e-07
-1.73222643446588e-06
1.10457053892e-05
-2.88969212355493e-07
-2.80215686422709e-06
2.68621947082024e-05
-2.34028513725914e-07
-8.73614402544033e-06
5.19705045099027e-06
-1.33190418100831e-06
-2.45022548280917e-07
6.0142709695023e-06
-1.22487929063483e-06
-5.43176012301712e-07
6.98388481199707e-06
-1.12531222475691e-06
-9.03839143565688e-07
7.90384815040126e-06
-9.73204034996546e-07
-1.34679463454528e-06
8.56666992109337e-06
-7.92745850409518e-07
-1.88421493960644e-06
1.02109517332652e-05
-6.28578418913246e-07
-2.87316614327591e-06
2.46395959292341e-05
-4.85636060862527e-07
-8.61083306980115e-06
4.53322105619737e-06
-1.67282627873559e-06
-2.02517400374088e-07
5.28061639361911e-06
-1.63838409342496e-06
-4.4783677219896e-07
6.12390664895251e-06
-1.60169036277621e-06
-7.36700420342717e-07
6.87364096538239e-06
-1.4839716080405e-06
-1.073851619511e-06
7.3833116244084e-06
-1.2856721638946e-06
-1.46452832370465e-06
7.75426636707614e-06
-1.05802984443508e-06
-1.92226081785336e-06
9.21592053994474e-06
-8.39394256579023e-07
-2.81672552399813e-06
2.20063379140057e-05
-6.14517666257043e-07
-8.06675040035096e-06
3.93335201678652e-06
-1.92418112858776e-06
-1.68561241900862e-07
4.61304839654888e-06
-1.95262416910978e-06
-3.73555075855041e-07
5.37544634016482e-06
-1.97913472777831e-06
-6.12686471331084e-07
6.00160213345408e-06
-1.90537169669076e-06
-8.79885765118948e-07
6.37866016484261e-06
-1.7159989167463e-06
-1.17207803005292e-06
6.61773892593347e-06
-1.46798092613899e-06
-1.49605794732833e-06
6.87056810363915e-06
-1.20956242196365e-06
-1.86850402644889e-06
8.2183282218207e-06
-9.60483717651678e-07
-2.64518933195573e-06
1.96283734447556e-05
-6.9116185678438e-07
-7.29264724260917e-06
3.3990498890355e-06
-2.0986792625086e-06
-1.41148924180635e-07
4.01272603051217e-06
-2.1792612192955e-06
-3.1357950391743e-07
4.7113240281228e-06
-2.262881476834e-06
-5.1529944949125e-07
5.27200574489364e-06
-2.23507328683625e-06
-7.37152950404718e-07
5.56221971677536e-06
-2.0667823645444e-06
-9.66399608564994e-07
5.69624832806205e-06
-1.81921003562364e-06
-1.20360805574879e-06
5.82457754173395e-06
-1.55001210875401e-06
-1.45820578058175e-06
6.04112545204499e-06
-1.28276379007504e-06
-1.74693857605088e-06
7.31475228375571e-06
-1.02205390499967e-06
-2.40895250215892e-06
1.76590216900293e-05
-7.24075507205331e-07
-6.5308033929756e-06
2.92225501916521e-06
-2.2097266290161e-06
-1.17843395347717e-07
3.47557186837279e-06
-2.33298175287702e-06
-2.63745782459504e-07
4.11586247424159e-06
-2.46554353848484e-06
-4.35614213813917e-07
4.63525474391979e-06
-2.4817586348021e-06
-6.24425046490858e-07
4.89649412118497e-06
-2.34025971761517e-06
-8.15578367187381e-07
4.96917213121546e-06
-2.10352907515689e-06
-9.99675231342156e-07
5.00576908318079e-06
-1.83677071293126e-06
-1.18170006161688e-06
5.09927086815648e-06
-1.56782389787438e-06
-1.37103336652413e-06
5.3063952329535e-06
-1.30116608263064e-06
-1.58431339081391e-06
6.52646159002177e-06
-1.03750310138462e-06
-2.1505926780779e-06
1.56337542387746e-05
-7.00131895900527e-07
-5.61652754145404e-06
4.06362228494423e-06
-5.31917649489172e-07
4.318782773956e-06
-2.54325800842026e-06
-6.96739363681337e-07
4.38506247017167e-06
-2.32454537329781e-06
-8.50999304870563e-07
4.37199955917371e-06
-2.06738714194232e-06
-9.90928221142963e-07
4.38006282379276e-06
-1.80512736103467e-06
-1.12278148785194e-06
4.46137324214068e-06
-1.54323825393073e-06
-1.25497776746367e-06
4.66828311697673e-06
-1.27945056741506e-06
-1.40454159912634e-06
5.81990485740115e-06
-1.01464266525139e-06
-1.85262412258327e-06
1.39543489312964e-05
-7.16186626089612e-07
-4.96505488245084e-06
2.48980963778079e-05
2.86141969725799e-06
-3.44599791963629e-06
1.00958321547004e-05
2.33525576540554e-06
-8.74656437104086e-07
2.75974100600416e-05
2.12445828357242e-06
-6.06012419364372e-06
8.49923932087082e-06
1.61601171603072e-06
-6.24257171540317e-07
1.13627014248569e-05
1.80851296492231e-06
-1.82287608983796e-06
2.8782222025566e-05
1.51068093869581e-06
-7.81785115176779e-06
7.86158364517257e-06
8.20879333149846e-07
-5.0442751830365e-07
9.25167106830452e-06
1.14896246762707e-06
-1.21725939909891e-06
1.19797933112931e-05
1.24099999421699e-06
-2.50411785820892e-06
3.02140382429599e-05
1.09982919023959e-06
-8.77401580799097e-06
7.22427290486568e-06
6.12159439507826e-08
-4.20392707614491e-07
8.31994436423061e-06
3.87594713453878e-07
-9.58616377403012e-07
9.72404135438403e-06
5.94262686360005e-07
-1.6792586978104e-06
1.2279030858121e-05
6.80439615709883e-07
-2.97243621025818e-06
2.99843261576753e-05
5.90212975299342e-07
-9.71354648044359e-06
6.49663143638568e-06
-6.0121949168205e-07
-3.47962888762504e-07
7.45642533899084e-06
-3.45168426306393e-07
-7.74451024877368e-07
8.64074661765267e-06
-1.42248096942901e-07
-1.31129680180922e-06
9.76891111280038e-06
2.22606503705085e-08
-2.00645372787876e-06
1.18220539362977e-05
8.48790214541339e-08
-3.26776383140419e-06
2.80450216286864e-05
8.55841429385277e-08
-9.95167833513781e-06
5.73581427948366e-06
-1.14527928835741e-06
-2.85591245460577e-07
6.61600432100412e-06
-9.78725264953727e-07
-6.31100581384829e-07
7.63618423475642e-06
-8.27943338474657e-07
-1.04813900940317e-06
8.5809570500105e-06
-6.51177419499927e-07
-1.55949264941127e-06
9.22135546946609e-06
-4.91295101549708e-07
-2.18458259940285e-06
1.0894672828127e-05
-3.83681511474255e-07
-3.33621041259202e-06
2.61882922424857e-05
-3.22449155732841e-07
-9.96237490504616e-06
5.00517578608828e-06
-1.56883621627689e-06
-2.35022463216716e-07
5.81974292859739e-06
-1.48989696082835e-06
-5.19130382239096e-07
6.7207593990866e-06
-1.41222129129262e-06
-8.53117853786281e-07
7.50224744266499e-06
-1.26232560983477e-06
-1.2433223208566e-06
8.00430576520394e-06
-1.0638846237187e-06
-1.69664721209829e-06
8.33859562101257e-06
-8.65188844835689e-07
-2.23192992519832e-06
9.8435935747129e-06
-6.96071609148423e-07
-3.29039219477228e-06
2.32322875086078e-05
-5.1130689228116e-07
-9.32545529305854e-06
4.33898945852962e-06
-1.88396729789391e-06
-1.94496137536907e-07
5.08525990087982e-06
-1.88154997314341e-06
-4.3156214070666e-07
5.90830871506097e-06
-1.87435538288462e-06
-7.08033145636794e-07
6.57068602061056e-06
-1.77272395539679e-06
-1.01703069518409e-06
6.94847640965548e-06
-1.57283382485918e-06
-1.35650414377662e-06
7.16460081731613e-06
-1.33339946536073e-06
-1.73601782395706e-06
7.38456827252794e-06
-1.098438970833e-06
-2.17721376645864e-06
8.766582476871e-06
-8.8135797152407e-07
-3.09813085303006e-06
2.06406865729309e-05
-6.40370311029633e-07
-8.43867483934553e-06
3.74363597205764e-06
-2.10705209304907e-06
-1.61714935234246e-07
4.41974937209497e-06
-2.1678880013873e-06
-3.6032012525084e-07
5.17935996941961e-06
-2.22755258012193e-06
-5.93172265711621e-07
5.78040371324024e-06
-2.17679778548541e-06
-8.49657215427987e-07
6.07622007651154e-06
-1.9939420281477e-06
-1.11594173183391e-06
6.19392241457135e-06
-1.7436006683656e-06
-1.39413082898554e-06
6.29778401728545e-06
-1.48224048330107e-06
-1.69658267911385e-06
6.4858818698887e-06
-1.23097914566699e-06
-2.04276292643829e-06
7.78678517729171e-06
-9.92652950609106e-07
-2.81572211671833e-06
1.84188342445106e-05
-7.19874511033705e-07
-7.33256772744028e-06
3.21244816641042e-06
-2.25426449337879e-06
-1.34607750153897e-07
3.8225769231881e-06
-2.36581522019705e-06
-3.01599265371329e-07
4.52151465460356e-06
-2.48319076494545e-06
-4.9892175561467e-07
5.08387390316616e-06
-2.48213611183272e-06
-7.16854918688144e-07
5.35662299731321e-06
-2.32573197241177e-06
-9.38330840630781e-07
5.41764646942094e-06
-2.08031355589569e-06
-1.15376947741839e-06
5.43440610313448e-06
-1.81214758807781e-06
-1.37010759418247e-06
5.5059912199358e-06
-1.54856237372686e-06
-1.59912538279355e-06
5.68896642913571e-06
-1.29281627889342e-06
-1.85874454795875e-06
6.94233059982412e-06
-1.04278827144622e-06
-2.50610351752577e-06
1.609142013489e-05
-7.15714053765726e-07
-6.27274506559474e-06
2.73683700966706e-06
-2.33981686819581e-06
-1.11441710663077e-07
3.28645426981438e-06
-2.49271798004945e-06
-2.51737378739462e-07
3.92751465026016e-06
-2.65830892395906e-06
-4.20198513009287e-07
4.45547129504756e-06
-2.70198331110467e-06
-6.07237855561978e-07
4.72737869728476e-06
-2.57626997533568e-06
-7.97009564240578e-07
4.78810759632092e-06
-2.34521931307264e-06
-9.76931917129068e-07
4.75885872383449e-06
-2.08087783668449e-06
-1.14242598222233e-06
4.74888225475451e-06
-1.81659592130553e-06
-1.30174572415057e-06
4.81176103832321e-06
-1.5578061691393e-06
-1.46478030326716e-06
4.99943168819952e-06
-1.3024004054447e-06
-1.65056095218776e-06
6.16165743202402e-06
-1.04147633780217e-06
-2.15099177558431e-06
1.46356718830546e-05
-7.53314472057764e-07
-5.5445281239537e-06
4.15744970098653e-06
-6.80586301056051e-07
4.23909081690838e-06
-2.54379695809464e-06
-8.36971571423629e-07
4.2166506205153e-06
-2.2915468865156e-06
-9.75951889459106e-07
4.16565757323133e-06
-2.03341032589779e-06
-1.09648995590883e-06
4.15041798457805e-06
-1.77882180893725e-06
-1.20604477082282e-06
4.21288603076478e-06
-1.52597670508242e-06
-1.31330638047097e-06
4.4119148555256e-06
-1.27202286293054e-06
-1.43692079095018e-06
5.53043939679433e-06
-1.01762711855803e-06
-1.87214251587378e-06
1.37853075955079e-05
-7.20627836550485e-07
-4.8497839801124e-06
2.47597808530911e-05
4.27150345189858e-06
-4.13321750675528e-06
1.04425765869543e-05
3.48841516866994e-06
-9.73763206858164e-07
2.81596069633819e-05
3.27426210004969e-06
-7.28252718745234e-06
8.97007595004838e-06
2.56799894604937e-06
-7.03582950381482e-07
1.18897136323528e-05
2.8060028592914e-06
-2.08322965961034e-06
2.97719164704e-05
2.34134637047934e-06
-9.39118230732264e-06
8.48362551408426e-06
1.57103601910156e-06
-5.77067001880965e-07
9.83644083100015e-06