/*--------------------------------*- C++ -*----------------------------------*\
  =========                 |
  \\      /  F ield         | OpenFOAM: The Open Source CFD Toolbox
   \\    /   O peration     | Website:  https://openfoam.org
    \\  /    A nd           | Version:  12
     \\/     M anipulation  |
\*---------------------------------------------------------------------------*/
/*   Windows 32 and 64 bit porting by blueCAPE: http://www.bluecape.com.pt   *\
|  Based on Windows porting (2.0.x v4) by Symscape: http://www.symscape.com   |
\*---------------------------------------------------------------------------*/
FoamFile
{
    format      ascii;
    class       volScalarField;
    location    "400";
    object      k;
}
// * * * * * * * * * * * * * * * * * * * * * * * * * * * * * * * * * * * * * //

dimensions      [0 2 -2 0 0 0 0];

internalField   nonuniform List<scalar> 
10228
(
1.03490265649887e-07
1.14873811841382e-07
1.5214895500715e-06
2.57821212873973e-07
2.80746299767271e-07
1.22262334161047e-07
1.69227406810461e-06
5.70976809269644e-06
3.27520965199941e-06
6.04053035474704e-07
3.46839631957162e-06
2.85658300310301e-07
6.37558519200898e-07
1.07414653522537e-07
1.80696629132561e-06
5.58166272179452e-06
1.13388822844307e-05
1.00255755086734e-05
7.14242914496341e-06
1.2154488438747e-06
7.34947090742165e-06
1.0115345353043e-05
3.56739240690842e-06
2.57442370169643e-07
6.40760675085222e-07
1.2758253308479e-06
8.63835247168926e-08
1.69263772860532e-06
5.68302059968632e-06
1.13753403180279e-05
1.72843059969075e-05
1.88443764793951e-05
1.85712421877658e-05
1.33658086827072e-05
2.18912223365111e-06
1.87704918254187e-05
7.41097567352645e-06
1.36676379840051e-05
1.00723545712888e-05
1.8805533386531e-05
3.31025097560795e-06
2.00537505071921e-07
5.8363534117207e-07
1.2777072091529e-06
2.24767654862481e-06
5.49252394443978e-08
1.39489845123899e-06
5.47009028559666e-06
1.119142245067e-05
1.71486268055415e-05
2.16018127414247e-05
2.81719801337295e-05
3.14746746885867e-05
3.02606952429827e-05
2.14089088652034e-05
3.3800929861959e-06
1.84744599103249e-05
3.11779805280549e-05
3.03480450431021e-05
1.36486722038281e-05
6.91592860828396e-06
2.17692306329171e-05
9.53429849902686e-06
1.83351647218414e-05
2.76674383795647e-05
2.71250695707928e-06
1.29995371640746e-07
4.58424500439036e-07
1.1761094613403e-06
2.24387768869699e-06
3.4816647026392e-06
3.21940763162997e-08
9.37286235253653e-07
4.82086733866872e-06
1.02962178798807e-05
1.69283785732426e-05
2.19399204889111e-05
2.7542244917013e-05
3.66727125839361e-05
4.39559942460289e-05
4.70646133539598e-05
4.40232131363673e-05
3.0294866024648e-05
4.81472927296757e-06
3.02882901341359e-05
2.97386658578482e-05
1.74159188933805e-05
4.66280509034355e-05
4.34655891029185e-05
4.39272122062613e-05
2.16394674234081e-05
1.28554023544518e-05
5.74824389009812e-06
3.06730870115358e-05
8.31511773344367e-06
1.6997726779809e-05
2.68067949909525e-05
3.63423930175801e-05
1.82653135750002e-06
7.95876475611001e-08
3.06535260523961e-07
9.52475068154509e-07
2.09526337442745e-06
3.50195615600286e-06
4.93169331444504e-06
1.09364579843641e-08
4.2706674101343e-07
3.65739533254644e-06
8.93630852923661e-06
1.59289483892823e-05
2.24636848474039e-05
2.75709409346671e-05
3.36441344012592e-05
4.55130601730465e-05
5.59249532322867e-05
6.27084482521586e-05
6.45860329805746e-05
5.88515727099317e-05
3.97049428009586e-05
6.34327971427982e-06
4.20679310240164e-05
2.83412172623465e-05
4.53713818268464e-05
4.3048460793107e-05
2.81250166107617e-05
1.52276344007207e-05
6.21818943726073e-05
6.41949295774208e-05
5.53238979887841e-05
5.86117999795503e-05
3.04830026366278e-05
2.06145904368166e-05
1.10278527748671e-05
3.95507840633752e-06
3.99993660244904e-05
6.27407671876103e-06
1.47294487612017e-05
2.49490629087459e-05
3.5341059538962e-05
4.49667891506945e-05
8.57456868850083e-07
2.9638848131325e-08
1.91993871190208e-07
6.73454580959968e-07
1.76245691814655e-06
3.32764875783996e-06
4.99035653817949e-06
6.51788962515115e-06
2.23884210590788e-09
5.12410047075271e-08
2.05451125215814e-06
6.76724123751509e-06
1.37450545080655e-05
2.13856026707029e-05
2.72548690769835e-05
3.35530558230588e-05
3.99315920881112e-05
5.41518597725891e-05
6.77694986090362e-05
7.78632433422753e-05
8.35201386062707e-05
8.32527070106998e-05
7.40502842790775e-05
4.91144157170246e-05
7.98621761856739e-06
6.05427205802482e-05
5.36594353572623e-05
3.93123475731495e-05
4.28353493601125e-05
2.49385605854585e-05
6.27616537456386e-05
5.75917377476684e-05
4.09989365193448e-05
2.49860334628016e-05
1.16001026580385e-05
8.30041621928446e-05
7.72013301795134e-05
8.28448339070681e-05
6.70215088450153e-05
7.37296787906034e-05
2.93265613045719e-05
3.97726862959759e-05
1.82531643872026e-05
8.08122337548718e-06
2.10058631296347e-06
4.94133769180524e-05
3.53643964049823e-06
1.11862906508585e-05
2.16484363360239e-05
3.2903985329094e-05
4.3615458129035e-05
5.3564606126745e-05
8.90671095521086e-08
3.789420400834e-09
7.76254597767711e-08
4.38212895724514e-07
1.33937933418025e-06
2.913370976909e-06
4.82038448047388e-06
6.64116981753806e-06
8.20619782894501e-06
6.23557802737541e-09
5.55794062446625e-07
3.92063829834171e-06
1.01136280721305e-05
1.86045181152703e-05
2.65869094361392e-05
3.28838558919569e-05
3.97877916077826e-05
4.62851461945714e-05
6.28835472797993e-05
7.93080331881572e-05
9.26512008288224e-05
0.000101718279724404
0.000105492390993028
0.000102364916356869
8.91113800455284e-05
5.84233778569314e-05
9.70320491239961e-06
8.12512978056781e-05
7.52218756426065e-05
5.73223262088099e-05
6.50250006894066e-05
5.04044163050921e-05
3.48074382306952e-05
5.98431986344349e-05
3.85104512747946e-05
1.95762109962389e-05
8.13792199816597e-05
7.26742315476608e-05
5.537296660639e-05
3.72592425478001e-05
1.98388771340859e-05
6.67787555159735e-06
0.000105002840625846
0.000101087255980607
9.1865655601635e-05
0.000101967682717389
7.84766774332549e-05
8.8835980685303e-05
2.68157563914184e-05
3.85976331614246e-05
4.92106987239647e-05
1.43872652429452e-05
5.08654483759763e-06
5.87324449954232e-05
1.04925313335296e-06
6.52928969039087e-06
1.64393944489995e-05
2.8719995271334e-05
4.08891871273653e-05
5.19804267025097e-05
6.22044367433479e-05
1.63907631535964e-08
7.89670659495079e-09
2.15374276502967e-07
9.88829972598048e-07
2.36136627040513e-06
4.36177230374212e-06
6.50111824096145e-06
8.40090734303496e-06
9.97363699194906e-06
3.70934310651377e-08
1.3937607026543e-06
5.93253352405911e-06
1.37251193391344e-05
2.34894050283974e-05
3.13673460947812e-05
3.88516777465058e-05
4.60543945204021e-05
5.26158886344232e-05
7.1544662298429e-05
9.06037227500277e-05
0.0001069857034321
0.000119324241559827
0.000126638683628436
0.000127900464102223
0.000121452327951907
0.00010390448714961
6.75566216370674e-05
1.15059664096289e-05
9.90223766697627e-05
7.78259997897514e-05
0.000103232727191247
7.14587854088884e-05
8.95762203746084e-05
5.19695049678853e-05
7.62330243709216e-05
6.12766085881562e-05
4.48746342915592e-05
2.7884463317811e-05
7.84563703891836e-05
5.51155221134863e-05
3.18019050741392e-05
1.21067712532877e-05
0.000100510215588466
8.78224443175017e-05
7.04607421057085e-05
5.15562305988977e-05
3.12842140161406e-05
1.25975953664132e-05
2.36244282506198e-06
0.000126032032091574
0.0001274259921521
0.000118572421633994
0.000106105492006
0.000121084562432258
8.96902880817049e-05
0.000103697391340778
3.61330906619119e-05
2.30103742244748e-05
4.80888716702015e-05
5.85840166413137e-05
9.97424074766754e-06
6.78872497786639e-05
7.60737535510909e-08
2.52335181396697e-06
9.78852125549421e-06
2.2080556784719e-05
3.59172802227033e-05
4.88699982782513e-05
6.03823314941385e-05
7.07187287662143e-05
3.98944431942109e-08
1.52330635007001e-08
1.30888375577576e-07
7.59308520238169e-07
1.81780229527173e-06
3.72568372341369e-06
6.02068962859873e-06
8.30145945413804e-06
1.02464417826446e-05
1.18232847061263e-05
7.51631441423385e-08
1.94372384795976e-06
8.11394605671579e-06
1.80022815642818e-05
2.8485396419096e-05
3.67814301903909e-05
4.48987694931146e-05
5.22603442711363e-05
5.85933888288935e-05
7.96708421999298e-05
0.000101580338574456
0.000120839307551719
0.000136295845512976
0.000146920322860716
0.000151896265896934
0.000150230428749542
0.000140229837213675
0.000118340479695123
7.65274310909149e-05
1.33924833127356e-05
0.000116223966007058
0.000123976220587818
9.50948762427516e-05
9.98072614589782e-05
7.24120605441125e-05
0.000125672938121616
6.54384672348875e-05
8.53096486839436e-05
0.000103564144253647
4.39784381324004e-05
8.72190879186448e-05
7.20614225863567e-05
5.5108868935991e-05
3.65302608147253e-05
1.79725298683198e-05
7.37636922513181e-05
9.76585479298063e-05
4.81412594010105e-05
2.22378824323579e-05
5.29061484866375e-06
0.000119663194204994
0.000102748491014557
8.56897333766901e-05
6.68009422379026e-05
4.60292683724553e-05
2.29757975978573e-05
6.25854717524301e-06
1.40090080669106e-07
0.000146192216395526
0.000151294047266927
0.000149769083136557
0.000135450433471357
0.000119884449529443
0.000139898916145742
0.000100569690728974
0.000118191565063819
4.57163681895736e-05
3.25154483783279e-05
1.86848891344412e-05
5.75386318747375e-05
6.78015611041653e-05
7.67489169731154e-06
7.68692904339197e-05
1.4575348146888e-07
3.65180758569417e-06
1.3409243539796e-05
2.82356463803921e-05
4.32764686631894e-05
5.6768738650746e-05
6.86251866227451e-05
7.88286350166306e-05
9.12573912244854e-08
1.57273971705536e-08
1.09412330368579e-07
5.12026658111935e-07
1.37585484497136e-06
3.05157061514662e-06
5.32163957179497e-06
7.80636253031667e-06
1.01902177824434e-05
1.21773323770756e-05
1.37610423617357e-05
1.09105868748033e-07
3.02611050336043e-06
1.05755527536728e-05
2.21582943328231e-05
3.36084186217888e-05
4.23668819488952e-05
5.08511362580025e-05
5.82067916772613e-05
6.4349202423391e-05
8.7505055444063e-05
0.000112038669474911
0.000134175291122154
0.000152608811482232
0.00016636893756089
0.000174724219043871
0.000176984236617508
0.000172177924209198
0.000158538914886126
0.000132373912014142
8.53181726456081e-05
1.53671989291241e-05
0.000111847365825153
0.000143866130561139
0.000132863648695238
0.000149252949854747
0.000120098306644344
8.90454881001062e-05
0.000122330520398828
9.45638315428445e-05
6.46484584838876e-05
0.00014803399939228
5.62156484930307e-05
7.86135795240995e-05
9.88698957962307e-05
0.000117129214911169
3.20577841017642e-05
9.78793487746191e-05
8.26146046592777e-05
6.5303678091579e-05
4.5502959749688e-05
2.42450751054756e-05
7.92378508366231e-06
6.73987262676851e-05
9.32520861135163e-05
0.000116896251240291
3.88099517039434e-05
1.17262728374906e-05
2.53427507530893e-07
0.000138512579608748
0.000117297671748576
0.000100699176358855
8.21988630628573e-05
6.17923548295911e-05
3.92797640358358e-05
1.60599908039565e-05
3.79635166638627e-06
2.16972287938672e-07
0.000165546621510652
0.000173993103297575
0.000176379864705249
0.000171731481142501
0.000151694383998067
0.000133152213382652
0.000158244511044207
0.000110979997786895
0.000132262576208028
4.22517878898386e-05
5.52466569291177e-05
2.82794205959405e-05
1.51323822189332e-05
6.68215650746461e-05
7.68416056515076e-05
6.33138625553172e-06
8.56717386016885e-05
2.12605681957971e-07
5.42795236001279e-06
1.74594141509769e-05
3.45150146906111e-05
5.0744453977683e-05
6.46490509830415e-05
7.65843796305059e-05
8.66097686954473e-05
2.20551916774236e-07
1.55068125783416e-08
1.02095348484088e-07
4.03452617987236e-07
1.54481766981143e-06
1.08291730951201e-06
2.45596143572188e-06
4.5520605850462e-06
7.05224667901664e-06
9.67998139451073e-06
1.21679765891638e-05
1.42025356851757e-05
1.5788708320317e-05
1.47899395455614e-07
4.05615568343896e-06
1.32608719239535e-05
2.64559467880598e-05
3.88172754603542e-05
4.78547474588511e-05
5.66122267466121e-05
6.39330235282648e-05
6.99101604179021e-05
9.51356318256127e-05
0.000122037417362212
0.000146929376398076
0.000168251679696139
0.000185001233509329
0.000196509392455804
0.000202251173030991
0.000201608240451526
0.000193579933503125
0.000176306452549122
0.000145967739805184
9.39296097911557e-05
1.74155456255704e-05
0.00012809375631022
0.000105187589040764
0.000139580894414228
0.000162992146686381
0.000171678447042381
0.000148909030545862
0.000174331804181314
0.000145470448466523
0.000114292031148837
8.06543258004755e-05
0.000144758387944684
0.000117333635265991
8.76427021842503e-05
5.41805749498609e-05
0.000169997742137373
4.2150600486655e-05
6.85345489563177e-05
9.15578013535432e-05
0.000112048207461342
0.000130206586500161
1.72825797855428e-05
0.000108125016904966
9.2914009052127e-05
7.52729682423128e-05
5.45829947283085e-05
3.10399081623295e-05
1.1114983571104e-05
3.55376805255393e-07
5.9717761530656e-05
8.74462121744547e-05
0.000112674412448869
0.000135795545200223
2.91451769611195e-05
7.66740690115222e-06
3.68263936008843e-07
0.000156875105446956
0.000131402699435181
0.00011530194280953
9.73181002126169e-05
7.74963128816161e-05
5.5912397678722e-05
3.29339209351441e-05
1.26802199155808e-05
3.18356349347988e-06
2.57641160767513e-07
0.000195679880089847
0.000184111060854749
0.000201506214183287
0.000200999656089374
0.000193144410432561
0.000167281073372596
0.000145853679391979
0.00017603573239396
0.000120926310408195
0.000145881349587566
3.81315166254886e-05
5.18730048114742e-05
6.45704835312024e-05
2.41340714202138e-05
1.23108587347227e-05
7.59072749841758e-05
8.57041657785374e-05
5.28440360445378e-06
9.42939231205554e-05
2.96963396589839e-07
7.26063871964419e-06
2.19282090170769e-05
4.09282332023337e-05
5.81619782961607e-05
7.22877486058791e-05
8.42306562557832e-05
9.41426732882982e-05
1.65581099464405e-07
1.43566174207231e-08
9.18719022588537e-08
3.40506092535525e-07
1.50697755584953e-06
8.96152031057757e-07
1.98779385030488e-06
3.81711007409294e-06
6.20236318029065e-06
8.86840950591487e-06
1.1642534131832e-05
1.42447651139669e-05
1.63197938903276e-05
1.78902776720986e-05
2.07971494471236e-07
5.34295047904761e-06
1.61478320394553e-05
3.08068235880001e-05
4.38571219892382e-05
5.3136028593659e-05
6.21834564749594e-05
6.94004261472651e-05
7.52280186372869e-05
0.000102274642599834
0.000131600561812346
0.000159091417111798
0.000183205483839483
0.000202833068137592
0.000217324662906288
0.000226258705989059
0.000229228360866616
0.000225614338652876
0.000214347922043078
0.000193484770498416
0.000159098534763687
0.000102339395594869
1.95123713217795e-05
0.000120879902079905
0.000143790983490757
0.000158346391061751
9.6049846954737e-05
0.000133241173070613
0.000167498761237848
0.000181366764447645
0.000193134861429114
0.000199166296466356
0.0001643218526152
0.000198915900905671
0.000170592199354324
0.000139931975481544
0.000106745917395886
6.90790254031744e-05
0.000139913416396021
0.000166726965109316
0.000110948506682409
7.92919977210861e-05
4.22524979065997e-05
0.000191384606898145
5.25365334542355e-05
2.30608384943799e-05
8.0697925768748e-05
0.000104171738783681
0.000124782902332876
0.00014274164104826
1.11820495406152e-05
0.000117920644269351
0.000102841356281945
8.50272637879548e-05
6.36793859404049e-05
3.82666833477835e-05
1.45698093294909e-05
4.93678016418596e-07
4.1556159408968e-07
8.07761952779405e-05
5.17756586944056e-05
0.000107205302008224
0.000131644474977971
0.000154157682440249
2.30691224262194e-05
6.31730371469352e-06
3.72183124485534e-07
0.00017465795797898
0.000145035187894047
0.000129420427715137
0.000111960340484526
9.27466917746421e-05
7.19831438559581e-05
4.99379465407407e-05
2.79958189226626e-05
1.16538949740544e-05
3.55237869331171e-06
3.05874989210638e-07
0.000216425396113937
0.00022540903878513
0.000201889638860008
0.000228465069978093
0.000224995072365613
0.000213913886192313
0.000182186282292478
0.000157965914833749
0.00019322424180309
0.000130419328793634
0.000159026936066672
3.38542268273557e-05
4.78276756469446e-05
6.12214582592695e-05
7.36627430609723e-05
2.05036779384254e-05
1.04721163323306e-05
8.48117255723809e-05
9.43833248466484e-05
4.59366706034863e-06
0.000102710976204074
4.27411384394634e-07
9.51917301745478e-06
2.66813146279008e-05
4.73588530126036e-05
6.52668606138544e-05
7.96191980558961e-05
9.15670641824748e-05
0.000101203965305673
1.53086791538309e-07
1.174430529485e-08
7.60438055833616e-08
2.86231544925084e-07
1.38567223109067e-06
7.53272292787986e-07
1.64712539538297e-06
3.18505431226983e-06
5.35818613139763e-06
7.94083280371239e-06
1.07670337050716e-05
1.37016506697135e-05
1.64128627549362e-05
1.85079815474359e-05
2.00403631953382e-05
2.85673167045036e-07
6.80172795966105e-06
1.91948686975406e-05
3.52029132869078e-05
4.76004836546891e-05
5.83475137047529e-05
6.74773503041439e-05
7.45925186127059e-05
8.01931463454151e-05
0.000108912738323302
0.000140610091921056
0.000170647796176373
0.000197451100940472
0.000219865544403869
0.000237218128334213
0.000249141812947209
0.000255368304289592
0.000255517990146682
0.000248917131102758
0.000234425772026226
0.000210035369980197
0.00017174305295408
0.000110506529578917
2.16328092081672e-05
0.000111024138412181
0.000151515473007076
0.000136066224547689
0.000158887671128895
0.000176399678254478
0.000188604050086723
8.36516069586584e-05
0.00012504498282944
0.000161455868118518
0.000195008024889026
0.000198978859865018
0.000213689450126667
0.000222825642141701
0.000226059570969783
0.000179067955063093
0.000222843860787636
0.00019513393592071
0.000165178542036661
0.000132934418309314
9.77651240139871e-05
5.520889879591e-05
0.000161895748123776
0.000133761142939135
0.000188052782593214
0.000103623455798774
7.02903556401507e-05
3.37565973173033e-05
0.000212101113789951
6.31431787335423e-05
2.93023918476274e-05
1.43467283904576e-05
9.25943264578403e-05
0.00011638082208656
0.000137004589358198
0.000154698155965859
9.12759129826087e-06
0.000112333286936426
0.000127244671929623
9.44269919977865e-05
7.27040357051415e-05
4.57671620391224e-05
1.86811323585821e-05
7.10366472903847e-07
5.35571811079718e-07
4.56470707424145e-07
0.000100851956071922
7.38175786987485e-05
4.50853999870554e-05
0.00012624472692889
0.000149979485518257
0.000171890804305485
2.06148195528888e-05
6.25868811005919e-06
4.81485179637908e-07
0.000191814358569192
0.000158177460194869
0.00014303165847662
0.000126050457140899
0.000107398182663764
8.73388922803018e-05
6.61519516395304e-05
4.44734059018585e-05
2.49572951871741e-05
1.14765877217523e-05
3.59110115540582e-06
3.29411131296224e-07
0.000236264961082479
0.000248219151976751
0.000254491322987855
0.000218874923239423
0.000254727075912912
0.000248277621867195
0.000233983287693267
0.000196385855801895
0.000169469122082006
0.000209775678453112
0.000139367613685668
0.000171678527919562
4.35041258763782e-05
2.98233347654399e-05
5.71820317512646e-05
7.02796975706169e-05
8.25493853289394e-05
1.77795086084205e-05
9.24415702925217e-06
9.35195225124265e-05
0.000102843294097097
4.06392918899178e-06
0.000110883287775637
6.01752489534875e-07
1.20712197782284e-05
3.15925642084464e-05
5.36873570217873e-05
7.19100385742553e-05
8.66019188227409e-05
9.84699452369181e-05
0.000107822038460087
1.31206018024007e-07
8.74981306852782e-09
2.28608538817856e-07
5.77661660426874e-08
1.20808583532657e-06
6.21408117290877e-07
1.37461013501275e-06
2.66818165438826e-06
4.58403975473522e-06
6.99963097648556e-06
9.75428461013654e-06
1.27543808879955e-05
1.58482577998416e-05
1.86485288750704e-05
2.07406483721994e-05
2.22111538636075e-05
3.95481286354633e-07
8.3953903408896e-06
2.23878613122692e-05
3.95603405393487e-05
5.22043397499431e-05
6.32969580936149e-05
7.24425515885856e-05
7.9475691063398e-05
8.47876544495853e-05
0.000115156299185323
0.000149036702820256
0.000181550079589965
0.00021096301714723
0.000236083192350838
0.000256207786820313
0.000270984647732829
0.000280227152426315
0.000283716953811654
0.000281038352768773
0.000271455122859108
0.000253768397566772
0.000225926562624955
0.000183874138861899
0.00011839269830601
2.37479679892473e-05
9.78481587164118e-05
0.000125533940359727
0.000142690716048896
0.000182095063966283
0.000169110073792987
0.000150684311950166
0.000173337660944701
0.000193715010480783
0.000208844636291976
0.000218301159322633
6.81270153570278e-05
0.000115307657294867
0.000153852122567543
0.000189072402680469
0.000221819184745144
0.000233361536002983
0.000215809379161595
0.000245435276139317
0.000251821848894311
0.00025222037431779
0.000193115998796318
0.000246031214541154
0.000218942551976121
0.000189677730770911
0.000158371639284076
0.000124906633184266
8.7845962214103e-05
4.44403757121752e-05
0.000183118886980559
0.000155729699215087
0.00012667753722638
0.000208653544570046
9.58072955798311e-05
6.22237588548927e-05
3.00684840658356e-05
0.000232095069518531
7.38424206609777e-05
3.6351377353374e-05
1.76945442549367e-05
1.15904108576163e-05
0.000104088341554741
0.000128106356808664
0.000148663392502147
0.000166046474554654
8.86367448542053e-06
0.000121348068137623
0.000103397134153316
0.000136041255052301
8.1454468088745e-05
5.33514641850567e-05
2.32689269939754e-05
9.95350906285035e-07
7.18647589035604e-07
5.73212045267592e-07
5.90313026984756e-07
0.000119904627428389
9.4069486107623e-05
6.71707279870893e-05
4.06079038568243e-05
0.000144498501032542
0.000167606557517868
0.000188956931371707
1.9693077237443e-05
6.23314594006777e-06
5.18959284772718e-07
0.000208315274505824
0.000156125601435506
0.00017081104620129
0.000139581772709407
0.000121403935002443
0.000101937021633443
8.14531670219992e-05
6.03962112142251e-05
4.00017443735889e-05
2.29052790129675e-05
1.07992252399277e-05
3.32893310506337e-06
3.14340113116056e-07
0.000270004497952357
0.000255205915967752
0.000279271367656681
0.000282803221506581
0.000235047599593383
0.000280212495257655
0.000270788097757427
0.000253309861638656
0.000209852029339004
0.000180320930183908
0.000225660957296961
0.000147755437718289
0.000183810687071698
5.27844148926703e-05
3.92159733616797e-05
2.63387227750197e-05
6.61696922424318e-05
7.90840665414455e-05
9.12156738788582e-05
1.56829568405085e-05
8.18203190408701e-06
0.000101988824765667
0.000111044297445838
3.49699308310271e-06
0.000118770448617544
8.3941029087845e-07
1.48137684382262e-05
3.65736480230591e-05
5.98637967068224e-05
7.83981542782061e-05
9.32390376693188e-05
0.000104963462692681
0.000114012615069324
1.03352127840551e-07
6.08923157579552e-09
4.90232042320299e-07
1.69920628646194e-07
4.03986704331702e-08
9.84590120015875e-07
1.12492583792858e-06
2.22400685646999e-06
3.89462783062138e-06
6.09682947015286e-06
8.71375084625981e-06
1.16453106902416e-05
1.48223535197056e-05
1.80567195039027e-05
2.09239519631064e-05
2.29894757052689e-05
2.43751878607396e-05
5.17634766659627e-07
1.0024870973788e-05
2.61633162435607e-05
4.37808309128058e-05
5.67195793760481e-05
6.79445990213723e-05
7.71081044521089e-05
8.40075015147444e-05
8.90414982671223e-05
0.000120974408622744
0.000156902039168668
0.000191768083093205
0.000223707225434331
0.000251457899321606
0.000274282964144019
0.000291821350343034
0.000303923608306394
0.000310473671301813
0.000311234116901185
0.000305732796994106
0.000293179012347818
0.000272337311850783
0.000241131541144615
0.000195459883133982
0.000125931391304503
2.58195281640112e-05
0.000111570515597407
0.000132197930046227
8.1134587734747e-05
0.000139501677816916
0.000159684900756594
0.000173906625480265
0.000201897073882733
0.000211886369636508
0.000185989183927579
0.000164680181719905
0.000187102298489788
0.000210263484140509
0.000228223196775172
0.000240585024828046
0.000247185102319757
5.52730271121006e-05
0.000104584079408751
0.000145105106085149
0.000181641556585422
0.000215794195440571
0.000247812097698699
0.000267045421104271
0.00025214467910038
0.000231832517531682
0.000276387476370471
0.000280008622661166
0.000277576714063287
0.000206435224860781
0.000268426111065374
0.000241953139458069
0.000213312574622135
0.000182789551052989
0.000150526880502177
0.000116285155161885
7.84692428516182e-05
3.94955950070409e-05
0.000203531896400542
0.000176778532632612
0.000148528497796655
0.000118999639221927
0.00022849164649929
8.80660511490334e-05
5.62527834374093e-05
2.84636164429032e-05
0.000251330178644996
8.44540406005865e-05
4.40807066347287e-05
2.1657779839349e-05
1.42974616685292e-05
1.15545139790275e-05
0.000115147136948024
0.000139293188039762
0.000159723888498051
0.00017675232542246
8.92720692439733e-06
0.000129877496942751
0.000111949071438988
8.98576126441087e-05
0.000144302523836783
6.0859205846679e-05
2.8136509241578e-05
1.37386790030696e-06
9.50473559999887e-07
7.38971231907597e-07
6.73705003585334e-07
6.70228880537628e-07
0.000137985134987659
0.000112929376107802
8.71464922836224e-05
6.1258526974862e-05
3.74646416401578e-05
0.00016194181728168
0.000184507988319573
0.000205337857998472
1.86213274012469e-05
5.81549888734972e-06
4.98587423204212e-07
0.000224137527620971
0.000168688429085246
0.000152555748945444
0.000182914382820938
0.000134781292942851
0.000115779144561576
9.58596530374038e-05
7.53595999820493e-05
5.49990273500711e-05
3.62488615389489e-05
2.09052459500892e-05
9.70759150501792e-06
2.85368186028739e-06
2.66073516181527e-07
0.00029079037128004
0.000302908801763072
0.00027323327873639
0.000309477188189146
0.000310275741036504
0.000250376534052011
0.000304864513223963
0.000292478388617164
0.000271857563736176
0.00022255125271762
0.000190495665316191
0.000240855921868902
0.000155579247909304
0.00019539648185247
4.8255636873531e-05
6.16383775450708e-05
3.51552401868585e-05
2.32907485624394e-05
7.48376638113403e-05
8.76347911698298e-05
9.96195947578085e-05
1.37790750740856e-05
7.03484468991111e-06
0.000110181584570664
0.00011894772973497
2.84769610584091e-06
0.000126320505930436
1.11544042490946e-06
1.76246525908629e-05
4.16807529334915e-05
6.57418329079533e-05
8.46219883363762e-05
9.95231742650659e-05
0.000111039742919587
0.000119787839266692
7.77229482466278e-08
3.99083721348323e-09
8.831672571782e-07
3.62290313948917e-07
1.16519972397812e-07
2.60558118762486e-08
7.46663419341217e-07
1.81303299911833e-06
3.26419311191278e-06
5.24625581982989e-06
7.68468186171834e-06
1.04944324879091e-05
1.36067881846693e-05
1.69443532620494e-05
2.0298851696435e-05
2.32089346086176e-05
2.52278071110547e-05
2.64940933587509e-05
6.58048815019115e-07
1.16211726990299e-05
2.94548857135121e-05
4.77819729462091e-05
6.0963646023569e-05
7.23228541443246e-05
8.14724490797278e-05
8.82140534627599e-05
9.29705596254587e-05
0.000126349852577465
0.000164201393689628
0.000201288244065597
0.000235651447813419
0.000265953684704746
0.00029141442807634
0.000311649291801012
0.000326514776074257
0.000335947180481973
0.000339825385907025
0.000337866509569876
0.00032954849944282
0.000314044323758438
0.000290099596179483
0.00025562452259357
0.000206475476181117
0.00013307138402621
2.78457403762975e-05
0.000124730122252536
0.000148460295604822
9.38878486264776e-05
0.000164449271594341
0.000120579316944132
6.63042177552966e-05
0.000175986357528451
0.000152881555795649
0.000193144975337273
0.000203861036686926
0.000220854985701231
0.000233721735330252
0.000240644019287584
0.000202116512898499
0.000178010966118088
0.000200148863306354
0.000226012478203132
0.000246725299821956
0.000261892984625279
0.000271402217521941
0.000275166851734724
4.894277207202e-05
9.40138672907733e-05
0.00013563037558661
0.00017305081083566
0.000208229863634705
0.000241553566589411
0.000272941473563982
0.000287667456921744
0.000299839453032968
0.000270019392332255
0.000247015804219085
0.000306451837578666
0.000307327388136909
0.000302080588911997
0.000218993230175141
0.000289987909681998
0.000264133332572632
0.000236060875184294
0.000206169594231503
0.000174747691519944
0.000141940525358454
0.000107487214968794
7.10753887523699e-05
3.72585232885181e-05
0.000196913824381255
0.000223124591898532
0.000169281550434214
0.000140535508207672
0.00011092656882721
0.000247544451165911
8.07803694027873e-05
5.17719902406994e-05
2.68543980491474e-05
0.000269777104700803
5.21118452019568e-05
9.47334017970896e-05
2.63431560847801e-05
1.74391572520717e-05
1.44583376974702e-05
1.17299582992018e-05
0.000125718527006721
0.000149913077279973
0.000170163884062005
0.00018679422662212
8.45077555660755e-06
0.000137907025460596
0.000120061462662385
9.78385446623343e-05
6.81920764244073e-05
0.000152013013520683
3.31339401157327e-05
1.81846759960305e-06
1.25731729060723e-06
9.6245998585195e-07
8.12303810948754e-07
8.04928697457581e-07
6.68766124450329e-07
0.000130656610923882
0.00015513921906049
0.000105525994653721
8.02660346602588e-05
5.5962550503464e-05
3.43853101687158e-05
0.000178590247941685
0.00020068424338703
0.000221021000581832
1.69183153670975e-05
5.05393176925619e-06
4.44887473940456e-07
0.000239261881786205
0.000180705424188592
0.000164969646359139
0.000147552760397457
0.000194465743749408
0.000128917133979598
0.000109423736083088
8.93649696539096e-05
6.92246204287882e-05
4.98906784712741e-05
3.26328697460873e-05
1.85341674288503e-05
8.24619161617235e-06
2.26506091040248e-06
2.11862584731909e-07
0.000310569204349382
0.0003254477282755
0.000334888922542823
0.000290318014145069
0.000338778786177122
0.000336856171203472
0.000264828321780002
0.00032863283886735
0.000313307041687946
0.00028959693048369
0.000234453409134636
0.000199975207764678
0.000255337065494599
0.00016283953851561
0.000206406812449902
4.37221411617944e-05
5.68533021178919e-05
7.01103314146361e-05
3.12862149403948e-05
2.03996334806967e-05
8.32085153302877e-05
9.58962065499718e-05
0.000107726840670265
1.18048650555272e-05
5.75005585895969e-06
0.000118061047598497
0.000126510590637242
2.15969697012413e-06
0.000133449891324246
1.43464291691962e-06
2.03813649612877e-05
4.64911862846477e-05
7.13102662072452e-05
9.04865570008439e-05
0.000105413442752539
0.000116703075880972
0.000125108802273379
5.49751414828379e-08
2.35810349491747e-09
1.42262519664695e-06
6.53697995063188e-07
2.47340384226071e-07
7.33447693165456e-08
1.5203664593212e-08
5.20702525283255e-07
2.66879049905608e-06
4.43449765142917e-06
6.67688642727787e-06
9.33261443184452e-06
1.23325690828117e-05
1.56134773327159e-05
1.9092905106283e-05
2.25443082985676e-05
2.54754504183083e-05
2.74094066592053e-05
2.85697517363001e-05
7.94713063034389e-07
1.32361927896671e-05
3.25553660195522e-05
5.15826752918209e-05