/*--------------------------------*- C++ -*----------------------------------*\
  =========                 |
  \\      /  F ield         | OpenFOAM: The Open Source CFD Toolbox
   \\    /   O peration     | Website:  https://openfoam.org
    \\  /    A nd           | Version:  12
     \\/     M anipulation  |
\*---------------------------------------------------------------------------*/
/*   Windows 32 and 64 bit porting by blueCAPE: http://www.bluecape.com.pt   *\
|  Based on Windows porting (2.0.x v4) by Symscape: http://www.symscape.com   |
\*---------------------------------------------------------------------------*/
FoamFile
{
    format      ascii;
    class       volScalarField;
    location    "400";
    object      nut;
}
// * * * * * * * * * * * * * * * * * * * * * * * * * * * * * * * * * * * * * //

dimensions      [0 2 -1 0 0 0 0];

internalField   nonuniform List<scalar> 
10228
(
4.21504580006233e-08
4.65561184271777e-08
2.45696007085381e-06
1.04183232451143e-07
1.1494308290468e-07
5.02979671824949e-08
2.93236006754762e-06
2.2251510147604e-05
4.7263471492965e-06
2.46335988132766e-07
5.32182365488522e-06
1.18802646768834e-07
2.62868150699128e-07
4.32617066200489e-08
3.25904499125662e-06
2.34438637573552e-05
6.5250259296142e-05
3.50122345670403e-05
1.12279489800863e-05
4.84968668089196e-07
1.22641718072447e-05
3.79305107043471e-05
5.73809567238499e-06
1.08230604311037e-07
2.70912719800809e-07
5.27467332999228e-07
3.56729794601661e-08
3.10663252119421e-06
2.49196143143666e-05
6.78903271128911e-05
0.000106598683150752
0.000113320573958269
6.91052315589171e-05
2.31271208521287e-05
8.85022938527329e-07
7.42064289601482e-05
1.3001150679378e-05
2.56606429662638e-05
3.98321182436776e-05
0.000116594089751055
5.46547928351063e-06
8.50558535795614e-08
2.5258313593553e-07
5.48045336295049e-07
9.34591334244821e-07
2.22269999247853e-08
2.61271935164583e-06
2.52817311994628e-05
6.87290819262022e-05
0.000106253948390992
0.000119877136134809
0.000199296287972095
0.00019559830032808
0.00012145695288389
3.90979141536342e-05
1.35473475816527e-06
7.64991593845571e-05
0.000197173822055748
0.000127214794162644
2.72563581140131e-05
1.25858648229099e-05
4.31446003777725e-05
3.9526945372328e-05
0.000117285586586022
0.000197974225949466
4.5314259871816e-06
5.4696329808949e-08
1.99876457042867e-07
5.1917214514201e-07
9.6898093877018e-07
1.44701609133951e-06
1.33281828166071e-08
1.71894433036567e-06
2.35502573855592e-05
6.67834167295536e-05
0.000101818765776142
0.00012646547767776
0.000165951565146553
0.000249818218563995
0.000317986438012393
0.000291985971679595
0.000181424084174256
5.50562908045052e-05
1.94366738874812e-06
0.000195397423928476
0.000129481063101224
7.52671649462154e-05
0.000292329441398132
0.000316630833892872
0.000186268870362189
4.56978519067292e-05
2.69748958820236e-05
1.05328282947519e-05
5.99347452665476e-05
3.55506540679244e-05
0.000113378012530642
0.000194974047227876
0.000251781502279727
2.86771397480411e-06
3.47034735008939e-08
1.32179234684593e-07
4.24446654368329e-07
9.32781113886456e-07
1.51490435608669e-06
2.05493899955812e-06
4.44347122108112e-09
6.50355980152088e-07
1.73921458798505e-05
6.09531813642337e-05
9.82785719492079e-05
0.000129935238104218
0.000157637534295691
0.000167254598073865
0.000298637014806461
0.000402465601900428
0.00044629468250035
0.000388294984302429
0.000237229406955691
7.12936934855881e-05
2.56040858465538e-06
0.000310084999909274
0.000186319765805791
0.000288151941763191
0.000187944335599976
0.000126692313446669
6.65689409852572e-05
0.00044368647440151
0.000388324274887015
0.000400420515548791
0.000241305646291832
6.30534562935118e-05
4.60690511854438e-05
2.38129949988916e-05
6.74527604040533e-06
7.56935918633571e-05
2.41988164935192e-05
9.75305973051512e-05
0.000185203505475861
0.00024902884038633
0.000294847772514862
1.09305695807489e-06
1.26186811544219e-08
8.73799096974035e-08
2.97130078085444e-07
7.93617420455694e-07
1.48402455539932e-06
2.16165040682442e-06
2.72106702122184e-06
9.22501480612688e-10
4.82656438369293e-08
6.72005224905465e-06
4.21485042337833e-05
8.96415503973214e-05
0.000130459689671757
0.000148254379087395
0.000168112794474601
0.000175835495449484
0.000325657111975137
0.000468557204760263
0.000563170344724256
0.000574796384692312
0.000477499399802501
0.000286488510883981
8.60156864309838e-05
3.2321965891209e-06
0.000434024792119159
0.000392164502252549
0.000291206437731744
0.000274199525267338
0.000158398585486936
0.000382999637899803
0.000242695187072743
0.000183615839406069
0.000113045976678619
4.3211401770244e-05
0.000571341784458265
0.000558742714810992
0.000477262699409097
0.000464551459478135
0.000289848721660302
6.34705866682557e-05
7.87771272473085e-05
4.23955932705716e-05
1.64600278264668e-05
2.93157764173825e-06
9.02496729994481e-05
8.26564316208959e-06
5.83793363760681e-05
0.000156179740556531
0.000236101949726411
0.000287147615354532
0.00032479290350367
6.27273957736173e-08
1.53162679025271e-09
3.20590475062375e-08
2.04005414011044e-07
6.01272867692965e-07
1.31527504911274e-06
2.15215667833311e-06
2.88365063007383e-06
3.43416954393201e-06
2.59897380946508e-09
7.22218044860207e-07
1.43444138560911e-05
6.2227434473471e-05
0.000114593275312423
0.000130564156124569
0.00016284529844155
0.000182440555638846
0.000219618243616884
0.000350751880299166
0.000520401823151098
0.000655143524826
0.000724933860018363
0.000697254807666157
0.000557824659943858
0.000328754533381548
9.97491282319725e-05
3.93054109613854e-06
0.000559590463782801
0.000545303256174347
0.000409393885503444
0.000453684067160889
0.000369206281857287
0.000244009483535246
0.000366662966166948
0.000238009711678674
9.35227927986238e-05
0.000471921302138367
0.000291254928778069
0.000237730846467692
0.000167384929463628
7.82412841351305e-05
1.44136403090146e-05
0.000693602871578053
0.000719099782276564
0.000649269664814819
0.000557894487663407
0.000516480366442938
0.000332353535901607
5.96264393869386e-05
7.90893335172505e-05
9.33474850319774e-05
3.29342040270818e-05
8.8656931467754e-06
0.000103792307236368
1.04893616400237e-06
1.67600764226595e-05
9.1090248805215e-05
0.000199894188782481
0.000268423693777178
0.00031789974452235
0.000352034973757627
6.764521608846e-09
2.36229318669722e-09
8.97118614187426e-08
4.57336593902405e-07
1.06571970555831e-06
1.97116808726094e-06
2.90967508310125e-06
3.6571310027238e-06
4.18052818029815e-06
1.57858853974022e-08
1.96986430995127e-06
2.19158172284232e-05
7.71739441505728e-05
0.000117884382015789
0.000159341470839144
0.000185413216588947
0.000211552333178205
0.000233172522031725
0.00038719152583247
0.000565013326517192
0.000730979482920144
0.00084674398309558
0.000881544725733843
0.000811145637540666
0.000629895100043882
0.000366190158342041
0.000112552887350504
4.66354833153834e-06
0.000702140730589114
0.000532310867618402
0.000681215732754546
0.000513838039036709
0.000632856149949239
0.000352794934903501
0.000504289789922496
0.000427012890770721
0.000311404271746348
0.000143418603587198
0.000456152240802233
0.000329759983627445
0.000157569251071213
2.85422297273641e-05
0.00055318930971886
0.000334281405167649
0.000286552072527588
0.000222100060683412
0.000130200747775288
3.50328123759434e-05
2.21977240096311e-06
0.00087497028969975
0.000807744725595102
0.000839111735933956
0.000724297801838392
0.000630577409230192
0.000561245718002221
0.000370284062129931
7.52496321276661e-05
5.13802791967617e-05
9.37288735293549e-05
0.000106981522158535
2.15209567499353e-05
0.000116579731029293
3.24827276734292e-08
2.70691082232924e-06
2.62194880555934e-05
0.000120130669873107
0.00022968010830928
0.000301597890967314
0.000347029369528707
0.000383118571249988
1.19845930155571e-08
3.34735602949717e-09
5.57916545018832e-08
3.53533867904931e-07
8.13506223170726e-07
1.68269332870561e-06
2.72740125749649e-06
3.72616569181792e-06
4.46951533741097e-06
4.9605949084245e-06
3.13479639061082e-08
2.88558524750776e-06
2.90080145211309e-05
8.73536972331737e-05
0.000132619417579532
0.000166230004634631
0.000205721361898212
0.000234386353613153
0.000232062196545224
0.00041248876869918
0.000607424395910871
0.000795863799352489
0.000948428368574654
0.0010348633356109
0.00102945250790371
0.000915671420165418
0.000694838968868937
0.000400135613274336
0.000124886104314276
5.42888208816413e-06
0.000818152941674161
0.000856460679602434
0.000665941854913478
0.000654100469954688
0.000477330998047526
0.000795917890003672
0.000445992887458709
0.000596310420379543
0.000705618332518457
0.000235453495102935
0.000548238396406089
0.000475384811979007
0.000365410053685694
0.000189220185872484
4.44954379467446e-05
0.000423217866021638
0.000539038632027429
0.000256298157228712
6.97082846780944e-05
5.49022562391323e-06
0.000627017418866938
0.000372936703245041
0.000330482279974679
0.000272548449060112
0.000192000749164664
7.91614039103319e-05
1.09767925807236e-05
4.64078991701162e-08
0.00102611550277085
0.00102282652010525
0.000912874907247197
0.00093959657961341
0.000788644580415052
0.000696250129993468
0.000602243982257649
0.00040476968858588
9.00812278043207e-05
6.74818523872126e-05
4.05887263820678e-05
0.000107586724626513
0.000119972082020564
1.54321089914319e-05
0.000128932819086841
6.00190757917595e-08
4.08182286556492e-06
3.60223141299076e-05
0.000145242871777662
0.000256641906014647
0.000324830531606247
0.000374289136333284
0.00041005713485201
1.81965540107528e-08
5.06995623816562e-09
4.8112122083831e-08
2.37642555840107e-07
6.08372540439272e-07
1.37184980482751e-06
2.40983027568083e-06
3.54741145980215e-06
4.58460669634599e-06
5.31841067300096e-06
5.77621373677622e-06
4.6086669668277e-08
4.41834815198112e-06
3.63210125284393e-05
9.72125175911847e-05
0.000136015489099734
0.000182466239224047
0.000223722424574217
0.000236156674883286
0.000262580503054657
0.000428361489953108
0.000644285629962612
0.000853001986514995
0.00103538373798728
0.00116412837193287
0.0012145471550715
0.00116688579056949
0.00101097961680598
0.000753646811861179
0.000431559244069109
0.000136842155295888
6.22963266749614e-06
0.00077512463146235
0.00100273966988911
0.000915634135918315
0.00100443009153292
0.000819321120082392
0.000597519637228783
0.000770808706796023
0.000604705331989461
0.000374910848460631
0.000902397628896831
0.000304978149027863
0.000521230022031561
0.000665143084306047
0.000768272931693988
0.000104727071495508
0.000587528215193597
0.000516264774702167
0.000410558777969299
0.000231199228897999
6.06540323004346e-05
8.55112969112151e-06
0.000366360005507217
0.000511211493723436
0.00061500918269718
0.000161661446895644
2.22077960622983e-05
7.67124031201587e-08
0.000694023756698313
0.000408204065074209
0.000370263261560913
0.000318342650949398
0.000248085034105929
0.000150802624680694
4.42830626270293e-05
4.65240198108183e-06
4.65740287364742e-08
0.00115391524292447
0.00120550773512175
0.00116077857399516
0.00100897866971019
0.00102573873747112
0.000845150066453206
0.000755843820635152
0.000638824370733653
0.000436629739943678
8.28652825752996e-05
0.000104254815240188
5.71697651644499e-05
3.09542286158917e-05
0.000120848398871739
0.000132607024548734
1.17139407745693e-05
0.000140991056619689
8.8177002508238e-08
6.06235686408166e-06
4.69033902693362e-05
0.000168783978874974
0.000277770292695861
0.00034835233074163
0.000398771733347588
0.000427581790831328
6.92873387766234e-08
5.25682242126364e-09
4.32120033601901e-08
1.83697643164978e-07
1.78230748313153e-06
4.78054492997671e-07
1.10038739754745e-06
2.05484156646374e-06
3.20416831588101e-06
4.41040098494666e-06
5.48258320129832e-06
6.20703309332006e-06
6.6286070412031e-06
6.17438992149585e-08
5.95332110947017e-06
4.37513443581314e-05
0.000106214175465734
0.000145086073044744
0.000195223911463255
0.000233741141177952
0.000261255295639546
0.00028549709746449
0.000453771120653781
0.000675147122514477
0.000903476233295268
0.00111106443435799
0.00127487475905432
0.00137208347017983
0.00138302185419533
0.00129320651755932
0.00109765988769627
0.000807327868597062
0.000460873397922953
0.000148463280590269
7.05996500767728e-06
0.000867349026503217
0.000696714771113216
0.00095755340010158
0.00112694781718504
0.00118179749519946
0.000999572348771092
0.0011436656951179
0.00096902755097574
0.000755639319367795
0.000476063578481664
0.000880185434936399
0.000727988533900294
0.000524852835368331
0.000241525253302995
0.00100019312793302
0.000138391262533809
0.000368007281898933
0.000584829222643907
0.000724552414944642
0.000823333351546553
3.28548515640691e-05
0.00062268082150223
0.000552798415091261
0.000448637052549133
0.000270598997817701
7.84860044400279e-05
1.19561574814854e-05
1.09639630490878e-07
0.000290219690238651
0.000467223988453488
0.000591565502036188
0.000684211761935702
9.19329215856467e-05
1.0115490493808e-05
7.29076086413941e-08
0.000754920428595497
0.000440803587077707
0.000406625079373544
0.000359867964287849
0.000297836412716767
0.000215376123350015
0.000112991148794774
2.98030077858222e-05
4.29338248736277e-06
8.19171966361607e-08
0.00136142274669782
0.00126367541330938
0.00137441530692188
0.00128791326687673
0.00109647364983814
0.00110081147674118
0.000895183888281565
0.000810215919015323
0.000669936311794113
0.000466338549577305
7.3421033202508e-05
9.75821112007643e-05
0.00011779376181715
4.63855042854729e-05
2.26522901213726e-05
0.00013378087413303
0.000145042064505861
8.86917506632485e-06
0.000152760826879131
1.22734708568822e-07
8.18724935718269e-06
5.91019207227679e-05
0.000190588677589042
0.000298064877978603
0.000369187346562308
0.000418382778101301
0.000450593915833738
5.56878094127028e-08
4.93534852122244e-09
3.90196101310047e-08
1.49044372069418e-07
1.80675360051192e-06
3.99120004706642e-07
8.91189441173033e-07
1.72088061236671e-06
2.80964964188836e-06
4.04083380533233e-06
5.31370434307885e-06
6.42359750035833e-06
7.13455192419151e-06
7.51143455576147e-06
8.74230271271075e-08
7.90613812372333e-06
5.12406982875778e-05
0.000116203642080875
0.000151740128886899
0.000213367070999428
0.000253258055075182
0.000276651126562387
0.000294650796812061
0.000475731175543836
0.000704848997765785
0.000947873769210432
0.00117765505654255
0.00137106451688486
0.00150750667373505
0.0015685592581042
0.00153892748375238
0.00140854515111651
0.00117648834878329
0.000856628575525713
0.00048836415235566
0.000159720756382068
7.90991469322858e-06
0.000781446600601216
0.000947262858455211
0.00107556926229771
0.000561619215109595
0.000882411121314524
0.00113787625065361
0.00123411433598179
0.00133379999344978
0.00135190591298331
0.00107299388183145
0.00127265052994839
0.00111145933856022
0.000912263110280013
0.000656966715730608
0.000313565599836782
0.000843506539385962
0.000981029950170256
0.000664966759742419
0.000419465749254964
0.00013873661299875
0.00108933329197687
0.000172262802119512
4.20817765212729e-05
0.000425037249540816
0.000640186897969671
0.00077695502392539
0.000872193425321128
1.46798623553414e-05
0.000653552123385788
0.000585535816005742
0.000482693715119775
0.00030746783863546
9.82669968792702e-05
1.57425483807779e-05
1.51618893731776e-07
8.35905629560385e-08
0.000410062449177889
0.000217608328653855
0.000556313365175131
0.000664341060942865
0.000747083099612824
5.95676859512438e-05
9.03573676999781e-06
1.14102988871173e-07
0.000810427488046724
0.000471220684235611
0.000440200594231557
0.000397684277424776
0.000342205463043737
0.00027101030601907
0.000181115149098724
8.62841738803651e-05
2.77936647903695e-05
5.41017949219437e-06
1.02168080293458e-07
0.00149576132124853
0.00155829242500305
0.00135916606468071
0.00153114815522442
0.00140409464690444
0.00117603234688473
0.00116693850629358
0.000939373749383031
0.000860069561887805
0.00069895217757362
0.000494182145301263
6.32774374980426e-05
8.89800427532266e-05
0.000111520960443709
0.000130968874603175
3.70807830845357e-05
1.789748120943e-05
0.000146601200876805
0.000157244380304321
7.33581693515397e-06
0.000164191669134061
1.7738562974209e-07
1.08820059399863e-05
7.2291284920363e-05
0.000211315378877059
0.000315694339086447
0.000390260287803215
0.000439294426155752
0.00046966280731561
5.25716659694894e-08
4.05429189916738e-09
3.23660355190648e-08
1.25701453896945e-07
1.73957275048411e-06
3.37498029095766e-07
7.41349211405303e-07
1.43712484694111e-06
2.42411539342573e-06
3.607704762734e-06
4.91529662884594e-06
6.25948339067615e-06
7.40421520633486e-06
8.092196735554e-06
8.41435466880591e-06
1.19909816292562e-07
1.01853496571256e-05
5.86351877969019e-05
0.000125029963653117
0.000158774965327946
0.000224215471239557
0.000263055286786879
0.000288074272456381
0.000302120561002634
0.000492121843525309
0.000731586498108412
0.00098768218462597
0.00123656117114269
0.00145547810741797
0.00162515222254152
0.00172870507974282
0.0017515001272214
0.00168193010515599
0.00151349839108686
0.00124833261324018
0.000902093454468407
0.000514201502765624
0.000170563239977491
8.76944793079716e-06
0.00063683527014776
0.000991514738981579
0.000855601277855494
0.00101758199663027
0.00117805587568996
0.00128327528230855
0.000379581674655106
0.000768914257680754
0.00106938037209696
0.00131126011743526
0.00132769953229156
0.00146532254889878
0.00153180898969604
0.0015105980015751
0.00113785507832697
0.001390705488617
0.00124406523283171
0.00106180900289399
0.000831978802902374
0.000529263189063179
0.000181831888382131
0.000949535271405988
0.000792329817418157
0.00107291138843006
0.000585362801810391
0.000317361315089979
8.92647744590491e-05
0.0011702943984646
0.000207864719065569
5.16103164418557e-05
1.74755173919126e-05
0.000477047146911973
0.000689399258925994
0.000823682857052926
0.000915636015168588
1.27034197777241e-05
0.000615569013294836
0.000681788384285102
0.00051348163481399
0.000342112335829262
0.000119768193860976
2.04524344407486e-05
2.20191410236891e-07
1.07067018642932e-07
1.39738992692327e-07
0.000511617442299318
0.000349774810413498
0.000167731740765351
0.000634776918221038
0.000730018012525191
0.000804223293938804
5.47466508768942e-05
9.82163850250275e-06
1.59880214170403e-07
0.000861222850825898
0.000499727796116382
0.000471501827447093
0.000432406695678674
0.00038204651456803
0.000319438249716322
0.000241720665477493
0.000151772286766858
7.5147846138659e-05
2.92807407743566e-05
5.88215102166688e-06
1.11727046495261e-07
0.00161263809906765
0.00171733605762543
0.00174209131087849
0.00144305387430791
0.00167502395556165
0.00150977535634954
0.00124846205303674
0.00122551398672836
0.000978891047781041
0.000905980329690403
0.00072480656750534
0.000520337779567497
7.96650617441572e-05
5.39579156972623e-05
0.000103551078782835
0.000124944474202701
0.000144042209312769
3.08970940008172e-05
1.55013861548448e-05
0.000159221995951074
0.000169092711702708
6.57035593895232e-06
0.000175227662675931
2.5017258100797e-07
1.40363319626089e-05
8.57978120386859e-05
0.000230571799385492
0.00033322783333005
0.000408290723552472
0.000455531178367687
0.000485403942097042
4.50735078018997e-08
2.99879043802724e-09
1.00620556296268e-07
2.4594798770084e-08
1.56767063922581e-06
2.79000100106302e-07
6.21053259665849e-07
1.2060716139793e-06
2.07450098287801e-06
3.17556808833426e-06
4.44053950820774e-06
5.8288188215884e-06
7.24353025634822e-06
8.41420503368164e-06
9.06881021898923e-06
9.32585123883415e-06
1.66429624815297e-07
1.26372929985091e-05
6.54551477941897e-05
0.000136608613587452
0.000172268441836094
0.00023028517009298
0.000264296735703201
0.000293426032235045
0.000310672762317495
0.00050571041295809
0.000755103537942921
0.00102335655527595
0.00128898170689804
0.00153007262395386
0.00172826302388237
0.00186800991609044
0.00193579651079991
0.00192009046542361
0.00181233817979437
0.00160890639702478
0.00131398048463387
0.000944139111784159
0.000538466912152665
0.000180955976603688
9.62687294961965e-06
0.000440972811806501
0.000704139509442569
0.0008665867551231
0.0012054175236151
0.00108709634620533
0.000921447764535554
0.00108003806470027
0.00126807823068295
0.00140979455736801
0.00148457346815425
0.000223029551730902
0.000623173457965435
0.000974579663602231
0.0012503485708361
0.00147394957213979
0.00158012537299996
0.00141014157417546
0.00168798758268544
0.00171766756072537
0.0016565223891929
0.00119548121709252
0.00149796781612052
0.00136545295976997
0.00120075826001335
0.000995274662311859
0.000732714804974796
0.000403746675748212
0.000115982275215062
0.00104551436287943
0.000906503389795386
0.000729971196736801
0.00115608483769871
0.000502102282158167
0.000246786701192014
8.17917573864207e-05
0.00124381590645908
0.000245229912603588
6.33442549388698e-05
2.02285627204077e-05
1.49718621978498e-05
0.000524253734800883
0.000733683561187316
0.000865691349554595
0.000954535639503729
1.3721052156454e-05
0.00064263259316704
0.000542064573699099
0.000706556169135412
0.000373954966863826
0.000141772171123173
2.59810198092664e-05
3.09249380410495e-07
1.44971820077311e-07
1.75140784789028e-07
1.94728533443843e-07
0.000597913325903891
0.00046321094695569
0.000299444601113567
0.000150147050110633
0.000704282027234956
0.000789270512860161
0.000856314218273399
5.67925898732665e-05
1.04616087096744e-05
1.74209723278932e-07
0.000907895388958907
0.000500800012646439
0.000526471591199365
0.000464637830062852
0.00041817692547855
0.000361971215186785
0.000294228885963519
0.000214252665030107
0.000133330626113153
7.04001956562434e-05
2.91217948580359e-05
5.67648557465252e-06
1.0647861026037e-07
0.00185584486573806
0.00171516131509966
0.00192531696412234
0.00191162362634596
0.00151724424657085
0.00180619573215389
0.00160575165840265
0.00131455520049897
0.00127766687317023
0.00101424615168359
0.000948387643768765
0.000747695129399976
0.000544890374614174
9.49193137709225e-05
7.0724179032708e-05
4.66304450257391e-05
0.000117330951043277
0.000138161678208465
0.000156919984733208
2.69820153255906e-05
1.38403467609098e-05
0.000171464232399035
0.000180508765129603
5.76333956051493e-06
0.000185801449385332
3.50104132127565e-07
1.74487632879968e-05
9.90137428649607e-05
0.000248731013969855
0.000351611424113294
0.000422626312805705
0.000467111229309796
0.000497845261185323
3.53488654184246e-08
2.07604684568298e-09
2.20452464182056e-07
7.48929023706671e-08
1.72177450421779e-08
1.30181338131323e-06
5.09230649112574e-07
1.00688541673601e-06
1.76386509871076e-06
2.76585232534975e-06
3.96117871287193e-06
5.30757405230316e-06
6.77749026869132e-06
8.25460071422863e-06
9.44149867389974e-06
1.0052254163575e-05
1.02344595607318e-05
2.17953652412912e-07
1.5136412583434e-05
7.0545748087253e-05
0.000146778313627327
0.000186785046736479
0.000236773138962158
0.000264499501134235
0.000302511965208673
0.000323030316154709
0.000518347731626268
0.000775807387374927
0.00105533975661759
0.00133580490304258
0.00159631649504987
0.00181922853908187
0.00199005761740161
0.00209642544960444
0.00212750907565491
0.00207436127833194
0.0019309406045828
0.00169570174877915
0.00137409976668844
0.00098306618614571
0.000561134201780657
0.000190751671175638
1.04666354796215e-05
0.000497925449878581
0.000706795180288762
0.00026466721814575
0.000764732641465712
0.000953331186885094
0.0010988623003631
0.00132458643800175
0.00141448041960416
0.00117173738351589
0.000980423670388041
0.00113583108162378
0.00134776475118429
0.00152076530813269
0.00163571692836414
0.00167467421305776
0.000141862598811959
0.000479639062420811
0.000858878204866146
0.0011703052869364
0.0014201352710949
0.00162364014513377
0.00182436459181002
0.0016810535526862
0.00148320624883548
0.00189809865688498
0.00188939893772238
0.00178942338484917
0.00124689783702434
0.00159512730036926
0.00147539021980676
0.0013272808458146
0.00114414545155371
0.000916118567959804
0.000630259084767972
0.000314752558159195
0.000105890065388858
0.00113173069473761
0.00100803471991666
0.000854924141585698
0.000663751889369391
0.00123125485473478
0.000433519274107374
0.000222105772854061
8.44061847582522e-05
0.00131070918744223
0.000282429141140191
7.75084740837472e-05
2.41124055487169e-05
1.74802017939445e-05
1.74206274748e-05
0.000567275458788638
0.00077384322231662
0.000903456978536879
0.000989280865204735
1.47568042267181e-05
0.000666308252984392
0.000568505077362726
0.000402763207204346
0.000727998000411529
0.000163447739495092
3.18854870863129e-05
4.29225854541021e-07
1.92333188320772e-07
2.26652221082631e-07
2.21881689330258e-07
2.23465394814174e-07
0.000672161485402871
0.000557377834917802
0.000418430244002861
0.000269923951389574
0.000144898340905381
0.000766095957465565
0.000842903429946728
0.000903982654612687
5.79848781867245e-05
1.01610856112265e-05
1.66955839013395e-07
0.000950912046648168
0.000528207241585106
0.000494676097481552
0.000551531582779434
0.000451359895206657
0.000399783143460549
0.000339522002820576
0.000269252113772135
0.000192621549841492
0.000121682596198129
6.65084031522525e-05
2.73118787833899e-05
4.97058863739051e-06
8.98298566846044e-08
0.0019772761829076
0.0020851807563829
0.00180565700955582
0.00211804303582603
0.00206670869396895
0.00158316312491073
0.00192536264716
0.00169294829425195
0.00137500690120954
0.00132426019380603
0.00104592336695115
0.000987615932715949
0.000767850345868715
0.000567836172103067
8.63267405471792e-05
0.000109113319441818
6.28460209891618e-05
4.10177478342545e-05
0.000130674170849192
0.000151145464802803
0.000169383739590906
2.38854859656795e-05
1.20873090283379e-05
0.000183229072508811
0.000191422289859736
4.75308839979351e-06
0.000195801447391133
4.66112008088819e-07
2.09640655904807e-05
0.000110511607520552
0.00026617680028282
0.000368550787531659
0.000434873815323316
0.000476846199856232
0.000510135845746168
2.65084246912739e-08
1.36494828756346e-09
4.00154126769466e-07
1.63174064010704e-07
5.14427579253011e-08
1.11072652363486e-08
9.97562619501685e-07
8.21468791499617e-07
1.47913923757156e-06
2.38070030763564e-06
3.49284364308619e-06
4.77638990676437e-06
6.2051562345816e-06
7.74957168287473e-06
9.28032920455596e-06
1.04727827794388e-05
1.10310475841425e-05
1.11241138400324e-05
2.7721855165257e-07
1.73996351524527e-05
7.86399894558145e-05
0.000155137990935208
0.000197433031039551
0.000244649098217473
0.000269344257197807
0.000313123842149794
0.000335131297238824
0.000531319013664564
0.000794301455007936
0.00108395244445254
0.00137772831674224
0.0016553422278214
0.00189984825232475
0.00209760234751125
0.00223723211835435
0.00230877572185385
0.00230359831805646
0.00221492994629643
0.00203869700181266
0.00177475699363049
0.00142922320698829
0.00101902391698263
0.000582153783624556
0.000199771790963126
1.12880216163969e-05
0.000549916694105679
0.000782607335218893
0.000305697874974572
0.000969691333670018
0.000547330784907972
0.000167930608065338
0.00103101086432638
0.000819632010448517
0.00120863081510233
0.00132311926796194
0.0014297729566423
0.00155830079982724
0.00161213042798198
0.00124718503016577
0.00103348103733185
0.00118580518068576
0.00141865976194258
0.00161870132696195
0.00176819565579605
0.00185020389240509
0.00185047290953534
0.000128360180470019
0.000375147245687735
0.000739910718550022
0.00107629708653278
0.00135114924800008
0.00157570103872919
0.00175956725522879
0.00194412927731443
0.00205585522332579
0.00177028235596818
0.00154822731285675
0.00209313335724654
0.00204633994437152
0.00190984807389403
0.00129287514187806
0.00168312814841703
0.00157447806892657
0.00144103741169899
0.00127760770641789
0.00107793740744825
0.000833338552800909
0.000546079669344117
0.000282997474813726
0.000109349438125217
0.00109795097462694
0.00120902325090451
0.000962984577555434
0.000799372784766193
0.00060333201713468
0.00129929832957039
0.000394253769888256
0.000215244579730445
8.63816687093646e-05
0.00137173063510123
9.2389292348019e-05
0.000317960340161217
2.94266865370269e-05
2.05046301480102e-05
2.09617956958055e-05
1.89390505508182e-05
0.000606240034155289
0.000810205530816811
0.000937198697258733
0.00102029642922412
1.45585741266799e-05
0.000687059638189142
0.000592092345369223
0.000429339735423233
0.000183484103207163
0.000747029427241838
3.80174768539845e-05
5.69605363084194e-07
2.56024268917113e-07
2.9649574586386e-07
2.68262057744161e-07
2.67942987198718e-07
2.22358058267122e-07
0.000636201333448919
0.000736796577749888
0.000517277223497632
0.000383706441900949
0.000252171108049983
0.000140608515661935
0.000821406855309638
0.00089166144730961
0.000947745942449322
5.58597750206692e-05
9.03887419305306e-06
1.48553694118207e-07
0.000990623827175811
0.000553806135830694
0.000522639215820713
0.000482035786955268
0.00057492768651163
0.000433936322678919
0.000379010784668876
0.000316366130229883
0.000246706255362447
0.000175646999689357
0.00011207415572588
6.10106621575345e-05
2.38751838646552e-05
3.98867418420878e-06
7.1447372715415e-08
0.00208431581467289
0.00222537458621893
0.00229858535357469
0.00188589452952448
0.0022950008259868
0.002207867413281
0.00164192526747
0.00203349124669445
0.001772278246519
0.00143039388189665
0.00136597917388274
0.00107427963612376
0.0010238331099835
0.000786036599044433
0.000589076563023765
7.81867655981922e-05
0.000100737770395556
0.000122594736903099
5.59495661042219e-05
3.61771162130692e-05
0.000143669137009244
0.000163669650736572
0.000181319482553162
2.07809230089044e-05
1.00281098338257e-05
0.000194439485018209
0.000201739172295008
3.63331527233877e-06
0.000204893772471876
6.00197156343084e-07
2.42880242275788e-05
0.00012267991559805
0.000281625024298992
0.000382414775284932
0.000446384193629624
0.000487424122840998
0.000522379299839151
1.87255309283691e-08
7.97427675960158e-10
6.44856772429192e-07
2.96623037097802e-07
1.11643401286906e-07
3.2338350381217e-08
6.42699467418288e-09
7.00156463451063e-07
1.20948117932263e-06
2.01256635064045e-06
3.03524546957503e-06
4.24694161434736e-06
5.61642504227899e-06
7.12209687679114e-06
8.73301679724042e-06
1.03072036186011e-05
1.14956464209357e-05
1.19848831768694e-05
1.19956284031054e-05
3.347933136526e-07
1.97956456147709e-05
8.65852361064792e-05
0.000162309930942459
0.000204088629139145
0.000255573277589767
0.000277727775936206
0.000322743537714407
0.000340819998539261
0.000543373783062597
0.000811119018131774
0.00110949677891595
0.00141526086890951
0.00170804708621061
0.00197151999359631