/*--------------------------------*- C++ -*----------------------------------*\
  =========                 |
  \\      /  F ield         | OpenFOAM: The Open Source CFD Toolbox
   \\    /   O peration     | Website:  https://openfoam.org
    \\  /    A nd           | Version:  12
     \\/     M anipulation  |
\*---------------------------------------------------------------------------*/
/*   Windows 32 and 64 bit porting by blueCAPE: http://www.bluecape.com.pt   *\
|  Based on Windows porting (2.0.x v4) by Symscape: http://www.symscape.com   |
\*---------------------------------------------------------------------------*/
FoamFile
{
    format      ascii;
    class       volScalarField;
    location    "400";
    object      omega;
}
// * * * * * * * * * * * * * * * * * * * * * * * * * * * * * * * * * * * * * //

dimensions      [0 0 -1 0 0 0 0];

internalField   nonuniform List<scalar> 
10228
(
2.45525839003592
2.46742674694984
0.619256929781022
2.47469008983647
2.44248103211299
2.43076094342831
0.577103094136692
0.256601374685181
0.69296849100196
2.45215098310825
0.65173078713117
2.4044775775588
2.42539279675091
2.48290374824828
0.554446562159574
0.238086297530344
0.173775283144372
0.286344920072918
0.636129462079951
2.50624199840298
0.599263531442062
0.266680969098676
0.621703193984157
2.3786467035682
2.36519228612206
2.41877600948943
2.42153938426567
0.544846459005928
0.228054115444714
0.167554654717048
0.162143710278897
0.166292631789305
0.268738585615367
0.577927912781109
2.47352033303656
0.252949671456353
0.570024596767536
0.532630378824646
0.252870171495024
0.161290623106914
0.605665268111982
2.35771550848452
2.31066630402846
2.33138962150574
2.40498329726222
2.47110449589514
0.533887595068449
0.21636533678963
0.162833870859599
0.161392842950534
0.180199606346385
0.141357274740983
0.160914868052502
0.249147492378729
0.547571637225394
2.49502197077574
0.24149886167317
0.15812434025466
0.238557514028613
0.50075186665569
0.549499673291818
0.504564428510324
0.241210101342707
0.156329223867536
0.139752729158931
0.598598976294076
2.37667448793753
2.29353925530468
2.2653554747599
2.31570880181079
2.40609950606438
2.41548879988242
0.545268522485695
0.20470550532602
0.154173272109995
0.166259907436526
0.173485451459054
0.165965562859804
0.146797590643061
0.138232292297686
0.161187926540544
0.242653632987798
0.55025257935046
2.47713641790772
0.155008646097723
0.229675793089522
0.231388001737884
0.159505148302635
0.137275288601945
0.235826910427101
0.473533580256135
0.47656911858625
0.545745523352189
0.511774712232837
0.233894929684177
0.149920839150494
0.137489042116575
0.144340996810814
0.636929405633902
2.29336258109869
2.31908787530369
2.2440395238172
2.24625407100867
2.31166815378968
2.39992200036377
2.46124199758026
0.656666124471646
0.210290056086965
0.146609386568956
0.16207956702418
0.172883700950979
0.174900863920838
0.20115521360077
0.15240260890815
0.13895585850868
0.140509064326818
0.166332390557667
0.248078741439183
0.556920827912848
2.47744822927689
0.13566580465461
0.152110631632544
0.157456450056247
0.229048992914222
0.221994656547186
0.228749837016231
0.140148275776233
0.165312687691488
0.13816449417673
0.24289444064092
0.483446973861837
0.447471565104213
0.463102300881532
0.586347894829795
0.528437943554028
0.259272048302086
0.151023875257491
0.134711612745352
0.141915528675858
0.152508491982682
0.784457628228495
2.34880711927163
2.19723128411419
2.26653116136666
2.22078910154788
2.2423138119467
2.30858631091537
2.39534328787845
2.42692521687979
1.06164552327636
0.305728464008172
0.160557091183581
0.153333520528625
0.163924984985862
0.183838543217108
0.199586568814833
0.227096309456944
0.166284898383314
0.1446344179975
0.138258777422663
0.145303869040476
0.17435143802303
0.258475580925008
0.570993707716701
2.47083288357145
0.139491387772214
0.136828894632351
0.134998209103343
0.156219633561907
0.157441813692934
0.163868702565348
0.237300699870931
0.223286491252396
0.221025411048771
0.268450042877954
0.145279348457854
0.138169730240919
0.173583299113128
0.144271441790982
0.254372965208428
0.462049633444453
0.504876068546087
0.43054390749316
0.490960492939936
0.716537840600378
0.547518625561718
0.427848090118156
0.191613871367065
0.138612321027566
0.139363462975305
0.151892113313162
0.164919262548296
1.41990765683229
2.47411472882944
2.42132770044612
2.14804542246507
2.22757321367142
2.21502793569627
2.23979254345338
2.30304245191035
2.38957271152932
2.39924619658204
0.769565460738667
0.273321610605712
0.162526836558595
0.162352616805372
0.203630998164405
0.201933099737356
0.218086332112172
0.210752738171033
0.179282138776175
0.1523976851348
0.141421226521974
0.1403138759746
0.151296756699507
0.183507334306754
0.271057494261553
0.58570314239804
2.46866898858589
0.145197788497723
0.137945032953473
0.140017543589638
0.143326612936458
0.136521014895883
0.142647891083575
0.163210370711907
0.161802016410094
0.209320213933207
0.172442353445192
0.249521035927386
0.232922935450513
0.222596160043766
0.25356021892256
0.463302497386512
0.151387551765679
0.140574727558086
0.141490755813821
0.182772343108198
0.15194513195871
0.267293622871528
0.449729292359733
0.488025773450297
0.527177552851123
0.436848731219207
0.57373346374476
0.565865106569705
1.00030218173561
0.389573980794222
0.180473702340556
0.143675989013299
0.152330766900585
0.163512011563932
0.17669959345055
2.42304838411072
3.34281394003908
2.40073356072367
2.16214924801986
2.21574796645809
2.21278557213407
2.23431072380504
2.29713054762819
2.38573609883853
2.34978464187013
0.707541476645557
0.270696431815696
0.177846545102781
0.199257990131817
0.19685613500108
0.209541037371884
0.21769740767457
0.225652183095847
0.184778481772313
0.160356788942519
0.146359379342235
0.140921274838699
0.143655426584301
0.157678791801196
0.192813577917094
0.28374461951694
0.600221133614172
2.46721285846169
0.141029244360572
0.146204040766537
0.151541901085899
0.139068694763922
0.141542782481917
0.1473079679619
0.151169081536705
0.143500605983012
0.144104106343511
0.194427100950383
0.171996021002117
0.167138297094758
0.201828115942281
0.424170478933559
0.181692259453725
0.262720100370097
0.245891580836236
0.23213064616127
0.240276761467866
0.359594177916011
1.06427254615697
0.144041498980294
0.157755276035036
0.141307070985034
0.146494289692286
0.192021725897345
0.159805741415652
0.280048216885962
0.48017630970753
0.447844476211508
0.513063582857854
0.547608740830016
0.463466418503794
0.582324638934069
2.34197553591902
0.932188749312282
0.373329991597835
0.183804492291956
0.156379585881848
0.162036936404
0.173997755798428
0.184587054956597
3.32881084425849
4.55077481046686
2.34602068617911
2.14776741119003
2.23452782965404
2.2141192693024
2.20748216348818
2.22788253146304
2.29251742283539
2.383440882473
2.39770418160054
0.67359779082546
0.279713940807813
0.206084941273043
0.214790540774417
0.221268297929941
0.218250399855558
0.222966667920395
0.25249002078404
0.193146694517717
0.167231245992565
0.151834155102962
0.143707052666306
0.141970748991688
0.147550532667352
0.164065870618089
0.201816310679785
0.295750929857843
0.612777790700664
2.46689522727588
0.142056527682016
0.144754130038249
0.142797566395803
0.152587050527409
0.151701986337168
0.157896863106113
0.146725360594334
0.143062481835627
0.146770767539459
0.186781844598119
0.159089710772538
0.151585454079545
0.150813773130043
0.19305689108319
0.403918484628259
0.174292481895239
0.181171704822887
0.187833029786675
0.3190134793167
0.96364251873729
0.190845087559503
0.275511876735407
0.259286922685402
0.245097495393083
0.239734837352013
0.290239895491022
0.570161741621472
3.01866887263268
0.142471501503251
0.147917603125269
0.164063095554012
0.144158074231269
0.152013280134823
0.20093197849321
0.166991607540793
0.291997074871733
0.507501610534008
0.481839890697627
0.460346771134367
0.534811632889492
0.565144489970123
0.497332652430898
0.596196460903762
2.4284526135421
0.894651165904713
0.372248253997178
0.194402975063831
0.168625885519723
0.174764171243484
0.183348058923191
0.192238174431668
5.01509193282196
3.10207749963617
2.27411150516158
2.15460844671457
2.26153344129887
2.22442034427398
2.2083047198382
2.20057994928845
2.22270272182021
2.28965627624323
2.38236377475462
2.36740622686248
0.684896345708647
0.291168996056819
0.227936636987503
0.247092583677329
0.232190251353149
0.227295660480978
0.246475318582582
0.245064662740769
0.204278529924905
0.173895962077275
0.157297747535545
0.147393479232052
0.14291287934565
0.143859559766195
0.151672287080583
0.170308007547338
0.210362350627616
0.306734043664567
0.623478725990015
2.46679053956172
0.144295976782652
0.143473061734009
0.145105608761501
0.148594661901221
0.146582705731138
0.149025207795827
0.158704123760241
0.156380019391813
0.172436883993439
0.164045199867435
0.184326807255607
0.150823199357729
0.148644552020537
0.152457818151822
0.306107901653101
0.166595145975018
0.16002371013389
0.159060484383219
0.196812766057118
0.399727341875371
0.926636055103859
0.183968569861694
0.182413907469704
0.190072367257398
0.240069308107802
0.528025059514935
3.30360537831067
0.199579017680455
0.287350572384065
0.271966427169519
0.258208765987574
0.249077317591059
0.2604713553163
0.362666668726609
0.815998205190235
4.65865405731481
0.143465148351011
0.144331801637093
0.151949621277196
0.170203282089032
0.147887935257333
0.157548604286862
0.209361387530073
0.173725366268417
0.302917012077759
0.509885280985369
0.529919474720064
0.49465693123969
0.48886316653888
0.55293711541488
0.579468590845788
0.540500108151221
0.607639524489701
2.4111239428683
0.895353487382507
0.372242050110209
0.204492244587847
0.182684957002384
0.185585240223328
0.192050672668294
0.202557196196442
3.1831489081328
2.94984523647159
2.3626617732365
2.19628630523527
0.866751491778049
2.26525913964641
2.23190618249149
2.21528543092499
2.20096011937425
2.19480755322473
2.21938749352354
2.28813596957624
2.3819044064877
2.39536856816751
0.681326541749391
0.303096330375707
0.249081129444862
0.267546530454257
0.245127490275997
0.242200523456468
0.244714746821718
0.244871702860649
0.209655545484128
0.180756776253009
0.162626719977101
0.151432873281882
0.145113260887336
0.143219706910433
0.146238595158472
0.155897946471862
0.176356935033314
0.218382715879113
0.316719820373721
0.632679066619737
2.46680339160775
0.147684210618924
0.150976545068356
0.145768261487476
0.144631494201313
0.14526892106283
0.148972738920735
0.152432485231921
0.150120033553272
0.151252096363195
0.169419231896947
0.164463512117925
0.161175114444949
0.166985288595696
0.224326749310521
0.169964917164234
0.304575590358224
0.186231502275381
0.156554764721959
0.154644722935473
0.158145648121239
0.526028241273308
0.173644366698355
0.168079369469227
0.167781434490566
0.201711740133939
0.395483352526213
0.929645129575784
3.2413170644985
0.205767435977722
0.187161221032126
0.190468193397079
0.198470053797444
0.317026549993489
0.757986664694674
5.05110430682481
0.207803497567043
0.298098071992359
0.283558365330457
0.270427239627184
0.260197576833269
0.259603510403318
0.291473458641986
0.425467791932498
0.741504746630527
3.14514132987044
0.143731901471807
0.145694898322496
0.146612318102435
0.156066143007293
0.176150526244815
0.151961600062358
0.162931528707432
0.217270147700752
0.180504188650933
0.312822840230117
0.519354127315468
0.531583137248909
0.548165561020407
0.520293393205
0.543470822100556
0.567400052332553
0.590891794532296
0.595816811026541
0.617265074083184
2.41955515316451
0.886822716994007
0.371023627471205
0.214746404246455
0.195131941376655
0.19580234609606
0.201324386816392
0.208930191864897
2.97338144938118
2.90893689857734
2.35450589973612
2.2845954383097
0.834080283787757
2.24531975468491
2.23049528918166
2.2181144041383
2.2075219229548
2.19469790967696
2.19103912828657
2.21756813268145
2.28743081047476
2.38173913908047
2.37890978276077
0.675797765664559
0.315136845888183
0.265110654333529
0.289027841948966
0.249035750196906
0.245533973071457
0.250859004297656
0.255312456138614
0.214984108373637
0.186707453978782
0.16784029928829
0.155568035666871
0.147938383379975
0.144161658911822
0.144246195876923
0.148953321899019
0.160175439512208
0.182192983266477
0.225867751819596
0.325778487213412
0.640739487547022
2.46682449539986
0.154687347781543
0.151796285695451
0.147221008085969
0.171023078218564
0.15099670646957
0.147202967934021
0.146961070915168
0.144800466619875
0.147322601782876
0.153143326721234
0.156300489588244
0.153484876536562
0.153389930936255
0.162482991664463
0.220301670333517
0.165871169769321
0.169950942965993
0.166848199638408
0.189030922934521
0.304551891482175
0.175689670285233
0.304978978675773
0.548000593148018
0.189860831858688
0.162720822800432
0.160605052403727
0.163658240138309
0.761727138166695
0.180430359033113
0.175636320564438
0.176151586657507
0.207109095452108
0.389415414768374
0.925505132782758
3.25604549847162
4.9713936525135
0.196985106634085
0.237930501165532
0.192706680657357
0.198157968425336
0.20634609793762
0.387275786491043
0.699146497457678
3.26181748758348
0.215513368629607
0.307786123882307
0.294003300793043
0.281530718814258
0.271026332980512
0.265610355979941
0.275724845708628
0.324460647458704
0.419300407555194
0.656610136213958
2.99384101504179
0.144692467333816
0.144651308809827
0.14853934637298
0.149211602547114
0.160242098252886
0.181894559923427
0.156123292966942
0.168160878391055
0.224661179008561
0.186592635345065
0.321798222737745
0.535012607430617
0.537510144601614
0.548968176167846
0.562444651709534
0.552946195652925
0.585116766420345
0.578519992095097
0.600233373453376
0.626197068568507
0.625555344834281
2.40950399993545
0.874762711025202
0.369080652768771
0.22411455931069
0.206740674548435
0.204015628912884
0.208441215573288
0.215482179404648
2.9119638633319
2.89675869102122
2.34949397922304
2.27707425850259
0.796558942823778
2.23193093840036
2.22179422334675
2.21626834930114
2.21036760293226
2.20107612067863
2.19051555136757
2.18894273129998
2.21669174889646
2.28713934575008
2.38168748337086
2.38240017271011
0.667795234197246
0.327360914473864
0.281555814769128
0.299798419457195
0.26022965044376
0.256513948563263
0.25893502386264
0.265434256044282
0.221312546387104
0.192198861357635
0.172776019282961
0.159677584537132
0.151060701829389
0.145966713175481
0.144120484093373
0.145799763483152
0.151919505669936
0.164464747745129
0.187791113954596
0.232831054188247
0.333999515813086
0.647891829408847
2.46683820679242
0.174337295084836
0.152812123763993
0.15902994545395
0.156142376393305
0.149737955469357
0.146970843034889
0.220378412721493
0.162625392337773
0.150980766368394
0.148718032597872
0.149867387180281
0.145830998292669
0.145465683802989
0.149649059997478
0.157373252950967
0.160237996190872
0.156851852114338
0.155563327855068
0.159781015869118
0.184719296626384
0.303626054192899
0.170499983517258
0.168820029233536
0.175273358658614
0.177024326585651
0.221483691609425
0.378162578932963
0.181237399810016
0.303770543733419
0.567762297691771
0.820961581206003
0.194098899987607
0.168814834915645
0.166331723654404
0.168951584912674
0.718514499085236
0.182486909688909
0.18663367529068
0.18389555846918
0.212515095455155
0.382131186617439
0.913394071141115
3.22613162856628
5.00221093169546
3.26659509009907
0.197123764230303
0.211043152625778
0.268794682397817
0.198880462261751
0.205446280701302
0.2137351723097
0.37654941850679
0.637234623170497
3.01153699434461
0.222723257267553
0.316527240277887
0.303353349129214
0.291509031660712
0.281112845081695
0.273414008365822
0.273671063700136
0.293027184667616
0.332109254883023
0.391950046967501
0.610508152915152
2.94835620943578
0.146508358706814
0.144537320389095
0.146083802495704
0.151674810716541
0.15207369128491
0.164446730980893
0.187417220350535
0.160247747417529
0.173123579448561
0.231545511065122
0.192282492921314
0.329936696240393
0.546087895043511
0.552714729248763
0.552210874318222
0.562487441074026
0.57309163558922
0.575442745778947
0.596343897049684
0.587353034697311
0.608206545755277
0.618524966798039
0.632795564823041
2.40534948758315
0.859998168352292
0.36822109396218
0.232844420544369
0.215798415923531
0.212108465431768
0.21616510551433
0.222128477148897
2.91093425878155
2.91778076839671
2.27198643331627
2.34871472552772
0.770624776083824
2.22726843844899
2.21335306371686
2.21229123002479
2.20970719829482
2.20421379160452
2.19664403212877
2.18815874680418
2.18791904485415
2.21631500544867
2.28703080904378
2.3816757628641
2.37626736702397
0.664334548694888
0.342033622514507
0.289588917568683
0.303040645132283
0.274863370785267
0.274095521444263
0.270854260809876
0.272916279551201
0.227711939945492
0.197372539435144
0.177406475440038
0.163666416690208
0.154295416214151
0.14824583022367
0.145065957840295
0.144760645482576
0.147762284601033
0.155069487528349
0.168720270713752
0.193129502709078
0.23929372250877
0.341477135757168
0.654262437351278
2.46684132153064
0.221891590811607
0.178279927026259
0.164658316325901
0.151063893131545
0.15556125672144
0.163529955521805
0.160492177646355
0.152762665420456
0.14813834767661
0.14704638335888
0.305461831529962
0.18503300456879
0.157865106684944
0.15121575462276
0.15049306227154
0.147685455844515
0.153040930863827
0.145401114710127
0.146606860752477
0.15225895886664
0.16153829607293
0.164243324785397
0.160344265549071
0.157964960215057
0.15912355180047
0.170471010461652
0.217576930017589
0.383165234772044
0.175147174904642
0.171791634723217
0.173537720108229
0.180482900359969
0.190812308536074
0.252135785900712
0.36762242341583
0.186599213206128
0.301115063317514
0.573870154261896
0.874730671650016
0.774146242094112
0.198545732047622
0.174607097099669
0.171727940424305
0.17395523821508
0.64599087477787
0.188829619642527
0.190746894687701
0.192541316593088
0.217818922882247
0.376318312419045
0.895612534257654
3.21860275019408
4.9571536637421
3.27286443279374
3.03146650644804
0.200538476454132
0.203081310417782
0.224317712649674
0.270454223555529
0.205171359547325
0.21235628949382
0.22066307827132
0.346754343856978
0.595811419930438
2.97893409739132
0.229448543344516
0.311752391160041
0.324444944526185
0.3004098325152
0.290317154308579
0.281616375437038
0.276836065076555
0.281892461901178
0.300019174436642
0.325358172650706
0.370829658424977
0.586442625685197
2.95214327410365
0.145488722110928
0.148794118501281
0.145052151339656
0.147938756148957
0.154917443334927
0.155139606560526
0.168636349425787
0.192696253107139
0.16424627870198
0.177788133466995
0.237941688485328
0.197614551584497
0.337335169852927
0.556097729699772
0.554491743814281
0.564839618418423
0.563957691078678
0.572402330131801
0.581287807502284
0.581237415043431
0.591172464493163
0.594811077148246
0.615173990947808
0.60676506153843
0.639233165351832
2.3976017814397
0.848986727237959
0.369379512023295
0.240676849064258
0.222968165712799
0.220618155671211
0.224707641577735
0.229012152888371
2.92377496751797
2.93308967880842
2.22375396954262
2.26884822549948
2.34633921772024
0.756322015235891
2.20906938710183
2.20879835928053
2.20800776287713
2.2043221231567
2.19978735570407
2.1940929274813
2.18699738872036
2.18747340168471
2.21616850097634
2.28699705868687
2.3816780667407
2.37497633523925
0.662301646346486
0.370870207672915
0.298278606906237
0.30366231326895
0.286960756271562
0.291524574229636
0.277699764559051
0.275644401822886
0.233384659065061
0.202243548749351
0.181712175525188
0.167469983771426
0.157523836971784
0.150768833190383
0.146639648918337
0.144972294800056
0.145932947997526
0.150038530005467
0.158333610194169
0.172895388330464
0.198193259654728
0.245285154288559
0.348330011811303
0.660184996169967
2.46684125135358
0.224070723086385
0.187038527897456
0.306553219182841
0.182418887664508
0.167502021284279
0.158260616842347
0.152422724625892
0.149798022439791
0.158729410313346
0.167968386212796
0.164727221782228
0.156009039378533
0.150071280265724
0.147082310304541
0.147601903935946
0.389623675126421
0.218047460273354
0.168947244513864
0.155208695212271
0.151953267996927
0.152627476255387
0.146377222131529
0.149992056289624
0.156304976272654
0.145612808569212
0.148199841267355
0.155120759242052
0.165559052819779
0.168278801950938
0.163992641546559
0.16071397044174
0.159760763637846
0.164309387197992
0.18450373500716
0.249304543577149
0.37298678456758
0.17984127968512
0.175369487915285
0.1737329554423
0.179283315238446
0.185576240061615
0.203142181695066
0.253270244688198
0.337221928990462
0.191751290868306
0.29902736048992
0.568721125732651
0.898200712309335
0.817923147402231
0.663266233994257
0.202982757607582
0.180001819519419
0.17679191405076
0.178667486291551
0.604955299754814
0.194921038965119
0.196918331773422
0.223102833220112
0.198218296966764
0.372346574107907
0.882423692177368
3.20080415886425
4.94180733080082
3.26037498497836
3.03632537510818
2.99925132074685
0.205285690989801
0.20260830092832
0.208270060619773
0.226947355577384
0.258558113267993
0.211385813622386
0.218895761678458
0.22714800660246
0.321141097188857
0.572330468402357
2.98634313211537
0.235707948396516
0.319360311265377
0.308395230176111
0.331648066098308
0.298611583293507
0.289604868177743
0.282337086377467
0.279884896449969
0.285528942090487
0.297896845329687
0.314324881657923
0.355434775542491
0.574113463910692
2.96197195455537
0.147066137646199
0.145267407075307
0.151320697834859
0.146114683674711
0.150130370062287
0.158149548907747
0.15834134606987
0.172762741549882
0.197713599471416
0.168057043289951
0.182131570376406
0.243876099899023
0.202616628027025
0.344107141200233
0.558988287611281
0.56490241393433
0.559386889313506
0.567821243051988
0.572704332654297
0.579804304973131
0.58812962211372
0.57688066694077
0.582002551057342
0.601332436288818
0.6213891277872
0.599125424632252
0.645145925188683
2.39307377959013
0.840707758463889
0.377161764891891
0.246985585663742
0.229607400660098
0.228855292634884
0.232862803463812
0.234815569745898
2.93200931974705
2.92380103322977
2.20706772240039
2.22026898787758
2.26504132159882
2.34583502975879
0.748487768832195
2.20706254197263
2.20681936426209
2.20366074763948
2.20012191983731
2.19714736291666
2.19281959555475
2.18648900293336
2.18729866678326
2.21611916311142
2.2869819859467
2.3816812502769
2.37375461020311
0.667897493091502
0.37455353080969
0.307996594890576
0.308781391353691
0.295618723597483
0.30248444844285
0.281722569757431
0.277415330622509
0.237804123940561
0.206724276600988
0.185698408722405
0.171043481468565
0.16066386770956
0.153388265467914
0.148574057504644
0.145945864711809
0.145508798148753
0.147519375771091
0.152540494625945
0.161646629759012
0.176950605004249
0.202977110056022
0.250852328717155
0.354675142529483
0.666116989714394
2.46683974593466
0.226816395263982
0.189699596366929
0.307126271761906
0.169589297010571
0.220304284482018
0.394831046699354
0.170693019460502
0.186524627938811
0.159804774893911
0.154076084917834
0.154468571163837
0.149984993498151
0.149270812777112
0.162058161387356
0.172244056434418
0.168787307195442
0.159314082393972
0.152421756696166
0.148113125245393
0.146687734598344
0.148700826862588
0.38129248410843
0.250605244664461
0.18330640736277
0.160783498349078
0.154113147709566
0.153299109826205
0.155118522894137
0.14796724697193
0.145846579871472
0.152528997095821
0.159547504534911
0.146408176295941
0.150183936438428
0.158169957621853
0.169384670709211
0.172291046260934
0.167759296102936
0.163813148269326
0.161371595675134
0.16211302280864
0.170327563607111
0.196834310088662
0.251152024586625
0.340728987064872
0.179346645644321
0.184549463156813
0.175788433563433
0.175807221468988
0.183856592517695
0.190521641975605
0.204894348697498
0.240526336623828
0.310880751094313
0.196669154859908
0.564046372448205
0.297940937379349
0.895213127432241
0.850498503322871
0.689747095491601
0.619353027636068
0.207374175118429
0.185030923115074
0.181566496581491
0.183078389056177
0.580467254765061
0.20072060385336
0.202774894155262
0.227881410896868
0.371651141610971
0.20348999380378
0.871544953995547
3.19250435030447
4.91093010801365
3.24611735337975
3.02802348486956
3.00410436515963
3.00760912225152
0.205369910521215
0.21055909289681
0.20400278585667
0.209186049268828
0.221922927397264
0.244546427411185
0.217419962820207
0.225067758612363
0.233207013274711
0.30287116911655
0.559132881077209
2.99479239867607
0.241526475764591
0.32629725908966
0.315647278974433
0.306103331724516
0.338243831897064
0.297087676790281
0.288708766371084
0.282473252079715
0.280595319024592
0.284039457317853
0.291172122018062
0.303785711766143
0.345387564884056
0.567873134228384
2.96529566700496
0.149002949631278
0.14624402124968
0.145693490138191
0.153941808303708
0.147615975707309
0.152570833364892
0.161291337082637
0.161610156621801
0.176782083909975
0.202459570156785
0.171637616163805
0.186148188088377
0.249393248767578
0.207165339010385
0.350390467735473
0.559201302513086
0.564369271770184
0.571886960123355
0.559186015528973
0.563882244249396
0.579167642142471
0.585913186216288
0.594127223138751
0.568062595221054
0.573393785493281
0.607186588605911
0.627099780365127
0.594414964912728
0.651312578778172
2.39028609475708
0.839152858639889
0.378963305101807
0.253209978000881
0.236618883079043
0.236149586515161
0.239428190793589
0.239498009036541
2.93583886583162
2.95713776434728
2.20611034491874
2.20380049189387
2.2154500971396
2.26804300318133
2.36559470856337
0.743694520388654
2.20655810498079
2.20340444925853
2.1997846613087
2.19749063663045
2.19580409067606
2.19225848831062
2.18628974953034
2.18723808442888
2.21609551002829
2.28699823391728
2.38168029020506
2.37374233781451
0.668641631965301
0.375992114631608
0.317803568717601
0.318180396144218
0.299169308131303
0.308048948288188
0.285320708753312
0.283263330944571
0.241549809249185
0.210721746378206
0.189364513054069
0.174365329479781
0.163659338784403
0.15600455548945
0.150696496881924
0.147382431974767
0.145962327754238
0.1465384431656
0.149417021573154
0.155188532430898
0.164952151279641
0.180856723788998
0.207483716343833
0.25603319081506
0.360632848568536
0.672214485016
0.308218005078739
0.192667141319017
0.22969255626338
0.171259823049334
0.222873800440675
0.397764093656956
0.159931726442353
0.184202713842286
0.25304763766356
0.389964556743683
0.173999313951711
0.16195414193127
0.190520899962734
0.1544438767471
0.151678123469039
0.151104629257516
0.15688294136123
0.148482502637382
0.149555468168827
0.165406259982928
0.176317059991069
0.162578207180944
0.172640735854254
0.154981699928702
0.14973277929819
0.146965780001053
0.14698022869445
0.150306879946418
0.348436765365436
0.253711445970502
0.195837481441173
0.167130378413343
0.156817232925976
0.154274685846509
0.155218947319579
0.157896690985367
0.146833623346003
0.149910171118336
0.146004146860673
0.155154130733867
0.162693823088217
0.147700883702882
0.152472332507616
0.161330001990613
0.172979514142826
0.176227149365624
0.171576155881221
0.167186497262874
0.163721031154858
0.162169767946347
0.164492581661548
0.174953029181684
0.1987803013058
0.238326227440568
0.313546755357238
0.178867629834233
0.183561600264566
0.189210031276665
0.176064168958704
0.177012436622533
0.18423107294055
0.195281736970596
0.199225179105399
0.225798345965352
0.291851748400299
0.201336657510727
0.558131147313146
0.896788050725925
0.298171902574795
0.865680738819606
0.719797056372481
0.631532550449179
0.592373962570078
0.211548882053834
0.189772980602007
0.18603927866291
0.187151995990113
0.565920638905196
0.206036289612733
0.208399932876156
0.232592580228588
0.370057768666567
0.866580567974279
0.208186201981067
3.1868734284807
4.89532847186856
3.23124748330002
3.01425699106073
2.99546181130858
3.01213344477139
3.01563607774666
0.204881605527595
0.209545943405449
0.215979322833453
0.203419156333965
0.206177327997148
0.213972156634964
0.232471850696046
0.223214974605717
0.230877979485953
0.238860830826233
0.291145958266294
0.551834198045203
2.9947625174394
0.246943948779816
0.332669542577171
0.322289771119135
0.312956813059153
0.303996842945808
0.344381218595549
0.295192020749295
0.287138531529004
0.281153490146492
0.278418637054641
0.279074098657456
0.282965227222645
0.295187816021475
0.33996959420981
0.566181985475914
2.96780581388503
0.151126840929269
0.14768332897695
0.146150493435249
0.146638186614708
0.156558577351193
0.149452373355993
0.155176236164
0.164287581210041
0.164884989944584
0.180662071219982
0.206936764539843
0.17496471304146
0.189831605223718
0.254535060462138
0.211215550465634
0.356329482972809
0.555898833750367
0.561587106002503
0.569288606682152
0.577263526376856
0.554299868960897
0.555430187036195
0.584455178504091
0.591309030875566
0.599544139039646
0.557799062350972
0.565530259740743
0.612618361739764
0.633184096673547
0.589827180813005
0.6577584105383
2.38919053843879
0.834371105133027
0.380139190671438
0.259501793638937
0.243711749034502
0.24187871192069
0.244415596389846
0.243601349218312
2.9510659589547
2.91143612923146
2.20623425346863
2.20312084357587
2.19825999168993
2.21803832303274
2.29446168428478
2.39560718893061
0.753683707530284
2.20370316187432
2.19980729744495
2.19720843720386
2.19611674667654
2.19520613584776
2.19203835150045
2.18621991745766
2.18721997174059
2.21611171255147
2.28699767400933
2.37381029439358
0.668991412565857
0.377090423918348
0.327662650868423
0.331788232563544
0.303453114028633
0.311726626204779
0.290338236639525
0.285072500132403
0.245544017830197
0.214292620874311
0.19270287192366
0.177427222877007
0.166474646844207
0.158549400562904
0.152890574719479
0.149087770691289
0.146968310930337
0.146535401460428
0.14794594610274
0.151534990687941
0.157913100815
0.168203295573586
0.184591306079885
0.211715707285916
0.260857762849595
0.36621721376115
0.309489227099795
0.400610675170951
0.22563718855155
0.173461549166451
0.195731046149682
0.232679506761804
0.160489103024634
0.186002749923437
0.255702343566015
0.396967587162901
0.166559665900544
0.154651017839224
0.197063971787661
0.257568737618025
0.358622364816635
0.177303335960321
0.164420194212658
0.155676071945653
0.19434126170901
0.151055209826811
0.150753689213332
0.148838074768869