/*--------------------------------*- C++ -*----------------------------------*\
  =========                 |
  \\      /  F ield         | OpenFOAM: The Open Source CFD Toolbox
   \\    /   O peration     | Website:  https://openfoam.org
    \\  /    A nd           | Version:  12
     \\/     M anipulation  |
\*---------------------------------------------------------------------------*/
/*   Windows 32 and 64 bit porting by blueCAPE: http://www.bluecape.com.pt   *\
|  Based on Windows porting (2.0.x v4) by Symscape: http://www.symscape.com   |
\*---------------------------------------------------------------------------*/
FoamFile
{
    format      ascii;
    class       volScalarField;
    location    "400";
    object      p;
}
// * * * * * * * * * * * * * * * * * * * * * * * * * * * * * * * * * * * * * //

dimensions      [0 2 -2 0 0 0 0];

internalField   nonuniform List<scalar> 
10228
(
83333.3333749719
83333.3333753229
83333.3333698934
83333.3334328546
83333.3334339791
83333.3333772028
83333.3333707788
83333.3333591061
83333.3334265896
83333.3334815424
83333.3334278068
83333.333436911
83333.3334829108
83333.333379732
83333.3333727615
83333.3333619323
83333.3333500582
83333.3334115785
83333.3334756401
83333.3335445878
83333.3334769635
83333.3334154054
83333.3334311667
83333.3334421718
83333.3334863104
83333.3335466063
83333.333384772
83333.3333758572
83333.3333644639
83333.3333516182
83333.3333453776
83333.3333931914
83333.3334612472
83333.3335400695
83333.333615973
83333.3334642818
83333.3334807975
83333.3335423257
83333.3334200276
83333.3333967956
83333.3334369396
83333.3334505874
83333.3334925811
83333.333550862
83333.3336184683
83333.3333908177
83333.333380667
83333.3333682688
83333.3333543121
83333.3333463822
83333.3333424845
83333.3333803858
83333.3334431855
83333.3335262584
83333.3336116409
83333.3336914443
83333.3334695504
83333.3334463853
83333.3335295291
83333.3335471032
83333.3334877588
83333.3336148174
83333.3334270236
83333.3334024038
83333.3333832035
83333.3334454562
83333.3334630492
83333.3335028651
83333.3335584273
83333.3336235515
83333.3336941864
83333.3333978679
83333.3333871909
83333.3333735395
83333.333358993
83333.3333482898
83333.3333432734
83333.3333406519
83333.3333723017
83333.3334276833
83333.3335088863
83333.333599098
83333.3336867199
83333.333768509
83333.3334524197
83333.3335354426
83333.3334780666
83333.3335124771
83333.3334309259
83333.3336025162
83333.3336204334
83333.3335554361
83333.3334985137
83333.3336901028
83333.3334368838
83333.3334119605
83333.333388135
83333.3333747179
83333.33345797
83333.3334791415
83333.3335185297
83333.3335709059
83333.3336323772
83333.333699754
83333.3337710752
83333.3334023854
83333.3333933405
83333.3333815363
83333.3333648575
83333.3333514274
83333.3333448385
83333.3333413926
83333.3333396838
83333.3333668374
83333.3334159071
83333.3334913004
83333.3335828605
83333.3336756515
83333.3337633552
83333.3338454831
83333.3334370081
83333.3334626881
83333.3335189942
83333.3336086878
83333.3335452705
83333.3334906894
83333.333495183
83333.3335864678
83333.3334191266
83333.3336788235
83333.3336960386
83333.3336299302
83333.3335684782
83333.3335142562
83333.3337664321
83333.3334518531
83333.3334240895
83333.3333962899
83333.3333789949
83333.3333691653
83333.3334738557
83333.3334956715
83333.3335421651
83333.3335898037
83333.3336467197
83333.3337091609
83333.3337766733
83333.3338478604
83333.3334063952
83333.3333993479
83333.3333919002
83333.3333740805
83333.3333567887
83333.3333474576
83333.3333428346
83333.3333403119
83333.3333388374
83333.3333637417
83333.3334071647
83333.333475692
83333.3335644904
83333.3336604968
83333.3337535354
83333.3338403988
83333.3339216991
83333.3335020978
83333.3334249853
83333.3334471061
83333.3335299616
83333.3334775708
83333.3335930032
83333.333684778
83333.3336189799
83333.3335601702
83333.3335094224
83333.333568375
83333.333479813
83333.3336636321
83333.3334104206
83333.3337562098
83333.3337058807
83333.3337721314
83333.3336448102
83333.3335874807
83333.3335354398
83333.3338429614
83333.3334737993
83333.3334420196
83333.3334093246
83333.3333861932
83333.3333732812
83333.3333656999
83333.3334838591
83333.3335047132
83333.3335769549
83333.3336187032
83333.3336684519
83333.3337240283
83333.3337859657
83333.3338531152
83333.3339238246
83333.3334031168
83333.3333995009
83333.3333863155
83333.3333671114
83333.3333521515
83333.3333452434
83333.3333415793
83333.3333394613
83333.3333383012
83333.3333610106
83333.3334012122
83333.333463195
83333.3335464323
83333.3336420701
83333.3337394703
83333.3338316895
83333.3339169438
83333.3339967576
83333.333575336
83333.333486938
83333.3335135644
83333.3334162678
83333.3334348388
83333.3334628305
83333.3336038704
83333.3335465562
83333.3334994212
83333.3336696383
83333.3337615858
83333.3336946929
83333.3336347852
83333.3335816971
83333.333538395
83333.333645437
83333.3335506796
83333.3334674533
83333.3337419578
83333.3334042846
83333.3338337826
83333.3337210498
83333.3337815774
83333.3338480683
83333.3336669843
83333.3336118011
83333.3339190212
83333.3334913986
83333.3334645741
83333.3334308715
83333.3333986434
83333.3333799973
83333.3333693897
83333.3333629578
83333.333500788
83333.3335905085
83333.3336716184
83333.3337015211
83333.3337460029
83333.3338001893
83333.3338617459
83333.3339285657
83333.3339986681
83333.3334042946
83333.3333981249
83333.3333802241
83333.3333618583
83333.3333494412
83333.3333437702
83333.3333407161
83333.3333389162
83333.333338121
83333.333359176
83333.3333965394
83333.3334537712
83333.3335309209
83333.3336229722
83333.3337215778
83333.3338188144
83333.3339092746
83333.3339925035
83333.3340706376
83333.3335580186
83333.3335867154
83333.3336517046
83333.3334987124
83333.3334746946
83333.333531067
83333.3334098811
83333.3334259956
83333.3334506029
83333.3334869182
83333.3336796345
83333.3336203488
83333.3335707628
83333.3335285416
83333.3337471501
83333.333838441
83333.3337706993
83333.3337097916
83333.3336577153
83333.3336118598
83333.3335716036
83333.3336266916
83333.3337241842
83333.3335354287
83333.3334580079
83333.3338206251
83333.3333995698
83333.3339108943
83333.3337958798
83333.3337431061
83333.3338566327
83333.3339234366
83333.3336992522
83333.3339942061
83333.3335010361
83333.3334869117
83333.3334556657
83333.3334209396
83333.333391447
83333.3333755506
83333.3333665649
83333.3333610905
83333.3335892145
83333.3337290057
83333.3337583305
83333.3337505735
83333.3337773008
83333.3338203143
83333.333874584
83333.3339362903
83333.3340028407
83333.3340723307
83333.33340213
83333.3333950623
83333.333375929
83333.3333574552
83333.3333476616
83333.3333428548
83333.3333401318
83333.3333386582
83333.3333378664
83333.3333584101
83333.3333930994
83333.333446559
83333.3335184777
83333.3336056608
83333.3337023683
83333.3338018347
83333.3338975769
83333.3339857633
83333.3340669057
83333.3341434123
83333.3335429848
83333.3336333062
83333.3335698531
83333.3336619559
83333.3336037325
83333.3337294677
83333.3335167399
83333.3334865936
83333.333465167
83333.3335567909
83333.3334050772
83333.3334192797
83333.3334414178
83333.3334754011
83333.3335182345
83333.3336946422
83333.3337559978
83333.3336441412
83333.3336041686
83333.3335632009
83333.3338249802
83333.3339148525
83333.3338465308
83333.3337844813
83333.3337312602
83333.3336901236
83333.3336601462
83333.3335842612
83333.3336096732
83333.333705252
83333.333803665
83333.3335230606
83333.3334507361
83333.3338988885
83333.3333960974
83333.3339870516
83333.3338694506
83333.3338159
83333.3337738917
83333.3339309435
83333.333997973
83333.3337519732
83333.3340683205
83333.3334946439
83333.333482142
83333.3334486481
83333.3334118154
83333.3333863715
83333.3333726163
83333.3333646017
83333.3333600654
83333.3337212047
83333.3338177692
83333.3338368347
83333.3338076723
83333.33381722
83333.3338469049
83333.333892065
83333.3339475302
83333.3340095983
83333.3340759486
83333.3341448854
83333.3333998729
83333.3333902215
83333.3333721955
83333.3333549881
83333.3333465676
83333.3333421461
83333.3333397628
83333.3333383998
83333.333337595
83333.3333575023
83333.3333909406
83333.3334410723
83333.3335086748
83333.3335910408
83333.3336842081
83333.3337830426
83333.333881731
83333.3339751683
83333.3340609984
83333.3341401863
83333.3342152612
83333.3335550893
83333.3336165467
83333.3335306716
83333.3337107768
83333.3336439109
83333.3335874287
83333.3337383342
83333.3336770831
83333.3336279797
83333.3338079933
83333.3335432859
83333.3335048262
83333.3334769869
83333.3334577995
83333.3335921047
83333.3334015123
83333.3334144186
83333.3334344509
83333.3334656604
83333.3335092761
83333.3335565181
83333.3337156224
83333.3337693023
83333.333832677
83333.333677875
83333.3336524623
83333.3335746326
83333.3339025138
83333.3339903933
83333.3339218938
83333.3338587841
83333.3338035418
83333.3337606681
83333.3337378629
83333.333740689
83333.3337095356
83333.3335952085
83333.3336873611
83333.333785099
83333.3338830023
83333.3335132401
83333.3334451729
83333.333976203
83333.3333937435
83333.3340620505
83333.3338868597
83333.3339421018
83333.3338419203
83333.3338125899
83333.3340044282
83333.3340715261
83333.3338058597
83333.3341413652
83333.3334891549
83333.333474396
83333.3334421945
83333.3334057152
83333.3333829954
83333.3333703167
83333.3333632695
83333.3333591057
83333.3338123201
83333.3338793218
83333.3338927966
83333.3338643715
83333.3338356744
83333.3338604048
83333.3338786514
83333.3339140905
83333.3339624278
83333.3340192895
83333.33408178
83333.3341479807
83333.3342165239
83333.3333963703
83333.3333873605
83333.3333692791
83333.333353321
83333.3333456577
83333.3333416415
83333.3333394603
83333.3333381398
83333.3333375029
83333.3333565502
83333.3333891278
83333.333437027
83333.3335010144
83333.3335791055
83333.333668257
83333.3337646878
83333.3338637706
83333.3339605587
83333.3340514757
83333.3341350364
83333.3342124975
83333.3342863889
83333.3335428633
83333.3335730682
83333.3336274368
83333.3336022211
83333.3336931316
83333.333520822
83333.3337895747
83333.3337198319
83333.3336593833
83333.3336122241
83333.3338155805
83333.333751466
83333.333697833
83333.3336622227
83333.3338865443
83333.3335803989
83333.3335316953
83333.3334952666
83333.3334695311
83333.333452117
83333.3336428804
83333.3333988887
83333.333410576
83333.3334293441
83333.3334583689
83333.3335012366
83333.3335475165
83333.3335672869
83333.3337440286
83333.3337875057
83333.3338443694
83333.3339091651
83333.3337250954
83333.333731173
83333.3336992993
83333.3339792213
83333.3340648684
83333.3339964481
83333.3339325894
83333.3338754241
83333.3338281299
83333.3337987118
83333.3337914156
83333.3338228307
83333.3338001489
83333.3336715885
83333.3335833247
83333.3337670193
83333.3338652181
83333.3339615942
83333.3335055213
83333.3334409962
83333.3340523542
83333.3333918414
83333.3341359069
83333.3339085548
83333.3339569972
83333.3340139817
83333.3338725004
83333.3338540139
83333.3340770378
83333.3341440812
83333.333859122
83333.3342134857
83333.3334841336
83333.3334691355
83333.333436598
83333.3334012211
83333.3333802104
83333.3333686397
83333.3333621752
83333.3333581702
83333.3338741122
83333.3339274436
83333.3339373569
83333.333913536
83333.3338881435
83333.33390278
83333.3339125549
83333.3339396857
83333.3339807077
83333.3340319173
83333.3340900756
83333.3341529637
83333.3342191543
83333.3342874715
83333.3333942607
83333.3333846973
83333.333366908
83333.3333519768
83333.3333449956
83333.3333412511
83333.3333391953
83333.3333380293
83333.3333375001
83333.3333561138
83333.3333875034
83333.3334338707
83333.3334950731
83333.3335695342
83333.3336548371
83333.3337480995
83333.3338458005
83333.3339438028
83333.3340382403
83333.3341265914
83333.3342080343
83333.3342840328
83333.3343569545
83333.333561075
83333.3335330079
83333.3336132813
83333.333598377
83333.3336432718
83333.3337024079
83333.3335903824
83333.3336775372
83333.3337717025
83333.3335130255
83333.333868857
83333.3337972329
83333.3337330697
83333.3336803658
83333.3336470453
83333.333826989
83333.3338930461
83333.3337691861
83333.3337255819
83333.3337103171
83333.3339645027
83333.3335700566
83333.3336310775
83333.3335223414
83333.3334877441
83333.3334636612
83333.3334477538
83333.3337198768
83333.3333968217
83333.3334076435
83333.3334251898
83333.3334528274
83333.3334943904
83333.3335408186
83333.3335605571
83333.333689756
83333.3338109106
83333.3337809357
83333.3338602389
83333.3339193848
83333.3339849385
83333.333778521
83333.3338097561
83333.3337883656
83333.3340548785
83333.3341382887
83333.3340700373
83333.3340056678
83333.3339469948
83333.3338961934
83333.3338577146
83333.3338395946
83333.3338487366
83333.3338806664
83333.3338648898
83333.3336582491
83333.3337506287
83333.3335737424
83333.3338475064
83333.3339449167
83333.3340391261
83333.3334995013
83333.3334377419
83333.3341273469
83333.3333902016
83333.3342087677
83333.3339335599
83333.3339751998
83333.3340266092
83333.334085166
83333.333905507
83333.3338956384
83333.3341487659
83333.3342157813
83333.3339080079
83333.3342848707
83333.3334793187
83333.3334641732
83333.3334318433
83333.3333975918
83333.3333781518
83333.3333673041
83333.3333612225
83333.3333576598
83333.3339232862
83333.3339674467
83333.3339752281
83333.3339543254
83333.3339332803
83333.3339425725
83333.3339465061
83333.3339670958
83333.334001685
83333.3340471832
83333.3341007847
83333.3341600344
83333.3342233916
83333.3342897137
83333.3343578879
83333.3333918269
83333.333382487
83333.33336468
83333.3333508296
83333.3333445099
83333.3333409493
83333.3333390462
83333.3333379921
83333.3333374757
83333.3333559521
83333.333386437
83333.3334313325
83333.3334904398
83333.3335619378
83333.3336438213
83333.3337338093
83333.333829198
83333.3339267202
83333.334022876
83333.3341147925
83333.3342006588
83333.3342801959
83333.3343549614
83333.3344270787
83333.3335867669
83333.3336294132
83333.3335513153
83333.3335251329
83333.3336015344
83333.3336869978
83333.3336336854
83333.3336646872
83333.3337158764
83333.3337795127
83333.3335807941
83333.3336643036
83333.3337554984
83333.3338513304
83333.3335068981
83333.3339479277
83333.3338753811
83333.3338086026
83333.3337507741
83333.3337081034
83333.3336951983
83333.3339029967
83333.3338423735
83333.3339700873
83333.3337918435
83333.3337619205
83333.3337631784
83333.3340415582
83333.333561299
83333.3336218957
83333.3337077753
83333.3335148445
83333.3334817145
83333.3334590707
83333.3334443481
83333.3337963469
83333.3334053215
83333.3333951282
83333.3334219736
83333.3334482764
83333.3334886508
83333.3335343656
83333.3335542699
83333.3336788873
83333.3337762049
83333.3338801289
83333.3338394868
83333.3338213431
83333.3339332346
83333.3339938101
83333.3340597752
83333.3338342196
83333.3338682131
83333.3338528503
83333.3341294784
83333.334210788
83333.3341426887
83333.3340779292
83333.3340180336
83333.3339647057
83333.33392044
83333.3338901905
83333.3338821575
83333.3338989045
83333.3339270109
83333.3339162691
83333.3336472615
83333.3337364431
83333.333831116
83333.3335661146
83333.3339280388
83333.3340238341
83333.3341155623
83333.3334947999
83333.3334351492
83333.3342013096
83333.3333890721
83333.3342808277
83333.3339960139
83333.3339606952
83333.3340419087
83333.3340958502
83333.3341556703
83333.3339394943
83333.3339362295
83333.3342197545
83333.3342868247
83333.3339498591
83333.3343556815
83333.3334745262
83333.33345985
83333.3334274257
83333.3333944903
83333.3333765503
83333.3333662526
83333.3333605974
83333.333357373
83333.3339645534
83333.3340006508
83333.3339892718
83333.3340070311
83333.3339720906
83333.3339783848
83333.3339793723
83333.3339949834
83333.3340242164
83333.3340645774
83333.3341136127
83333.334169138
83333.3342293998
83333.3342933247
83333.3343598133
83333.3344278955
83333.3333896726
83333.333380303
83333.333362619
83333.3333499456
83333.3333440949
83333.3333407246
83333.3333389524
83333.3333379593
83333.3333374658
83333.3333557481
83333.3333857935
83333.3334294538
83333.3334868285
83333.3335559633
83333.3336349343
83333.3337218582
83333.3338146221
83333.3339106522
83333.3340070543
83333.3341009693
83333.3341903057
83333.3342738512
83333.3343517064
83333.3344254167
83333.3344968664
83333.3336222824
83333.3335772204
83333.3336512653
83333.3337007288
83333.3336178768
83333.3335434374
83333.3335188934
83333.3335919812
83333.3336739101
83333.3337634806
83333.3336819085
83333.333692747
83333.3337338434
83333.3337910034
83333.3338579744
83333.333653375
83333.333573138
83333.3337414545
83333.3338351283
83333.3339312383
83333.3335020974
83333.3340263776
83333.3339535456
83333.3338852533
83333.333823853
83333.3337732982
83333.3337440915
83333.3337480429
83333.3339787683
83333.3339164792
83333.3338616889
83333.3340463735
83333.3338198192
83333.3338022065
83333.3338180689
83333.3341176295
83333.3335540043
83333.3336134789
83333.3336971507
83333.3337826379
83333.333508724
83333.3334769267
83333.3334554596
83333.333441664
83333.3338548007
83333.333403497
83333.3334194205
83333.3333938853
83333.3334444771
83333.3334836781
83333.333528711
83333.3335481012
83333.3336700516
83333.3337637899
83333.3338402436
83333.3339504223
83333.3339037326
83333.333871538
83333.3338647779
83333.3340058451
83333.3340674385
83333.3341336739
83333.3338845915
83333.3339162463
83333.3339058505
83333.3342031279
83333.3342145372
83333.3342825564
83333.3341494246
83333.334088495
83333.3340331398
83333.3339851634
83333.3339472465
83333.3339250261
83333.3339239235
83333.3339414732
83333.3339663751
83333.3339590069
83333.3337245484
83333.3336383827
83333.333816674
83333.3339121811
83333.3335601089
83333.3340081468
83333.3341018121
83333.3341909766
83333.3334911391
83333.3334332091
83333.3342744158
83333.333388317
83333.3343522599
83333.3340593407
83333.3340186058
83333.3339889168
83333.3341087405
83333.3341647336
83333.334225623
83333.3339733183
83333.3339733565
83333.3342902097
83333.3343573662
83333.3339858399
83333.3344260459
83333.3334700049
83333.3334557831
83333.3334232495
83333.3333918758
83333.3333752012
83333.3333654298
83333.3333601455
83333.3333571288
83333.3339986222
83333.3340275602
83333.334009954
83333.3340189673
83333.3340329173
83333.3340047236
83333.3340100986
83333.334022438
83333.3340473475
83333.3340832915
83333.3341281297
83333.3341799938
83333.3342371372
83333.3342984425
83333.3343629116
83333.3344295667
83333.3344976039
83333.3333876957
83333.3333783641
83333.3333600756
83333.3333493019
83333.3333437468
83333.3333405514
83333.3333388879
83333.3333379398
83333.3333374815
83333.3333555908
83333.3333852939
83333.333428136
83333.3334840993
83333.3335513274
83333.3336278827
83333.3337120881
83333.3338022491
83333.3338963332
83333.3339919497
83333.3340866192
83333.334178092
83333.334264909
83333.334346335
83333.3344227008
83333.334495513
83333.3345664677
83333.333612756
83333.3336796802
83333.3336700241
83333.3335694265
83333.3336400861
83333.3337190694
83333.3336878877
83333.3337751807
83333.3336084602
83333.3335371351
83333.3335139795
83333.3335843295
83333.3336630942
83333.3337496049
83333.3338419377
83333.3337344357
83333.333728648
83333.3337566199
83333.3338063897
83333.3338679234
83333.3339369879
83333.3337296649
83333.3336445333
83333.3335671012
83333.333820845
83333.3339155769
83333.3340109012
83333.3334983609
83333.3341040093
83333.3340312685
83333.3339621885
83333.333898607
83333.3338430281
83333.3338010876
83333.3337842355
83333.3338024997
83333.3340539458
83333.3339905931
83333.3339333263
83333.333884917
83333.3341218036
83333.3338517858
83333.3338465084
83333.3338695395
83333.334192759
83333.3335478691
83333.3336061955
83333.3336875077
83333.3337702082
83333.3338411747
83333.3335037076
83333.3334731096
83333.3334526276
83333.3334396223
83333.333904213
83333.3334020554
83333.3334173262
83333.3334412985
83333.3333929666
83333.3334792499
83333.3335235802
83333.3335422312
83333.3336615056
83333.3337525271
83333.333827458
83333.3338942781
83333.3340207224
83333.3339705693
83333.3339304189
83333.3339073231
83333.3339081193
83333.3340778491
83333.3341402795
83333.3342067375
83333.3339289384
83333.3339573617
83333.333950417
83333.3342759867
83333.3342857669
83333.3342202913
83333.334353761
83333.3341584441
83333.3341013696
83333.3340505028
83333.3340077178
83333.3339761904
83333.3339604591
83333.3339626168
83333.3339784701
83333.3339998318
83333.3339942773
83333.3337148158
83333.3338043838
83333.3336313354
83333.3338980082
83333.3339932432
83333.3335554483
83333.3340875664
83333.3341788347
83333.3342654932
83333.3334883656
83333.3334318141
83333.3343468298
83333.3333877589
83333.3344231979
83333.3340782678
83333.3341233864
83333.3340421728
83333.3340172079
83333.3341756439
83333.334233334
83333.3342952144
83333.3340052793
83333.3340061433
83333.3343602729
83333.3344275168
83333.3340163895
83333.3344960815
83333.3334660264
83333.3334521791
83333.3334184596
83333.3333900122
83333.3333740678
83333.3333647682
83333.3333598018
83333.3333569362
83333.3340260043
83333.334048346
83333.334037895
83333.3340371657
83333.3340434192
83333.3340531057
83333.3340312626
83333.334048577
83333.3340703299
83333.3341025814
83333.3341437557
83333.334192211
83333.3342463597
83333.3343050327
83333.3343672965
83333.3344322495
83333.3344990774
83333.3345671892
83333.3333860089
83333.3333764969
83333.3333588189
83333.3333488103
83333.3333434912
83333.33334043
83333.3333388499
83333.3333379556
83333.3333375351
83333.3333555086
83333.333384925
83333.3334272032
83333.333482118
83333.3335478213
83333.3336224018
83333.3337042761
83333.333792026
83333.3338840303
83333.3339783294
83333.3340727762
83333.3341653264
83333.3342542967
83333.3343387303
83333.334418234
83333.3344932794
83333.3345653676
83333.3346358182
83333.3336048738
83333.3336688037
83333.3336598062
83333.3337422605
83333.3337154954
83333.3337223112
83333.333630935
83333.3335630976
83333.3337066141
83333.3337908651
83333.3336772893
83333.3337615538
83333.3338520733
83333.3336008924
83333.3335321273
83333.3335101472
83333.3335782848
83333.3336543442
83333.3337379752
83333.3338278393
83333.3339215068
83333.3337886147
83333.3337686381
83333.3337845774
83333.3338257638
83333.3338813752
83333.3339457287
83333.3340159605
83333.3337200163
83333.3338086873
83333.3336375147
83333.3335624147
83333.3339015783
83333.3339962061
83333.3340899922
83333.3334955163
83333.3341807627
83333.3341083079
83333.3340388809
83333.333973969
83333.3339153957
83333.3338662479
83333.3338331376
83333.3338291341
83333.3338546933
83333.3340642992
83333.3341284146
83333.3340053573
83333.3339533707
83333.3339117323
83333.3341963973
83333.333888556
83333.3338915009
83333.3339155756
83333.334267051
83333.3335999085
83333.333542656
83333.3336790142
83333.333759116
83333.3338286846
83333.3338918592
83333.3334995736
83333.3334700637
83333.3334504258
83333.3334381072
83333.3339472537
83333.3334009214
83333.3334156222
83333.3334388338
83333.3334750064
83333.3333922885
83333.3335191013
83333.3335371927
83333.3336536053
83333.3337423332
83333.3338156666
83333.3338824052
83333.3339405882
83333.3340380575
83333.3340906944
83333.3339932662
83333.3339602123
83333.3339445901
83333.3339489601
83333.3341492657
83333.334212436
83333.3342791115
83333.3339681271
83333.3339925354
83333.3339875591
83333.3343482089
83333.3343565326
83333.3342907016
83333.3342280039
83333.3344245242
83333.3341694223
83333.3341161165
83333.3340695813
83333.3340318891
83333.3340059389
83333.3339944356
83333.333997258
83333.3340103422
83333.3340274209
83333.3340226158
83333.333707036
83333.3337942189
83333.3338858019
83333.3336258608
83333.3339797738
83333.3340739179
83333.3335519221
83333.3341661675
83333.3342549533
83333.3343392459
83333.3334863404
83333.3334308248
83333.3344186793
83333.3333873539
83333.3344937462
83333.3340980319
83333.3341392763
83333.3341880065
83333.3340658729
83333.3340443406
83333.3342426112
83333.3343017932
83333.3343645658
83333.3340342389
83333.3340343772
83333.3344300395
83333.3344973889
83333.3340415711
83333.3345659193
83333.3334625205
83333.3334489162
83333.3334155941
83333.3333885703
83333.3333732012
83333.3333642684
83333.3333595513
83333.3333568525
83333.3340471665
83333.3340636818
83333.3340726186
83333.3340622445
83333.334059817
83333.3340626295
83333.3340679884
83333.3340519697
83333.3340924438
83333.3341218431
83333.3341599186
83333.3342053328
83333.3342567232
83333.334312884
83333.3343729377
83333.3344360375
83333.3345014246
83333.3345685343
83333.3346365287
83333.3333845859
83333.3333750703
83333.3333579266
83333.3333484339
83333.3333433298
83333.333340363
83333.3333388598
83333.3333380042
83333.3333376136
83333.3333555441
83333.3333847202
83333.3334265797
83333.3334807451
83333.3335452764
83333.3336182695
83333.3336981946
83333.3337838042
83333.333873778
83333.333966518
83333.3340601881
83333.3341529315
83333.3342431516
83333.3343296642
83333.3344118744
83333.3344896405
83333.334563562
83333.3346349168
83333.3336512553
83333.3336598859
83333.3335983644
83333.3337302566
83333.3337045466
83333.3337118123
83333.3338106398
83333.3337705542
83333.3337553981
83333.333776465
83333.3336235451
83333.3336963683
83333.3335579876
83333.3337776089
83333.3338657921
83333.3337501814
83333.3336687259
83333.3338382276
83333.333930451
83333.3335948964
83333.3335281904
83333.333573588
83333.3335072081
83333.3336474033
83333.3337284772
83333.333815873
83333.3339077134
83333.3340014739
83333.3338413491
83333.3338140363
83333.3338168948
83333.3338492964
83333.3338983728
83333.3339576462
83333.3340237283
83333.3340944987
83333.3337986387
83333.3337123087
83333.3338895243
83333.3336320653
83333.3335588655
83333.3339829252
83333.3340765627
83333.334168333
83333.3334934194
83333.3342566635
83333.3341845647
83333.3341150417
83333.3340493051
83333.333988808
83333.3339356075
83333.3338933992
83333.333870729
83333.3338755009
83333.3339023122
83333.3340772164
83333.3341374698
83333.3342021778
83333.3340228253
83333.3339764056
83333.3339424829
83333.3342702397
83333.333927604
83333.3339344315
83333.3339568252
83333.3343406271
83333.3335946349
83333.3336719243
83333.333538128
83333.3337494286
83333.3338176347
83333.3338803155
83333.3339367335
83333.3334962635
83333.3334676604
83333.3334487471
83333.3334370191
83333.3339843242
83333.3334000718
83333.3334143029
83333.3334368876
83333.3334718695
83333.3335152225
83333.3333918133
83333.3335327532
83333.3336469529
83333.3337332518
83333.3338051804
83333.3338712747
83333.3339303297
83333.3339795751
83333.334057459
83333.3341056047
83333.3341603404
83333.3340182471
83333.3339916135
83333.3339809135
83333.3339860789
83333.3342201961
83333.3342840462
83333.3343509372
83333.3340022181
83333.3340217907
83333.3340174431
83333.3344199149
83333.3344269467
83333.3343607877
83333.3342973186
83333.3342373851
83333.3344949462
83333.334181964
83333.3341322702
83333.3340898759
83333.3340567263
83333.3340349049
83333.3340255247
83333.334027432
83333.3340369269
83333.334049066
83333.3340445514
83333.333700985
83333.3337860455
83333.3338756211
83333.3339680668
83333.3336217368
83333.3340614821
83333.3341539614
83333.3335493608
83333.3342439091
83333.3343302472
83333.3344123419
83333.3334849334
83333.3334301654
83333.334490061
83333.3333871402
83333.3345640203
83333.3341179353
83333.3341558752
83333.3342013953
83333.3342531052
83333.3340887849
83333.3340693486
83333.3343097064
83333.3343702059
83333.3344337533
83333.334059598
83333.3340578793
83333.3344996085
83333.3345671183
83333.3340614035
83333.334635447
83333.3334596628
83333.3334462821
83333.3334134872
83333.3333874304
83333.3333726032
83333.3333639384
83333.3333594471
83333.3333568737
83333.3340627268
83333.3340740352
83333.3341130147
83333.3340939717
83333.3340827506
83333.3340777921
83333.3340768627
83333.3340780838
83333.3340672607
83333.3341405003
83333.3341761038
83333.3342189299
83333.3342678389
83333.3343217035
83333.3343796527
83333.3344409017
83333.3345047262
83333.3345706244
83333.3346377821
83333.3333834298
83333.3333738961
83333.3333572515
83333.3333481503
83333.3333432455
83333.3333403547
83333.3333388995
83333.3333380748
83333.3333376926
83333.3333556664
83333.3333847134
83333.3334262509
83333.3334798808
83333.3335435473
83333.3336152985
83333.3336936295
83333.3337773997
83333.3338654973
83333.3339566148
83333.3340492024
83333.3341416032
83333.3342322968
83333.3343201111
83333.3344042663
83333.3344844067
83333.3345605981
83333.3346333834
83333.3336441746
83333.3337030052
83333.3336955892
83333.3337204353
83333.3336526517
83333.3335930082
83333.3337978712
83333.333758951
83333.3337443881
83333.3337660511
83333.3338346769
83333.3338831914
83333.3338032544
83333.3338012585
83333.3338297331
83333.333617659
83333.3336881067
83333.3337666218
83333.3335539351
83333.3338523124
83333.3339426569
83333.3338265451
83333.3337409318
83333.3336619433
83333.3339169313
83333.3340094859
83333.3335902268
83333.3335251485
83333.3335700256
83333.333642022
83333.3335050198
83333.3337209102
83333.3338060138
83333.3338958763
83333.3339884227
83333.334081307
83333.3338902049
83333.3338614515
83333.333855217
83333.3338769857
83333.3339190009
83333.3339727625
83333.3340343666
83333.3341014508
83333.3341723734
83333.3337905714
83333.3338794807
83333.3337063234
83333.3339713856
83333.333627965
83333.3335562833
83333.3340643262
83333.3341563522
83333.3342458564
83333.3334919529
83333.334331781
83333.3342600411
83333.3341905345
83333.3341242757
83333.3340624365
83333.3340066107
83333.333959198
83333.3339251149
83333.3339113021
83333.3339203187
83333.3339454586
83333.3341487507
83333.3340924355
83333.3342100974
83333.3342753075
83333.3340427482
83333.3340023738
83333.333975594
83333.3343434422
83333.3339662031
83333.3339739401
83333.3339931618
83333.3344135905
83333.3335902141
83333.3336659582
83333.3337413077
83333.3335344887
83333.3338080448
83333.333870037
83333.3339267342
83333.3339756812
83333.3334936485
83333.3334658183
83333.3334475235
83333.3334362953
83333.3340153262
83333.3333995028
83333.3334133485
83333.333435362
83333.3334694484
83333.3335120476
83333.3335291968
83333.3333915669
83333.3336411599
83333.3337256181
83333.3337959875