/*--------------------------------*- C++ -*----------------------------------*\
  =========                 |
  \\      /  F ield         | OpenFOAM: The Open Source CFD Toolbox
   \\    /   O peration     | Website:  https://openfoam.org
    \\  /    A nd           | Version:  12
     \\/     M anipulation  |
\*---------------------------------------------------------------------------*/
/*   Windows 32 and 64 bit porting by blueCAPE: http://www.bluecape.com.pt   *\
|  Based on Windows porting (2.0.x v4) by Symscape: http://www.symscape.com   |
\*---------------------------------------------------------------------------*/
FoamFile
{
    format      ascii;
    class       surfaceScalarField;
    location    "400";
    object      phi;
}
// * * * * * * * * * * * * * * * * * * * * * * * * * * * * * * * * * * * * * //

dimensions      [0 3 -1 0 0 0 0];

internalField   nonuniform List<scalar> 
29052
(
-1.13900669992296e-07
9.30254514566364e-07
-1.19019332896004e-05
-1.35897166907623e-05
-5.51646283029722e-07
8.07026210119871e-07
-3.72818751818059e-09
1.70531189198747e-06
-6.68679895860944e-06
-7.65741039540683e-07
2.06462544192968e-06
-1.32008169429553e-05
2.01813911036307e-06
-1.86183284759277e-06
-1.45117341786812e-05
-1.54732585996653e-05
-6.38636556196848e-07
8.9538071987318e-07
-7.93893622412387e-06
-2.09103677591615e-07
1.36808202120868e-06
-5.44665379331035e-07
1.7342122507605e-06
-7.52990433608005e-06
-5.56884937469899e-07
3.55228073462215e-06
-7.61755136285914e-06
-7.76558602232527e-07
1.65374004855323e-06
-1.40779812425233e-05
-8.24790235639829e-06
3.33048520146847e-06
-1.56022521024788e-06
2.17261646565942e-06
-3.12753553377933e-06
-1.638012607527e-05
1.61817068160367e-06
-2.00098920799208e-06
-1.49054493966615e-05
-1.76062809043897e-05
-1.27351664709356e-06
9.81326922229604e-07
-9.96387745589606e-06
-5.49647874968092e-07
1.52595692480924e-06
-5.78417958458531e-06
-1.9342638845409e-07
1.75868194176255e-06
-3.60474680618184e-07
7.48912922483801e-07
-3.32782999009584e-06
-1.59218626324284e-06
2.7049319256631e-06
-5.09036832816665e-06
-6.56975192561153e-07
2.5742235492976e-06
-7.88105730439752e-06
-8.38395708754743e-07
1.06232624116831e-06
-1.43019120138378e-05
2.56606310062731e-06
-1.63842260469637e-06
-8.21432327029662e-06
-5.7042427489696e-06
-1.73766107656568e-06
3.39604958654464e-06
-9.95974859230668e-06
3.45931231028635e-06
-2.85097829596869e-06
2.42744171387957e-06
-4.44953813832806e-06
-1.87116503779943e-05
1.74138854225645e-06
-3.51905211466832e-06
-1.66033853450191e-05
8.90387958577853e-07
-1.98110788479923e-06
-1.46531269809829e-05
-1.88229864550372e-05
-1.22201124339229e-06
1.05709434871147e-06
-1.17561281573926e-05
-9.03679253635595e-07
1.52631177232845e-06
-7.29915552642124e-06
-4.84505861137648e-07
2.02681797918226e-06
-4.81629242539862e-06
-5.37106709142189e-07
9.81616680118405e-07
-1.09862651445181e-07
2.88387681402311e-07
-9.47140448934756e-08
-8.51512726787964e-07
1.08390346378088e-06
-8.55282986405958e-07
-1.06033399449828e-06
1.42152005936834e-06
-2.87732611561056e-06
-7.23915282642084e-07
1.5880927656938e-06
-7.68292055711712e-06
-8.9660415782257e-07
6.95879251721319e-07
-1.41011986675601e-05
-1.6496520397494e-06
2.01425266535883e-06
-4.56309053869206e-06
2.66647128319039e-06
-9.69642559996307e-06
-2.82673102142794e-06
1.76897074438156e-06
-1.49615530185305e-06
-8.32066503443319e-06
-6.71113453397958e-06
-2.66725293400419e-06
3.80093738397201e-06
-2.45938846521447e-06
-1.41710868206601e-06
1.60476194174388e-06
-1.17056977579774e-05
3.60940749405235e-06
-4.08324189771063e-06
2.57760768532601e-06
-5.29873914651081e-06
-2.05512961378006e-05
1.88079077926344e-06
-5.16815775005028e-06
-1.89432114179431e-05
8.71895517017093e-07
-3.52796792171091e-06
-1.59283849693151e-05
4.56051858727415e-07
-1.92561515967916e-06
-1.40802076903867e-05
-1.97947531632168e-05
-1.35904018589801e-06
9.33019892702256e-07
-1.34659104339214e-05
-1.2194077116641e-06
1.46001332645732e-06
-9.24001546226262e-06
-8.71911636786208e-07
1.73054507694096e-06
-6.13526965349253e-06
-8.36518093181536e-07
1.07790460832834e-06
-1.44477142859565e-06
-2.15126583271704e-07
3.64795301893801e-07
3.78691707792343e-08
8.43881690544291e-08
1.55234249075308e-06
-4.35451267801617e-07
3.49091849674581e-07
1.07555394916502e-06
-5.42949563601289e-07
5.37531794091095e-07
5.71661039785855e-07
-5.61278706432375e-07
6.14483559682635e-07
-1.34244781656528e-06
-7.80203007562042e-07
8.17682833536457e-07
-7.02454585547197e-06
-8.86388167050455e-07
5.83981811652512e-07
-1.37988168952024e-05
2.34344185008449e-06
-5.56864758433567e-06
-2.4690396427926e-06
-1.07583157628463e-06
-8.354565774692e-07
9.23220432895669e-07
-1.17138468416386e-06
1.05757047610399e-06
-3.24158545436916e-06
1.88188654316284e-06
-9.57705131514387e-06
-2.62547639392606e-06
2.65739857620693e-06
-1.12550396698821e-05
-4.05385851516734e-06
1.09379407830431e-06
-1.43139618926028e-06
-8.30724791274031e-06
-8.32737248486187e-06
-3.87061267514657e-06
3.90022059882338e-06
-3.28869352607181e-06
-2.46939298597467e-06
2.00669272191801e-06
-8.2755890050247e-08
-7.86362815684577e-07
5.93678281345287e-07
-1.34734986617744e-05
3.48490752406038e-06
-4.98283817676137e-06
2.60168509646664e-06
-5.72165135475377e-06
-2.19734762628717e-05
1.99202237250955e-06
-6.7425788608686e-06
-2.09687743611523e-05
8.62222128824341e-07
-5.49716793202782e-06
-1.78361437569607e-05
3.66881780890499e-07
-3.34702439130981e-06
-1.48738601251303e-05
3.62978228860811e-07
-1.79593948834868e-06
-1.35336691500375e-05
-1.90185403491607e-05
-6.28159363644356e-07
8.9858726981441e-07
-1.48322312927552e-05
-1.12347303717026e-06
1.22588481346203e-06
-1.16928109429734e-05
-1.45807590247176e-06
1.56294169836298e-06
-6.74836397145495e-06
-1.05021438238022e-06
1.18280888889583e-06
-2.43712286752476e-06
-5.17143242576791e-07
3.99202822633832e-07
5.24886151477087e-07
-2.97708164815868e-08
1.01102904903681e-07
7.98997079635582e-08
-4.48464988060719e-08
2.19305938460809e-06
-1.96798335928174e-07
7.1291972225223e-08
2.02694536808307e-06
-3.37080725042982e-07
1.16636729510863e-07
1.83353162205805e-06
-2.98793092119949e-07
1.63698377807396e-07
1.32123979308359e-06
-2.87957478931034e-07
1.69548350011344e-07
-4.06366170366892e-07
-6.70618167788647e-07
3.69985217961829e-07
-6.13995886581932e-06
-8.23607882760214e-07
4.69476297840488e-07
-1.34446985762031e-05
1.1522804517479e-06
-1.7467376457263e-06
-1.42658315327113e-06
1.27383880640431e-06
-4.1730142183942e-06
-1.95894155794859e-06
2.52071984665908e-06
-7.1017482697565e-06
-3.55789773378407e-06
-6.72253028042267e-07
4.61209599858572e-07
1.34367936857622e-07
-6.65526274119506e-07
8.53862206736686e-07
3.15066083402718e-07
-7.66736304173633e-07
4.96758436751404e-07
-2.16578269517602e-06
1.23486890471301e-06
-9.38287374842857e-06
-2.49354734868875e-06
1.86186062156961e-06
-1.08996160882673e-05
-3.9804477090978e-06
2.40093572020888e-06
-1.2665217748236e-05
-5.27093285601758e-06
6.3016924542544e-07
-1.27867446229659e-06
-7.9664195245562e-06
-1.06567743996049e-05
-5.22126189750927e-06
3.79959182024899e-06
-4.49416469341465e-06
-3.41599850400717e-06
2.59268770575187e-06
-5.69801350122782e-07
-1.45951578055102e-06
8.12562527131407e-07
1.17662363984207e-06
-4.17304160324123e-07
1.62458002947068e-07
-1.50753602850516e-05
2.6462941041306e-06
-4.78426856740004e-06
3.1038436171009e-06
-4.49250769160504e-06
-2.33515462166347e-05
2.1393693254855e-06
-8.31757437409494e-06
-2.25377996388962e-05
7.10480898385286e-07
-7.68127768865347e-06
-1.94950567432307e-05
2.2539024532152e-07
-5.27015662018835e-06
-1.61383625388724e-05
2.69040825361745e-07
-2.98058983518745e-06
-1.39582570640693e-05
3.59630839984701e-07
-1.58998073423073e-06
-1.31269722657559e-05
-2.02888151714029e-05
-1.1484805040139e-06
8.19957826090773e-07
-1.31653121339328e-05
-6.30335883877815e-07
5.03751981076473e-07
-1.45226392968019e-05
-1.76125865798716e-06
1.24270769582111e-06
-9.24820897790252e-06
-1.77268148774262e-06
1.31022787511138e-06
-4.46806283267344e-06
-1.12858897406462e-06
5.00860808467694e-07
-2.46765553563238e-07
-2.99574018196225e-07
7.86945749313485e-08
1.50487006118985e-06
5.92855446640152e-08
-3.19762015944429e-08
1.2326438409511e-07
-7.58214779535562e-08
2.6708838077183e-06
-1.12361064847718e-07
-8.15174765163188e-08
2.45823324568878e-06
-1.99653555682745e-07
-6.38945289077258e-08
2.4071331734284e-06
-1.86712865742626e-07
-5.86204436092449e-08
2.24256348993765e-06
-1.38354031028131e-07
-6.78207003848315e-08
1.69695857592295e-06
-1.32109800967007e-07
-3.38977504630319e-08
1.29613595002033e-07
-5.02505030544646e-07
1.66652536931777e-07
-5.33465552584518e-06
-7.075813587118e-07
4.39192231273483e-07
-1.31763231097982e-05
5.96546574396023e-07
4.38538442444731e-07
-1.11810183325646e-06
1.47383978439081e-06
-2.51578234616319e-06
-2.67817240251126e-06
5.91687184939505e-07
-1.1784879787829e-06
-2.38167672561474e-07
6.23818219916237e-07
-2.91869856916363e-06
-1.40998779571492e-06
1.45744736609275e-06
-5.54066329817741e-06
-3.11554232617766e-06
2.4645263234604e-06
-9.15431255505877e-06
-5.12385830880054e-06
-4.32548667257643e-07
1.43447482471134e-06
1.26434552853291e-07
-3.82996365540621e-07
1.76778177280454e-07
6.98981644595769e-07
-4.23394162634384e-07
1.6845060362409e-06
3.09342334994971e-08
-4.54676333028948e-07
2.21013523261648e-07
-1.43407823698291e-06
7.62315012687006e-07
-2.19205518740591e-06
-8.96277447105007e-06
1.31794469188327e-06
-1.05636957947507e-05
-3.92197119036958e-06
1.60055876359302e-06
-1.2057071543563e-05
-5.47856667486947e-06
1.55556170272502e-06
-1.37029668258276e-05
-6.05944735141963e-06
3.97403832326451e-07
-1.03836498007455e-06
-7.46836817754836e-06
-1.38605986021413e-05
-6.39408115505852e-06
3.15709076035196e-06
-6.81979008222313e-06
-5.0592542522886e-06
3.01447886724375e-06
-1.8395316263905e-06
-2.67805392438508e-06
1.18274452944739e-06
8.56132787736397e-07
-9.48727244850825e-07
2.41112933080838e-07
1.84585996382043e-06
-2.52718583198933e-07
-3.81663530280405e-08
-1.31986949257082e-05
1.47659772551862e-06
-3.12367780885169e-06
5.69248103990371e-06
-6.13245293047907e-06
-2.4341438667526e-05
3.79592097632718e-06
-1.02882113840889e-05
-2.51768580451414e-05
8.73744981778243e-07
-1.04307823135778e-05
-2.06619754975399e-05
1.49435759185351e-08
-7.7130237396417e-06
-1.70670631699306e-05
1.72962837257126e-07
-4.55452264285891e-06
-1.47373805317071e-05
3.15477418494633e-07
-2.48778891156503e-06
-1.33759390383185e-05
3.92766803596219e-07
-1.33834879960858e-06
-1.28890077353502e-05
-1.7391195959833e-05
5.72671694302104e-07
-1.18346148337853e-05
-1.03434808002567e-06
4.06290600922746e-07
-1.49627910787062e-05
-9.69950888159898e-07
7.343115772626e-07
-1.28254009194189e-05
-2.30873303339692e-06
9.31006042262867e-07
-7.80510036282711e-06
-2.1587247357597e-06
6.64241716694068e-07
-1.98919795719248e-06
-8.89135137278165e-07
1.3121676703224e-07
1.07281476288313e-06
-1.54848039664808e-07
-3.62173421066153e-08
2.09960168830412e-06
1.23192030366738e-07
-8.09144783454624e-08
1.28662549440831e-07
-9.84947178965231e-08
2.81281616432786e-06
-2.12643941032388e-08
-1.1055118199712e-07
2.72118174896642e-06
-1.31571850936428e-07
-1.49190555368454e-07
2.67510361641897e-06
-1.23869873333019e-07
-1.57151147592537e-07
2.62953478494743e-06
-8.22910445431259e-08
-1.7058416130324e-07
2.42761459735182e-06
-3.31540684150916e-08
-1.68249439436496e-07
1.86445810897206e-06
-3.80668289359375e-08
-9.13012463421949e-08
4.25626308674905e-07
-3.35103765499344e-07
1.13000375006261e-07
-4.67338328313575e-06
-6.03794479162268e-07
4.35629030900663e-07
-1.30081739212493e-05
1.33777845023546e-06
1.95745465546671e-07
-7.77819017491649e-07
1.57726239148533e-06
7.1227480029749e-08
-7.77184588325265e-07
-1.56290042064217e-07
6.44759526325826e-07
-1.97221290311742e-06
7.69990047038e-07
-1.00478632872201e-06
-2.00197485214527e-06
1.72737880166795e-06
-4.36827822836532e-06
-4.39246840501732e-06
2.51737557065256e-07
-7.25822198417574e-07
4.76748736441339e-07
3.0806233878085e-07
-2.02407386387638e-06
-8.9505230306024e-07
7.78739723157355e-07
-4.00394397747052e-06
-2.40745803391819e-06
1.49647913050511e-06
-7.26446842042225e-06
-4.90121999719388e-06
2.03251039941398e-06
-1.22421732751581e-05
-7.21917345940418e-06
-2.34261253220101e-07
1.76068091173789e-06
2.53717756478616e-09
-3.00797256597627e-07
2.03543785021102e-06
-4.75670697791322e-08
-1.63880761104564e-07
3.72953548051488e-08
1.01341408194326e-06
-2.94746972164609e-07
2.14042006405329e-06
-1.0044003043061e-07
-2.29649729318474e-07
1.18421819840962e-07
-9.63533437563109e-07
9.1514125848436e-07
-3.43943656351832e-06
-1.00584742777023e-05
5.12137293600249e-07
-1.75600011420228e-06
-8.44180707573458e-06
1.27155262316228e-06
-1.14037585111465e-05
-5.83182100793836e-06
1.00796311633115e-06
-1.26782168191541e-05
-6.63747322753116e-06
3.09367672201986e-07
-1.25165708796909e-05
3.08736346778628e-07
-7.73290980748038e-07
-6.94618271069377e-06
-1.71490623272075e-05
-5.03066542455003e-06
2.29941705671566e-06
-1.07427545755268e-05
-6.822858543162e-06
2.83806657404583e-06
-4.21658090028436e-06
-4.88901714382161e-06
1.63696289764108e-06
-1.53291253539812e-07
-2.03201117249135e-06
4.30159998016433e-07
1.7056126072474e-06
-6.4837215599961e-07
3.99081955494288e-09
2.25191977581982e-06
-1.16002913281617e-07
-9.57369107714719e-08
-1.65140667030173e-06
-8.47022323136862e-06
1.89235437961394e-06
-2.5416148214519e-05
-8.83080284155685e-06
-2.61065274991662e-05
2.14511371557197e-06
-1.67664001180615e-05
-2.0986383215217e-05
-4.17400810612066e-08
-1.11008747738343e-05
-1.72323426901777e-05
8.67848109800628e-08
-6.55027401775166e-06
-1.51580672493132e-05
2.89636124550907e-07
-3.63229418870669e-06
-1.38825091322277e-05
3.96718039285044e-07
-1.99571618868933e-06
-1.31153157782451e-05
4.42547257466326e-07
-1.11025659330325e-06
-1.28251275749532e-05
-1.54770385865589e-05
3.41686806209619e-07
-1.60836288719494e-05
-1.10669978393483e-06
2.15768254651212e-07
-1.59316921080434e-05
-1.80730607399093e-06
5.31673706530335e-07
-1.08454236476597e-05
-2.57852339764215e-06
5.84289271108124e-07
-5.17792693671251e-06
-1.93409430896035e-06
2.82254026521485e-07
-1.79969130630165e-07
-6.57021902765589e-07
1.54134236262237e-08
1.76886321080621e-06
-6.36661058790259e-08
-7.28890204206446e-08
2.36794715781303e-06
1.38127475980128e-07
-1.05338653403012e-07
1.27824944005064e-07
-1.20346369495443e-07
2.8442201505275e-06
6.92660806606952e-09
-1.22966469188023e-07
2.81830785535653e-06
-7.59078562451579e-08
-1.61944563148369e-07
2.80984636636024e-06
-8.61345434627585e-08
-1.9161543142703e-07
2.79570213972844e-06
-5.2760275933378e-08
-2.06372892127562e-07
2.71808002499306e-06
-4.4447609896444e-09
-2.09741427441509e-07
2.47354630508087e-06
3.43564922712637e-08
-1.75421241825952e-07
1.91421612218952e-06
2.69431225467475e-08
-7.28535191963497e-08
5.84527674931764e-07
-2.06518815594113e-07
1.19560706447391e-07
-4.15081932999023e-06
-5.04149907047609e-07
4.49069322427706e-07
-1.29531099234175e-05
4.51803812883947e-08
-4.51515189696735e-07
1.7615958733783e-06
2.06060128749516e-06
-5.67860103142918e-07
-2.05160117858971e-08
9.23004922797466e-07
3.15252167991689e-07
-1.40233148344926e-06
2.14143362403709e-06
-8.31477799961504e-08
-5.76171144254797e-07
1.04861893761776e-06
1.7885335258104e-07
-1.51314401718938e-06
-1.62003719302401e-06
8.91670828146735e-07
-3.73299169075547e-06
3.68030199062566e-07
-2.86113233577398e-08
-1.29125417720198e-06
9.23540296433963e-07
-2.23354252709021e-06
-3.5636955642912e-06
1.81514753144887e-06
-7.99474100856153e-06
-6.92307883088717e-06
9.14442094281977e-08
-3.53164570861127e-07
8.82642479681542e-07
1.89640043498248e-07
-1.43820981815423e-06
-4.93029781451361e-07
4.4473099264313e-07
-2.86624684180196e-06
-1.56232755549295e-06
9.097341084866e-07
-5.21666784153225e-06
-4.09338156703661e-06
1.36456257951782e-06
-9.97817038270002e-06
-7.5217527234393e-06
1.58123099427302e-06
-1.67080117305619e-05
-8.93211202985941e-06
-6.94524849044449e-08
-5.35228638150252e-08
1.91649719755659e-06
-1.60692039903189e-07
2.2355248904547e-06
-8.96240383507043e-08
-2.23459434939493e-07
2.35681734757898e-06
-1.26637274204697e-07
-8.42281984962018e-09
-1.74058071246541e-09
1.17634127719015e-06
-1.97498102757529e-07
2.41046188688131e-06
-1.37385100974918e-07
-6.82524344759811e-08
1.02846047154625e-07
-6.62463999904907e-07
1.06231003544046e-06
-1.07289092903898e-05
-5.08979100843063e-06
6.85836504158569e-07
-2.69621138602238e-06
-9.51447114401018e-06
4.1083717603014e-07
-1.30968021632447e-06
-7.91955749291193e-06
1.20350801971669e-06
-1.14130501108624e-05
-8.34217869587109e-06
-1.10562576828255e-06
-1.21512781006631e-05
2.8821062900284e-07
-5.37958483623664e-07
-6.46043303292348e-06
-1.76145704362487e-05
-6.31737197465073e-06
1.16614552590156e-06
-1.58395472787679e-05
-7.15466728645473e-06
2.53903726057451e-06
-7.97185460183165e-06
-6.99228043092841e-06
2.06777690455555e-06
-2.1818078981733e-06
-4.18032581666629e-06
7.89196304016403e-07
9.75744310365779e-07
-1.50138289264651e-06
1.27490161303227e-07
2.18583414548414e-06
-4.43594367999649e-07
-8.53709775613994e-08
2.45710038748571e-06
-5.80822534951733e-08
-1.19873506254981e-07
8.15933755822253e-07
-2.28709558738363e-05
5.99157060382943e-07
-3.48462102620061e-05
-2.64897249012851e-05
-1.57459000853019e-05
-5.6699237924673e-07
-1.65826872457623e-05
-1.49375381911155e-05
1.0215213031726e-08
-8.87714665879327e-06
-1.49156688101802e-05
2.89187226237275e-07
-4.98705963498737e-06
-1.40924878170957e-05
4.23911277495649e-07
-2.76614570442989e-06
-1.35359965909282e-05
4.86943784862458e-07
-1.5893452149221e-06
-1.3123187139106e-05
4.90012635431737e-07
-9.12876705083187e-07
-1.29064537761648e-05
-1.66873107176949e-05
1.96453433985438e-07
-1.81187928939047e-05
-8.83610922119102e-07
-7.10544598001468e-08
-1.4675519258283e-05
-1.87236715832047e-06
2.70195075418897e-07
-8.94800649776066e-06
-2.69146758349221e-06
5.62620736919322e-07
-3.0338267611506e-06
-1.67031445252942e-06
1.44672295210641e-07
6.90377413693818e-07
-5.11907161857943e-07
-4.10675017075167e-08
2.14830460966778e-06
-8.93933624346691e-09
-1.04002200862302e-07
2.50796091237187e-06
1.5259928402224e-07
-1.25869446055571e-07
1.49387359431195e-07
-1.12878652678895e-07
2.98568151071763e-06
1.74140721322774e-08
-1.44954619128201e-07
2.84879806951941e-06
-4.84104732673029e-08
-1.5545745645757e-07
2.86023340775299e-06
-5.80800591332859e-08
-1.85907985704206e-07
2.86221896390127e-06
-3.41038301356952e-08
-2.04692296312868e-07
2.82812272678987e-06
7.40904621670694e-09
-2.08788812978021e-07
2.70971489038887e-06
4.80903192012433e-08
-1.90267171159868e-07
2.44029687445595e-06
7.72887435781765e-08
-1.33017570402111e-07
1.89708499089027e-06
6.87086394895444e-08
-2.63757985263488e-08
6.61746551833082e-07
-1.11872979878256e-07
1.4599703202933e-07
-3.73589221181884e-06
-4.19265035201823e-07
4.5211472673162e-07
-1.29859772237656e-05
-6.86027115167993e-08
2.33560569722792e-06
-3.21908013011789e-07
1.25829301747774e-07
1.53560845192609e-06
-8.21892046712597e-07
-1.98496183890346e-08
-1.67453343938245e-07
1.97088782799619e-06
1.82019474931023e-06
-1.0756951047622e-06
5.1545241873645e-08
2.45671901189145e-06
-4.42241286900273e-07
-1.17004181387021e-07
1.26152163028788e-07
4.54476678227634e-07
-2.6793959364402e-06
2.47473380199492e-06
-1.3755696683246e-07
-4.31968650901223e-07
1.77337961771272e-06
-1.0238785895888e-08
-1.18468096929382e-06
-9.12451617503737e-08
3.75421317217659e-07
-3.08740449404139e-06
-4.69327254710514e-06
1.24132530436197e-06
-6.43770662105025e-06
1.87484820546038e-07
-6.53041707511109e-07
5.28516762767325e-07
4.90222475926108e-07
-7.51913679434113e-07
-2.35332028370464e-06
1.10700598212528e-06
-4.71188303871944e-06
-6.58891835885778e-06
1.85585638966643e-06
-1.34599884886555e-05
-9.57728749669406e-06
4.59332840453202e-08
-8.14858233855276e-08
1.09939968436929e-06
1.6834119263937e-07
-1.06045510563226e-06
-2.03521680919676e-07
3.18460745843262e-07
-2.11703584030175e-06
-8.74877968684447e-07
6.08606408694765e-07
-3.70809789773318e-06
-2.61718373610767e-06
1.13480512498751e-06
-6.77434779018661e-06
-7.22844484264401e-06
1.0164404683145e-06
-1.39393736363961e-05
-1.24124223131932e-05
2.13721409059288e-06
-1.66468656153241e-05
-1.01411679808195e-05
-3.04692337016347e-08
-9.54306433743157e-08
2.3153015819518e-06
4.95413565456644e-08
-5.31436968481748e-08
1.96643781125825e-06
-1.18036316752254e-07
2.47839518319607e-06
-1.27274260235123e-07
-1.68216388097927e-07
2.54066197162262e-06
-1.4670073185451e-07
9.50072157088268e-08
1.49028617223834e-08
1.24655457359897e-06
-1.43344197411537e-07
2.55900869568727e-06
-1.44351374563226e-07
4.20496511496566e-08
1.23960803618183e-07
-4.71569044232652e-07
9.00841221939935e-07
-1.0192464721995e-05
-3.84432115273663e-06
1.31047311246666e-06
-1.06756038733748e-05
-7.12749509312894e-06
5.75161418533065e-07
-1.97302270645133e-06
-9.00238695509986e-06
3.81584557649966e-07
-9.22158105319178e-07
-7.43002049227216e-06
1.42459769216747e-06
-9.201877879274e-06
-1.3283112046102e-05
2.94276818137408e-07
-3.49379190387419e-07
-6.02722089557887e-06
-2.35478832341211e-05
1.35898580854432e-06
-1.98228543625266e-05
-5.68814586566301e-06
1.40356720484685e-06
-1.3936081763069e-05
-7.27772612893506e-06
2.08500159155135e-06
-5.84802777688524e-06
-6.73748500696747e-06
1.52497263302016e-06
-7.58638825958429e-07
-3.36148656956419e-06
3.74144782410197e-07
1.57693414478365e-06
-1.17614768027763e-06
-2.64875116575231e-08
2.45832555382069e-06
-3.31528883720511e-07
-1.21926602007585e-07
2.56973981975784e-06
-1.93384895449456e-08
-1.44889379049915e-07
2.49293470654051e-06
-2.97965266799767e-05
-5.06189594828319e-06
1.84452362835072e-06
-3.16288855354619e-05
-2.19418986808409e-05
-8.41995791476299e-06
-1.69023404373517e-06
-1.92780366412705e-05
-1.13602615766673e-05
-6.30038596560552e-08
-1.04600515425116e-05
-1.32916204750101e-05
3.38305009646138e-07
-6.37991990389951e-06
-1.3861136949136e-05
4.75942721150995e-07
-3.61457372911428e-06
-1.37200096848484e-05
5.4943750298188e-07
-2.10011392927259e-06
-1.35746683285721e-05
5.62800391170031e-07
-1.27766221249633e-06
-1.33212143791732e-05
5.17700250872412e-07
-7.50650505648482e-07
-1.30928035046076e-05
-1.73663536404952e-05
8.70484377069302e-08
-1.25071992572037e-05
-7.22827281539052e-07
1.07871054153066e-07
-1.31468534385987e-05
-2.09411660337627e-06
3.11516467701282e-07
-8.46562158435609e-06
-2.98051308638181e-06
3.87173354062235e-07
-1.78677170790289e-06
-1.43538006625734e-06
6.16107563225704e-08
1.35983994804943e-06
-3.76335065621424e-07
-6.89737476497862e-08
2.40506912014984e-06
3.79258516044075e-08
-1.22846127008937e-07
2.68006376642592e-06
1.85891901655032e-07
-1.18118473618397e-07
1.55254999099269e-07
-9.83379572560173e-08
3.02226762182847e-06
5.81305233649439e-08
-1.22624146205848e-07
2.90522309681936e-06
-3.18232933025757e-08
-1.50063308628179e-07
2.87522918436453e-06
-4.11428722960924e-08
-1.6445863132297e-07
2.8799269326823e-06
-2.12905790975375e-08
-1.81259059821022e-07
2.86007465894693e-06
1.37887907996444e-08
-1.85841794951918e-07
2.79138370054528e-06
5.02093109433229e-08
-1.73855528929775e-07
2.64309005026368e-06
8.12593188940764e-08
-1.38300191447066e-07
2.36431621488464e-06
1.01494369772805e-07
-7.34275785844181e-08
1.84263811614845e-06
9.30073452830766e-08
2.56062695247904e-08
6.8912361132095e-07
-4.68961821348691e-08
1.72575528887476e-07
-3.40947667763482e-06
-3.46565766434884e-07
4.42661415343321e-07
-1.30820885659547e-05
-2.49386795554199e-07
2.6370393434317e-06
-1.17568770381813e-07
-7.52521557884541e-08
2.45295180449817e-06
-9.24158203923712e-08
-1.3639385528675e-08
2.2408795667485e-06
-6.03102432661544e-07
4.86463358741483e-08
1.83460119188248e-06
-3.27603756967838e-07
2.22637280871929e-07
1.10458812200164e-06
-1.5326979368093e-06
-2.0532410036331e-08
3.88957889917991e-08
2.04798875783956e-06
1.25469506913503e-06
-2.1319696948684e-06
1.64866766407349e-07
2.31971207485156e-06
-8.68777341965702e-07
-6.82187658699467e-08
2.69077575238892e-06
-3.543138732007e-07
-1.46936706220139e-07
-1.60851665925593e-06
6.96928365088788e-07
-5.35400832702525e-06
2.6737887671247e-06
-1.51684666690012e-07
-3.44664911811327e-07
2.2001496562922e-06
-1.0169133481821e-07
-9.63701338772463e-07
8.35836459619289e-07
1.31585803642836e-07
-2.53527584574347e-06
-2.65424126571606e-06
7.92132825487294e-07
-5.8319617812899e-06
-1.08839971422931e-05
1.58539829034434e-06
-9.21936355429963e-06
3.03809008320203e-07
-1.15523387502183e-06
5.50858922987974e-08
1.37211385109635e-07
-2.01459580129107e-07
8.29730141033021e-07
7.1039035955437e-07
-1.95393490438355e-06
-4.68679761800153e-06
1.47198138528734e-06
-9.00896634198363e-06
-1.14954439855103e-05
1.52529592250501e-06
-2.04516366074671e-05
-8.33673284994094e-06
6.18873519876709e-08
9.9366295713753e-08
1.20148166724892e-06
1.87082310697909e-07
-8.17385383049308e-07
-6.53297739650919e-09
2.88595899764303e-07
-1.63511457397894e-06
-3.98889439978184e-07
4.85624384196251e-07
-2.75913170052622e-06
-1.40864291456647e-06
9.01124217138132e-07
-4.57129733400774e-06
-4.41087073113652e-06
1.67937319851799e-06
-8.10950381265807e-06
-1.33130334596245e-05
1.64858062262674e-06
-1.00031242518781e-05
-2.03469910471339e-05
1.6452909274244e-06
-3.28416006936919e-05
-1.12316176572315e-08
-1.05056012846564e-07
2.51303182567893e-06
6.66495204524891e-08
-6.92566291819826e-08
2.31496501453456e-06
1.2734784728637e-07
-1.80564335141452e-08
1.95330074425967e-06
-8.96808491252519e-08
2.61115972489615e-06
-1.29387286380191e-07
-1.32674534621344e-07
2.64426112371861e-06
-1.40420148096981e-07
1.5876091276817e-07
5.47396070516566e-08
1.25849961199393e-06
-1.04777623317754e-07
2.64446065460116e-06
-1.4611085695e-07
1.13411191734082e-07
1.55085037902322e-07
-3.52792031611171e-07
7.81315304790724e-07
-2.72001914957208e-06
-9.75086180161065e-06
1.215429050068e-06
-1.03442176513411e-05
-5.05286923053353e-06
1.78535042322639e-06
-9.61563214809271e-06
-8.56210065162444e-06
5.29026536155526e-07
-1.38144193787118e-06
-8.52270091077392e-06
3.80933716522163e-07
-6.14694288220625e-07
-6.98285252533372e-06
3.61816353483232e-06
-6.55467341902774e-06
-1.25529404899756e-05
3.04352253744821e-07
-2.08839020642175e-07
-5.65194617861892e-06
-2.27216174363288e-05
1.02591366157501e-06
-1.53513427973486e-05
-4.9271213048349e-06
1.89696252624479e-06
-1.21351314154169e-05
-7.40581522148288e-06
1.74157267150039e-06
-4.58513290949598e-06
-6.5944612397938e-06
8.77474568618891e-07
8.38157316329076e-08
-2.80978269159463e-06
1.37217314180714e-07
2.00965325481235e-06
-9.32367075682503e-07
-7.54377649161582e-08
2.63708493242524e-06
-2.32494369434157e-07
-1.40772901367349e-07
2.67676323215754e-06
4.22554008405347e-08
-1.25706634508624e-07
3.50467565898266e-06
-3.11643395206974e-05
-4.16763820970817e-06
1.4502466348379e-06
-2.89114814278546e-05
-1.96972958466338e-05
-6.69590910899335e-06
2.8373421934695e-07
-3.7618077934032e-07
-1.74993259537847e-05
-9.82240554560628e-06
9.89203494145778e-08
-1.0696716448375e-05
-1.12225063893301e-05
4.81187199112412e-07
-7.20050977543955e-06
-1.29522511668891e-05
5.73442203366263e-07
-4.44413981069961e-06
-1.36050510846953e-05
6.24990917858508e-07
-2.62662737995917e-06
-1.38184872965984e-05
6.50353032740007e-07
-1.6289582923283e-06
-1.38737218802406e-05
6.06449031432171e-07
-1.04049689216659e-06
-1.36378256743226e-05
5.19631447323562e-07
-6.18243537680391e-07
-1.33407822204593e-05
-1.50950596192753e-05
-2.38589441001805e-08
-1.58066617045607e-05
-9.49900116196183e-07
1.64193584607794e-07
-1.21109553523343e-05
-2.28715515914974e-06
3.37181217606036e-07
-6.98644386124336e-06
-2.84208039204949e-06
2.79507863474714e-07
-8.07555869634725e-07
-1.1972189022457e-06
2.3882156169467e-08
1.70470093033784e-06
-2.86546904465499e-07
-9.34583396826261e-08
2.59678256341449e-06
8.76061765391421e-08
-1.19171927673171e-07
2.76665626541893e-06
2.02611425191664e-07
-1.02365456304289e-07
1.52156569241066e-07
-9.07079034912922e-08
2.99151171009773e-06
7.41647126223736e-08
-9.58611941569356e-08
2.92134286674432e-06
-9.48266595980332e-09
-1.22895722458619e-07
2.88754018607823e-06
-2.92257803458842e-08
-1.38791657437053e-07
2.87878846796756e-06
-1.2858675134323e-08
-1.48254619904828e-07
2.85977953311937e-06
1.73826126208431e-08
-1.51291975629633e-07
2.80813851202053e-06
4.91707347055117e-08
-1.42538372296183e-07
2.71089192645335e-06
7.7307241405583e-08
-1.18188929733177e-07
2.54566840249541e-06
9.89499138700851e-08
-7.5965513040008e-08
2.26790075320115e-06
1.14709302647273e-07
-1.29560530568839e-08
1.7664875138924e-06
1.05550284889939e-07
7.1943306537296e-08
6.84199946322557e-07
-2.90763824509774e-09
1.91570432205724e-07
-3.1554885095212e-06
-2.8621214980343e-07
4.24467718721903e-07
-1.32203570565538e-05
-7.78603474125839e-08
-4.82991502635074e-07
2.61755655191688e-06
-5.71772819279325e-08
-9.24745737683545e-08
2.70020261379264e-06
-2.01789064615114e-07
2.81075851889811e-06
-1.25439284409961e-07
-4.65064031900891e-08
2.46879027532348e-06
7.67755857910181e-08
-2.52482940699794e-08
2.42020203634879e-06
-1.97842197908746e-07
6.47108555014957e-08
1.95171476065693e-06
-1.14216061672861e-06
4.66686119401001e-08
1.9560698053074e-06
7.96216487376821e-09
1.34806263188742e-07
1.54646657751894e-06
-6.00473801823453e-07
3.99767261968033e-07
3.11517836486284e-07
-3.14206442247499e-06
1.69521178186519e-08
1.72326053567645e-07
2.04793746927735e-06
-2.28371018506809e-08
-4.45708999803412e-06
3.90706289290849e-07
1.8829236804289e-06
-1.7712616482693e-06
2.03127298217723e-08
2.62066924072162e-06
-7.26912271488818e-07
-1.16113646764962e-07
2.83244494095326e-06
-2.94156502829307e-07
-1.4409927215385e-07
-5.49464053299173e-06
1.19856936972585e-06
-1.04699074087563e-05
2.79948836897303e-06
-1.49387934641372e-07
-2.69461030513302e-07
2.48464132672889e-06
-1.21335101305413e-07
-7.99979682838577e-07
1.40712371254424e-06
1.10151513314762e-11
-2.15539237092073e-06
-1.41943176520663e-06
4.28946488701927e-07
-5.33775501281156e-06
-8.62021041823806e-06
1.27518507819119e-06
-9.0366922547754e-06
-1.78320591653698e-05
2.15340440929822e-06
-7.36689500183846e-06
5.00001221800859e-07