/*--------------------------------*- C++ -*----------------------------------*\
  =========                 |
  \\      /  F ield         | OpenFOAM: The Open Source CFD Toolbox
   \\    /   O peration     | Website:  https://openfoam.org
    \\  /    A nd           | Version:  12
     \\/     M anipulation  |
\*---------------------------------------------------------------------------*/
/*   Windows 32 and 64 bit porting by blueCAPE: http://www.bluecape.com.pt   *\
|  Based on Windows porting (2.0.x v4) by Symscape: http://www.symscape.com   |
\*---------------------------------------------------------------------------*/
FoamFile
{
    format      ascii;
    class       surfaceScalarField;
    location    "0";
    object      phi;
}
// * * * * * * * * * * * * * * * * * * * * * * * * * * * * * * * * * * * * * //

dimensions      [0 3 -1 0 0 0 0];

internalField   nonuniform List<scalar> 
28828
(
4.02921630384549e-07
-1.44698456708772e-09
-2.1233186322289e-10
4.03242394368933e-07
1.22367809900193e-11
-3.33323900950386e-10
4.10623278763087e-07
-2.90379201010616e-09
-2.50002597973096e-10
4.23157966420663e-07
-1.54589230547082e-09
-3.95308630844783e-10
4.02226788692207e-07
1.48485760429092e-09
-4.69518729320368e-10
4.10959076671196e-07
1.51412699770537e-11
-3.38980753167282e-10
4.23486220845974e-07
2.00195684285836e-11
-6.81924242795648e-10
4.30790871922724e-07
-4.45535290063312e-09
-2.32535592625363e-10
4.47210654684471e-07
-3.15154046104562e-09
-4.85525081902646e-10
4.59345113811253e-07
-1.68688947141466e-09
-5.68278937030311e-10
3.99879690348777e-07
2.96149038973277e-09
-6.14621232788697e-10
4.09930114839499e-07
2.94375295938949e-09
-4.3023721296425e-10
4.22414565040792e-07
1.59048575814741e-09
-9.88700477094987e-10
4.31149189792459e-07
-4.52752973519461e-12
-3.38908899350844e-10
4.47565388758918e-07
2.70482260548092e-11
-7.01067399822599e-10
4.59688602911993e-07
4.06267566036534e-11
-1.06642786282866e-09
4.55035608252234e-07
-6.16148875412789e-09
-1.59015970063617e-10
4.80546318469071e-07
-4.89898447707865e-09
-4.75685595124082e-10
4.98878891664493e-07
-3.52763059283904e-09
-6.67053118546957e-10
4.97109490559635e-07
-1.82043678640441e-09
-7.43372774344121e-10
3.96209703240358e-07
4.43677688252556e-09
-7.67101830094048e-10
4.07542556735201e-07
5.88122494834775e-09
-5.32482274869494e-10
4.19945789864665e-07
3.16727909938003e-09
-1.31344227650022e-09
4.3008290185205e-07
4.46188414263e-09
-4.52225275196938e-10
4.46438095256474e-07
3.22520215337538e-09
-9.3801776333006e-10
4.58513582422526e-07
1.77692337888382e-09
-1.59107697115672e-09
4.55424352765144e-07
-6.68195063080717e-11
-3.26666572483572e-10
4.80941639136729e-07
1.05152379963579e-11
-7.17944610514058e-10
4.9926051986451e-07
6.53372784905987e-11
-1.10772642245314e-09
4.97461712257752e-07
6.89821244337129e-11
-1.48808180523863e-09
4.75648006321998e-07
-7.96149329613591e-09
-1.70726029386143e-10
5.0971217483732e-07
-6.80241114646381e-09
-3.90396865824538e-10
5.48579842627209e-07
-5.56990379081518e-09
-6.79823606354237e-10
5.44874685640924e-07
-3.85293872881379e-09
-8.23534091123365e-10
5.22664698074594e-07
-1.90128941392702e-09
-9.14496772876494e-10
3.91229225424444e-07
5.90396071409746e-09
-9.23860608714612e-10
4.03805827588511e-07
8.81593704438862e-09
-6.42856970292217e-10
4.16088820880307e-07
4.74262170136219e-09
-1.65316758345741e-09
4.2758880247975e-07
8.95587843152627e-09
-5.8107555161362e-10
4.43834126946053e-07
6.43073476630312e-09
-1.19242904377284e-09
4.55823556161625e-07
3.51969798124329e-09
-2.14358072716458e-09
4.54331938788875e-07
6.06206884522385e-09
-5.08435337627262e-10
4.79743035447839e-07
4.95022681162223e-09
-9.79237458908142e-10
4.97991361235929e-07
3.68404406542705e-09
-1.5766018892866e-09
4.96168761372425e-07
1.97159368319329e-09
-2.27044205325023e-09
4.76082455795003e-07
-1.96247086961632e-10
-3.05482332495007e-10
5.10155307712442e-07
-5.79755637665496e-11
-7.01732698042967e-10
5.49018712375969e-07
5.501564228299e-11
-1.14699013263919e-09
5.45269643780196e-07
1.22658450130492e-10
-1.55703993653328e-09
5.23004303611973e-07
1.06646444105118e-10
-1.93505714134703e-09
4.90124903302526e-07
-9.87851374224873e-09
-1.60225157570308e-10
5.2992968821592e-07
-8.87499169175758e-09
-3.19649778491167e-10
5.86112512620994e-07
-7.79688410392537e-09
-6.16363602195356e-10
6.04856173371405e-07
-6.13551451752236e-09
-8.62010956430075e-10
5.72472863873831e-07
-4.03380013223819e-09
-9.64621078936386e-10
5.30955985654311e-07
-1.9171290420017e-09
-1.06225583285035e-09
3.8495358492606e-07
7.355753445409e-09
-1.08041399357643e-09
3.9873227211511e-07
1.17346707296551e-08
-7.5756176537748e-10
4.10858006598013e-07
6.30953924619846e-09
-2.00298592880913e-09
4.23676195064414e-07
1.3447006606482e-08
-7.1892392158443e-10
4.39762235381353e-07
9.63289937244881e-09
-1.46165950189759e-09
4.51629877679669e-07
5.26155671067455e-09
-2.72152600662841e-09
4.51718127815816e-07
1.22118865040821e-08
-6.42767627337937e-10
4.76957043767354e-07
9.89149853459607e-09
-1.25635754426336e-09
4.95076537189803e-07
7.31382762170907e-09
-2.07225376558099e-09
4.93237255797312e-07
3.88210242232391e-09
-3.09475872133879e-09
4.74973984399453e-07
7.61620934482002e-09
-4.46432933645775e-10
5.08896367073818e-07
6.72273665212729e-09
-1.02262596089165e-09
5.47639813441489e-07
5.72219447643601e-09
-1.63912433064135e-09
5.43862244558138e-07
4.13204417060644e-09
-2.33032144423241e-09
5.21609159126324e-07
2.12849456012944e-09
-3.00454070072482e-09
4.90613645556076e-07
-4.09486163596283e-10
-2.7624625335107e-10
5.3042037435773e-07
-2.02434199716387e-10
-6.52060918618299e-10
5.86616413235984e-07
-2.15439490303591e-11
-1.12918373156321e-09
6.05320404820095e-07
1.29761022852698e-10
-1.61859036018498e-09
5.728540423842e-07
1.96720706832824e-10
-2.02882234730569e-09
5.31259430175138e-07
1.64219435513051e-10
-2.40331818470482e-09
5.00499838645957e-07
-1.19352757253456e-08
-1.29382510631786e-10
5.43670802997814e-07
-1.10662962938301e-08
-2.89358367284607e-10
6.07822691803796e-07
-1.01758644862515e-08
-5.43919686165772e-10
6.47980296748551e-07
-8.61292063461721e-09
-8.37196131962209e-10
6.35773816669293e-07
-6.43481986609937e-09
-1.01978118202545e-09
5.81450302554069e-07
-4.07501126850229e-09
-1.07469053011279e-09
5.24854369573437e-07
-1.87770830745064e-09
-1.16018331494132e-09
3.77398744353999e-07
8.78480638133266e-09
-1.23010990685959e-09
3.92336769468387e-07
1.46232770140816e-08
-8.72402660400511e-10
4.04271278878056e-07
7.86015296647477e-09
-2.35419503391942e-09
4.18357378029754e-07
1.79137085206096e-08
-8.60830562227242e-10
4.34236880936088e-07
1.28177888406245e-08
-1.74101809391559e-09
4.45950704072021e-07
6.99505837656716e-09
-3.31935110054762e-09
4.4759901014217e-07
1.83601061332468e-08
-7.94770565209626e-10
4.72590591683522e-07
1.48282891468611e-08
-1.54858288300191e-09
4.90527859670316e-07
1.09406006482357e-08
-2.59267775772246e-09
4.88682735245654e-07
5.79388660821022e-09
-3.96148853424177e-09
4.72274586036075e-07
1.54566153777405e-08
-5.46251363270872e-10
5.05963036032125e-07
1.3524606226362e-08
-1.34344368543308e-09
5.44449102507766e-07
1.14032897202033e-08
-2.15594296557581e-09
5.4065873316988e-07
8.15772727815412e-09
-3.14519956685319e-09
5.18489864025913e-07
4.16218587540739e-09
-4.13840249857595e-09
4.89517174082419e-07
9.11972610170348e-09
-4.0803894255786e-10
5.29148100586117e-07
8.52343412676729e-09
-9.75984387094536e-10
5.85168807233231e-07
7.80799988168244e-09
-1.66210191164386e-09
6.03779913713591e-07
6.44759333952636e-09
-2.41545060085847e-09
5.71338873058387e-07
4.4655312724891e-09
-3.15329745360235e-09
5.29785013351809e-07
2.25891561757948e-09
-3.78987720463694e-09
5.01051390186182e-07
-7.19013937730673e-10
-2.4294787818539e-10
5.44220423265818e-07
-4.41734020128879e-10
-5.87139516935072e-10
6.08392157230176e-07
-1.89597375227965e-10
-1.05412389969816e-09
6.48521857884035e-07
5.43472153103853e-11
-1.59617245544576e-09
6.3622638936624e-07
2.33963519997742e-10
-2.10915379501999e-09
5.81784352846133e-07
3.00723821048794e-10
-2.50002140653019e-09
5.25116555038291e-07
2.17015726701691e-10
-2.88304559908311e-09
5.10011075145363e-07
-1.41452452141364e-08
-9.6360478747255e-11
5.54915387083836e-07
-1.33795792454365e-08
-2.5388074553341e-10
6.21288775883346e-07
-1.26967265670495e-08
-4.91164735320347e-10
6.70787792684849e-07
-1.12451465761064e-08
-7.86909138887204e-10
6.80577413577293e-07
-9.03580762582964e-09
-1.03212801638802e-09
6.45522488389455e-07
-6.50596371064083e-09
-1.13344034191595e-09
5.77919360506956e-07
-4.02963768811005e-09
-1.12648355534085e-09
5.09671925426934e-07
-1.80685915509623e-09
-1.18325027594447e-09
3.68578403588294e-07
1.01831067074189e-08
-1.36276798363011e-09
3.84635231591957e-07
1.7467089855757e-08
-9.80881803032355e-10
3.96347345421503e-07
9.38663636866435e-09
-2.69294882704975e-09
4.11647320771594e-07
2.23352579982673e-08
-1.00223386221257e-09
4.27276029729583e-07
1.59702208609548e-08
-2.02191989710685e-09
4.38809791058107e-07
8.7116792216038e-09
-3.92531592750442e-09
4.41988724420124e-07
2.44762219103245e-08
-9.52639316619244e-10
4.66657969323117e-07
1.97391875574925e-08
-1.85005192758188e-09
4.84364270746673e-07
1.45492014788434e-08
-3.13203820102946e-09
4.82530189471683e-07
7.6992221889007e-09
-4.86645769197589e-09
4.67991273565585e-07
2.32872073030407e-08
-6.4440229389477e-10
5.01347882796984e-07
2.0331374804269e-08
-1.68329526885883e-09
5.39458400738399e-07
1.70772008819361e-08
-2.69512287012566e-09
5.35675944841541e-07
1.21843696842642e-08
-4.00091995838464e-09
5.13667293028919e-07
6.20213191006634e-09
-5.34151259848691e-09
4.8677076500668e-07
1.86749298055258e-08
-4.72823203281668e-10
5.26141079596898e-07
1.72912607788615e-08
-1.30658402588455e-09
5.8178258186149e-07
1.56569178237734e-08
-2.21139004699555e-09
6.00243243017277e-07
1.27893370513209e-08
-3.25142897238238e-09
5.67936950938949e-07
8.75747870536927e-09
-4.33912843298495e-09
5.26553402655176e-07
4.37084170889109e-09
-5.27823402343984e-09
4.99980005231147e-07
1.05737493540301e-08
-3.83701226933096e-10
5.42977948226307e-07
1.0256617767087e-08
-9.00020533435106e-10
6.06928733411287e-07
9.86786775179528e-09
-1.57354600312423e-09
6.46907777364707e-07
8.79138455803816e-09
-2.39277981746471e-09
6.34571489333685e-07
6.96274578048e-09
-3.25882464349237e-09
5.8018981001316e-07
4.72077603670537e-09
-4.02153937219675e-09
5.23569572855581e-07
2.40487201065685e-09
-4.64835937835995e-09
5.1063924705025e-07
-1.1368170338265e-09
-2.11358522195763e-10
5.55540947030772e-07
-7.89411391967504e-10
-5.21609622234594e-10
6.21933353584788e-07
-4.67913849879827e-10
-9.54193374783365e-10
6.71409830048098e-07
-1.30046056639075e-10
-1.49245718333131e-09
6.81112659252175e-07
1.7500359076815e-10
-2.07317951924994e-09
6.45926819212061e-07
3.7931322452569e-10
-2.59276522291003e-09
5.78166058796676e-07
4.45157191025651e-10
-2.97524840041588e-09
5.09891836377893e-07
2.86168060586283e-10
-3.38942522005284e-09
5.20914456360524e-07
-1.65153655945714e-08
-7.66099922102079e-11
5.66404237908155e-07
-1.58377756984827e-08
-2.12520241910807e-10
6.33342819591533e-07
-1.53560227772295e-08
-4.4582913469017e-10
6.84367568785656e-07
-1.40187665941023e-08
-7.32270725191057e-10
7.03651301164663e-07
-1.17931011529852e-08
-1.00247757346979e-09
6.90715967613867e-07
-9.14145889110522e-09
-1.17722115054199e-09
6.43908624957413e-07
-6.46261684728893e-09
-1.18088851560755e-09
5.67670520804088e-07
-3.9501733803212e-09
-1.08423288165426e-09
4.90022752179194e-07
-1.72963405478369e-09
-1.10006392283597e-09
3.58501250671358e-07
-1.46518286454724e-09
1.15424147676874e-08
3.7564132174824e-07
2.02505924399445e-08
-1.07363429737878e-09
3.87102837915031e-07
1.0879654722413e-08
-2.9979521754846e-09
4.03561565031652e-07
2.66898428793685e-08
-1.13728023493105e-09
4.18898816213805e-07
1.90734356991298e-08
-2.29072324754782e-09
4.30233240163917e-07
1.0401665484262e-08
-4.51824841096161e-09
4.34901990148338e-07
3.05310037004547e-08
-1.10953150685117e-09
4.59176877380664e-07
2.4600306914712e-08
-2.15173929970412e-09
4.76609799839152e-07
1.81221427740254e-08
-3.6783675154208e-09
4.74813447004878e-07
9.58866357969645e-09
-5.79761691254447e-09
4.62140190515963e-07
3.10757958560424e-08
-7.49087637997089e-10
4.95063718204928e-07
2.71027135283193e-08
-2.03269215004933e-09
5.32686236868954e-07
2.2721339168006e-08
-3.25068013950284e-09
5.28940268844576e-07
1.61947271101451e-08
-4.89247057261414e-09
5.07175439933795e-07
8.240880958837e-09
-6.61594357409645e-09
4.82385728271615e-07
2.8219864974229e-08
-5.48297260710189e-10
5.21367581234589e-07
2.60437659776072e-08
-1.58424483694331e-09
5.76468529942011e-07
2.34844639122505e-08
-2.77764269589696e-09
5.94726994375393e-07
1.91287318243002e-08
-4.12427446450224e-09
5.62670611409823e-07
1.30577573461315e-08
-5.59098345718138e-09
5.21588979834411e-07
6.49914590650007e-09
-6.87677157625476e-09
4.97219387220397e-07
2.18945152548837e-08
-4.59816037676083e-10
5.3992673686877e-07
2.09870403113775e-08
-1.11814094682221e-09
6.0343949614117e-07
1.99383597457993e-08
-2.09971361526728e-09
6.43148947995126e-07
1.75582276467263e-08
-3.22245962404217e-09
6.30819750402683e-07
1.37244231396697e-08
-4.46737831386723e-09
5.76674083013873e-07
9.172198210883e-09
-5.6253730125147e-09
5.20276142173563e-07
4.57571978743265e-09
-6.56112654350899e-09
5.09600660651022e-07
1.19669417006167e-08
-3.55520214507509e-10
5.54329416689964e-07
1.18933056359742e-08
-8.10105302568169e-10
6.20474641181529e-07
1.18474825934947e-08
-1.42220625189831e-09
6.69788936735958e-07
1.10676875799789e-08
-2.23035924622494e-09
6.79386171360635e-07
9.46490212921077e-09
-3.16969262017761e-09
6.44190785481615e-07
7.33329987702437e-09
-4.13630815682437e-09
5.76507535277714e-07
4.98759164198099e-09
-4.94656890105617e-09
5.08266098034886e-07
2.61515437541788e-09
-5.6382635053962e-09
5.21637079168737e-07
-1.67479335083877e-09
-1.85460558068384e-10
5.67122720605381e-07
-1.25802483593409e-09
-4.61947019271007e-10
6.34074742351399e-07
-8.70572508570418e-10
-8.51745666258564e-10
6.85074624709282e-07
-4.39307639513344e-10
-1.35275861252259e-09
7.04274841022012e-07
-9.16226737177306e-12
-1.93250093350895e-09
6.91207014671632e-07
3.46906915713344e-10
-2.53238284313035e-09
6.44234914300911e-07
5.76029573651944e-10
-3.05039831318104e-09
5.67805598088394e-07
6.19448995692571e-10
-3.44382390553072e-09
4.9019687923438e-07
3.77641780567779e-10
-3.94145603644719e-09
5.34175747521258e-07
-1.9058204762133e-08
-6.79423254120466e-11
5.79574723677435e-07
-1.84619588317571e-08
-1.894901683736e-10
6.46862558869361e-07
-1.81679331564131e-08
-4.0367152818481e-10
6.9739280109028e-07
-1.69447746577893e-08
-6.73141192557573e-10
7.17568622177332e-07
-1.4695651216579e-08
-9.44566211592431e-10
7.14034703721915e-07
-1.19342516260799e-08
-1.17265469461227e-09
6.90465609786269e-07
-9.1052614952884e-09
-1.25881832793376e-09
6.37694067721952e-07
-6.38862034406417e-09
-1.13066880824195e-09
5.55368242257222e-07
-3.88271884981085e-09
-9.18188164601463e-10
4.68964400587225e-07
-1.69198596680629e-09
-8.53396669680126e-10
3.47169317546311e-07
-1.52322959526637e-09
1.28552201313333e-08
3.76548548549411e-07
-3.24030419124972e-09
1.2329509277423e-08
3.65364023139586e-07
-1.13835528174283e-09
2.29581713788079e-08
3.94114258335653e-07
3.09550729721156e-08
-1.25713693143085e-09
4.09122096728139e-07
2.21096804786834e-08
-2.52689791465828e-09
4.2024589026949e-07
1.20530648887838e-08
-5.06368753847666e-09
4.2635432289803e-07
3.64954555216866e-08
-1.25798967547492e-09
4.50166569001628e-07
2.93864842619169e-08
-2.44010771811618e-09
4.67291329476942e-07
2.16393688164368e-08
-4.21008835287253e-09
4.65573801456762e-07
1.14503025028777e-08
-6.72903771752828e-09
4.54736165464016e-07
3.87879779308049e-08
-8.53159476687634e-10
4.87127786672817e-07
3.38068417079833e-08
-2.38038960138801e-09
5.24156357485885e-07
2.83094246813713e-08
-3.80949986889244e-09
5.20486637745428e-07
2.01694050359961e-08
-5.80576753333307e-09
4.99064130444365e-07
1.02696482594449e-08
-7.95616002653412e-09
4.76375776634003e-07
3.7715292999203e-08
-6.29948334703146e-10
5.14848991609166e-07
3.47493754254589e-08
-1.87744562919621e-09
5.69242464390668e-07
3.12701589581828e-08
-3.35569821633986e-09
5.87258077595593e-07
2.54395190446159e-08
-5.02682411796542e-09
5.55577091793534e-07
1.73498022068018e-08
-6.9080934965549e-09
5.14934677654185e-07
8.63917615378174e-09
-8.60109737711416e-09
4.92777859052257e-07
3.32049901411473e-08
-5.44161558658007e-10
5.35060900188084e-07
3.17065427728782e-08
-1.34610472448058e-09
5.97955683300141e-07
3.00063418685106e-08
-2.62315297861453e-09
6.37262408653107e-07
2.63178564957658e-08
-4.08095372535367e-09
6.24994065579666e-07
2.04929947966041e-08
-5.73452661601087e-09
5.71266368981293e-07
1.36455445915408e-08
-7.3302420137497e-09
5.15254781878802e-07
6.78510479183147e-09
-8.64092211997805e-09
5.06840355567004e-07
2.51072858516059e-08
-4.5318883215029e-10
5.51264423562855e-07
2.46064005754086e-08
-1.01486418066966e-09
6.16962932793497e-07
2.42034612194805e-08
-1.87238374510195e-09
6.65938880579248e-07
2.22999493671302e-08
-2.99207260540623e-09
6.75409521240672e-07
1.87953944489013e-08
-4.31737107773919e-09
6.40325161989497e-07
1.43311705043196e-08
-5.7613097583278e-09
5.72921529845211e-07
9.56894567427077e-09
-7.03302346228935e-09
5.0492446192487e-07
4.86470240847481e-09
-8.08468221613268e-09
5.20640315026911e-07
1.32825208643899e-08
-3.19568805631257e-10
5.65944430361184e-07
1.34291387810609e-08
-7.14207204703627e-10
6.32657574570542e-07
1.37154088351168e-08
-1.2621476346426e-09
6.83482283482581e-07
1.3236557050941e-08
-2.00014884389451e-09
7.02551437463223e-07
1.18668740511673e-08
-2.91019705386957e-09
6.89404272165585e-07
9.92405575038392e-09
-3.95883882595882e-09
6.42426264926593e-07
7.70042306042903e-09
-5.0413446243772e-09
5.66077190092133e-07
5.34438910871844e-09
-5.94808129663463e-09
4.88480651149127e-07
2.98072815767588e-09
-6.90321059273027e-09
5.35014024036318e-07
-2.34708609745886e-09
-1.66613634426256e-10
5.80400002019795e-07
-1.86047781015207e-09
-4.08848244953123e-10
6.47694655539648e-07
-1.41068992421719e-09
-7.54739958026206e-10
6.98196019912627e-07
-8.87175569826666e-10
-1.20789337858023e-09
7.18285871852896e-07
-3.3229326072766e-10
-1.7474927625636e-09
7.14621963059525e-07
1.72996788722435e-10
-2.34636875416345e-09
6.90888956862637e-07
5.73731169941092e-10
-2.95387491055855e-09
6.3790778695307e-07
8.26355404953327e-10
-3.47136570145096e-09
5.55374096842398e-07
8.19274837210047e-10
-3.89155091776338e-09
4.69033741388797e-07
5.3400584074358e-10
-4.54520409221771e-09
5.49954273542846e-07
-2.17867973594649e-08
-7.46493061080271e-11
5.95053391022576e-07
-2.12721477808245e-08
-1.84097620604687e-10
6.62675100532135e-07
-2.11645809452389e-08
-3.68607188571488e-10
7.12705872163818e-07
-2.00470159800628e-08
-6.11455671566908e-10
7.31515274870403e-07
-1.77630003198159e-08
-8.71600020825062e-10
7.2839099856442e-07
-1.4877543718215e-08
-1.11716051962345e-09
7.14702611073973e-07
-1.18969579529328e-08
-1.28562659315463e-09
6.87033729981106e-07
-9.0314503309186e-09
-1.2572500486444e-09
6.31417853905123e-07
-6.33617467790273e-09
-9.75577894790231e-10
5.4810558058423e-07
-3.89943693514824e-09
-6.20324613572333e-10
4.45170782963894e-07
-1.82526165058878e-09
-2.95490206036589e-10
3.34580106933093e-07
-1.52579458044887e-09
1.41149531373887e-08
3.64685728573116e-07
-3.38717484031585e-09
1.37268020342443e-08
3.53806245591105e-07
-1.16255872453254e-09
2.55755799985411e-08
4.08864766790757e-07
-5.51093221046095e-09
1.36518188460727e-08
3.97956680232218e-07
-2.70364703601653e-09
2.50602136489944e-08
3.83315341988358e-07
-1.35126201236571e-09
3.51083215774619e-08
4.16360278287417e-07
4.23394198952976e-08
-1.39048400621645e-09
4.39643799433071e-07
3.40712702437229e-08
-2.6961089590474e-09
4.56433076693533e-07
2.50778544919862e-08
-4.69353694300166e-09
4.54855218239023e-07
1.32675110654933e-08
-7.61267619923925e-09
4.45794752309887e-07
4.63873117012568e-08
-9.50659986631578e-10
4.77558871531321e-07
4.04110430657468e-08
-2.71392758484489e-09
5.13894895938258e-07
3.3811051998418e-08
-4.35059827652581e-09
5.10356179130047e-07
2.40836231697854e-08
-6.71321609879113e-09
4.89401180339884e-07
1.22743408825219e-08
-9.34060831978688e-09
4.68754315909375e-07
4.71201281936055e-08
-7.10911341701483e-10
5.06602022717142e-07
4.33698744559832e-08
-2.16971641690173e-09
5.60125275271594e-07
3.89787999943356e-08
-3.93328750095935e-09
5.77869922021633e-07
3.16909428207399e-08
-5.94355199485442e-09
5.46707593562423e-07
2.16129043895552e-08
-8.2799902246237e-09
5.06659813545323e-07
1.07857117550374e-08
-1.04672734154811e-08
4.866669338533e-07
4.44598203437581e-08
-6.33915053879633e-10
5.28394866201154e-07
4.23711414042912e-08
-1.58588677242157e-09
5.90478582205703e-07
4.00231601690213e-08
-3.15376187142726e-09
6.29271799726967e-07
3.50349040628208e-08
-4.96102667513561e-09
6.17131634438126e-07
2.72402966354412e-08
-7.05521621902492e-09
5.64015800946408e-07
1.81279883894725e-08
-9.14660012014358e-09
5.08550022547198e-07
9.03460634323749e-09
-1.09312980920073e-08
5.02359654421011e-07
3.82350144583962e-08
-5.49722078236549e-10
5.46338748806759e-07
3.73113415039605e-08
-1.22401234363555e-09
6.11396432792338e-07
3.65496614099076e-08
-2.32373347700104e-09
6.59878263244961e-07
3.35259810495285e-08
-3.77160768116051e-09
6.69203948001349e-07
2.81289978130902e-08
-5.5121747676705e-09
6.34359259491774e-07
2.13501699098247e-08
-7.47385969308899e-09
5.67446796987661e-07
1.41952495350027e-08
-9.26626955822145e-09
4.99866118727358e-07
7.19389371573355e-09
-1.07768735112871e-08
5.17879985884309e-07
2.82815630594883e-08
-4.14485505960069e-10
5.62878101768085e-07
2.81603511672842e-08
-9.41291131442339e-10
6.29137512684051e-07
2.83613295566265e-08
-1.65337112119987e-09
6.79611554133463e-07
2.69582976113791e-08
-2.66062680419347e-09
6.98493324346206e-07
2.37893376473785e-08
-3.92834511743498e-09
6.85319899973013e-07
1.95536608692924e-08
-5.45583915681045e-09
6.3848656384303e-07
1.48833080550413e-08
-7.13640240507487e-09
5.62425816614326e-07
1.00922344274847e-08
-8.60953990500756e-09
4.85071834893429e-07
5.38555268682463e-09
-1.0061853799606e-08
5.34062850880376e-07
1.4495584144929e-08
-2.62485053122689e-10
5.79269307690745e-07
1.48606032646707e-08
-6.21286803138794e-10
6.46340251662986e-07
1.54639297163981e-08
-1.10944408386409e-09
6.96651218226868e-07
1.52823654574973e-08
-1.76447943675701e-09
7.16603132431887e-07
1.41371559203895e-08
-2.58886553180718e-09
7.12831960509822e-07
1.23829363790659e-08
-3.58009822497064e-09
6.89016836430155e-07
1.03535893094805e-08
-4.74080718387927e-09
6.36020028341091e-07
8.16173205443496e-09
-5.97164287877126e-09
5.53554483144599e-07
5.85395175737209e-09
-7.00233028180898e-09
4.67252911197113e-07
3.33113778812958e-09
-8.45401056599099e-09
5.50923203763712e-07
-3.16677929327702e-09
-1.49736209413875e-10
5.95997339948621e-07
-2.61003643894778e-09
-3.61379658801035e-10
6.63623879493908e-07
-2.10324333111044e-09
-6.65694987097286e-10
7.13620444869044e-07
-1.48823302079879e-09
-1.06893033311654e-09
7.32338256260262e-07
-8.06599053767523e-10
-1.55708888102934e-09
7.2908226194738e-07
-1.53956778116879e-10
-2.11212453891453e-09
7.15232327686841e-07
4.10868618511444e-10
-2.71356207737325e-09
6.87368656258635e-07
8.57012458478428e-10
-3.31976499249354e-09
6.31488769374392e-07
1.13139927733209e-09
-3.85459684350485e-09
5.47988853517527e-07
1.07735595468589e-09
-4.31818477205372e-09
4.45078324380038e-07
7.59423169097407e-10
-5.21227145165582e-09
5.68106822023503e-07
-2.47271272133693e-08
-8.01028550759626e-11
6.13005695833454e-07
-2.4300559780879e-08
-1.81741960997434e-10
6.81033812409393e-07
-2.438047815904e-08
-3.40089760969305e-10
7.30718734409538e-07
-2.33570479261071e-08
-5.52499785487924e-10
7.4807423086861e-07
-2.10236724368824e-08
-7.93368679974405e-10
7.42957039033629e-07
-1.79939966112017e-08
-1.035570756251e-09
7.29658096053818e-07
-1.48434833578395e-08
-1.24672457798652e-09
7.12835752074074e-07
-1.18182515428259e-08
-1.33975968817131e-09
6.84004293830647e-07
-8.96896775853032e-09
-1.17745121303599e-09
6.32892431669426e-07
-6.35273125923104e-09
-7.61266591624619e-10
5.65311385101732e-07
-4.09307413789451e-09
-2.82984142905433e-10
3.98486510716881e-07
-2.41550638219944e-09
3.20732246851494e-07
-1.4698397708539e-09
1.53175233057055e-08
3.51508209585629e-07
-3.41249605326185e-09
1.50641685365659e-08
3.40966714177236e-07
-1.13510489981331e-09
2.80895870318523e-08
3.96090186160805e-07
-5.79554014692787e-09
1.51829944183059e-08
3.85404659927774e-07
-2.79110290231369e-09
2.79074887830013e-08
3.71170826206306e-07
-1.40848616581476e-09
3.91287262432624e-08
4.42693615156638e-07
-8.36636700863072e-09
1.50171352727331e-08
4.44050541039404e-07
-5.08124852421517e-09
2.8412076734668e-08
4.2762049595069e-07
-2.89542593680995e-09
3.86278417262168e-08
4.04932008067175e-07
-1.49659593997592e-09
4.80333748834153e-08
4.35331377366622e-07
5.38371160903449e-08
-1.0342471031065e-09
4.66374012035231e-07
4.68818353941426e-08
-3.01611127076202e-09
5.01925029623571e-07
3.91934148082216e-08
-4.84180575278571e-09
4.98589244341578e-07
2.79067823055871e-08
-7.56583749027282e-09
4.78272009453664e-07
1.42318371617888e-08
-1.07152829230798e-08
4.59536914413254e-07
5.63916814484925e-08
-7.87031220990389e-10
4.96645157435279e-07
5.18646965499113e-08
-2.44735896403331e-09
5.49141903796689e-07
4.65708833712989e-08
-4.4902407724482e-09
5.66601516579737e-07
3.78472114517797e-08
-6.845687837825e-09
5.36128146946607e-07
2.58184056349837e-08
-9.67776767772525e-09
4.96872308741267e-07
1.29271680149491e-08
-1.24803009282338e-08
4.78898292116131e-07
5.56109084266565e-08
-7.22290589974944e-10
5.19943069474689e-07
5.29342773471649e-08
-1.82391291767862e-09
5.81025107644274e-07
4.99429427277859e-08
-3.68075121455396e-09
6.19207091488834e-07
4.36687926205193e-08
-5.84672653223916e-09
6.07281363732063e-07
3.39332720217702e-08
-8.41399865092365e-09
5.54995429902168e-07
2.26015325589053e-08
-1.10757215998428e-08
5.00247364517526e-07
1.13348910656322e-08
-1.34996737078798e-08
4.96166584506431e-07
5.13021083785614e-08
-6.4948383100911e-10
5.3956416068597e-07
4.99542524256298e-08
-1.44258641391509e-09
6.03779058410347e-07
4.88337153943338e-08
-2.77935511871673e-09
6.51625642122641e-07
4.46976316498849e-08
-4.56405105910867e-09
6.60803106912808e-07
3.7426055198054e-08
-6.74610022820591e-09
6.2634289965808e-07
2.83642237326944e-08
-9.27530816281354e-09
5.60144047278132e-07
1.88635220006146e-08
-1.16729295346776e-08
4.93118291729739e-07
9.626252315159e-09
-1.38100199410833e-08
5.13357839095965e-07
4.32754941648829e-08
-5.18644567742314e-10
5.57900903379939e-07
4.28739430887385e-08
-1.13576225350139e-09
6.23510826638352e-07
4.29941269456978e-08
-2.04253539316175e-09
6.73473500510868e-07
4.06716754305708e-08
-3.33226363765561e-09
6.92119224352026e-07
3.57114922077497e-08
-4.98079940985954e-09
6.78980297121592e-07
2.91996213253959e-08
-7.02275598189423e-09
6.32451751921527e-07
2.2108940985675e-08
-9.35334232924309e-09
5.56897157941311e-07
1.49225578691206e-08
-1.14668281539092e-08
4.79936190673975e-07
7.94949112610981e-09
-1.35910338412705e-08
5.31306659796594e-07
3.13997887861846e-08
-3.62455432115413e-10
5.7619354595385e-07
3.16469692168454e-08
-8.25671594947582e-10
6.42812854382254e-07
3.2403129041314e-08
-1.45623389496971e-09
6.92775494406295e-07
3.15088485097095e-08
-2.32871286874391e-09
7.12531362469446e-07
2.86599949860648e-08
-3.45988837103282e-09
7.08676319790343e-07
2.46506802585858e-08
-4.86999115858177e-09
6.84862294431143e-07
2.0201049257615e-08
-6.61932197765447e-09
6.32004051641366e-07
1.5571866588447e-08
-8.60042915188724e-09
5.49818126895836e-07
1.08645435165089e-08
-1.03524967302456e-08
4.63726767061941e-07
6.11014957689095e-09
-1.26462698317123e-08
5.50035926251029e-07
1.56009468172507e-08
-2.18582332386073e-10
5.94934770034298e-07
1.61921527839179e-08
-5.32261041383042e-10
6.62336528640681e-07
1.70949536833026e-08
-9.65898572335074e-10
7.12134539533431e-07
1.72007207703747e-08
-1.54306463459562e-09
7.30709901486927e-07
1.6272322760218e-08
-2.27235737626397e-09
7.27343396932919e-07
1.46859894850857e-08
-3.15395484295425e-09
7.13382921581811e-07
1.28346854771066e-08
-4.21265257113611e-09
6.85415683955865e-07
1.086719360829e-08
-5.49410495191651e-09
6.29502742083581e-07
8.77169349060185e-09
-6.90416577041904e-09
5.46002379639594e-07
6.53789888099664e-09
-8.22357207196223e-09
4.43209423547116e-07
3.9316465240541e-09
-1.05175355132123e-08
5.69222894168599e-07
-4.149641361151e-09
-1.33649965880679e-10
6.14088991826555e-07
-3.52367115285512e-09
-3.19660846641582e-10
6.82118776987834e-07
-2.96472402494211e-09
-5.85323335827071e-10
7.31762961890236e-07
-2.25870314299394e-09
-9.39968247646937e-10
7.49019356635933e-07
-1.44613237166261e-09
-1.37493560919676e-09
7.4376446723031e-07
-6.43078929102162e-10
-1.87559456850851e-09
7.30304923589655e-07
8.01204313903689e-11
-2.42836641105145e-09
7.13295298986628e-07
6.9994743387619e-10
-3.01632502715511e-09
6.84234088869198e-07
1.1951996907171e-09
-3.61352047290212e-09
6.32815522286533e-07
1.50057552633079e-09
-4.20146276764461e-09
5.65002102656234e-07
1.49594077543747e-09
-4.74627292388807e-09
3.98256610228634e-07
8.58258905224922e-10
-5.84184261345639e-09
5.88478334580527e-07
-2.79097158475496e-08
-7.90763528185758e-11
6.33400861454028e-07
-2.75736687253865e-08
-1.76788197321113e-10
7.02010932041825e-07
-2.78455826122537e-08
-3.14335554374e-10
7.51463523346947e-07
-2.69090053221378e-08
-4.99234185389076e-10
7.6742287345701e-07
-2.45080065455667e-08
-7.16657099487395e-10
7.60159273835844e-07
-2.13129874664814e-08
-9.45218985072558e-10
7.4462207394484e-07
-1.79676876292346e-08
-1.16391467552936e-09
7.28545459084845e-07
-1.47547303412221e-08
-1.33164667894942e-09
7.10988491170956e-07
-1.17398246592596e-08
-1.33532335817873e-09
6.85652960510684e-07
-8.93742701658024e-09
-1.06716435731399e-09
6.58874607913812e-07
-6.44465954196492e-09
-6.23961028581806e-10
7.15705959061222e-07
-4.4474165330503e-09
3.05636376364028e-07
-1.35736016618851e-09
1.64530856662777e-08
3.37011487708774e-07