/*--------------------------------*- C++ -*----------------------------------*\
  =========                 |
  \\      /  F ield         | OpenFOAM: The Open Source CFD Toolbox
   \\    /   O peration     | Website:  https://openfoam.org
    \\  /    A nd           | Version:  12
     \\/     M anipulation  |
\*---------------------------------------------------------------------------*/
/*   Windows 32 and 64 bit porting by blueCAPE: http://www.bluecape.com.pt   *\
|  Based on Windows porting (2.0.x v4) by Symscape: http://www.symscape.com   |
\*---------------------------------------------------------------------------*/
FoamFile
{
    format      ascii;
    class       volVectorField;
    location    "0";
    object      U;
}
// * * * * * * * * * * * * * * * * * * * * * * * * * * * * * * * * * * * * * //

dimensions      [0 1 -1 0 0 0 0];

internalField   nonuniform List<vector> 
10103
(
(4.88137115172023e-08 -4.03448939887686e-07 0.000279389520855218)
(8.30897614400949e-08 2.40070460580907e-09 0.00028007739608856)
(3.86874680594632e-08 -1.25641152398015e-06 0.000280064540789332)
(1.38821317487047e-07 -4.06205975678805e-07 0.000279338947992019)
(1.21208689463658e-07 4.11978268896701e-07 0.000279835923964821)
(8.02487408575943e-08 7.01656044586524e-09 0.000280762597181312)
(2.55426560151751e-07 5.52479810338542e-09 0.000280019256980764)
(3.01383628252681e-08 -2.18570872424709e-06 0.000281568143230262)
(1.26711246891562e-07 -1.25192163492187e-06 0.000280015776051925)
(2.27030110430562e-07 -4.08422201301734e-07 0.000279216297050857)
(1.61554496464633e-07 8.22760936190036e-07 0.000278667417939971)
(1.22540933560509e-07 1.27718301102087e-06 0.000280525435673328)
(3.80921920039312e-07 4.18500227543504e-07 0.00027977325128646)
(7.46356549057901e-08 1.49887603242057e-09 0.000282269948071251)
(2.450293094923e-07 1.2956351071656e-08 0.000280704550580789)
(4.40146757506529e-07 9.49098216043672e-09 0.000279887193082467)
(2.06501265603059e-08 -3.19871993102622e-06 0.000284065714363663)
(1.10635153148169e-07 -2.17579948326864e-06 0.000281525910740847)
(2.18073215508319e-07 -1.25099487960279e-06 0.000279903188076992)
(3.19980129435247e-07 -4.09019949566514e-07 0.000278997622683588)
(2.03618368886943e-07 1.23304852181916e-06 0.000276576379594204)
(1.67570005936328e-07 2.55123962736004e-06 0.000279357605119917)
(5.13127030653847e-07 8.33205584325673e-07 0.000278601824048811)
(1.20884740137513e-07 2.19619119904311e-06 0.000282037746186738)
(3.69212760718927e-07 1.28429685680592e-06 0.00028046201987933)
(6.64875357683735e-07 4.29487437500542e-07 0.000279633625993322)
(6.76236715234032e-08 -2.40866272664458e-08 0.000284770949137892)
(2.29634862918956e-07 9.10664039485335e-09 0.000282226166695476)
(4.25047223684165e-07 2.29891566610236e-08 0.000280578750045712)
(6.39535289510081e-07 1.48918057405559e-08 0.000279657562653398)
(3.00633259926291e-08 -4.27999854076743e-06 0.000287665713342266)
(8.91931215458004e-08 -3.18266139279304e-06 0.000284040597769891)
(2.02268968218157e-07 -2.17194789172575e-06 0.000281425676185555)
(3.12515462635992e-07 -1.2508813394254e-06 0.00027969521997499)
(4.1434604734107e-07 -4.06812470976866e-07 0.000278664034243404)
(2.46667192521572e-07 1.64100937265306e-06 0.000273570061347761)
(2.14308301117959e-07 3.82393676479327e-06 0.000277264248281599)
(6.50677235134187e-07 1.24741211602824e-06 0.000276508793474677)
(1.70827523731016e-07 4.40168234742381e-06 0.000280871547748108)
(5.00238751035477e-07 2.55939324002825e-06 0.000279290994378555)
(9.00842532121988e-07 8.51024045841038e-07 0.000278455823516225)
(1.17703811340857e-07 3.16534428147577e-06 0.000284550661314289)
(3.54670345085808e-07 2.20740043331101e-06 0.000281990261641241)
(6.43839282165056e-07 1.30511720816565e-06 0.000280328858893416)
(9.74772327371838e-07 4.4168302136978e-07 0.00027939257070476)
(6.10441551454518e-08 -8.24223274537686e-08 0.000288394753614752)
(2.10997567301323e-07 -1.63403332793137e-08 0.000284760434958408)
(4.0237482425044e-07 2.43725822485691e-08 0.000282115809029531)
(6.23087931143236e-07 3.87542222664935e-08 0.000280359523428921)
(8.53169957994201e-07 2.29600302978268e-08 0.000279308109038863)
(3.23056550884717e-08 -5.41685785815105e-06 0.000292383208052166)
(8.90020602586282e-08 -4.26931526994829e-06 0.000287655806603164)
(1.83197510539832e-07 -3.1825506716761e-06 0.00028396242612387)
(2.99554782970801e-07 -2.16979919580148e-06 0.000281235947613273)
(4.07900950723645e-07 -1.24693333480545e-06 0.000279369214871087)
(5.01423864279786e-07 -4.03049230232676e-07 0.000278202100559667)
(2.89573319269017e-07 2.04471816731151e-06 0.000269657980154105)
(2.6192465047363e-07 5.08954018532587e-06 0.000274252438251256)
(7.91483130662709e-07 1.65930681805019e-06 0.000273501842511844)
(2.22551681328594e-07 6.60545948711889e-06 0.000278773251709593)
(6.36289494045903e-07 3.83297932240991e-06 0.000277195766643775)
(1.14646807029557e-06 1.27219737266256e-06 0.000276358105765564)
(1.58078320871005e-07 6.36969498458386e-06 0.000283391330197074)
(4.86675601231122e-07 4.4080829779845e-06 0.000280820297758086)
(8.72930485297818e-07 2.59132015695934e-06 0.000279151914120558)
(1.32677573794057e-06 8.70124438331784e-07 0.000278203753037838)
(9.33038151550118e-08 4.13966999345691e-06 0.00028819045429599)
(3.37884240452117e-07 3.16787792363713e-06 0.000284532647219924)
(6.12237146917563e-07 2.23674869820262e-06 0.00028187386735922)
(9.49475230445585e-07 1.33850015795911e-06 0.00028009848665395)
(1.31274728299672e-06 4.55573471164935e-07 0.000279025663875434)
(5.46278862411132e-08 -1.85909586775635e-07 0.000293150321116758)
(1.91169923737896e-07 -7.5496066017572e-08 0.000288393447475001)
(3.73630966625862e-07 2.23795602207673e-09 0.000284680069742755)
(5.9434684278174e-07 4.92032407752779e-08 0.000281917925952325)
(8.34233601899517e-07 6.23476571077867e-08 0.000280017764868829)
(1.07946011984244e-06 3.53174124825085e-08 0.000278823674613375)
(2.83504810671175e-08 -6.62537946930135e-06 0.000298192645938574)
(8.7779695214192e-08 -5.42784345466844e-06 0.000292376575536513)
(1.66873130955627e-07 -4.27142796101923e-06 0.000287599651264596)
(2.8353909096063e-07 -3.17949066503844e-06 0.000283801945714374)
(3.97029587209311e-07 -2.16386435217473e-06 0.000280933108945327)
(4.93908251590847e-07 -1.2384075362762e-06 0.000278913913090219)
(5.71088931317981e-07 -3.98292388526674e-07 0.000277602106515971)
(3.30604158098864e-07 2.44208973773087e-06 0.0002648507969087)
(3.09331053180137e-07 6.34202079541855e-06 0.000270331449085284)
(9.32178422308585e-07 2.06694590853507e-06 0.000269591215824398)
(2.75048673288222e-07 8.79710368589238e-06 0.000275749505071594)
(7.75291925893039e-07 5.09958388243501e-06 0.000274183439781163)
(1.39886413872859e-06 1.69118315384282e-06 0.000273349174477414)
(2.02007583680676e-07 9.57265247258434e-06 0.000281285375422916)
(6.23615198578157e-07 6.60654800100168e-06 0.000278720137045016)
(1.11087989385649e-06 3.8762627502846e-06 0.000277052346177403)
(1.69465930371792e-06 1.29863592639847e-06 0.000276096909803834)
(1.17415358129601e-07 8.37684391015479e-06 0.000287036500935245)
(4.55213160294484e-07 6.35833666363418e-06 0.000283361945149422)
(8.30867983871416e-07 4.45489967162716e-06 0.000280698672463655)
(1.29140833860745e-06 2.64324574852098e-06 0.000278911311742766)
(1.79740276932057e-06 8.90497271836472e-07 0.000277818694930496)
(8.00167227609923e-08 5.07745686231719e-06 0.000292968663258528)
(2.92944065429751e-07 4.14264170450846e-06 0.000288180901815653)
(5.70252926373463e-07 3.20984365458395e-06 0.000284450830227693)
(9.03240996217411e-07 2.2866921931513e-06 0.000281666617234228)
(1.28326395268071e-06 1.38227805802783e-06 0.00027973953309315)
(1.67950227710247e-06 4.76219792918973e-07 0.000278516009113357)
(4.82067547975867e-08 -3.43859896274632e-07 0.00029900999553263)
(1.71070800233265e-07 -1.79331087344995e-07 0.000293149909018173)
(3.40573608862558e-07 -5.58415742133274e-08 0.000288351858341072)
(5.55412299778882e-07 3.35924774823291e-08 0.000284512782882657)
(7.98663646479985e-07 8.59106534934284e-08 0.000281599287759915)
(1.04944792645708e-06 9.65616130155201e-08 0.000279538603235681)
(1.31435055549066e-06 4.69737150056529e-08 0.00027819530444917)
(2.22669669053531e-08 -7.91838147787451e-06 0.000305066662029482)
(7.86527443855746e-08 -6.65001925875315e-06 0.000298179476277769)
(1.56312146849133e-07 -5.42955127580309e-06 0.000292331990347414)
(2.65328370482039e-07 -4.268465927307e-06 0.000287465511344665)
(3.8153571790467e-07 -3.17075759611974e-06 0.000283534087735766)
(4.82624429088314e-07 -2.15200646570566e-06 0.000280504049697971)
(5.60618728473361e-07 -1.22612309711556e-06 0.000278325223337679)
(6.13698684000213e-07 -3.93603394130045e-07 0.000276855591468981)
(3.67191947777485e-07 2.83092386656007e-06 0.000259158589162857)
(3.54851249980855e-07 7.57498156165185e-06 0.000265511691039728)
(1.06741503015437e-06 2.46814451918292e-06 0.000264788614020314)
(3.27209811167849e-07 1.096637463988e-05 0.000271809204541515)
(9.1401111146341e-07 6.35313247154948e-06 0.000270263871093202)
(1.65262588750479e-06 2.10602424240459e-06 0.000269441073026543)
(2.47080076679825e-07 1.27584827554783e-05 0.000278242040324395)
(7.63121178110561e-07 8.79321578741147e-06 0.000275695903730933)
(1.35484587819128e-06 5.15453887874085e-06 0.000274038328594646)
(2.07545819392579e-06 1.72543872866614e-06 0.000273082704059604)
(1.41166267716544e-07 1.2610631312293e-05 0.000284920570094529)
(5.79953045028375e-07 9.54884173361914e-06 0.00028125395736393)
(1.05731584251802e-06 6.67036980023648e-06 0.000278594541475463)
(1.64785766130485e-06 3.94798257128509e-06 0.000276803340092531)
(2.30764149908744e-06 1.32639993560239e-06 0.000275694969620201)
(9.22565980136515e-08 1.03576317151504e-05 0.000291819930804523)
(3.87961028144279e-07 8.37805374846902e-06 0.000287016991496364)
(7.70254490663755e-07 6.42526179239978e-06 0.000283277090086502)
(1.22569169570091e-06 4.53257422044238e-06 0.00028048266512128)
(1.75521319431905e-06 2.70901740548941e-06 0.000278535248423732)
(2.31832892457706e-06 9.20350689625026e-07 0.000277279861210051)
(7.33346976747521e-08 5.97899493647317e-06 0.000298854815792523)
(2.60437551699727e-07 5.10357418316134e-06 0.000292963211403372)
(5.14448826372502e-07 4.18950920243046e-06 0.00028813987236908)
(8.39093335476668e-07 3.27283911180619e-06 0.000284277116060821)
(1.22157486420369e-06 2.35567923101008e-06 0.000281332135221959)
(1.64002176295727e-06 1.44297242354534e-06 0.000279234357548071)
(2.07631975034108e-06 5.11512425882875e-07 0.000277855296712793)
(4.22157478497096e-08 -5.63954277411693e-07 0.000305946269584874)
(1.51719601335721e-07 -3.37556456091982e-07 0.000299004227436214)
(3.06429514464097e-07 -1.6043418407929e-07 0.000293125865400772)
(5.09130983614524e-07 -2.13111994242132e-08 0.000288216240118341)
(7.47579363286426e-07 8.02762786312556e-08 0.000284228908344268)
(1.00422146227002e-06 1.3773489158623e-07 0.000281145261980861)
(1.26416331262642e-06 1.37977437665248e-07 0.000278915770885667)
(1.55729678365217e-06 6.37274725732728e-08 0.000277414433880105)
(1.77832870504159e-08 -9.30413334366974e-06 0.000312998352914325)
(6.56617658579406e-08 -7.94540127626188e-06 0.000305046522630548)
(1.42653969296242e-07 -6.65521634615001e-06 0.000298135182094573)
(2.46661028325581e-07 -5.42557202050502e-06 0.000292217055687289)
(3.61501493324064e-07 -4.25640727490614e-06 0.000287234190791487)
(4.65905559936878e-07 -3.15441166161486e-06 0.000283146281974465)
(5.48101178534257e-07 -2.13637532848359e-06 0.000279943986139662)
(5.99111318665744e-07 -1.21326971756483e-06 0.000277594941734412)
(6.19540799393827e-07 -3.89810542241274e-07 0.000275947264146544)
(3.96009666631978e-07 3.20896759473322e-06 0.000252588876761899)
(3.96154828059392e-07 8.7816247980714e-06 0.000259803068544873)
(1.18910857182114e-06 2.86047333274099e-06 0.000259105237881605)
(3.77642508596962e-07 1.31024761916917e-05 0.000266962329029984)
(1.04740909708062e-06 7.58695924602505e-06 0.000265448337550347)
(1.89864921786507e-06 2.51425512598909e-06 0.000264648005875551)
(2.91829654750518e-07 1.5912246524397e-05 0.000274270275730148)
(9.02048743394543e-07 1.09575634294765e-05 0.000271756752101662)
(1.59963806632569e-06 6.4199799676871e-06 0.000270121338406751)
(2.46262260241162e-06 2.14839130632262e-06 0.00026917642529765)
(1.66178496424162e-07 1.68219254149916e-05 0.000281849544464952)
(7.0768684338557e-07 1.27225680312934e-05 0.000278210192901445)
(1.28878223755076e-06 8.87413589826012e-06 0.000275568954157181)
(2.0157928575776e-06 5.24710772729889e-06 0.000273784781464208)
(2.84188672411439e-06 1.76154439431081e-06 0.000272667948248446)
(1.06618061132221e-07 1.56316369333778e-05 0.000289688208396422)
(4.72020762902253e-07 1.26109448158217e-05 0.000284900727260705)
(9.77482299499884e-07 9.63371237906955e-06 0.000281164473449039)
(1.5604569304146e-06 6.77771520983385e-06 0.000278371464401122)
(2.25040080430312e-06 4.03800383167823e-06 0.000276411749531473)
(2.99770081159842e-06 1.36726201484789e-06 0.000275126291304669)
(8.57787164866239e-08 1.2318561369624e-05 0.000297710723667888)
(3.1782912814118e-07 1.04073475586325e-05 0.000291806221826208)
(6.91034592835938e-07 8.44247821760053e-06 0.000286965559035127)
(1.1328144366852e-06 6.52344980039967e-06 0.00028309742965157)
(1.66498512008836e-06 4.63654050055487e-06 0.000280133168090197)
(2.26191383918581e-06 2.79849780132371e-06 0.000278003329724989)
(2.89649062808881e-06 9.71723496651065e-07 0.00027657322423724)
(6.78590026730305e-08 6.84257762331372e-06 0.000305823272407443)
(2.34195291595282e-07 6.01997039958956e-06 0.000298846444950095)
(4.60518315407061e-07 5.14605530168581e-06 0.000292933906442596)
(7.61237148078421e-07 4.25848491167668e-06 0.000288001660490439)
(1.13247317408323e-06 3.35960385600434e-06 0.000283979719442311)
(1.55594451765344e-06 2.4500183918907e-06 0.000280853842512942)
(2.01542137012634e-06 1.53454804222862e-06 0.000278573626377993)
(2.5148302968113e-06 5.71621810382296e-07 0.000277034017960425)
(3.71981558034871e-08 -8.53385569196991e-07 0.000313952729165854)
(1.34163166556636e-07 -5.5823320190034e-07 0.00030593512487436)
(2.73467710903066e-07 -3.20286150976491e-07 0.000298980343185575)
(4.5997868233696e-07 -1.25628426203752e-07 0.000293013242255502)
(6.85792444315475e-07 3.10971124155883e-08 0.000287969509649411)
(9.37465572520929e-07 1.45317303324999e-07 0.000283817603600449)
(1.20055359237107e-06 2.07898362748657e-07 0.000280554291171428)
(1.47507640401959e-06 1.91163675783697e-07 0.000278142298314029)
(1.817357042721e-06 8.99589156718157e-08 0.0002764633831756)
(1.52190798689336e-08 -1.07904339253631e-05 0.000322002936945836)
(5.70929032392682e-08 -9.32628896480239e-06 0.000312976122123925)
(1.26708930204048e-07 -7.9517583067532e-06 0.000304999269973351)
(2.26352597216654e-07 -6.64844799079278e-06 0.000298032546770546)
(3.37473493773459e-07 -5.40966383749605e-06 0.00029201778394968)
(4.43466962679555e-07 -4.23489526242257e-06 0.00028689353356226)
(5.31266546029332e-07 -3.13424029035749e-06 0.000282638150350865)
(5.87669112679695e-07 -2.12161192428659e-06 0.000279256317233692)
(6.00632404922741e-07 -1.20310858738629e-06 0.000276708036873893)
(5.76365771021376e-07 -3.914701684535e-07 0.000274845543683372)
(4.13429387752265e-07 3.57413286569772e-06 0.000245145038138582)
(1.28644929451577e-06 3.2413950979568e-06 0.000252549353747387)
(4.30221503010161e-07 9.95509179419884e-06 0.000253213157804951)
(4.24282045291629e-07 1.51941573756508e-05 0.000261218535986748)
(1.16814917920246e-06 8.79386663713432e-06 0.000259747682496231)
(2.12242325748203e-06 2.91305049492949e-06 0.000258984097290078)
(3.34661928795138e-07 1.90186521447904e-05 0.000269379569578225)
(1.03596244415938e-06 1.30882813248026e-05 0.000266913311361914)
(1.83662566452229e-06 7.66540102616256e-06 0.000265314860137358)
(2.84360327568545e-06 2.56481018110461e-06 0.000264397097340843)
(1.91031594887866e-07 2.09915008690069e-05 0.000277832791931056)
(8.34630177614946e-07 1.58644416386062e-05 0.000274238919993476)
(1.5202677478625e-06 1.10557921993833e-05 0.000271632357577733)
(2.38860726198937e-06 6.53423869370138e-06 0.00026987019575831)
(3.39438920866576e-06 2.19395432427372e-06 0.000268757787950779)
(1.22169477198266e-07 2.08778578253165e-05 0.000286581035800582)
(5.60405230902525e-07 1.68213246196099e-05 0.000281829343959482)
(1.18885988950948e-06 1.28249686932196e-05 0.000278119301313347)
(1.9044406668697e-06 9.01259258451082e-06 0.000275342498605717)
(2.7667647801085e-06 5.36390647256633e-06 0.000273382081464402)
(3.71997201474099e-06 1.81569768235915e-06 0.000272071319128942)
(9.98741446845726e-08 1.86517772955587e-05 0.000295560522989079)
(3.7930403309536e-07 1.57039031079916e-05 0.000289672808372269)
(8.56486097563905e-07 1.26899594621421e-05 0.000284837956529856)
(1.43573003843225e-06 9.77175062145048e-06 0.000280979622009555)
(2.1280681753367e-06 6.91983756411166e-06 0.000278008993472456)
(2.919550159003e-06 4.16049237987384e-06 0.000275852833607395)
(3.77873199388038e-06 1.43891560253335e-06 0.000274370012325972)
(8.43220876791256e-08 1.42688242623437e-05 0.000304684510381355)
(2.87327494371303e-07 1.23949784483709e-05 0.000297694954700403)
(5.92234648691394e-07 1.04655764036494e-05 0.000291761976131236)
(1.01944452146068e-06 8.55201048922334e-06 0.000286826671830485)
(1.53435187823941e-06 6.65371252556375e-06 0.000282788181272856)
(2.13660530148286e-06 4.77682827558581e-06 0.000279631183048009)
(2.80937394714694e-06 2.93404227803377e-06 0.000277304750617208)
(3.55378247636321e-06 1.06101264192926e-06 0.000275686145043872)
(6.15886201219705e-08 7.66171983330742e-06 0.000313870178341831)
(2.08937203229184e-07 6.8832685030753e-06 0.000305811018248624)
(4.09268273181983e-07 6.05897330933682e-06 0.00029881869623206)
(6.79629749931912e-07 5.21270228529851e-06 0.000292823810015577)
(1.02605676474708e-06 4.35347543684119e-06 0.00028774437998565)
(1.43449485651594e-06 3.47655279385577e-06 0.000283547331929567)
(1.8953346371547e-06 2.5826780696065e-06 0.000280229330331552)
(2.40490941629868e-06 1.6765095037155e-06 0.000277750768042674)
(3.03723680500128e-06 6.80712243645267e-07 0.000276033885227229)
(3.34517609688654e-08 -1.21999546636222e-06 0.000323045031981162)
(1.18833491869975e-07 -8.48618694454354e-07 0.00031394016775061)
(2.42830373432602e-07 -5.42593196450541e-07 0.000305905420119533)
(4.11133113818116e-07 -2.86711186460797e-07 0.000298879730297461)
(6.1929608045915e-07 -7.14405796438529e-08 0.0002927990747662)
(8.57207431327093e-07 1.03570061748641e-07 0.000287607857458597)
(1.11461996356802e-06 2.31161713358009e-07 0.000283282893452274)
(1.3794219692222e-06 2.96658748816638e-07 0.000279825981540344)
(1.67362181296756e-06 2.61697096137883e-07 0.000277205660361363)
(2.10888631519835e-06 1.46829023412463e-07 0.000275294779721123)
(1.58524657239414e-08 -1.2386098492083e-05 0.000332107946489992)
(5.33206437624799e-08 -1.08033991895117e-05 0.000321982481342126)
(1.14743796048111e-07 -9.3298191488601e-06 0.000312928885160555)
(2.0535871726891e-07 -7.94329796430199e-06 0.000304906013869884)
(3.10380836061444e-07 -6.62899717212099e-06 0.000297858012437628)
(4.1457393293254e-07 -5.38342570313055e-06 0.000291721607762291)
(5.07534474161639e-07 -4.20846779679818e-06 0.000286451135280272)
(5.74977881671498e-07 -3.11407005163147e-06 0.000282019884855428)
(5.97269055927143e-07 -2.1127104793808e-06 0.000278432354054585)
(5.6213756264391e-07 -1.20241381519743e-06 0.000275636458069135)
(4.67939673799409e-07 -4.22729347442137e-07 0.000273481527955353)
(4.16639734822314e-07 3.92466856406312e-06 0.000236826410328215)
(1.34727768361406e-06 3.60838898775273e-06 0.000245123948360814)
(4.53921554292034e-07 1.10890268646972e-05 0.000245745795045975)
(2.30324606062087e-06 3.29907424168206e-06 0.000252459923377212)
(1.26669790789116e-06 9.96628894997038e-06 0.000253170070184612)
(4.64708708759775e-07 1.72301040914036e-05 0.000254585635222172)
(3.73935608330379e-07 2.2061970634169e-05 0.000263579354099084)
(1.15855820190821e-06 1.51734547296866e-05 0.000261175937987756)
(2.05259048164408e-06 8.88259307244979e-06 0.000259632191481654)
(3.19649528526243e-06 2.97108875348489e-06 0.000258765201240991)
(2.14520406168317e-07 2.50995068356318e-05 0.000272879591421989)
(9.5658999983135e-07 1.89587985584314e-05 0.000269350109121432)
(1.74406973987185e-06 1.32033854760856e-05 0.00026679708818186)
(2.75425547700673e-06 7.80137043363065e-06 0.000265077426417762)
(3.95127932327504e-06 2.62065563755709e-06 0.000263991733463721)
(1.37595096961354e-07 2.60733432135078e-05 0.00028250648369396)
(6.48400632628663e-07 2.09902271670922e-05 0.000277813176798337)
(1.39951148127985e-06 1.59844537016542e-05 0.00027415029594901)
(2.25123293122152e-06 1.12263164712927e-05 0.000271408988131642)
(3.29774537193565e-06 6.68036553099709e-06 0.000269465590453078)
(4.48482455975777e-06 2.26438366923124e-06 0.000268140877073654)
(1.15015503342578e-07 2.49530650126358e-05 0.000292410140667098)
(4.44302484000916e-07 2.09726831536015e-05 0.000286565305239138)
(1.02641717192097e-06 1.69152552544738e-05 0.000281764746441119)
(1.74522173664711e-06 1.30044390568299e-05 0.000277932302787756)
(2.60788973358447e-06 9.19609972885644e-06 0.000274971728182636)
(3.61390929678917e-06 5.52478857807104e-06 0.000272799275278479)
(4.73415551847629e-06 1.912937512334e-06 0.00027126052559481)
(1.00596982125606e-07 2.16881012837128e-05 0.000302513965741235)
(3.4299592478236e-07 1.87647570220334e-05 0.000295543359995999)
(7.26150902616325e-07 1.57821504198579e-05 0.000289621490861839)
(1.28064507089763e-06 1.28425773167211e-05 0.000284698150236358)
(1.95144365327079e-06 9.94948982295404e-06 0.00028066070893582)
(2.74702064231438e-06 7.11117294293018e-06 0.000277484659362296)
(3.65545863341713e-06 4.34828346205133e-06 0.000275111080065629)
(4.68448977906522e-06 1.56575986934481e-06 0.000273406063914912)
(7.81942923507667e-08 1.62006375420361e-05 0.000312738759411024)
(2.69484749024754e-07 1.43451419582365e-05 0.00030466543699579)
(5.24589568280221e-07 1.24622760413583e-05 0.000297654020862015)
(8.98328085450207e-07 1.05682930864738e-05 0.000291654874834593)
(1.37913864652084e-06 8.69352102360317e-06 0.000286561505065302)
(1.95589785616508e-06 6.82680534679265e-06 0.000282336401200031)
(2.62781838991814e-06 4.97593938475885e-06 0.000278972809304808)
(3.39468542969063e-06 3.1472809536366e-06 0.000276429647816992)
(4.35373285645579e-06 1.2246889426555e-06 0.000274598707217897)
(5.11100095179619e-08 8.42578524912173e-06 0.000323010884302016)
(1.84176243962632e-07 7.69078332941103e-06 0.000313857507123871)
(3.60203700063952e-07 6.91825244602742e-06 0.000305782001299103)
(6.01141676606733e-07 6.11973010409205e-06 0.000298720914234472)
(9.14148848877595e-07 5.30720961276938e-06 0.000292602166287808)
(1.29241104025387e-06 4.48042134324651e-06 0.000287365438721272)
(1.73048219792132e-06 3.6337588525829e-06 0.000282984486798583)
(2.22757659880783e-06 2.77034309733471e-06 0.00027945618068514)
(2.78952464600375e-06 1.90182810411122e-06 0.000276752953307754)
(3.69339794165164e-06 8.17599618705503e-07 0.000274802850129899)
(3.00397594453997e-08 -1.67204893290855e-06 0.000333249934108796)
(1.05759793236787e-07 -1.21577495525524e-06 0.000323032170954867)
(2.14830319938416e-07 -8.34227675062767e-07 0.000313905020415964)
(3.64436310242024e-07 -5.11015560765509e-07 0.000305811651507363)
(5.52634450706382e-07 -2.3346488856911e-07 0.000298692213756214)
(7.71556257172109e-07 3.30757313214809e-09 0.000292485519427774)
(1.01334841677162e-06 1.97056180568365e-07 0.000287140415455895)
(1.27021784564028e-06 3.39773024747212e-07 0.000282631031448411)
(1.53433744647363e-06 4.07444607155015e-07 0.000278954592160152)
(1.84874989348964e-06 3.79613457546903e-07 0.000276089179298068)
(2.47429523203723e-06 2.88641720668175e-07 0.00027384902466023)
(1.64760961360882e-08 -1.41031889620603e-05 0.00034334706569523)
(5.30982849604995e-08 -1.23906211872468e-05 0.000332091083906888)
(1.07119076774104e-07 -1.0804401161797e-05 0.000321939401784275)
(1.86000505409756e-07 -9.32125841640695e-06 0.000312845029146684)
(2.82006041181073e-07 -7.92225802944428e-06 0.000304751662607152)
(3.82004929644832e-07 -6.59976541864615e-06 0.000297602030725203)
(4.7639091924097e-07 -5.35116349832911e-06 0.000291339293277623)
(5.53015893575308e-07 -4.18083169471519e-06 0.000285913928788244)
(5.95119255043074e-07 -3.09917038846365e-06 0.000281292655123697)
(5.79203038003885e-07 -2.11386601585653e-06 0.000277453213717404)
(4.98049251249952e-07 -1.22291379804876e-06 0.000274315063506862)
(3.04174969116551e-07 -5.74808561264647e-07 0.000271684782926139)
(4.04873651381232e-07 4.25942702287282e-06 0.000227631121691862)
(1.36204028562216e-06 3.95951319528994e-06 0.000236826280558545)
(4.64549545978971e-07 1.21779725666252e-05 0.000237401140699225)
(2.41585433003887e-06 3.66872611875124e-06 0.000245077893897889)
(1.3326606880922e-06 1.10969779603327e-05 0.000245719004532318)
(4.96315941969605e-07 1.91997785613519e-05 0.000247068497379448)
(3.48626486790547e-06 3.36221311980095e-06 0.000252297755738677)
(2.22949259536093e-06 1.00622945285827e-05 0.000253083215257286)
(1.26202842348194e-06 1.72008172154183e-05 0.000254552836229959)
(4.07436397782415e-07 2.50265794109395e-05 0.000256877918861033)
(2.35142829613731e-07 2.91258602639003e-05 0.00026699930812916)
(1.06835868466389e-06 2.19894423453801e-05 0.000263553696445555)
(1.94885886709166e-06 1.53037862742378e-05 0.000261075325708081)
(3.09262581063892e-06 9.03846505164185e-06 0.000259425065564945)
(4.48388137906964e-06 3.03696945845299e-06 0.000258403209627417)
(1.5206110745257e-07 3.1194066196219e-05 0.00027747323084191)
(7.32041581397264e-07 2.50977854398141e-05 0.000272861772963557)
(1.60268163815039e-06 1.90956434428245e-05 0.000269268383176729)
(2.58989290478297e-06 1.34058788947298e-05 0.000266586813359314)
(3.8290899540267e-06 7.97855873836172e-06 0.000264687603101898)
(5.28343793078478e-06 2.71100023022633e-06 0.000263374154652434)
(1.29910042131541e-07 3.11952938123082e-05 0.000288266481337656)
(5.08806125032399e-07 2.61906941640717e-05 0.000282491514940135)
(1.19537617309255e-06 2.10991798825183e-05 0.000277750196003758)
(2.05546950503754e-06 1.6206171959293e-05 0.000273966843316756)
(3.09749557717084e-06 1.14540932120519e-05 0.0002710388577901)
(4.34119871702514e-06 6.88625904351853e-06 0.000268868230399549)
(5.77793197371203e-06 2.39577739877965e-06 0.000267274375101056)
(1.17507232404102e-07 2.90720247143482e-05 0.000299314444412518)
(4.01584131841705e-07 2.5102677907621e-05 0.000292392893159823)
(8.63261566565165e-07 2.10717927254224e-05 0.00028651295087649)
(1.54582090093149e-06 1.7112215015477e-05 0.000281623975089208)
(2.38056240574191e-06 1.32329259458238e-05 0.000277608140172103)
(3.38589346044866e-06 9.44465893290088e-06 0.000274429480610838)
(4.55995290983354e-06 5.77596619393503e-06 0.000272013127865543)
(5.93546970051669e-06 2.09019491617507e-06 0.000270199572482706)
(9.66610287502037e-08 2.47342294811216e-05 0.000310545708061868)
(3.23383981565941e-07 2.18000750775543e-05 0.000302494523150437)
(6.40390281821828e-07 1.88601402758291e-05 0.000295496321848999)
(1.1194871554442e-06 1.59207256810074e-05 0.000289513283100934)
(1.74260163209781e-06 1.30340015263378e-05 0.000284427067627614)
(2.5006157705463e-06 1.0183975687084e-05 0.000280191961441638)
(3.40230556560302e-06 7.38489025914359e-06 0.000276791334286343)
(4.4548139281171e-06 4.64784038129133e-06 0.000274173083130132)
(5.80630865484745e-06 1.80173699204599e-06 0.000272205973287265)
(6.9584399172572e-08 1.8102945361464e-05 0.000321890697740294)
(2.40099219445845e-07 1.62599775232023e-05 0.000312719087913585)
(4.70976059418255e-07 1.4408667276974e-05 0.000304628433645897)
(7.88842298551285e-07 1.25482512865686e-05 0.000297560052961084)
(1.21752536673953e-06 1.07062070072427e-05 0.000291428649530768)
(1.74685717906333e-06 8.87928996485159e-06 0.000286167876016437)
(2.37855250512634e-06 7.06105700920462e-06 0.000281745775830166)
(3.12250714138138e-06 5.26184987002404e-06 0.000278155367902301)
(3.99787490474251e-06 3.49070032690772e-06 0.000275365020428531)
(5.39095231284067e-06 1.48280487320863e-06 0.000273265931947991)
(4.29737816798639e-08 9.12671362179357e-06 0.000333274572487772)
(1.56335276164373e-07 8.44248156269881e-06 0.000322999997101741)
(3.14129224391502e-07 7.72168011561233e-06 0.000313824894966715)
(5.27547928361737e-07 6.97324346049643e-06 0.000305689158322278)
(8.05189965932297e-07 6.20873630415395e-06 0.000298527881306768)
(1.14556624999612e-06 5.43399891425287e-06 0.000292275237470547)
(1.5452227089499e-06 4.64591436770668e-06 0.000286874966116641)
(2.00554738603007e-06 3.84192139826887e-06 0.000282296583182931)
(2.53326561861872e-06 3.03052378840099e-06 0.000278528918101346)
(3.17464801407424e-06 2.18766012262679e-06 0.000275561467093443)
(4.58158619489947e-06 1.14371124675366e-06 0.000273260651429735)
(2.67737658684041e-08 -2.21833350286943e-06 0.000344600541651778)
(9.4050075938344e-08 -1.66776597263324e-06 0.000333236792643552)
(1.89440898759962e-07 -1.20254656622009e-06 0.000322995413634284)
(3.21086459156282e-07 -8.05099865214312e-07 0.000313818716970852)
(4.88660439524698e-07 -4.60516697296386e-07 0.000305647380209853)
(6.8640789705764e-07 -1.60264401753383e-07 0.000298422547863732)
(9.07789078169915e-07 9.8154549295356e-08 0.000292084019044963)
(1.14627675260086e-06 3.12079871660346e-07 0.000286576740810051)
(1.39453947842083e-06 4.73027829655804e-07 0.000281864966455538)
(1.65543590558756e-06 5.5530310295218e-07 0.00027792722754994)
(1.97018100961565e-06 5.98433694068629e-07 0.000274711216382843)
(2.91127497917344e-06 8.66507220910809e-07 0.00027193791587125)
(1.60101508580719e-08 -1.5958614671597e-05 0.000355757338375993)
(5.23569277578448e-08 -1.41037738198085e-05 0.000343334155569602)
(1.00636634938361e-07 -1.2390207762014e-05 0.000332054837380406)
(1.69042385568255e-07 -1.07959578948615e-05 0.000321865456896767)
(2.54523790049265e-07 -9.30077439245753e-06 0.000312709505967064)
(3.47985283784612e-07 -7.89218665545214e-06 0.000304531948423617)