/*--------------------------------*- C++ -*----------------------------------*\
  =========                 |
  \\      /  F ield         | OpenFOAM: The Open Source CFD Toolbox
   \\    /   O peration     | Website:  https://openfoam.org
    \\  /    A nd           | Version:  12
     \\/     M anipulation  |
\*---------------------------------------------------------------------------*/
/*   Windows 32 and 64 bit porting by blueCAPE: http://www.bluecape.com.pt   *\
|  Based on Windows porting (2.0.x v4) by Symscape: http://www.symscape.com   |
\*---------------------------------------------------------------------------*/
FoamFile
{
    format      ascii;
    class       volScalarField;
    location    "100";
    object      k;
}
// * * * * * * * * * * * * * * * * * * * * * * * * * * * * * * * * * * * * * //

dimensions      [0 2 -2 0 0 0 0];

internalField   nonuniform List<scalar> 
10123
(
0.000460399105569464
0.000464076763764585
0.00130746669494362
0.000462045630033878
0.000466611794933708
0.00131855288074101
0.000465743471869763
0.001913644179441
0.00130872331278021
0.000464198974618675
0.000468322306967367
0.00132643434044155
0.000468283251613527
0.00192994619823098
0.00131984698595876
0.000467948731446379
0.00240067069552964
0.00191342445529886
0.00130712884613363
0.000461707436860004
0.000469480373025429
0.00133195665823244
0.000469991762264394
0.00194177336869643
0.00132775080155591
0.000470529225622173
0.00242096476420656
0.00192977678232234
0.00131834183514824
0.000465494696418438
0.00281782659267728
0.00239920995949934
0.00190491742831282
0.00129692271513928
0.000453255128426285
0.000470291804575676
0.00133569302892402
0.000471195169979459
0.00195022372572533
0.00133328614748582
0.000472267708699054
0.00243589808224753
0.00194162896720606
0.00132633012590177
0.000468125420346317
0.0028413747481654
0.00241956318810643
0.00192135046276572
0.00130820495084772
0.000457052778116663
0.00318393144554116
0.00281455186564977
0.00238512998422957
0.00188511218737765
0.00127490588482362
0.000440621648904147
0.00047079120606915
0.00133815495653674
0.000472015200403463
0.00195610716782925
0.00133702937163987
0.000473501792308429
0.00244671340239668
0.00195009324134899
0.00133193633143787
0.000469912167648606
0.00285886928298547
0.00243451739123695
0.00193328481655024
0.00131627730295656
0.000459710830835152
0.00321022349871162
0.00283815819798076
0.00240555871452266
0.00190158993890958
0.00128617732894334
0.000444388038513158
0.0035078259721826
0.00317844819205326
0.0027953968972284
0.00235680611002871
0.00185209675799886
0.00124250257771862
0.00042572735672924
0.00047107039010801
0.00133969702590377
0.000472515704759373
0.00196008425397815
0.00133949499289122
0.000474345934722229
0.00245436554959693
0.00195598434384737
0.00133573872583123
0.000471187362862701
0.00287166360045194
0.00244534113513729
0.00194182195714232
0.00132196451027346
0.000461529300761692
0.00322988710395589
0.00285566295567786
0.00242058824868701
0.00191359851354681
0.00129427697783041
0.000447044391353637
0.00353648391231093
0.00320479268612071
0.00281907082528526
0.00237725383572664
0.0018685236716932
0.00125366223236043
0.000429437033724184
0.00379478492301322
0.00350052398125486
0.00315447139369353
0.00275944246318749
0.00231391399302229
0.00180680831080626
0.00120256509885457
0.000409166639103276
0.000471209078093097
0.0013406003668756
0.000472797419908464
0.00196267430796802
0.00134103811430354
0.000474861960956359
0.00245962947044717
0.0019599667330159
0.0013382496236493
0.000472059269574424
0.00288081506070343
0.00245299746813601
0.00194777641301885
0.00132583934333533
0.000462855550695799
0.00324437142488149
0.00286845481656314
0.00243148022603336
0.00192221574041186
0.00130000634363889
0.00044887199084563
0.00355802364946166
0.00322445476210285
0.00283664109182139
0.00239234135979733
0.00188053721465343
0.00126171059751169
0.000432066446504353
0.00382552497162912
0.00352923188604073
0.00318087390072562
0.0027831113230288
0.00233426922230978
0.001823059909516
0.0012135222302016
0.000412798766351328
0.00404865039753206
0.00378635903637396
0.00347260238478287
0.00311174355557201
0.00270757853811388
0.0022577109697176
0.00175117141609767
0.00115653680480607
0.000390634217907002
0.000471268475256774
0.00134109300752406
0.000472941262903638
0.00196428859134867
0.00134194601098125
0.00047515709471311
0.00246313529889589
0.00196256160677875
0.0013398254859091
0.000472595513714743
0.00288718665479749
0.00245826359253332
0.0019518116000526
0.00132840819496419
0.000463747736605601
0.00325481474467185
0.00287760175077613
0.00243919817533656
0.00192824736850826
0.00130392693203234
0.000450236344161908
0.00357397773593786
0.00323892515610037
0.00284949288543861
0.00240330443975584
0.00188918775218892
0.00126742180055998
0.000433916731612066
0.00384872107614469
0.00355076276581218
0.0032005918183572
0.00280072286288228
0.00234933433760364
0.00183497952217425
0.00122144424293165
0.000415384455151827
0.00408126087170842
0.00381715141537205
0.0035013642940071
0.00313812092554458
0.00273111655324101
0.00227783314519452
0.00176712124955303
0.00116720894412658
0.000394161904259128
0.00427236432680133
0.00403961618880891
0.0037556575308468
0.00342438318307613
0.00305201023220802
0.00264159403325822
0.0021895784023927
0.00168616174000908
0.00110433715365877
0.000369684689946607
0.000471293964632774
0.0013413464906777
0.000473002406710857
0.00196525408566831
0.0013424410850177
0.000475311758501133
0.00246539157155629
0.0019641796603341
0.00134076349686272
0.000472904796986003
0.00289149509091735
0.00246177223829552
0.00195445017221259
0.00133002933389529
0.000464298220177782
0.00326215113788423
0.00288396938581464
0.00244451757323463
0.00193235088965223
0.00130654057047278
0.000451137602010105
0.00358555088167761
0.00324935435339003
0.00285869587854457
0.00241109596788384
0.00189526524091061
0.00127134518038714
0.000435275405476045
0.00386598096535976
0.00356669630212874
0.00321511396348949
0.00281363449860919
0.00236031418345918
0.0018435879727243
0.00122706833800832
0.000417252291957778
0.00410594907121108
0.00384033637438432
0.00352294686289324
0.00315786651120146
0.00274867927612006
0.00229276330014295
0.00177884471720169
0.00117493831284435
0.000396684212563307
0.00430668737785227
0.00407228387980106
0.00378650736381915
0.00345310863050502
0.00307822569735625
0.00266484799765913
0.0022093199704216
0.00170168634272132
0.00111463912719733
0.000373075148926963
0.00446823265228847
0.00426298355159094
0.00400707045783654
0.00370333449401823
0.00335815972733617
0.00297746602682443
0.00256266226057284
0.00210998256608574
0.00161170001241902
0.00104532705497593
0.000346030043490811
0.000471316955396508
0.0013414847489781
0.000473029770056835
0.00196582133262176
0.00134269529050908
0.000475379660720172
0.00246680145404952
0.00196514760409028
0.00134128115279007
0.000473069664245944
0.00289432514180241
0.00246403035849416
0.00195610453330671
0.00133100292882105
0.000464615777806688
0.00326716853715993
0.00288827510626479
0.00244807323208583
0.00193504696960881
0.00130819935434347
0.00045169627269056
0.00359373732177396
0.00325667974081253
0.00286511428120041
0.00241648448944491
0.00189941762986092
0.00127397469401484
0.000436173042542272
0.00387855449112787
0.00357824864334722
0.00322559309534016
0.00282290421367391
0.00236814278655437
0.00184965507898859
0.0012309636478584
0.000418589470811875
0.00412438545695151
0.00385757256093424
0.00353892915387517
0.00317243915251901
0.00276158993092492
0.00230367361145059
0.00178733000167828
0.00118042192950071
0.000398555687810165
0.00433274599039217
0.00409696121756173
0.00380974587275555
0.00347471212946095
0.00309790117925005
0.00268223859065118
0.00222399540281548
0.00171311458938988
0.00112210777007313
0.000375548722694945
0.0045041443782267
0.00429736844386599
0.00403980334367075
0.00373414531299225
0.00338670204252747
0.00300335573382063
0.00258547044677928
0.00212919527577203
0.00162667467117914
0.00105516469393732
0.000349247006024188
0.00463822083821955
0.00445861263603633
0.00422918855679231
0.00395176248494712
0.00363199269266404
0.00327639085875839
0.0028892004135368
0.00247090960858471
0.00201865778924176
0.00152725968227427
0.000978904855224344
0.000319509225198668
0.000471357770260122
0.00134160206865355
0.00047305000016595
0.00196617746770795
0.00134283433157436
0.000475410821950132
0.00246767610331358
0.00196571582271749
0.00134155034251936
0.00047314603537913
0.00289614158308491
0.00246544132946227
0.00195710080048615
0.00133155262622492
0.000464787831954892
0.00327051334308916
0.00289110309437508
0.00245037028448281
0.00193675197202318
0.00130920162617179
0.000452020331396981
0.00359938769541757
0.00326168893092727
0.00286946571602568
0.00242010272543394
0.00190215916933913
0.0012756545765338
0.000436733567314908
0.00388750327596794
0.0035864192767968
0.00323296601060747
0.00282938867111494
0.00237357689963446
0.00185381635817717
0.00123357978483196
0.000419473655539357
0.00413786605862808
0.00387012293711369
0.00355052790268422
0.00318297891064438
0.0027708853778486
0.00231147425037182
0.00179332646786181
0.00118425138041425
0.000399856319647879
0.00435225405626422
0.00411537243205559
0.00382703148521766
0.0034907412750331
0.00311245828119619
0.00269505331123299
0.00223474138118299
0.00172139751682199
0.00112740977559519
0.000377361572331822
0.00453146854800899
0.00432341742359858
0.00406453947998941
0.00375740429445148
0.00340822137328554
0.00302282852589804
0.00260255677060144
0.00214349657577503
0.00163770818267779
0.00106228380319812
0.000351653246389466
0.00467561519678486
0.00449458967809127
0.00426364680510933
0.00398445884604383
0.00366260760122618
0.00330457542990293
0.00291459146634789
0.00249310795724109
0.00203719182773907
0.00154155580115012
0.000988178228602278
0.000322575424887255
0.00478422107349705
0.00462840607926098
0.00442392643063393
0.00417168662679151
0.00387644173898562
0.00354427929387576
0.00318016617457957
0.00278712628448919
0.00236586956160994
0.00191507845833546
0.00143227621967516
0.000904648463981519
0.000290100163791454
0.00047142781445307
0.0013417553591084
0.00047308924267604
0.00196645274236969
0.00134294841893985
0.000475433320620776
0.00246824944398046
0.00196607095823403
0.0013416988772262
0.00047318079512281
0.00289730486429745
0.00246631641849284
0.00195768960703762
0.00133184556904855
0.000464871852316555
0.00327270112702334
0.00289291787085857
0.00245181207423157
0.00193778836951432
0.00130977651367009
0.000452194269048127
0.00360319841583621
0.00326502765442932
0.00287233239427809
0.00242245400640117
0.00190390585403307
0.00127667597471414
0.000437061101099143
0.00389372695434245
0.00359205764594246
0.00323801871813719
0.00283380303151148
0.00237724184540144
0.00185657545607415
0.00123526018228952
0.000420028030630512
0.00414751076067961
0.00387905363561805
0.00355874502852074
0.00319041542400327
0.00277740899494657
0.00231690613134007
0.00179745150949438
0.00118682533204999
0.000400715710246119
0.00436657057068749
0.00412882957539893
0.00383963032001013
0.00350239715158744
0.00312301394378558
0.00270430249109105
0.00224244074571521
0.00172726436186103
0.00113112251718684
0.000378607015944362
0.00455196907168828
0.00434289932426921
0.00408300313007904
0.00377473627632409
0.0034242260414285
0.0030372677823927
0.00261517041077288
0.00215398328552782
0.00164570739684364
0.00106736505818084
0.000353367865484017
0.00470410421258324
0.00452190277713645
0.00428976004818669
0.00400921891210424
0.00368577418458537
0.00332586850360004
0.00293371938745407
0.00250975707232745
0.00205099941998441
0.00155209265022771
0.000994869569017886
0.000324827684644201
0.00482296962684862
0.0046658657757586
0.00445998334245758
0.00420611166287044
0.00390893429144939
0.00357451219299329
0.00320780958126564
0.00281184309331822
0.00238729213138208
0.00193278194844649
0.00144576227879878
0.000913240036910779
0.000292946289162551
0.0049082009590615
0.00477423956631142
0.00459306332326052
0.00436478403873539
0.00409326942761359
0.00378389663110793
0.00344134760261585
0.00306929199318539
0.00267061204450686
0.00224693987305183
0.0017987221176765
0.00132629677151239
0.000822285930635675
0.00025780388974359
0.000471538464225158
0.00134197963682897
0.000473158010417362
0.00196674554391896
0.00134309833912571
0.000475473303867275
0.00246869275462071
0.00196634705033275
0.00134181776984471
0.000473207906654674
0.00289808793302426
0.0024668896693367
0.00195805865014528
0.00133200919537209
0.000464911896659009
0.00327413291847553
0.00289407972430648
0.00245271036663579
0.00193840750034855
0.00131009151010857
0.000452281018790387
0.00360572667730716
0.00326721072880129
0.00287417838493878
0.00242393997234117
0.00190497839629922
0.0012772653291281
0.000437237568978807
0.00389796445850439
0.0035958594352982
0.00324139506179328
0.00283672475695089
0.00237963818404038
0.00185834188269857
0.00123628744799771
0.000420353164980781
0.00415426231311921
0.00388526359674647
0.00356442633637071
0.00319552954536161
0.00278186856873452
0.00232058214574078
0.0018001953507316
0.00118848393341935
0.000401255930523497
0.00437686030903102
0.00413845546049804
0.00384860868221152
0.00351067747451062
0.00313048420103145
0.00271081177645718
0.00224781482069663
0.00173130804348871
0.00113362281354247
0.000379429643862101
0.00456706349727699
0.00435719169306191
0.00409651222298739
0.00378739440024925
0.00343589057296894
0.00304776085262107
0.00262429104515416
0.00216150756850852
0.00165138811255504
0.00107091887251906
0.00035454089604319
0.00472552860068402
0.00454237686148818
0.00430929793193557
0.00402773050744309
0.0037030752074088
0.00334173806581361
0.00294792759159203
0.00252206347220889
0.00206113186956809
0.00155973465874821
0.000999676523758051
0.000326414827801687
0.00485253462278176
0.00469434301672061
0.00448736307806286
0.00423225114401493
0.00393359762891011
0.00359743436050928
0.00322872452719621
0.00283048294800234
0.00240337101186449
0.00194597562178351
0.00145569962325759
0.000919470199840628
0.000295004595307552
0.00494815468175605
0.00481305169066259
0.00463060464727526
0.00440080979306435
0.00412748379798215
0.00381598756618568
0.00347100453253133
0.00309620888367302
0.00269447728792411
0.00226741930897172
0.00181544224126994
0.00133883964804462
0.000830121733526999
0.000260361513872499
0.00501227975149426
0.0048980761262182
0.00473841761994039
0.00453269044460025
0.00428395553952738
0.00399682034152821
0.00367536583692126
0.00332297621755846
0.00294302275987249
0.00253896041664191
0.00211358786586296
0.00166917310017057
0.00120900354108226
0.000731632944808306
0.000222520014868293
0.000471691577504112
0.00134231174580925
0.000473265672871748
0.00196712460669279
0.00134332336824212
0.000475541779087114
0.00246912849515013
0.0019666401356955
0.00134196931489413
0.0004732483714939
0.00289869252746646
0.00246733249554791
0.00195834401958025
0.00133213639145834
0.000464941575664064
0.00327511428305308
0.00289486150176971
0.00245330009066159
0.00193879786596475
0.00131027132531199
0.000452324412399052
0.00360740822699827
0.00326863896427227
0.0028753642104716
0.0024248722199945
0.001905625766043
0.00127759250368008
0.000437324860371766
0.0039008082512322
0.00359838109181467
0.00324360894395856
0.00283861621792469
0.0023811629155589
0.0018594359492275
0.00123688295175942
0.000420529793595105
0.0041588963681413
0.00388949083900571
0.00356826562609451
0.00319896065322781
0.00278483437444039
0.00232299791675594
0.00180195711028879
0.00118950150188848
0.000401573528661812
0.00438410489067693
0.0041451926665003
0.00385486280652712
0.0035164202176622
0.00313564040437235
0.00271527606331378
0.00225146030615584
0.00173400281833309
0.00113523723133127
0.000379947052532996
0.00457795708482032
0.0043674621168028
0.00410618842494106
0.00379643733182191
0.00344420146385665
0.00305520564429768
0.0026307227759556
0.00216676739973132
0.00165530510366451
0.00107331309999936
0.000355315063772107
0.0047413502418634
0.00455744628074154
0.00432364519863868
0.00404130188292577
0.00371573991793133
0.0033533272385925
0.00295826789220613
0.00253097205252037
0.00206840796522364
0.0015651646138713
0.00100302847378993
0.000327499049744799
0.00487481590060545
0.00471573962693412
0.00450789617092011
0.00425184027493111
0.0039520737504756
0.00361458564999848
0.00324433619487535
0.00284434495551776
0.00241526516187792
0.00195565913727536
0.00146290651644096
0.000923933250529437
0.000296449407779362
0.00497869137716697
0.00484260289079986
0.00465915051246384
0.00442821588335687
0.00415352081313668
0.00384039220551442
0.00349352098712538
0.00311659371641423
0.00271248601096015
0.00228279474700395
0.00182790190775348
0.00134807294108487
0.000835825118819061
0.000262203181864273
0.00505320898448614
0.00493809219987197
0.00477731068233056
0.00457019697352329
0.00431976309925126
0.00403061483076578
0.00370685082095192
0.00335186283317435
0.00296902681885624
0.00256179584534542
0.0021329566997374
0.00168475770008824
0.00122047509332108
0.000738653095380687
0.000224740274811478
0.00509855077380921
0.00500203257730985
0.00486192004756535
0.00467713694785237
0.00444999812323123
0.00418437219786367
0.00388365211679183
0.00355063674825157
0.00318835133085768
0.00280057558898366
0.00239159618490208
0.00196542171269124
0.00152615181074308
0.00108016803379457
0.000632449072716373
0.000184147010225739
0.000471886349193284
0.00134275841368476
0.000473415654933399
0.00196762254742162
0.00134365037399942
0.000475647595239548
0.0024696419328602
0.00196701568055157
0.0013421938901125
0.000473316207990588
0.00289926457936087
0.00246776761197796
0.0019586419305405
0.00133229097467201
0.000464982197490336
0.0032758724684836
0.00289546491522757
0.0024537537554739
0.00193909672847964
0.00131040793318707
0.000452354560057112
0.00360857597756985
0.00326961749968395
0.00287616331759243
0.0024254863264348
0.00190603611456566
0.00127778222304299
0.000437367664331563
0.00390272380108312
0.0036000576478052
0.00324506112986479
0.00283983746567188
0.0023821258081619
0.00186010146112769
0.00123721561395382
0.000420617901801389
0.00416203657871084
0.00389232722674832
0.00357081833326548
0.00320122033796053
0.00278676447506011
0.00232454306159181
0.00180305179390934
0.00119009359270514
0.000401745398925666
0.00438911211481376
0.0041498160287612
0.00385912872938748
0.00352031471948369
0.00313911379272343
0.00271825677667793
0.00225386218349488
0.00173573532194649
0.00113622909598018
0.000380250602649073
0.00458566569017113
0.004374691752937
0.00411297195563367
0.00380275431767409
0.003449984025727
0.0030603603472448
0.00263514273582895
0.00217033976984087
0.0016579167705189
0.00107485921692621
0.00035580059049235
0.00475281132418413
0.00456831970266945
0.004333968421589
0.00405104505125993
0.00372481158791964
0.00336160462074035
0.00296561788258888
0.00253726186932279
0.00207349731023956
0.00156890812190088
0.00100528385508524
0.000328212643718126
0.0048913165204766
0.00473153493020446
0.00452302260831807
0.0042662521596024
0.00396565010507876
0.00362716583363054
0.00325575422456723
0.00285444172442281
0.00242387799116525
0.00196261411872886
0.00146802489025889
0.000927038828885793
0.000297431908872473
0.00500176009949711
0.00486485448574219
0.00468060730833468
0.00444880155311327
0.00417307224836251
0.00385870592348489
0.00351039206127699
0.00313182459963961
0.00272588668598063
0.00229417031780098
0.0018370430730895
0.00135477335772277
0.000839892110401296
0.000263490499896354
0.00508459806842712
0.00496861295711046
0.0048069301330333
0.00459876866399165
0.0043470594256535
0.00405637757249874
0.00373082607556417
0.00337381374052969
0.00298873061213324
0.00257903098499921
0.00214749647208945
0.00169636483010077
0.00122891095728181
0.000743750134729325
0.000226348385306152
0.00514017343490861
0.0050430260701629
0.00490201584776214
0.00471599058520977
0.00448727310166434
0.00421974142501665
0.00391681298188713
0.00358131285841841
0.00321627356534569
0.00282548015074516
0.00241322385052728
0.00198351380274091
0.0015404516986447
0.00109043927765773
0.000638547044238651
0.000185904269413404
0.00516818574427134
0.00508818734684566
0.00496566182200497
0.00479999883384087
0.0045930267502263
0.00434792438275537
0.00406739440544376
0.00375356653973216
0.003408854061736
0.00303661930114194
0.00264131711157436
0.00222811228157364
0.00180219245732413
0.00136948122962721
0.00093965727225896
0.000524569892233985
0.000144321752937291
0.000472127656943381
0.00134332171822505
0.000473606686246645
0.00196827059208348
0.00134409173099187
0.000475795652346039
0.00247028944833635
0.00196751335348873
0.00134251725066607
0.00047341992709709
0.00289990571209452
0.00246828003226741
0.00195901778647698
0.00133251504019229
0.000465047748128691
0.00327657255694752
0.00289603548135865
0.00245419480442873
0.00193940131929824
0.00131056549711367
0.000452394028274417
0.00360947865976037
0.00327037328764931
0.0028767781650455
0.00242595579311731
0.00190634709719647
0.00127792418757165
0.000437395919179498
0.00390406720745076
0.00360122150761102
0.00324605710300723
0.00284066228430173
0.00238276186661699
0.00186052444154902
0.00123740811092865
0.000420659892966505
0.00416417319187644
0.0038942370400957
0.00357251916319011
0.00320270852672745
0.00278801665977356
0.00232552344332827
0.00180372169906115
0.00119042404379347
0.000401829945203433
0.00439253312662772
0.00415294830834595
0.00386199727791271
0.0035229139165027
0.00314141118141588
0.00272020438449045
0.00225540445909562
0.00173681192487727
0.0011368052008134
0.000380412742428354
0.0045910268315082
0.00437968795127836
0.00411763579461845
0.00380707683042077
0.00345391945643783
0.00306384387103324
0.0026381022553925
0.00217269493048367
0.00165959508259353
0.00107580737744569
0.000356082649092397
0.00476095871398133
0.00457601283565679
0.00434124637390285
0.00405789344679418
0.00373116716461697
0.00336737936531616
0.00297071758198876
0.0025415883138474
0.00207695420588865
0.00157140181005475
0.00100673639086949
0.000328656570659319
0.00490331085896666
0.0047429746937492
0.00453395050740133
0.00427664431642768
0.00397542072354924
0.00363619744957842
0.00326392279433104
0.00286162627295593
0.00242996202142042
0.00196747691816095
0.00147154860748419
0.000929121786304762
0.000298073101127028
0.00501889234262981
0.00488132704306724
0.00469646047561964
0.00446399372507709
0.00418748688077009
0.00387218973432665
0.00352278446349086
0.00314297411506388
0.00273565097482235
0.00230240665280786
0.00184360429836304
0.00135952120105795
0.000842709767977457
0.000264358245024292
0.00510838716222958
0.00499164966098316
0.00482924151502585
0.0046202774314977
0.00436760300648076
0.00407575684620511
0.00374883914484089
0.00339027440520857
0.00300345939422761
0.00259185695334922
0.0021582493864725
0.00170487236414431
0.00123502883083228
0.000747370685961577
0.000227465253171445
0.00517233314078841
0.00507439738130409
0.00493260319846519
0.00474563248994862
0.00451572763953986
0.00424674739049933
0.0039421213752112
0.00360469050269723
0.00323750152641188
0.00284435316309689
0.00242954439522872
0.00199708785556101
0.00155109070757504
0.001097994656573
0.000642972150955378
0.000187272140059576
0.00521093995146015
0.00512989139040827
0.00500673567403289
0.00484004831294767
0.00463163572153239
0.0043847374752401
0.00410210084181684
0.00378588311355178
0.00343852004706538
0.00306338344591417
0.00266493606047695
0.00224835568306279
0.00181884473173759
0.00138235124176593
0.000948620315170741
0.000529661432667318
0.000146498899422471
0.0051086759780622
0.00522346928738375
0.00515774994967076
0.00505168750111975
0.00490331913912135
0.00471484416528042
0.00448900087555731
0.00422784934225845
0.00393283035645676
0.0036056765161483
0.00324910385463309
0.00286708012576493
0.0024647890886578
0.00204823802202673
0.00162372057976742
0.00119911295546056
0.000787926566450315
0.000408917720856973
8.3073679560196e-05
0.000472428493552526
0.00134401795253573
0.00047384833346281
0.00196908753300287
0.0013446536317366
0.000475985344691131
0.00247110740628729
0.00196816027024038
0.00134295359772366
0.000473564063040419
0.00290068510930832
0.00246892608408764
0.00195951360283322
0.00133283418158811
0.000465146675612843
0.0032773309301746
0.00289667502540943
0.00245470882735796
0.00193977792755889
0.00131078641665048
0.000452456357652014
0.00361029782062046
0.00327107110454037
0.00287735493859617
0.00242640505079098
0.00190665647778161
0.00127808169960711
0.000437432336480803
0.00390510581904464
0.00360212101213051
0.00324682437836595
0.00284129389432458
0.00238324478467807
0.00186084191587244
0.00123754914413062
0.000420686205880483
0.00416568308963586
0.00389557603263574
0.00357370074830868
0.0032037307795153
0.00278886381550427
0.00232617176307338
0.00180414785426625
0.00119061330973761
0.000401867564850406
0.00439488034853146
0.00415507895465433
0.00386393225305725
0.00352465145623737
0.00314292986530458
0.00272147205664166
0.00225638499634609
0.00173746926708567
0.00113712357165518
0.000380489480628809
0.00459471551878525
0.00438310071686991
0.00412080163908513
0.00380999311728129
0.00345655560141676
0.00306615534518714
0.00264004051345775
0.00217420755875812
0.00166063502702603
0.00107635365855092
0.000356229270293253
0.00476665608301885
0.00458136231095601
0.00434628467518629
0.00406261555148001
0.00373552984013273
0.00337132038002118
0.00297417127183192
0.00254448734552167
0.00207923114465297
0.00157300001276579
0.00100762110242808
0.000328909211813484
0.00491187276036574
0.00475110565949759
0.00454169334760089
0.00428398874999299
0.00398230675064768
0.00364253981479404
0.00326963243029553
0.00286661529181991
0.00243414646358805
0.00197077607080142
0.00147388914312409
0.000930454431294599
0.000298465864497009
0.00503138680272989
0.00489329861068951
0.00470795539187946
0.00447499147597274
0.00419790471835834
0.0038819135634635
0.00353169563511968
0.00315095725276757
0.00274260062389938
0.00230822212151405
0.00184818521170923
0.00136277953617688
0.000844587064170077
0.000264915794912208
0.00512610803362865
0.00500875192841608
0.00484577159518217
0.004636195844746
0.00438279449266727
0.00409007044652734
0.00376212070880189
0.00340237546793841
0.00301424482108791
0.00260120083854206
0.0021660291301686
0.00171096954211932
0.00123934837453372
0.000749860511278025
0.000228206752314584
0.00519680177908956
0.00509815219490821
0.00495569811606083
0.00476799321283635
0.00453718819310727
0.00426710710266847
0.0039611828680544
0.00362226678780296
0.00325342400019413
0.00285846058061746
0.00244168451671261
0.00200711671270906
0.00155887690014988
0.00110345673930361
0.000646097323225297
0.000188221642938062
0.00524398653162888
0.0051620336114212
0.00503817155986954
0.00487065269117738
0.00466115023383373
0.00441288590100303
0.00412862954672305
0.00381056168556444
0.00346113519769867
0.00308373243675332
0.00268283033547302
0.0022636229513269
0.00183132645069746
0.00139191056454265
0.000955209793318495
0.000533369671326798
0.000148081801754279
0.00526772035842699
0.00520058384230904
0.00509348391093075
0.00494433957735764
0.00475463301690203
0.00452712541430814
0.00426396809320206
0.00396665468516083
0.00363694098740133
0.00327755983768643
0.00289249323630819
0.00248693741112533
0.00206692295720041
0.00163877404868376
0.00121041601242211
0.000795491505474564
0.000413122742023668
8.46465019631918e-05
0.00516175788606954
0.00509839018598053
0.00526756373664303
0.00521300898470638
0.00512121769664745
0.00498909386785406
0.00481742801518816
0.00460932267714688
0.00436643682443534
0.00408957421567015
0.00377976208117809
0.00343901277915609
0.00307061468853995
0.00267919716108188
0.00227064180741789
0.00185170561616592
0.00142984078038446
0.00101557859294789
0.000626907267026945
0.000285271351002583
2.91071340777499e-05
0.00134486853993242
0.000474145510556363
0.00197008942284697
0.00134534638805288
0.000476224517070696
0.00247212225406586
0.00196897371365349
0.00134350925204124
0.000473750387651198
0.00290164987009328
0.0024697427399798
0.00196015598700574
0.00133326230976541
0.000465283902755578
0.00327822837224527
0.00289745292523423
0.00245535304110416
0.00194026974794803
0.00131109701294978
0.000452550280204006
0.00361116328530176
0.00327182742321792
0.00287799623198355
0.00242692063992224
0.00190703122976742
0.00127829733080509
0.000437490119191078
0.00390603545954688
0.00360293746022437
0.00324752835396874
0.00284187938373762
0.00238369953757947
0.00186115123125275
0.00123770178456948
0.000420717811361224
0.00416684937166162
0.00389661100744092
0.00357461194163434
0.0032045152068106
0.00278950911259035
0.00232666058210526
0.00180446439577186
0.00119074908005982
0.000401889430829863
0.00439654866456149
0.00415658417618007
0.00386528966694374
0.00352585991935421
0.00314397422780636
0.00272233000594611
0.00225703267318447
0.00173788491920015
0.00113730176676543
0.000380520082329507
0.00459726406811587
0.00438544175441283
0.00412295860050261
0.00381196584136007
0.00345832321587485
0.0030676870807024
0.00264130364734882
0.00217516957797394
0.00166126518771719
0.00107665009510606
0.000356294000330311
0.00477060007808002
0.00458504227661023
0.00434973227594211
0.00406583049037415
0.00373848261197525
0.00337396729375867
0.00297646697725206
0.00254638776626097
0.00208068962316009
0.00157398408052557
0.00100812288415002
0.000329034599219725
0.0049178891480082
0.00475679055614368
0.00454708596573166
0.00428908661679862
0.00398706831975252
0.00364690389862255
0.00327353561354885
0.00286999764256804
0.0024369475662367
0.00197294335308562
0.00147538064177382
0.000931254749378522
0.000298681731909792
0.00504033934200697
0.00490184293761428
0.00471613660811933
0.00448280153753147
0.00420528537286557
0.00388878105439466
0.00353796307793345
0.00315654264837808
0.00274742536458175
0.00231221699550426
0.00185128481707565
0.00136493198211896
0.000845773741011753
0.000265247944360757
0.00513907125660539
0.00502122192958696
0.00485779804949204
0.00464776022874021
0.00439381514237564
0.00410043450929585
0.00377171215712374
0.00341108445664883
0.00302196794369036
0.0026078476170854
0.00217151455462373
0.00171521486575299