/*--------------------------------*- C++ -*----------------------------------*\
  =========                 |
  \\      /  F ield         | OpenFOAM: The Open Source CFD Toolbox
   \\    /   O peration     | Website:  https://openfoam.org
    \\  /    A nd           | Version:  12
     \\/     M anipulation  |
\*---------------------------------------------------------------------------*/
/*   Windows 32 and 64 bit porting by blueCAPE: http://www.bluecape.com.pt   *\
|  Based on Windows porting (2.0.x v4) by Symscape: http://www.symscape.com   |
\*---------------------------------------------------------------------------*/
FoamFile
{
    format      ascii;
    class       volScalarField;
    location    "100";
    object      nut;
}
// * * * * * * * * * * * * * * * * * * * * * * * * * * * * * * * * * * * * * //

dimensions      [0 2 -1 0 0 0 0];

internalField   nonuniform List<scalar> 
10123
(
0.000105784700960723
0.000106216922073996
0.000877009572916764
0.000107852806168772
0.00010651281657258
0.000880767056891193
0.000108292898952748
0.00206138863012796
0.000890330746070963
0.000110321231147016
0.000106712331895466
0.000883404381372338
0.000108589715228486
0.00207081762239548
0.000894138491060726
0.000110773797798072
0.00333477270121219
0.00207858521982496
0.000906867209868816
0.000111768831019369
0.000106853153532755
0.000885213736672901
0.000108789089507824
0.0020774616505509
0.000896803276816768
0.000111077522728791
0.00335121475107419
0.00208810182835641
0.000910774660153251
0.000112232652434701
0.0045455476097216
0.00334768423606083
0.00209810982760749
0.000917012871406658
0.000111462919672491
0.000106963318316256
0.000886299896389801
0.000108941016797531
0.00208207935510378
0.000898626658750512
0.000111281870650132
0.00336296130635695
0.00209480762230579
0.000913509415673436
0.000112546691431977
0.00456964112181947
0.00336421248137037
0.00210780377993642
0.000921019951414739
0.000111935276454196
0.00563130665492037
0.00455026227952167
0.00335765411236752
0.00210803901086563
0.000915549269902796
0.000109914216780205
0.00010703268798847
0.000886852289479278
0.000109053431520134
0.00208510857502438
0.000899680051812212
0.000111440124263139
0.00337125106237581
0.00209946264757734
0.000915382221789241
0.000112760645487395
0.00458712659584954
0.00337602417910299
0.0021146494626981
0.000923833596045551
0.000112257211151305
0.00566325370684181
0.00457440296915816
0.00337437939302135
0.00211791880525047
0.000919622023712738
0.000110389042027708
0.00657597434215054
0.00562768054327503
0.00454558330034939
0.00335531820811703
0.00210075683836077
0.000904512091776128
0.000107885080014555
0.000107069758796461
0.000887096123425207
0.000109125237870404
0.00208688628888576
0.000900224010915679
0.000111557668086597
0.00337691014814591
0.00210249211748188
0.000916460305877031
0.000112927378917769
0.00459965598359431
0.00338435592318212
0.00211940713318972
0.000925767594857117
0.000112478575527457
0.00568674274476824
0.00459192454601875
0.00338635657605034
0.00212492259125829
0.00092249491829405
0.000110716031373123
0.00661568148736603
0.00565961692131579
0.00456988327345786
0.00337225002404995
0.00211076464667699
0.000908609077216199
0.000108361032167913
0.00738514615688348
0.00656662385163808
0.0056085790719613
0.00452516253316971
0.00333418968457287
0.00207735720314133
0.000888365331644286
0.000105679509003894
0.000107089043195022
0.000887141528336276
0.000109164993538728
0.00208784806867316
0.000900465558928667
0.000111632998685655
0.00338052912296861
0.00210427987227429
0.000917015764603976
0.000113050019074652
0.00460841089567788
0.00339003403414874
0.00212250174736796
0.000926879801686275
0.00011265667569927
0.0057037972394211
0.0046044756304433
0.00339481752461837
0.00212980519301534
0.000924474543385903
0.000110942064929317
0.00664517667033291
0.00568309705786287
0.00458754859250724
0.00338441509199131
0.00211788883065071
0.000911512002757154
0.000108690649022538
0.00743234058567497
0.00660626863058653
0.00564060655607899
0.00454961621405111
0.00335125174652017
0.00208741117810807
0.000892459226022975
0.000106155163507678
0.00807266808861796
0.00737285885015633
0.00653676844721808
0.00557004004998061
0.00448483305377615
0.00329409205947684
0.00204260783956092
0.000869497415438978
0.000103234767857921
0.000107098250210486
0.000887091480792837
0.000109185696805626
0.00208828112446702
0.000900514515241917
0.000111678103673542
0.00338271181521685
0.00210525645394034
0.000917262925997515
0.000113128768710484
0.00461426268814206
0.00339367016774477
0.00212433730925625
0.000927456216887052
0.000112783230956483
0.00571591294157275
0.00461324042544329
0.00340059099352795
0.00213298618246646
0.000925595311228632
0.000111130724124195
0.00666682116657957
0.00570013875010008
0.00460021935853206
0.00339303432423355
0.00212287133131671
0.000913509408687799
0.000108927806208634
0.00746767983027475
0.0066357138389689
0.00566418151182676
0.00456744120544375
0.00336355230872354
0.00209459395113674
0.000895363502115638
0.000106486212929843
0.00812697814853771
0.00741995404209731
0.00657643652982874
0.00560212617591864
0.00450933977148464
0.00331116509968524
0.00205263367297526
0.000873566714756606
0.000103708082882839
0.00865365677899847
0.00805902751476961
0.00733633520811902
0.00648366462080885
0.00550973512034028
0.00442392092866532
0.00323774037027284
0.00199941273298998
0.000848012862112066
0.000100417518979213
0.000107102820295477
0.000887007875963501
0.000109195148624564
0.00208841192325215
0.000900460034888599
0.00011170145188761
0.00338392948367803
0.00210570071341628
0.000917326660389083
0.00011317700029342
0.00461800889526801
0.00339587216566551
0.00212535438298243
0.000927716703896381
0.00011286480660698
0.00572423029988733
0.00461910266177884
0.00340430182568397
0.00213489013513311
0.000926203195327727
0.000111259554060918
0.0066823884743488
0.00571224000145663
0.00460908111777176
0.00339893240102474
0.00212611614522737
0.000914620022804769
0.000109118525891872
0.00749384061405037
0.00665731570207434
0.00568131009875609
0.0045802592882639
0.00337229616945286
0.0020996274768044
0.00089730961463529
0.000106735803242325
0.00816790550997811
0.00745521421248543
0.00660592620789186
0.00562579602948026
0.00452725361998167
0.00332350960860879
0.00205981342421727
0.000876451553690649
0.000104039354837817
0.00871466097421737
0.00811321188429004
0.00738340054083076
0.00652328701863264
0.00554174314003704
0.00444832394718582
0.00325469867084291
0.00200934417467508
0.000852033875903857
0.000100885920703135
0.00914189600703235
0.00863923404878623
0.00801852783531243
0.00727278372709581
0.00640579388926478
0.0054268227617258
0.00434298842212711
0.00316663320768081
0.00194803275121757
0.000823182470105493
9.71326868804125e-05
0.000107106483130421
0.000886926594080394
0.00010920015356914
0.00208839673786249
0.000900369590939183
0.000111712246058259
0.00338454376475537
0.00210583552947305
0.000917277550580688
0.000113204773016758
0.00462029680890609
0.0033971028842141
0.00212583452121386
0.000927793443908594
0.000112914416491791
0.00572975415501772
0.00462285872700556
0.00340657153435888
0.00213596064614332
0.000926487115967526
0.000111342424507681
0.00669326886579367
0.00572055001429087
0.0046150253672949
0.00340274787360803
0.0021280886282775
0.000915255815664566
0.000109248172947046
0.00751281343141487
0.00667284334189507
0.00569348855352047
0.00458924851434173
0.0033782959285716
0.00210290074194766
0.000898446453129377
0.00010692640851078
0.00819840117777325
0.00748130843893894
0.00662758111478635
0.00564303044502028
0.0045401728237053
0.00333230911959407
0.00206483907611606
0.000878316768387923
0.000104301596390694
0.00876087734888501
0.00815403931846773
0.00741866508764347
0.00655279696537008
0.00556541037182609
0.00446620471830222
0.00326698788897268
0.00201646519453126
0.00085487390396636
0.000101226198114601
0.00920914199930254
0.00870008900800422
0.00807264078680027
0.00731970609577711
0.00644518319966676
0.00545855023609131
0.0043671104767392
0.00318335291979092
0.00195780141731589
0.000827118300940246
9.75931690717592e-05
0.00954944759765293
0.00912680303226797
0.00859609282197312
0.00794753700023541
0.00718061397974826
0.006302180284498
0.0053203072422124
0.00424158949437861
0.00308024232832627
0.00188733131761616
0.000794217165799023
9.33094505222018e-05
0.000107111746883405
0.000886879894204472
0.000109203209726409
0.00208834118707357
0.00090028349793227
0.000111717932651014
0.00338481717440129
0.00210581914872173
0.000917185439798088
0.000113218511223139
0.00462162599157988
0.00339772449977036
0.00212599285463955
0.000927763897645366
0.000112943470436565
0.00573330112997469
0.00462515361846373
0.00340785586597547
0.00213649440570618
0.000926577654472837
0.000111392848237927
0.00670067766214022
0.00572606940580264
0.00461885457996282
0.00340510959108138
0.00212921730824284
0.000915570430090592
0.000109331391628745
0.0075262637752534
0.00668369771755322
0.00570187110808508
0.00459530605335901
0.0033822089985583
0.00210492754054652
0.000899110201915967
0.000107055660272038
0.00822068313313288
0.00750022573853026
0.00664315909277142
0.0056553127511193
0.00454925956732998
0.00333836040450509
0.00206812016426027
0.000879481438104102
0.000104490429736188
0.00879547014341546
0.00818444957861113
0.00744478142717365
0.00657450792745092
0.00558268518067685
0.00447913319530477
0.00327576474086275
0.00202143124712445
0.000856660039563133
0.000101489176272452
0.00926029727543814
0.0087461886699186
0.00811344151772482
0.00735491926767266
0.00647457755839429
0.005482056366099
0.00438481825387155
0.00319548854476804
0.00196480328052919
0.000829816103811107
9.79438169965355e-05
0.00962246996074543
0.00919387637853424
0.00865683839022522
0.00800141738257124
0.00722714210805436
0.00634107492063843
0.00535152088208234
0.00426524589520515
0.00309659608798762
0.00189685776881629
0.000798021134963298
9.37758583130334e-05
0.00988695926249541
0.00953368538824637
0.00908161914237345
0.00851950051208182
0.00784386940320537
0.00705867418598643
0.00617095643256324
0.00518804688331936
0.00411777001292428
0.00297658886031001
0.00181556603291675
0.000760347827153872
8.89024920308695e-05
0.000107119948114724
0.000886876662784125
0.000109208338087723
0.00208830322428303
0.00090022829746323
0.00011172146349221
0.00338493354719724
0.00210575783941492
0.000917095632247992
0.000113224725413783
0.00462236795001641
0.00339800097604565
0.00212598859694877
0.000927683820966615
0.000112959080545485
0.00573550644565624
0.00462648695556038
0.00340851621515468
0.00213669367058629
0.000926563206724145
0.000111422084526391
0.00670558908283497
0.00572961330656567
0.00462120852484064
0.00340647259183832
0.00212980463259991
0.00091568520301074
0.00010938209871159
0.00753558585982515
0.00669108765269882
0.00570745613843488
0.00459924120926484
0.00338465927311311
0.00210611097731525
0.000899454128120522
0.000107139046364996
0.00823665024800724
0.00751363576714548
0.00665407119025342
0.00566379852746499
0.00455541578285685
0.00334234060117079
0.00207018596508669
0.000880170888742034
0.000104618126726873
0.00882092279901652
0.00820666513058892
0.00746373296153219
0.00659015244969924
0.0055950277618689
0.00448824973363328
0.00328181346744053
0.00202469927093347
0.000857827295157781
0.000101674140180011
0.0092987483865677
0.00878068003012776
0.00814384916273823
0.00738103730443607
0.00649625031083237
0.00549925190175275
0.00439764752420506
0.00320416476814496
0.00196964758267458
0.00083157611133494
9.82010756705842e-05
0.00967818736522416
0.00924489235682953
0.00870288250559464
0.0080421010894372
0.00726211866153291
0.00637014768302046
0.00537468103430455
0.00428263517019919
0.00310847626219025
0.00190366242485993
0.000800529214724429
9.41189459863625e-05
0.00996524576062834
0.00960650621306542
0.00914854429998602
0.00857992637545386
0.00789719440688826
0.00710447469992288
0.00620905877881089
0.00521849830463147
0.00414076819529764
0.00299244010958841
0.00182475929777875
0.000763879285526005
8.93622828371463e-05
0.0101639598672259
0.00987054846528222
0.00948678794565393
0.00900055501024371
0.00840645448101464
0.00770612195326624
0.00690470395750807
0.00600881784879093
0.00502658779397649
0.00396820799380805
0.00285258072160698
0.00173047114460458
0.000720642581913678
8.3853103232532e-05
0.000107132616858296
0.000886917791915761
0.00010921648836177
0.00208833303327649
0.000900218376850684
0.000111726849556005
0.00338501692374629
0.00210571891297496
0.000917035809808524
0.000113229309160877
0.00462279059979625
0.00339811760752518
0.00212593194750291
0.000927597121289993
0.000112967390973393
0.00573684786824992
0.00462723081543772
0.00340881843279639
0.00213671722932797
0.000926499539696589
0.00011143821872926
0.00670876547922652
0.00573181564602732
0.00462258678788839
0.00340719406863556
0.00213005133298848
0.00091568656379734
0.000109411426758455
0.00754190199513408
0.00669598543647259
0.00571105527266522
0.00460168396301293
0.00338610532952835
0.00210674568232289
0.000899594086142009
0.000107189776732897
0.00824786325797647
0.0075229282783802
0.00666151593017705
0.0056694814172419
0.00455945028002447
0.0033448584089199
0.00207141505386984
0.000880539947652341
0.000104700723457265
0.00883931695588108
0.0082225818386561
0.00747718662339773
0.00660114700335205
0.00560359054148447
0.00449445852771103
0.00328582368253293
0.00202678790542934
0.000858534870783093
0.000101799242062426
0.00932720545222884
0.00880605429485375
0.00816608478225268
0.00740002474482429
0.00651189705221479
0.00551156341202424
0.00440671200904324
0.00321015663236636
0.00197289350616577
0.000832739724844936
9.83806704053654e-05
0.0097202461081457
0.00928322888532437
0.00873734962352827
0.00807245835452617
0.00728810578255334
0.00639162331981261
0.00539165508657311
0.00429525187156719
0.00311696955039595
0.00190836524904581
0.000802269513197732
9.43660095816141e-05
0.0100251802818873
0.00966206547444904
0.00919947033239172
0.00862578451819333
0.00793752020505518
0.00713895118333923
0.0062375725794995
0.00524111611092872
0.00415768791275276
0.00300395497830546
0.00183129417925111
0.000766308967338459
8.96908544092427e-05
0.0102470367650626
0.00994860395089256
0.00955941417033799
0.00906707401494802
0.00846616404703439
0.0077584789913447
0.006949406931397
0.00604581178153523
0.00505601607583211
0.00399034429010243
0.00286778119635497
0.00173921232253476
0.000723940336176976
8.42918781484824e-05
0.0103891109491727
0.0101469546123764
0.0098222103712875
0.00940205379894842
0.00887975842087791
0.0082552198103856
0.00753185150390751
0.00671471471031579
0.00581107485460174
0.00483115997388431
0.00378818226776567
0.00270387102155659
0.00162888346298355
0.000673838435949591
7.79960281675113e-05
0.000107150078262628
0.000887025664988619
0.000109229012146884
0.00208846477889806
0.000900260837477349
0.000111735162841805
0.00338514909304389
0.00210574781610993
0.000917021612966383
0.000113234855223433
0.00462308095708904
0.00339819988240823
0.00212589505447552
0.000927535732697208
0.000112973090987782
0.00573767711440146
0.00462765379960999
0.00340895095429042
0.00213667693030279
0.000926426111159286
0.000111446913906596
0.00671078834913828
0.00573315459526846
0.00462336307196256
0.0034075404103645
0.00213011119532685
0.000915634652522808
0.000109427212133281
0.00754609383850029
0.00669915190780349
0.00571330137507561
0.00460313254912424
0.0033868950325022
0.00210703993703677
0.000899615217237147
0.000107218828644143
0.00825558140739902
0.00752922270420678
0.00666646196299576
0.00567316563390046
0.00456198275008826
0.00334637551672117
0.00207209032245351
0.000880702212860864
0.00010475090839874
0.00885236709677184
0.00823375740605103
0.00748652444017757
0.00660867429004782
0.00560935837475764
0.00449855757395977
0.00328838326731072
0.00202804997832558
0.000858925111714363
0.000101880072237458
0.00934791316690176
0.008824388993292
0.0081820343342792
0.00741353605687695
0.00652293223531277
0.00552013610080728
0.00441291297566649
0.00321415797724087
0.00197498707179859
0.000833456665557044
9.85019245329398e-05
0.00975152521224883
0.00931159565720655
0.00876272848697561
0.00809469640662685
0.00730703677301284
0.00640715469161953
0.00540382263692547
0.0043041783568491
0.00312285217447335
0.00191155158714
0.000803420027275125
9.45383839486121e-05
0.0100705857040091
0.00970399392330134
0.00923776115158146
0.00866015447344763
0.00796765102690644
0.00716460344900182
0.00625866251238347
0.00525771456735987
0.00416997672043586
0.00301218085194396
0.0018358181043154
0.000767995733498867
8.99262278547715e-05
0.0103108334838816
0.0100083591295773
0.00961485136969748
0.00911774319687645
0.00851153622020439
0.00779811988335064
0.00698308769876176
0.00607351589096892
0.00507788623989747
0.00400663470286285
0.00287881613033464
0.00174540560520251
0.000726294383161811
8.46022523290503e-05
0.0104765056876092
0.0102297741579541
0.00990002407834948
0.00947417970548155
0.00894540287388033
0.00831371927328254
0.00758279368238677
0.00675793266042845
0.00584662939479638
0.00485929061331116
0.0038092394594246
0.0027182569109878
0.00163708401404445
0.000676961629721468
7.84014159066213e-05
0.0105701707237268
0.0103715873645184
0.0100974483760179
0.0097344721181683
0.00927484142678741
0.00871710907567096
0.00806321933615453
0.007316678537441
0.00648313215147133
0.00557170702348472
0.00459548787425284
0.00357123976292203
0.00252426959404451
0.00150588543452456
0.000617474315053941
7.09404804888453e-05
0.000107172313320414
0.000887188354410972
0.000109246547244274
0.00208869068448882
0.000900362272704359
0.000111747708608503
0.00338538129864757
0.0021058715360152
0.000917060865030061
0.000113243242535623
0.00462336611878342
0.00339833071856471
0.00212592343472759
0.000927518466345088
0.000112978679843101
0.00573824468177574
0.00462794368768077
0.00340904249380447
0.00213664815595037
0.000926372443700723
0.000111452403595224
0.00671208956309746
0.00573398149191498
0.00462380819554713
0.00340770258248713
0.00213009638560828
0.00091557199503309
0.000109435653016552
0.00754884106384028
0.00670116738377604
0.00571467341054014
0.00460396153829639
0.00338729342124268
0.00210713775468272
0.000899580645024877
0.000107234336560015
0.00826079929765417
0.00753339931258962
0.00666966840131051
0.0056754812030428
0.00456350595487457
0.00334722771372827
0.00207241951084007
0.000880743424927909
0.000104779438752008
0.00886145764318022
0.00824144808956695
0.00749286102225889
0.00661369531667704
0.00561312256066982
0.00450115871305284
0.00328994522586746
0.00202875757862471
0.000859107739358757
0.000101928992956218
0.00936272379316178
0.00883739422829136
0.00819324772299341
0.00742293889378403
0.00653051665668346
0.00552594325345379
0.004417028425874
0.00321673100914913
0.00197626845799352
0.000833861269224451
9.85800212684308e-05
0.00977441621659291
0.00933223433881213
0.00878108526333438
0.00811067857498293
0.00732054271501231
0.00641814145336326
0.00541232137390202
0.00431030784545865
0.00312680419211616
0.00191362625223487
0.000804136203923935
9.46545338334674e-05
0.010104493141397
0.00973517000873338
0.00926611587318011
0.0086854995456058
0.00798976582553779
0.00718332312333984
0.00627393735151578
0.0052696205977987
0.0041786745679936
0.00301790082851048
0.00183891318314124
0.00076911629391513
9.00904348791218e-05
0.0103593184845956
0.0100536177313244
0.00965670911890731
0.0091558860239809
0.00854558867876559
0.00782777023964798
0.00700817171515323
0.00609402256529687
0.00509394546525847
0.00401846700537919
0.00288669155453698
0.00174974003825628
0.000727913300651927
8.48250972236016e-05
0.0105438096721417
0.0102933708896431
0.00995962149704952
0.00952929236231164
0.00899545817276218
0.00835821256043679
0.00762139119830882
0.006790510278606
0.00587326326963022
0.00488019881658903
0.00382473273031314
0.00272869129545401
0.00164288950745074
0.000679194141303078
7.86919999270677e-05
0.0106614809241249
0.0104587035778218
0.010179980453281
0.00981169702858276
0.00934592940143777
0.00878130569940344
0.00811998546220617
0.00736574514636144
0.00652446353027232
0.00560547661862823
0.00462203147215332
0.00359098419882287
0.00253766752744639
0.00151342673597971
0.00062031961491594
7.12617672872588e-05
0.0107141600204437
0.0105522025575872
0.0103211792196831
0.0100073158168286
0.00960199532949581
0.00910263072619863
0.00850988562312787
0.0078258276820278
0.00705443597014331
0.00620299297034222
0.00528318799402548
0.00431140775016352
0.00330856227429147
0.00230466255843016
0.00135321947561977
0.000546431064937245
6.51239728922896e-05
0.000107199877320217
0.000887394735559422
0.000109268698037081
0.00208902282280252
0.00090052043002945
0.000111765444441614
0.0033857377684245
0.00210609730275449
0.000917158600716152
0.000113255753166676
0.00462372434314924
0.00339856067726432
0.00212604322859662
0.000927556136374073
0.00011298632319153
0.00573872266096074
0.00462822695611299
0.0034091775152465
0.00213667919209062
0.000926357763512404
0.000111457845005831
0.00671298090069174
0.0057345467001466
0.00462411211487472
0.00340781235017203
0.0021300834074391
0.000915526793657079
0.000109440677293873
0.0075506507200724
0.00670246294856304
0.00571552397364813
0.00460444388546296
0.00338749251449223
0.00210715027694483
0.000899530562126776
0.000107242449618997
0.00826428542529029
0.00753613490760456
0.0066717151276903
0.00567690690415481
0.00456439288447426
0.00334767604831615
0.00207255348911684
0.000880724750621412
0.000104794785106843
0.00886768769632214
0.00824664598594789
0.00749707409040597
0.00661696519848632
0.00561550683601644
0.00450274376031376
0.00329084722329164
0.00202911485754988
0.000859165924695423
0.000101956518033858
0.00937313878773874
0.00884645208411947
0.00820097573257061
0.00742933854537897
0.00653559784703642
0.00552975590957579
0.0044196665279818
0.00321831383119652
0.00197699931480009
0.000834059440200193
9.86269290909135e-05
0.00979089683826427
0.00934699306396042
0.00879412082159739
0.00812193893600851
0.00732996834950139
0.0064257195287781
0.00541810339284194
0.00431439168978399
0.00312936082762194
0.0019149092774495
0.000804546701897993
9.4728962826642e-05
0.0101294257273536
0.00975798192820308
0.00928676449385874
0.00870386228612848
0.0080056916514008
0.00719670904153896
0.00628476482523639
0.00527795552867159
0.00418466632858379
0.00302175967108308
0.00184094277329851
0.000769818235718353
9.02004144651794e-05
0.0103956528578686
0.0100874089110078
0.00968785423258831
0.00918416849570921
0.00857073892201909
0.0078495680131073
0.0070264992622944
0.00610888835309353
0.00510547178002339
0.00402685063265561
0.00289218591955186
0.00175271074308061
0.00072898691195509
8.49802483623808e-05
0.0105951038733645
0.0103416922049315
0.0100047820200708
0.00957094891275291
0.00903318738278052
0.00839164246583908
0.00765027850005126
0.00681478215536296
0.00589298232930468
0.00489555116679836
0.00383597930182005
0.00273613333743292
0.0016469872642065
0.000680729463073574
7.89017955953051e-05
0.0107319555447041
0.0105257881470546
0.0102433825539601
0.00987089952672923
0.00940030663033833
0.00883029123556459
0.0081631771755747
0.00740293067977234
0.00655562234895659
0.00563077021167892
0.0046417538962395
0.00360550274541297
0.0025473724691304
0.00151882488889509
0.000622386059008336
7.15296660399607e-05
0.0108090257399928
0.0106432259883358
0.0104079669034475
0.0100891711437437
0.00967803163778284
0.00917203306699896
0.00857203254748888
0.00788032854918445
0.00710115562723044
0.00624202309918448
0.00531481297102252
0.00433605848910465
0.00332674122874323
0.00231687668105181
0.00136002812709222
0.000548909972503447
6.61064227513487e-05
0.0105939061082051
0.0108275810467497
0.0106958535431442
0.0105011231274254
0.0102292030509168
0.00987060821139285
0.00942187788364737
0.0088825415729112
0.00825328514956539
0.00753648459395065
0.00673750908730354
0.00586588269041185
0.00493617640302044
0.00396836619344528
0.00298810921105237
0.00203172915546345
0.00115791442384159
0.000452474288903946
3.63244088529312e-05
0.000107233535551044
0.000887649750222457
0.000109297201599457
0.00208946032914777
0.000900730139060373
0.000111787978138981
0.00338622522730258
0.00210642849474347
0.000917315282737757
0.000113273038921377
0.00462419889244943
0.00339891422605754
0.00212626577588192
0.000927652265222549
0.000112997457347421
0.00573922123396488
0.00462858278780926
0.00340940730680641
0.00213679807278448
0.000926392990483581
0.000111465092230573
0.00671367946171392
0.00573502199460805
0.00462440284450163
0.00340795672743695
0.00213012188993075
0.000915516778969432
0.000109445752669639
0.00755189341698391
0.00670334983467352
0.00571610486064757
0.00460477207997337
0.00338762601122393
0.0021071557046422
0.000899492575764897
0.000107247294536728
0.00826661899325761
0.00753793604922112
0.00667303373915654
0.00567779653419369
0.00456491715262476
0.00334791165139558
0.00207259589590612
0.000880686171155488
0.000104802330842653
0.00887190902934445
0.00825011740884431
0.00749983891215146
0.00661906233914461
0.00561698730789838
0.00450368091034714
0.00329133741892649
0.00202927117002697
0.000859158970848871
0.000101971020798589
0.0093803516286695
0.00885265811012408
0.00820620700116226
0.00743360729118551
0.00653892281606012
0.0055321875066441
0.00442129165701587
0.00321924018397441
0.00197737737960043
0.00083413035061105
9.8652868543019e-05
0.00980257412336741
0.00935736957724835
0.00880321108015198
0.00812971740164208
0.00733640316834192
0.00643081560861047
0.00542191918502642
0.00431702334694189
0.00313094296084279
0.00191565022938644
0.000804752725419241
9.47730848776395e-05
0.010147474154777
0.00977440283118527
0.00930154502408262
0.00871692549845173
0.00801693664012997
0.00720607268715559
0.00629225498501513
0.00528363932924994
0.0041886691223502
0.00302426655712345
0.0018422062254547
0.000770223325424509
9.02701848816909e-05
0.0104224770941615
0.0101122519562705
0.00971066210114211
0.0092047943854166
0.00858899085485515
0.00786529142822994
0.00703962695087005
0.00611943772580515
0.00511355079206382
0.00403263597715941
0.00289590311489806
0.00175466469547337
0.000729658447403667
8.50831472993916e-05
0.0106336594951593
0.0103778972151877
0.0100385214472078
0.00960198098768052
0.00906120082609359
0.00841636329697509
0.0076715392356268
0.00683252820803642
0.00590728257451892
0.00490657343155991
0.00384395348508462
0.00274133584667493
0.00164979298633946
0.000681738276630016
7.90473098691981e-05
0.010785790251933
0.0105769026846921
0.010291577147877
0.0099158037634439
0.00944145280477359
0.00886725079860189
0.00819565167536339
0.00743076638478513
0.00657883230102177
0.00564949185264152
0.00465622713215818
0.00361602998032481
0.00255429367679149
0.00152263121193269
0.000623809672647171
7.1728607708302e-05
0.0108823470678271
0.0107134651356694
0.0104748207980397
0.0101521074257167
0.00973637715597424
0.00922515872461267
0.00861946850171435
0.00792179249228076
0.00713655456911534
0.00627143799738494
0.00533848754166909
0.0043543610096126
0.00334009517938706
0.0023257122154485
0.00136494677949411
0.000550824120300436
6.68207037008933e-05
0.0109255151441286
0.0107904068240655
0.0105917927213001
0.0103152306948304
0.00995112795423215
0.00949600931524491
0.00894958844398814
0.0083127795369873
0.00758818237065599
0.00678140183021052
0.00590218623365891
0.00496528408517459
0.00399080036381493
0.00300444410162464
0.00204253835358557
0.00116385001336753
0.000455418050626453
3.70121354945971e-05
0.0107040652701541
0.0105760313230593
0.0109160275005031
0.0108090290503514
0.0106443361424755
0.0104077783141569
0.0100891779890151
0.0096840717904571
0.00919107973606415
0.00860962490745779
0.00794048195152893
0.00718714861258848
0.00635691503619357
0.00546177004972024
0.00451924850537514
0.00355302841141211
0.00259434074797941
0.00168861010905193
0.00090330058129319
0.000307045895366014
1.22212751051417e-05
0.000887955329015262
0.000109330684144198
0.00208999574869256
0.000900984599412044
0.00011181521034498
0.00338684663790847
0.00210686196520166
0.000917523403837325
0.000113293045374315
0.00462481093848335
0.00339940002903682
0.00212659324312532
0.000927804792529132
0.000113012659902214
0.00573980691344817
0.00462905542247517
0.00340975819701819
0.00213701710630542
0.000926482892327089
0.000111475594064819
0.0067143302781668
0.00573551837992316
0.00462476114002518
0.00340818896910464
0.00213024115185941
0.000915553256803501
0.000109452610327575
0.00755282984007495
0.00670404492944202
0.00571658916498202
0.00460507647977365
0.00338778300532131
0.00210720374402563
0.000899485774004367
0.000107251619438602
0.00826822455884317
0.00753917219378481
0.00667393641617294
0.00567840372371418
0.0045652729632837
0.00334806901187965
0.00207262121952075
0.000880656859787511
0.000104806578248341
0.00887476704756342
0.00825244003351094
0.00750166215185496
0.00662041855402438
0.00561791740238101
0.00450424224956842
0.00329160515809017
0.002029330748955
0.000859128442958568
0.000101977624235501
0.00938529119604352
0.00885686181272239
0.00820970595889456
0.00743641765442047
0.00654106565712153
0.00553370819241877
0.00442226385998337
0.00321975915353054
0.00197754844816805
0.000834132385477047
9.8665899685035e-05
0.00981072839883056
0.00936455411216643
0.00880944726800469
0.00813499573619179
0.00734070920218814
0.00643416351049746
0.00542436582045366
0.00431866072667909
0.00313187418376223
0.00191603906887297
0.000804830331627082
9.47968223610099e-05
0.0101603415797512
0.00978603556075246
0.00931194789857656
0.00872605245604569
0.00802472216914638
0.00721248061849001
0.00629730572281036
0.00528740678859786
0.0041912539113189
0.00302582315999504
0.00184293988341047
0.000770427281163793
9.03107937140566e-05
0.0104419829377549
0.010130232600392
0.00972709463762767
0.0092195814723742
0.00860199774642546
0.00787641182233846
0.0070488246899175
0.00612674967379008
0.00511906503510791
0.00403650563930348
0.00289832267426434
0.00175588299495808
0.00073004399984451
8.51473122125834e-05
0.0106622183791049
0.0104046213035813
0.0100633448696
0.00962473533800011
0.00908165909305178
0.00843432577157355
0.00768689155139072
0.00684525019022004
0.00591743348009048