/*--------------------------------*- C++ -*----------------------------------*\
  =========                 |
  \\      /  F ield         | OpenFOAM: The Open Source CFD Toolbox
   \\    /   O peration     | Website:  https://openfoam.org
    \\  /    A nd           | Version:  12
     \\/     M anipulation  |
\*---------------------------------------------------------------------------*/
/*   Windows 32 and 64 bit porting by blueCAPE: http://www.bluecape.com.pt   *\
|  Based on Windows porting (2.0.x v4) by Symscape: http://www.symscape.com   |
\*---------------------------------------------------------------------------*/
FoamFile
{
    format      ascii;
    class       volScalarField;
    location    "100";
    object      omega;
}
// * * * * * * * * * * * * * * * * * * * * * * * * * * * * * * * * * * * * * //

dimensions      [0 0 -1 0 0 0 0];

internalField   nonuniform List<scalar> 
10123
(
4.35222769822271
4.36914151439339
1.49082374391335
4.28403901991065
4.3808042069355
1.4970506337908
4.30077573297748
0.928327706611154
1.46992937013084
4.20770299417776
4.38864279927954
1.50150301312858
4.31240887434137
0.931973041642584
1.47611024371964
4.22436298789175
0.719890352543966
0.920541740145729
1.44136741510669
4.13091407192038
4.39369693362875
1.50467237803904
4.32021045851836
0.934685541936
1.48053741091224
4.23604356725733
0.722414092809347
0.924177526266192
1.44749507515548
4.14758705528475
0.619909158282882
0.716677497135287
0.907920740490993
1.41429063383795
4.06642074115836
4.39675780425186
1.50704409914155
4.32523198177216
0.936671179676592
1.48369307153615
4.24388722026297
0.72433128434841
0.926876982177903
1.45190635492684
4.15938855589772
0.621793850418184
0.719206412051848
0.911541425750585
1.42038720099195
4.08318800466526
0.565398341921087
0.618547172174357
0.710356071354767
0.89424919446987
1.39250385176865
4.00877758866496
4.39857407037993
1.50888143652699
4.32829296450259
0.938132043222921
1.48611650213508
4.24893453268562
0.72575828887464
0.928853506205165
1.45506030129623
4.16734194467816
0.623237493722583
0.721119654979425
0.914234179542711
1.42479912896745
4.09515634782279
0.566851436451333
0.620443414608721
0.712889226237473
0.897857809371824
1.39859343923792
4.02565354631499
0.53343060505851
0.56478831156318
0.614969897705657
0.702409120043289
0.881633097262252
1.37367160595808
3.94611893203217
4.39965864687819
1.51020502798616
4.33003138394556
0.939238646790232
1.48795741576446
4.25202447180965
0.726808070669127
0.930317087794849
1.45749763221109
4.17248117664899
0.624321386358971
0.722542542995324
0.91620997529619
1.42796584976329
4.10326409805065
0.567967859444207
0.621888039983965
0.714806073821751
0.900549752456469
1.40301800277002
4.03775664471804
0.534560788493907
0.566256114269945
0.616880269493662
0.704945902223361
0.885235440452747
1.37975974904565
3.9630208861313
0.513840192516192
0.533078193656796
0.562436822806605
0.609799635473999
0.693995906630224
0.869762941141774
1.35368305810486
3.87176892625609
4.40016143607678
1.51114599424708
4.33103511100134
0.940046518430488
1.48927196715779
4.253777705045
0.727587126445828
0.931419227470716
1.45935290897342
4.17566731468396
0.625121137397986
0.723590808654515
0.917679533330996
1.43043287913193
4.10854969599284
0.568809038732727
0.622971006209229
0.716232966396832
0.902531248733795
1.40621107735168
4.04600357070706
0.535429504131364
0.567376331826261
0.61833483278072
0.706869959733494
0.887930087470948
1.38419526423706
3.97519428202846
0.514713356785937
0.53422470132393
0.563924086727433
0.611724416321841
0.696536517954406
0.873359273264187
1.35975089372919
3.88863577344001
0.5015256855711
0.513553712789941
0.531241455594276
0.558657303654906
0.603718913424023
0.685381868191067
0.857321401681344
1.33012103805067
3.78394048838876
4.40033776770922
1.51178659310927
4.33153129704867
0.940624597107346
1.49019920086546
4.25470239091894
0.728154047239756
0.932219731760225
1.46067768350286
4.17750072860951
0.625709208584312
0.724367269364582
0.918786104046702
1.43231364540626
4.1118500744542
0.569430426590136
0.623770167040367
0.717286548126158
0.90401306129351
1.40874409821881
4.05141195389622
0.536084236645499
0.568218651878168
0.619425436779148
0.708305372153501
0.889920987824141
1.38742063136553
3.98352584812887
0.515383782328426
0.535098838192806
0.565058130936376
0.613192975433205
0.698468203247658
0.876055008742103
1.36418810912609
3.90082850843328
0.50218676574672
0.514444077916836
0.532410565832418
0.56016605606531
0.605657744069665
0.687924967985151
0.860904345874645
1.33614173297776
3.80068643930502
0.493706237248734
0.501253554651053
0.511925562873745
0.528155508242333
0.553930482236962
0.597116014470715
0.676267443336784
0.843328499507724
1.30226462710519
3.68147603829101
4.40038799475645
1.51221485967154
4.33171631403826
0.941027995381269
1.49083916332143
4.25519767620723
0.728558790438101
0.932791468331425
1.46159874639862
4.17845318182988
0.626134586678735
0.724930774245759
0.919587899251881
1.43365892659818
4.11375551100326
0.569884677412164
0.624357066076553
0.718067227409688
0.905128960901654
1.41064139819824
4.05482123147008
0.536567261158373
0.568840656653333
0.620231192617107
0.709368614438145
0.891421310714859
1.39002552829364
3.98901471513069
0.515887802325465
0.535755920515741
0.565910662787697
0.614295899321383
0.699913075500168
0.878054794524892
1.36749714702106
3.90920646383743
0.50269301795854
0.515120862382843
0.533300971283104
0.561319055055254
0.607140555145482
0.689862094637572
0.863595069479484
1.34056275888474
3.81282845497922
0.494188745906899
0.501932395933897
0.512840572968983
0.52935101899423
0.555461633563853
0.599067880239482
0.678809374954956
0.846886443929641
1.30820987136796
3.69799022823777
0.488764327318021
0.493444618761066
0.499726451056263
0.509204540239651
0.524237867372533
0.548657318942466
0.590068867675613
0.666317324332948
0.827347492700859
1.26986068452353
3.56244694349735
4.40045216331674
1.51250933045819
4.33176835925727
0.941306456278902
1.49127125573899
4.25539435016154
0.728843124954485
0.933191399131737
1.46224133790363
4.17888443781353
0.626437058377571
0.725332862288096
0.920158419569631
1.43458971127649
4.11476047295046
0.570210946013935
0.624781174772274
0.71863256279647
0.905937556997
1.41199951062172
4.05682088105958
0.53691811786315
0.569294863724085
0.620823083986599
0.710156784811284
0.892546299351416
1.39193291341155
3.99249736426887
0.516258592940652
0.536240469018865
0.566540718404655
0.615112518934665
0.700987372517026
0.87957317342305
1.37010240684999
3.91474357590225
0.503071924332413
0.515628060575103
0.533969949606456
0.562187141010118
0.608256566028944
0.691314499577764
0.865602565523035
1.34395923200609
3.82118492527432
0.494556174895382
0.502445604877413
0.513535228743654
0.530263969389551
0.556634816173238
0.600563288032798
0.680747978993831
0.849563183156308
1.31260033189326
3.7099953341108
0.489094899239019
0.493945342388146
0.500431451164818
0.510149624060255
0.52546249464291
0.55021124729471
0.592032296996019
0.668853039364505
0.83086806291584
1.27571194197714
3.57860093432759
0.485705669442024
0.488518555760744
0.491989633474149
0.497231089937684
0.50580531176129
0.519882121877346
0.543051422033167
0.582543315862935
0.655356810948913
0.809216520713123
1.23254054102383
3.42418933356214
4.40061696289216
1.51272125732083
4.3318323825014
0.941502030357017
1.49156830560431
4.2554566726116
0.729042656122207
0.933468490829667
1.46268168279546
4.17905190827515
0.626649925450778
0.725615431630465
0.920558503390626
1.43522789537765
4.11522534377889
0.570441577887885
0.625082609761051
0.719035775235586
0.9065092643587
1.41294323239064
4.05789364889477
0.537167713014255
0.569620921398885
0.621250499739435
0.710726824115336
0.893360749029841
1.39328940145825
3.99458527700734
0.516524983983445
0.536592082460264
0.567000893096868
0.615712781316656
0.70178303607087
0.88070317028388
1.37200065376108
3.91827629172933
0.503348200096742
0.516000860778369
0.534463777413917
0.562829864716926
0.609084915212887
0.692398054821315
0.867128757241847
1.34653368349324
3.82672672183869
0.494829041006118
0.50282824672908
0.514055586809963
0.530950956870553
0.557519935383287
0.601690816887978
0.682204479859691
0.851573616105285
1.3160527204819
3.71824450834814
0.489343744938749
0.494320164675662
0.5009636750459
0.51086954971301
0.526400578655017
0.551404130864322
0.593538117185023
0.670788377346734
0.833522724084978
1.28014363461899
3.59035676955396
0.485905928089035
0.488867752081721
0.492517777613082
0.497969129159892
0.50678505368593
0.521138051712251
0.544628626248356
0.584516817669004
0.657881031252927
0.812689188663898
1.23828578631282
3.43985574422007
0.483892058870437
0.485479212998483
0.487129702454992
0.489663287287264
0.494200188672382
0.502116856577997
0.51534413009275
0.537220720470043
0.574551165845659
0.643380241010513
0.788886878090676
1.18978240178287
3.26312746880844
4.40093393200841
1.51289961210197
4.33198829832961
0.941650963089819
1.49178649762973
4.25552356511985
0.729186972082273
0.933664318581043
1.46298687950068
4.1791295443072
0.626801002349274
0.725813922915043
0.92083730357129
1.43566756145516
4.1154004624654
0.570603687404432
0.625294721166715
0.719319469078808
0.906909771948081
1.41358571564782
4.05838995895847
0.537342561753405
0.569851311027896
0.621554378868273
0.711132686699199
0.893934506898372
1.39423021199478
3.9957278772969
0.516711908904293
0.536842114823234
0.567331336342978
0.616145773307778
0.702357801355561
0.881518341659663
1.37334428034778
3.92040105714194
0.503543386667785
0.516268522434878
0.534822205349024
0.563299596292534
0.609693851744256
0.693198691518297
0.868256059990781
1.34840330125691
3.83027036311089
0.49502423614617
0.503106866150713
0.514438329961623
0.5314592004237
0.558176666265978
0.602529416049647
0.683293175545433
0.853096747086144
1.31859002805313
3.72372970426944
0.489524921253243
0.49459715071818
0.501360357797467
0.511409998436865
0.527108081983643
0.552305629321081
0.594674856586104
0.672244856738393
0.835533935775933
1.28354463726403
3.59841135212602
0.486052195009792
0.489124437862812
0.492912554596598
0.498528788374732
0.507534282537785
0.522102260276491
0.545840649655161
0.586031023560365
0.65980861585839
0.815319265621323
1.24276484945069
3.4512465183287
0.483978994868714
0.485698512265859
0.487507432462714
0.490227011143548
0.494977594579646
0.503135325829521
0.516633791938426
0.538822268241935
0.576533633081212
0.64588826431428
0.792303007064374
1.19552925994311
3.27818717093896
0.482902434009817
0.483685337557877
0.484153682950686
0.484946098742549
0.486919834855223
0.491024753313712
0.498406249390864
0.510797975645572
0.531297204777192
0.566235408163567
0.630559585589294
0.766436802860097
1.14104543815893
3.07447047044493
4.40144633868938
1.51308232742774
4.33229467010576
0.941777730170379
1.49196947503381
4.25567628333542
0.729299974042239
0.933812693715466
1.46321196565364
4.17919980402192
0.626913088633518
0.725957707842053
0.921035432223118
1.43597814697796
4.11545219069906
0.570719843661172
0.625445291090953
0.719519216112587
0.907189530623201
1.41402283970654
4.0585808347243
0.537465005815477
0.570013226274256
0.621768398696027
0.711418229637815
0.89433450114393
1.39487176030114
3.99626969442677
0.516841038377229
0.537017212688635
0.567564995791152
0.61645362431486
0.702765552887229
0.882091226431072
1.37427253807285
3.92157888366767
0.503677399004117
0.516456285767359
0.535077356825592
0.563637008429632
0.610132449721459
0.693775897823468
0.869065495767474
1.34972176627312
3.83240838528947
0.495158204064507
0.503303651055473
0.514713471263161
0.531828403871011
0.558656842939516
0.60314535327079
0.684094777405663
0.854212736740188
1.32041557322938
3.72723446830206
0.489649715626843
0.494795006613603
0.501649484694345
0.51180834265429
0.527632815048933
0.552975739328692
0.59552134102903
0.673333988352825
0.837038647749641
1.28601871697484
3.60376580666047
0.48615318461165
0.489310014608076
0.493204245865512
0.498947201775871
0.508098443943201
0.522830883267943
0.546757450960334
0.587174756596679
0.661261470875216
0.81731453636985
1.24606071564839
3.45902967868299
0.484034649386701
0.485852950296664
0.487784939341851
0.490651155855835
0.49557009334035
0.503916369242714
0.51762516364263
0.540053471072744
0.57805469344938
0.64780452298298
0.794902118813532
1.19986877229706
3.28912682625924
0.482886398790611
0.483791667094234
0.48440255488078
0.485361626673517
0.487527028185565
0.491847380194335
0.499467733980224
0.512124590634675
0.532924984317946
0.568226484766186
0.633047682848825
0.769796551402861
1.14667147559528
3.08880902397102
0.482455118249881
0.482713909082037
0.482418665537019
0.48209577838272
0.482440550348197
0.484156743652053
0.487976407263802
0.494879732187785
0.506450671090897
0.525538469097838
0.557942494965954
0.617327190114877
0.742228384385328
1.08576908911002
2.85296597911869
4.40215803060807
1.51327272568429
4.3327836036394
0.941899823530044
1.4921490664931
4.2559724888072
0.729400220576375
0.933939059867385
1.46339987620697
4.17935246669496
0.627004492106416
0.726070443448831
0.921185650936752
1.43621031998906
4.11550725574419
0.570808398198743
0.625557059176225
0.719664237930419
0.907389338307688
1.41432901073177
4.05865354672941
0.537553568868178
0.570129221174301
0.621920486389801
0.711619504971654
0.894613281327123
1.39530816156858
3.99649092621594
0.516930790249415
0.537139796400661
0.567729361890283
0.616670536342636
0.703051878699564
0.882487283009221
1.37490221159005
3.92216366204515
0.50376783449969
0.516585973321329
0.535256279252962
0.563875772304648
0.610443863336948
0.694183275352208
0.869632511074678
1.35062849226246
3.8336042598619
0.495246620790914
0.50343876581231
0.51490686196647
0.532091621304089
0.559001617454658
0.603588154352265
0.684670892391785
0.855009904521555
1.3216952396064
3.72935593967221
0.489730381859935
0.494930824119697
0.501854215856551
0.512095348656226
0.528014294738646
0.553465637169866
0.596142001997733
0.674132203542572
0.838134652778788
1.28778512951482
3.60718905195895
0.486216272702431
0.489437734252817
0.493413119562598
0.499253051617513
0.508515289214734
0.523372292380986
0.547439857109976
0.588026759739851
0.662345781888465
0.818792767300122
1.24844843262346
3.46419132701503
0.484064784699144
0.485958633548876
0.487985789733087
0.490965869946941
0.496014915453702
0.504506031035405
0.518375321956739
0.540985045703238
0.57920351210629
0.649250238747532
0.796868988818748
1.20304476994962
3.29658448765492
0.482860225116613
0.483855827723918
0.484578526834829
0.485670169442136
0.487987210026457
0.492476681938918
0.500283132309057
0.513144901958434
0.534176206951601
0.56975365020745
0.634949168337821
0.772355111652373
1.15080763144612
3.09924587875587
0.482337253962713
0.482717616598835
0.482555460928437
0.48238445074871
0.482903135851436
0.484814882277634
0.488850280809058
0.495989380421237
0.507818542680118
0.527195438430424
0.559942928885755
0.619793402631692
0.745517690509891
1.09112992960118
2.86653336821303
0.482352736495023
0.482282258395855
0.481499866749774
0.480471554191728
0.479792367164234
0.480018336531093
0.481650312968418
0.485279861631505
0.491791815493703
0.502642292062244
0.52042269511829
0.550347174417409
0.604591448688252
0.717297617089709
1.02425162844405
2.59579592577886
4.40306208360437
1.5134986916913
4.33346102806203
0.942036349390418
1.49234415382997
4.25644159654255
0.729501853704575
0.93406252324091
1.46358212556426
4.17964195825367
0.627089550096841
0.726170527929144
0.921313485963557
1.43640371918625
4.11566322191123
0.570884068239114
0.625648259924828
0.719777990427901
0.907541432631024
1.41455841232947
4.05872413214152
0.537623335273939
0.570217658409635
0.622033439960219
0.711765850370822
0.894812144390998
1.39561086400071
3.99657380639391
0.516996419460673
0.537228432246175
0.567847171087609
0.616824758862497
0.703253456940847
0.882762153064725
1.3753248480792
3.92241809195122
0.50382976619378
0.516676080112144
0.535381688925323
0.564043862262157
0.610663052183243
0.694468157053662
0.870022591699333
1.35123755570761
3.83420071447909
0.495303627410737
0.503529960228051
0.51504074584104
0.532276518787749
0.55924554627021
0.603901561790145
0.685075899067773
0.855565662568289
1.32256880473253
3.73054409369476
0.489779020664942
0.495020550167627
0.501995313054075
0.512297672402843
0.528286536440606
0.553816824907139
0.596587226016671
0.674703530903863
0.838912731624612
1.28901443992705
3.60925658073774
0.486250147207342
0.489520466033532
0.493557264463151
0.499470545381396
0.508816317713867
0.523766053641399
0.547938246403652
0.588649804212024
0.663136283195351
0.819861307853923
1.25014126982439
3.4674793739471
0.484073416848335
0.486024889751265
0.488124978170145
0.491192491255243
0.496341218462661
0.504942597089258
0.518933174202104
0.541678792893593
0.580059047845183
0.650324258566684
0.798311145799286
1.2053298522214
3.30148155319208
0.482827138381236
0.483890935159051
0.484700041256322
0.485895252678011
0.488330576772543
0.492950841088869
0.500899835785521
0.51391746027889
0.535122863911994
0.570906844508108
0.636383568657429
0.774271222068441
1.15383536699917
3.10627996336726
0.482235380430035
0.482700274805968
0.482641848835051
0.482592881941557
0.483250473979879
0.485316393088568
0.489520348514854
0.496842446606574
0.50887053328386
0.52846842555521
0.56147621899678
0.621677077552491
0.748018020511134
1.09504792444527
2.87638369231858
0.482125651350873
0.482184625717557
0.481534897857513
0.48064983778764
0.48013128592369
0.480536900714358
0.482366994389045
0.486211888580957
0.492956018594137
0.504057075424322
0.522113245023623
0.552359379189445
0.607034484219777
0.720510119012687
1.02938393190288
2.60875188043003
0.482369661682291
0.482191970735738
0.481113806505281
0.479648980975403
0.478340864853084
0.477655802321129
0.477961113177543
0.479638281373396
0.483221348405938
0.489540987013953
0.499947591219791
0.516794608788542
0.544705617702199
0.594222015113589
0.694386453334632
0.959992807682392
2.21610793272684
4.40418094447147
1.51378148235036
4.33433082625294
0.942196787224641
1.49257216846031
4.25709086312984
0.729616295560261
0.934198695813098
1.46377872880196
4.18009605569767
0.627179627693675
0.726272168326933
0.921438360296235
1.43658694922902
4.11596496808168
0.5709585129871
0.62573324705556
0.719878854490002
0.907670803589679
1.41475091885072
4.05888009274494
0.537686418769407
0.570293252222657
0.622125522387652
0.711880685858436
0.894963591819339
1.39583483129639
3.99664850396521
0.517050430775763
0.53729823428313
0.567936923713981
0.616939277568396
0.703399891342389
0.882957642796416
1.37561541878357
3.92251290847042
0.503875771174756
0.516741949001749
0.53547237776426
0.564164355836706
0.610818728873443
0.694668005435587
0.870289576859004
1.35164141004728
3.83444600600831
0.495341432519045
0.503592407801
0.515133935098083
0.532406293644796
0.559417212577796
0.60412151552255
0.685356780810892
0.855945595398402
1.32314977600678
3.73112724683308
0.489806769693184
0.495078468705038
0.502090961965055
0.512438194486205
0.528477965945229
0.554064939055922
0.596900747757811
0.675103499672031
0.839451521388793
1.28984497458295
3.61039984084025
0.486263801225522
0.489570582148039
0.493653255620644
0.499621270089038
0.509029096267622
0.524047050331885
0.548294738323652
0.589095403615208
0.663699177019152
0.820614234084095
1.25130882830607
3.46944124428739
0.484066026144571
0.486061024569105
0.488216376155505
0.491350181774298
0.496574299467759
0.505258365815612
0.519338890967693
0.542184612471749
0.580682384356983
0.651103043365376
0.799345112095765
1.2069365769671
3.30456465077658
0.482787604708341
0.483902961219363
0.484778193691389
0.486053117074523
0.48857944675132
0.493299723992559
0.501356981903467
0.514491988296412
0.535827263902695
0.571763609540559
0.637443217567669
0.775667751467319
1.1560012315137
3.11081986836507
0.482146019830137
0.48267242556328
0.482693326585008
0.4827397443676
0.483506299759318
0.485692385346112
0.490026493129076
0.49748830232828
0.509667130561714
0.529431082434027
0.562633220009418
0.62309549787652
0.749871512471779
1.0978967805905
2.88289070553143
0.48195625850694
0.482091916577669
0.48154046502522
0.480770012611111
0.480380887253817
0.480929482075887
0.482915082010783
0.486927496504409
0.493851133283656
0.505144599436388
0.523410859243745
0.553899968070128
0.608898277095906
0.722923797602343
1.03307608139527
2.61810449324556
0.482091548008803
0.481986513866214
0.48104838538394
0.479727050318598
0.478572079001125
0.478055131638853
0.478544711431191
0.480421988743551
0.484219784436192
0.490767720214685
0.501416714944956
0.518525220246059
0.546734659138099
0.596644289733357
0.697500512139347
0.96493315698321
2.21610689741159
0.482227794534205
0.482422552630236
0.482219574984435
0.481061638819034
0.479345176228749
0.477665009521749
0.476444391552605
0.475972930445041
0.476516960844841
0.478429494706655
0.48224110907039
0.48877215537422
0.499331646079261
0.516141384686193
0.54339398766338
0.590193310085684
0.680470465024718
0.903736921378488
2.28699329689139
4.40560400368079
1.51413094207361
4.33541139689311
0.942390485013897
1.49284849415533
4.25792963264226
0.729752819264104
0.934358927992033
1.46400438649138
4.18073062707465
0.627283812131151
0.726386698775684
0.921575103667587
1.43678211281935
4.11643488740375
0.571041051838054
0.625823315300458
0.719981101248146
0.907796554229922
1.4149355944136
4.05917537587531
0.537752485981628
0.570367665131148
0.622211134139689
0.711982353313456
0.895092664318659
1.39602214723558
3.99679590857389
0.517102877837525
0.537361334403032
0.568013438787428
0.617032470875521
0.703514725882335
0.883106033300186
1.37583030418929
3.92258105621876
0.503916183028812
0.516796110659264
0.53554363547402
0.564256003226129
0.610934157677037
0.694812768462307
0.870477384341965
1.35191552761126
3.83452888518061
0.495370312521814
0.503638766425311
0.515202032779237
0.532500114917012
0.559540140118371
0.604277281365366
0.685552621670141
0.856203593067641
1.32353104633439
3.73134913869642
0.489823377701776
0.495116908655639
0.502156677074012
0.512536238200131
0.528612387490976
0.554239230233018
0.597119737456912
0.675379106405749
0.839816943471661
1.29039023428704
3.6109367680263
0.486265752549229
0.489599376527267
0.493715831145475
0.499724080280998
0.509177284074614
0.524244603671607
0.548545850710135
0.589407825955851
0.664091032847585
0.821131117067029
1.25208784089939
3.47049177768283
0.484048807165816
0.486076309883523
0.488273005811615
0.491456391448327
0.496736712463668
0.505481969573615
0.519628088512321
0.542545604116178
0.581126461051734
0.651654222131773
0.800067398947316
1.20803200913421
3.30636150671654
0.482743858036241
0.483898011229359
0.484823315119341
0.486158765595306
0.488754125985053
0.493549870196878
0.501687896214896
0.514909603455926
0.536339763781337
0.572385440835142
0.638206852363667
0.776660942510863
1.15751015721857
3.11361066581163
0.482064338806613
0.482636494133509
0.482717661227891
0.482837432264686
0.483688042764278
0.485966480082597
0.490399722044113
0.497967277169311
0.510259122204491
0.530146114151823
0.563489942990535
0.624137149847808
0.751214476480205
1.09992432137558
2.88696418249027
0.48181928794306
0.482008045917521
0.481529511449379
0.480847879464323
0.480560384818454
0.481220978134651
0.483327382002086
0.487468802036319
0.494529097464429
0.505967732174167
0.524391196436518
0.555060860565313
0.610296660213333
0.724703874881812
1.03572828629532
2.62408053009339
0.481880103524022
0.481826705557172
0.480979260362375
0.479767646945828
0.478735587083707
0.478353384774777
0.478988878015145
0.481022658606316
0.48498686084141
0.491710583448194
0.502545021325314
0.519851924617588
0.548285708143659
0.598487876228588
0.699814679714126
0.968312119367398
2.21610658901665
0.482148465215198
0.481963648554041
0.480889689305168
0.479324188050931
0.477798400218532
0.476739782367345
0.476442924709725
0.477175494371214
0.479290139555109
0.483315975037079
0.49007149584893
0.50086508011714
0.517921912592134
0.545450004477568
0.592603810987093
0.683500018333858
0.907128607343066
2.2869931937742
0.482224066818985
0.482070261541712
0.482553175722602
0.482282817487376
0.481121380243864
0.479362042239866
0.477484689083024
0.47596948648078
0.475073326510511
0.47500027697231
0.476011670859639
0.478494736164571
0.483035351433389
0.490536426230377
0.50243791743632
0.52116262572468
0.551138389010035
0.601428706072408
0.694018447469
0.929083747113849
2.3816773476856
1.51456778960252
4.33680182528633
0.942628435526434
1.49319576486747
4.25903162549545
0.72991856979757
0.934552783321531
1.46427790988472
4.18163697591451
0.627409403041424
0.726523127282424
0.921735265238134
1.43700735381095
4.11709540469334
0.571139137897566
0.625927464848748
0.720095942067489
0.907933653045232
1.41513353760547
4.05963551035991
0.537829260059532
0.570450167969256
0.62230159457876
0.71208511673571
0.895218472379447
1.39620204647412
3.99707341726925
0.517161850889536
0.537427403626343
0.568088463285424
0.617118824458113
0.703616357315479
0.883232690018468
1.37601040543357
3.92271756420492
0.503959385960922
0.516848654903151
0.535607731139301
0.564333809769088
0.611027891437168
0.694926112290333
0.870619473918685
1.35211469351085
3.83458211828632
0.495398768328074
0.503679415942594
0.515257764039395
0.532573566245435
0.559633401956723
0.604392449408546
0.685693625080484
0.856383278130032
1.3237854899192
3.73140760222807
0.489837126210203
0.495146232056301
0.502205392147537
0.512607819854511
0.5287094484535
0.55436372393202
0.59727409557121
0.675569033040505
0.840062952316613
1.2907424694826
3.61111591205965
0.486263596762976
0.489616720848817
0.493757683497356
0.499795036435689
0.509280848621667
0.524383206652113
0.548721652590002
0.589624406133672
0.664359262561633
0.821478072183259
1.25259057037768
3.47094544969745
0.484027934435705
0.486079426813152
0.488306637371408
0.491526568102052
0.49684814448556
0.505637947819687
0.519831140116211
0.542798721058707
0.581436395360224
0.652035247522149
0.800558203257036
1.20875100369212
3.30726505245301
0.482699442438536
0.483882565285285
0.48484535041694
0.486226142798766
0.488873107949031
0.493724952695542
0.50192241026991
0.515206727293202
0.536704524310431
0.572826400387054
0.638743516556709
0.777347913293931
1.15852433715213
3.11516520566762
0.481988932685581
0.482595356724674
0.482722008679915
0.482897458010098
0.483811944200512
0.486160319194175
0.490668058981704
0.498314066229796
0.510688958964716
0.53066500168205
0.564109040480784
0.624882910601858
0.752161678920444
1.10132273815337
2.88935178720963
0.481702181474405
0.481930162681281
0.481506288226596
0.480892555588389
0.480683436735883
0.481430351057154
0.483629292913303
0.487868544822811
0.495031791797815
0.506578658802924
0.525117653704451
0.555917156177531
0.611317689022786
0.72598597103101
1.03758913194421
2.6276245056728
0.481708857940058
0.481695467849649
0.480912796343084
0.479784060754578
0.478847815417205
0.478571296030848
0.479320649468317
0.481475503781287
0.485567381918745
0.492424562003952
0.503398243713236
0.520852806741429
0.549452023587384
0.599863203043993
0.701512733939576
0.97071382808177
2.21610750088685
0.481918403859898
0.481762058441037
0.480754190808329
0.479291241101535
0.477884287807999
0.476955009575488
0.476797216688901
0.477678357458181
0.479950566526671
0.484141814122258
0.491069460060477
0.502041381542221
0.519284745288355
0.547018332877278
0.594430962998875
0.685704263568914
0.909510741751719
2.28700518891891
0.482268701197941
0.482029945643078
0.480899899114487
0.479235908156999
0.477521096931631
0.476170367974829
0.475444240987068
0.475552033465727
0.476756479293675
0.479444159620612
0.484199082628882
0.491921491688691
0.504049635257371
0.523008993069844
0.5532417631861
0.603855607195129
0.696805689035373
0.932414206861351
2.38167783015298
0.482372616369215
0.482085779504115
0.480943910461109
0.482731076931589
0.482421156726571
0.481212490464163
0.479478991346922
0.47760424281652
0.475956149996047
0.474856873993806
0.47449092063438
0.475076631601193
0.476938919871857
0.480568506454576
0.486718197657245
0.496585729925572
0.512176826499105
0.537052915238964
0.57801700334083
0.649454460323882
0.791112831516262
1.18677125232477
3.68516784033527
0.942922079411443
1.49362013298111
4.26036836522418
0.730121119897064
0.934790470509787
1.46463146828291
4.18277091952731
0.627562706583462
0.726688752337037
0.92192888022917
1.437291694921
4.11798272609714
0.571258985821603
0.626053012540835
0.720232328984987
0.908094138333471
1.41536293876116
4.06028080537212
0.537923100349455
0.570548215892115
0.622405889627572
0.712200194319405
0.895355878462042
1.39639521235796
3.99751365631764
0.517233871873719
0.537504183467446
0.568171310366983
0.61720971050399
0.703719071502868
0.883356599349655
1.37618304835745
3.92297978781424
0.504012122806521
0.516907677224071
0.535674439175025
0.564409659669678
0.611114527395697
0.695026508159938
0.870741574120511
1.35227951406797
3.83470629581706
0.495433739066762
0.503722763410398
0.515311373979792
0.532639143667226
0.559712235158092
0.604485764053585
0.685803788551456
0.856517752604219
1.32396691395021
3.73143131142289
0.489854930410167
0.495174990025421
0.502247698756144
0.512665990797061
0.528785102202138
0.554457853435845
0.597387713541928
0.675704622560908
0.84023238236345
1.29097191163774
3.61112928234922
0.486263873558794
0.489630989659737
0.493789465553122
0.499847516355781
0.509356328600887
0.524483045729496
0.548846728305919
0.589776064877075
0.664542687397539
0.821708771735893
1.25290784768208
3.47105586369208
0.484009114531396
0.486078099074594
0.48832752313706
0.491573985830574
0.496925351459469
0.505747003594717
0.519973294336464
0.542975085735338
0.581649927744892
0.652293902295582
0.800883390611242
1.20920546108727
3.30759819622964
0.482658411716683
0.483862973103718
0.484853477305106
0.486267768555536
0.48895273670626
0.493845622121991
0.502086073425472
0.515414829367593
0.536959268959159
0.573132461358436
0.639111460298941
0.777808977358709
1.1591763371304
3.11587109324267
0.481920784422848