/*--------------------------------*- C++ -*----------------------------------*\
  =========                 |
  \\      /  F ield         | OpenFOAM: The Open Source CFD Toolbox
   \\    /   O peration     | Website:  https://openfoam.org
    \\  /    A nd           | Version:  12
     \\/     M anipulation  |
\*---------------------------------------------------------------------------*/
/*   Windows 32 and 64 bit porting by blueCAPE: http://www.bluecape.com.pt   *\
|  Based on Windows porting (2.0.x v4) by Symscape: http://www.symscape.com   |
\*---------------------------------------------------------------------------*/
FoamFile
{
    format      ascii;
    class       volScalarField;
    location    "100";
    object      p;
}
// * * * * * * * * * * * * * * * * * * * * * * * * * * * * * * * * * * * * * //

dimensions      [0 2 -2 0 0 0 0];

internalField   nonuniform List<scalar> 
10123
(
83333.3243146793
83333.3242744696
83333.3243137722
83333.3243142611
83333.3242349172
83333.3242736988
83333.3242740628
83333.3243131006
83333.3243133786
83333.3243133759
83333.3241960747
83333.3242343018
83333.3242345245
83333.3242727966
83333.3242732974
83333.3242732163
83333.3243137799
83333.3243127018
83333.3243125024
83333.3243118644
83333.3241579611
83333.3241956022
83333.3241957093
83333.3242332545
83333.3242339213
83333.32423372
83333.3242725035
83333.3242723742
83333.3242724313
83333.3242717915
83333.3243157325
83333.3243134378
83333.3243118293
83333.324310994
83333.3243096369
83333.3241206211
83333.3241576212
83333.3241576211
83333.3241944583
83333.3241952468
83333.3241949565
83333.3242321413
83333.3242328273
83333.3242330948
83333.3242323792
83333.3242726145
83333.3242720681
83333.3242714854
83333.3242709923
83333.3242697043
83333.3243186124
83333.3243153645
83333.3243125406
83333.3243103251
83333.3243087728
83333.3243066635
83333.3240840897
83333.3241204004
83333.3241203031
83333.3241564094
83333.3241572798
83333.3241569169
83333.3241926416
83333.324194033
83333.3241944723
83333.3241937009
83333.324230695
83333.3242316394
83333.3242319679
83333.3242317182
83333.3242304219
83333.3242729155
83333.3242721553
83333.3242711357
83333.3242700174
83333.3242688951
83333.3242669207
83333.3243220194
83333.324318167
83333.3243143586
83333.3243109059
83333.3243080441
83333.3243058017
83333.3243029757
83333.324048385
83333.324083969
83333.3240837905
83333.3241191374
83333.3241200662
83333.3241196413
83333.3241540046
83333.3241559783
83333.324156548
83333.3241557399
83333.3241898718
83333.3241921037
83333.3241932065
83333.3241931668
83333.324191866
83333.3242287527
83333.3242301367
83333.3242307093
83333.3242305469
83333.3242297333
83333.3242278113
83333.324273048
83333.3242723676
83333.3242711064
83333.3242695319
83333.3242678423
83333.324266102
83333.3242634666
83333.3243254333
83333.3243213956
83333.3243169323
83333.324312447
83333.3243083615
83333.3243049317
83333.3243021103
83333.3242986549
83333.3240135208
83333.3240483459
83333.3240481018
83333.3240826639
83333.3240836395
83333.3240831652
83333.324116233
83333.3241186992
83333.32411937
83333.3241185336
83333.3241501138
83333.3241534402
83333.3241551752
83333.3241553155
83333.3241540181
83333.324186021
83333.3241892621
83333.3241911769
83333.3241918385
83333.3241912914
83333.324189417
83333.3242260709
83333.3242281403
83333.3242290825
83333.3242291514
83333.3242284682
83333.3242271041
83333.3242245691
83333.3242726616
83333.3242723848
83333.3242711289
83333.3242692521
83333.3242671113
83333.3242649099
83333.3242626358
83333.3242594123
83333.3243284004
83333.3243246308
83333.3243198608
83333.3243145946
83333.3243094411
83333.3243048679
83333.3243010517
83333.3242977992
83333.3242938122
83333.3239795054
83333.324013545
83333.3240132515
83333.3240470046
83333.3240480211
83333.3240475089
83333.3240793336
83333.3240822205
83333.3240829745
83333.3240821192
83333.324111382
83333.324115651
83333.3241179138
83333.3241182043
83333.3241169126
83333.3241446493
83333.324149466
83333.324152519
83333.3241538622
83333.3241535399
83333.3241517144
83333.3241809453
83333.3241853659
83333.3241882119
83333.3241896796
83333.3241898581
83333.3241888092
83333.3241863677
83333.3242224213
83333.3242253931
83333.3242269186
83333.3242273058
83333.3242268498
83333.3242256946
83333.3242238409
83333.3242207567
83333.3242714038
83333.3242718721
83333.3242708992
83333.32426891
83333.3242664231
83333.3242638304
83333.3242612621
83333.3242585746
83333.3242548545
83333.3243304411
83333.3243274097
83333.3243227343
83333.324316986
83333.3243109428
83333.3243053123
83333.3243004977
83333.3242965154
83333.3242929604
83333.3242885671
83333.3239463419
83333.3239795776
83333.3239792487
83333.3240121715
83333.3240132268
83333.3240126875
83333.32404332
83333.324046559
83333.3240473841
83333.3240465172
83333.3240736834
83333.3240787488
83333.3240814509
83333.324081868
83333.3240805872
83333.3241045592
83333.324110732
83333.324114736
83333.3241166471
83333.3241165209
83333.3241147395
83333.3241375489
83333.3241439676
83333.3241484187
83333.3241510705
83333.3241519706
83333.3241511947
83333.3241488393
83333.3241745162
83333.3241802628
83333.3241841726
83333.3241865041
83333.3241874914
83333.324187233
83333.3241857291
83333.324182773
83333.3242175432
83333.3242216672
83333.3242239745
83333.3242248228
83333.3242246425
83333.3242237592
83333.3242222549
83333.3242200059
83333.324216458
83333.3242688813
83333.3242704801
83333.3242700991
83333.3242682288
83333.3242655235
83333.3242625811
83333.3242597386
83333.3242569858
83333.3242540024
83333.3242499011
83333.324331053
83333.3243292551
83333.3243251163
83333.3243192364
83333.3243125367
83333.3243059503
83333.3243001469
83333.3242953625
83333.3242914121
83333.3242876903
83333.3242830458
83333.3239140287
83333.3239464487
83333.323946096
83333.3239781738
83333.3239792667
83333.3239787103
83333.3240082033
83333.3240117276
83333.3240126165
83333.3240117443
83333.3240370019
83333.3240427384
83333.3240458059
83333.3240463312
83333.3240450642
83333.3240657227
83333.3240730351
83333.3240778413
83333.3240802284
83333.324080271
83333.3240785309
83333.3240957738
83333.3241038874
83333.3241096861
83333.3241133314
83333.3241148412
83333.3241142973
83333.3241120216
83333.3241287693
83333.3241368663
83333.3241427983
83333.3241467785
83333.3241489867
83333.3241494831
83333.3241482794
83333.3241454419
83333.3241665634
83333.3241737996
83333.3241789156
83333.3241821975
83333.3241839957
83333.3241845754
83333.3241839806
83333.3241820983
83333.3241787087
83333.3242111328
83333.324216695
83333.3242200232
83333.3242215022
83333.3242216785
83333.3242210564
83333.3242199149
83333.3242182104
83333.3242156754
83333.3242117694
83333.3242646783
83333.3242678038
83333.3242683827
83333.3242669076
83333.32426416
83333.3242609304
83333.3242577876
83333.3242549252
83333.3242521592
83333.3242490076
83333.3242446653
83333.3243296903
83333.3243296644
83333.3243265402
83333.3243209284
83333.3243138637
83333.3243064861
83333.3242997208
83333.3242940713
83333.3242895721
83333.3242858365
83333.3242821088
83333.3242773783
83333.3238825606
83333.3239141585
83333.3239137923
83333.3239450163
83333.323946145
83333.3239455808
83333.323973972
83333.3239777344
83333.3239786815
83333.3239778103
83333.3240013379
83333.3240076214
83333.3240109929
83333.324011612
83333.3240103615
83333.3240281011
83333.3240363758
83333.3240418427
83333.3240446289
83333.3240448136
83333.3240431125
83333.3240555261
83333.3240650684
83333.3240720009
83333.324076479
83333.3240785061
83333.3240781552
83333.324075954
83333.3240850277
83333.324095101
83333.3241027372
83333.3241081052
83333.3241113439
83333.3241124776
83333.324111532
83333.3241088027
83333.3241182242
83333.3241280861
83333.3241355819
83333.3241409306
83333.32414441
83333.3241462295
83333.324146402
83333.3241448332
83333.3241415905
83333.3241568638
83333.3241657902
83333.3241722808
83333.3241766271
83333.324179274
83333.32418064
83333.3241809528
83333.3241801433
83333.3241779843
83333.3241742612
83333.3242028494
83333.3242101707
83333.3242147978
83333.3242171183
83333.3242177776
83333.3242174404
83333.3242165913
83333.3242153862
83333.3242136317
83333.3242109291
83333.3242067923
83333.3242583337
83333.3242634373
83333.3242653636
83333.3242646127
83333.3242620543
83333.324258657
83333.3242552101
83333.324252146
83333.324249485
83333.3242468738
83333.3242436987
83333.3242392637
83333.3243257561
83333.3243280917
83333.3243265069
83333.3243216097
83333.3243145282
83333.3243065894
83333.3242989615
83333.3242924076
83333.3242872234
83333.3242832454
83333.3242799107
83333.3242763568
83333.3242716995
83333.3238519298
83333.3238827043
83333.3238823325
83333.3239127004
83333.3239138616
83333.3239132977
83333.3239406289
83333.3239445838
83333.3239455824
83333.3239447195
83333.323966672
83333.3239734037
83333.3239770206
83333.3239777199
83333.3239764902
83333.3239916702
83333.3240007326
83333.3240067424
83333.3240098605
83333.3240101646
83333.3240085027
83333.3240167466
83333.3240274822
83333.3240353502
83333.3240405223
83333.3240429847
83333.3240427964
83333.3240406626
83333.3240431613
83333.324054886
83333.3240639442
83333.3240704741
83333.3240745807
83333.3240762522
83333.3240755248
83333.3240728945
83333.3240723169
83333.3240843757
83333.3240938718
83333.3241009627
83333.3241058618
83333.3241087298
83333.324109551
83333.3241082545
83333.3241051433
83333.3241057634
83333.3241175163
83333.3241266774
83333.324133456
83333.3241382036
83333.3241412604
83333.324142807
83333.3241427538
83333.3241409169
83333.3241373617
83333.3241451482
83333.3241560095
83333.3241640765
83333.3241696357
83333.3241732097
83333.3241753507
83333.3241764658
83333.324176677
83333.3241757876
83333.3241734639
83333.3241695209
83333.3241923124
83333.324201758
83333.3242079973
83333.3242114141
83333.3242127295
83333.3242127569
83333.3242121679
83333.3242113315
83333.3242102565
83333.3242086058
83333.3242058687
83333.3242016329
83333.3242493446
83333.3242569205
83333.3242606339
83333.324260975
83333.3242588906
83333.3242555052
83333.3242518193
83333.3242484904
83333.3242457756
83333.3242435271
83333.3242412419
83333.3242382032
83333.3242338213
83333.3243185978
83333.3243239416
83333.3243244748
83333.3243207921
83333.3243140989
83333.3243058924
83333.3242975723
83333.3242901545
83333.3242841871
83333.3242797589
83333.3242765237
83333.3242737812
83333.3242705888
83333.3242661701
83333.3238221261
83333.323852078
83333.3238517085
83333.3238812228
83333.3238824136
83333.3238818565
83333.3239081663
83333.3239122751
83333.3239133198
83333.3239124711
83333.3239329842
83333.3239400748
83333.3239438906
83333.3239446604
83333.3239434554
83333.3239563873
83333.3239660868
83333.3239725383
83333.3239759309
83333.3239763356
83333.3239747144
83333.3239793689
83333.3239910828
83333.3239997172
83333.324005463
83333.3240082884
83333.3240082398
83333.3240061672
83333.3240030543
83333.3240161408
83333.324026379
83333.3240338732
83333.3240387063
83333.3240408309
83333.3240402875
83333.3240377471
83333.3240286607
83333.3240425407
83333.3240537046
83333.3240622517
83333.324068343
83333.3240720946
83333.3240734605
83333.3240724018
83333.3240694066
83333.3240575588
83333.3240716647
83333.324083062
83333.3240918876
83333.3240984089
83333.3241028961
83333.3241054872
83333.3241060772
83333.3241045198
83333.3241011106
83333.3240911836
83333.3241050016
83333.3241159619
83333.3241242604
83333.3241303093
83333.3241345586
83333.3241373452
83333.3241387586
83333.3241386019
83333.3241366044
83333.3241328361
83333.3241311101
83333.3241441938
83333.3241540773
83333.3241610375
83333.3241656573
83333.3241686134
83333.3241704715
83333.3241715424
83333.3241718232
83333.3241709954
83333.3241686318
83333.3241645844
83333.3241791072
83333.3241910816
83333.3241992886
83333.3242040992
83333.3242062929
83333.3242068167
83333.3242065208
83333.3242059684
83333.3242053814
83333.3242046255
83333.3242032363
83333.32420061
83333.3241964076
83333.3242371679
83333.3242477535
83333.3242537383
83333.3242555914
83333.3242543178
83333.3242511846
83333.3242473892
83333.3242438093
83333.3242409236
83333.3242388149
83333.3242371798
83333.3242353905
83333.3242326604
83333.3242284847
83333.3243075111
83333.324316564
83333.3243198546
83333.3243179463
83333.3243121071
83333.3243039914
83333.3242952192
83333.3242870524
83333.3242802896
83333.3242752604
83333.3242718564
83333.3242695728
83333.3242676037
83333.3242649423
83333.3242609757
83333.323793135
83333.3238222691
83333.3238219104
83333.3238505774
83333.323851795
83333.3238512498
83333.3238765749
83333.3238808052
83333.3238818914
83333.3238810614
83333.3239002532
83333.3239076265
83333.3239116012
83333.3239124361
83333.3239112581
83333.3239222123
83333.3239324183
83333.323939224
83333.3239428402
83333.3239433349
83333.3239417545
83333.3239433224
83333.3239558286
83333.3239650835
83333.3239712984
83333.3239744233
83333.3239744961
83333.3239724814
83333.323964599
83333.323978797
83333.3239899997
83333.3239982878
83333.324003723
83333.3240062284
83333.32400584
83333.3240033817
83333.3239870921
83333.3240024653
83333.3240150061
83333.3240247591
83333.3240318443
83333.3240363366
83333.3240381605
83333.3240373038
83333.3240344135
83333.3240120112
83333.3240280569
83333.3240413099
83333.3240518432
83333.3240598508
83333.3240655413
83333.3240690122
83333.324070148
83333.3240688322
83333.3240655505
83333.3240406109
83333.3240568756
83333.3240702469
83333.3240808431
83333.324088978
83333.3240950096
83333.3240992117
83333.3241016449
83333.3241021128
83333.3241003967
83333.3240967783
83333.3240742451
83333.3240903464
83333.3241032778
83333.3241132231
83333.3241206412
83333.3241260853
83333.3241300259
83333.3241327203
83333.3241341525
83333.3241340235
83333.3241319805
83333.3241281016
83333.3241144142
83333.324130044
83333.3241420234
83333.3241506143
83333.3241564442
83333.3241603012
83333.324162903
83333.3241647272
83333.3241659618
83333.3241664823
83333.3241658621
83333.3241635895
83333.324159558
83333.3241627902
83333.3241777314
83333.3241883022
83333.3241948493
83333.324198194
83333.3241994004
83333.3241994875
83333.3241992074
83333.3241989746
83333.3241988639
83333.3241986084
83333.3241976361
83333.3241952718
83333.324191248
83333.3242212315
83333.3242353965
83333.324244184
83333.3242480203
83333.3242479511
83333.3242453697
83333.3242416594
83333.3242379105
83333.3242348211
83333.3242326872
83333.3242314229
83333.3242305877
83333.324229461
83333.3242272047
83333.324223427
83333.3242917661
83333.3243052554
83333.3243120029
83333.3243124963
83333.3243080443
83333.3243004457
83333.3242915322
83333.3242828054
83333.3242753119
83333.3242696244
83333.3242658582
83333.3242637194
83333.3242625721
83333.3242615342
83333.3242595956
83333.3242563247
83333.3237649396
83333.3237932716
83333.3237929249
83333.3238207548
83333.3238219973
83333.3238214674
83333.3238458449
83333.323850168
83333.3238512921
83333.323850484
83333.3238684572
83333.3238760494
83333.32388015
83333.3238810429
83333.3238798951
83333.3238891056
83333.3238997059
83333.3239067915
83333.3239105883
83333.3239111637
83333.3239096249
83333.3239085476
83333.3239216797
83333.3239314296
83333.323938022
83333.3239413922
83333.3239415713
83333.3239396138
83333.3239276867
83333.3239427891
83333.3239547663
83333.3239636998
83333.3239696284
83333.3239724495
83333.3239721943
83333.3239698135
83333.3239474609
83333.3239640431
83333.3239777053
83333.3239884467
83333.3239963522
83333.3240014606
83333.324003669
83333.3240029808
83333.3240001877
83333.323968905
83333.3239865314
83333.3240013084
83333.3240132527
83333.3240224948
83333.3240291901
83333.3240333982
83333.3240349938
83333.3240338835
83333.3240307164
83333.3239931263
83333.3240113948
83333.3240267568
83333.3240392627
83333.3240491412
83333.3240566691
83333.3240620625
83333.3240653567
83333.3240663558
83333.3240648799
83333.3240613928
83333.324021293
83333.3240398727
83333.3240553296
83333.3240677673
83333.3240775369
83333.3240850805
83333.3240907828
83333.324094853
83333.3240972628
83333.3240977299
83333.3240959599
83333.3240922258
83333.3240546833
83333.3240733199
83333.3240884331
83333.3241001918
83333.3241090892
83333.3241157705
83333.3241208346
83333.3241246819
83333.3241274671
83333.3241290718
83333.3241291043
83333.3241271329
83333.3241232541
83333.3240947037
83333.3241132313
83333.3241276222
83333.3241381146
83333.3241453659
83333.3241502597
83333.3241536565
83333.3241561967
83333.3241582344
83333.324159834
83333.3241607579
83333.3241604878
83333.3241584401
83333.3241545619
83333.3241428995
83333.3241612681
83333.3241746354
83333.3241833053
83333.3241881243
83333.3241902559
83333.3241908751
83333.3241909168
83333.3241909857
83333.3241913428
83333.3241919205
83333.3241923338
83333.3241919279
83333.3241899817
83333.3241863096
83333.3242009604
83333.3242192808
83333.3242314382
83333.3242377806
83333.3242393672
83333.3242376995
83333.3242343349
83333.3242305679
83333.3242273132
83333.324225081
83333.3242239851
83333.3242237806
83333.3242239122
83333.324223599
83333.324221989
83333.3242188278
83333.3242706834
83333.3242892881
83333.3243002219
83333.3243038128
83333.3243013566
83333.3242947754
83333.3242861047
83333.324277082
83333.3242689992
83333.3242626744
83333.3242584533
83333.3242562413
83333.3242555777
83333.3242557186
83333.324255771
83333.3242547663
83333.3242524983
83333.3237375275
83333.3237650723
83333.3237647349
83333.3237917488
83333.3237930121
83333.323792497
83333.3238159652
83333.3238203561
83333.3238215133
83333.323820729
83333.3238375793
83333.3238453342
83333.3238495314
83333.3238504741
83333.3238493599
83333.3238570304
83333.3238679255
83333.3238752322
83333.3238791718
83333.3238798177
83333.3238783234
83333.323874984
83333.3238885958
83333.3238987358
83333.3239056263
83333.3239091959
83333.3239094683
83333.3239075675
83333.3238922407
83333.3239080491
83333.3239206401
83333.3239300896
83333.3239364172
83333.3239394974
83333.3239393589
83333.3239370521
83333.3239096269
83333.3239271758
83333.3239417346
83333.3239532754
83333.3239618499
83333.3239674641
83333.3239699908
83333.3239694484
83333.3239667465
83333.323928043
83333.3239469385
83333.3239629513
83333.3239760479
83333.3239863052
83333.3239938315
83333.3239986529
83333.3240006296
83333.3239996974
83333.3239966353
83333.3239484569
83333.3239683457
83333.3239853331
83333.323999411
83333.3240107332
83333.3240195065
83333.3240258954
83333.3240299114
83333.3240313571
83333.3240300862
83333.3240267171
83333.323971879
83333.323992472
83333.3240100009
83333.3240245008
83333.3240362287
83333.3240455303
83333.3240527129
83333.324057942
83333.3240611776
83333.32406215
83333.3240606127
83333.3240570055
83333.3239994021
83333.3240204864
83333.3240381782
83333.3240525675
83333.3240640314
83333.3240730894
83333.3240802328
83333.3240857921
83333.3240898916
83333.3240924167
83333.3240930045
83333.3240912883
83333.3240875407
83333.3240322155
83333.3240536647
83333.3240712046
83333.3240849819
83333.3240955124
83333.3241035196
83333.3241097219
83333.324114659
83333.3241186292
83333.3241216843
83333.3241236094
83333.3241239328
83333.3241221554
83333.3241184045
83333.3240716083
83333.3240934034
83333.3241105526
83333.3241232553
83333.3241321848
83333.3241383036
83333.3241426014
83333.3241458748
83333.3241486428
83333.3241511316
83333.3241532851
83333.3241547649
83333.3241549794
83333.3241532996
83333.3241497379
83333.324118973
83333.3241412339
83333.324157856
83333.3241690753
83333.3241757405
83333.3241790962
83333.3241804579
83333.3241809341
83333.3241813166
83333.3241820542
83333.3241832543
83333.3241847127
83333.3241859454
83333.3241862475
83333.3241848844
83333.3241817572
83333.3241757928
83333.3241988338
83333.3242149396
83333.3242243524
83333.3242281041
83333.324227776
83333.3242250845
83333.3242215207
83333.3242182106
83333.3242158803
83333.3242148491
83333.3242150509
83333.3242160954
83333.324217336
83333.3242179824
83333.3242172036
83333.3242149224
83333.3243765596
83333.3242435844
83333.3242679941
83333.3242837924
83333.3242912123
83333.3242914376
83333.3242864566
83333.324278492
83333.3242695144
83333.3242610615
83333.3242541981
83333.3242495077
83333.3242471093
83333.3242467082
83333.3242476976
83333.3242492679
83333.3242505729
83333.3242507286
83333.3242495753
83333.3237108709
83333.3237376572
83333.3237373319
83333.3237635446
83333.3237648241
83333.3237643213
83333.3237869244
83333.3237913627
83333.3237925446
83333.3237917833
83333.3238076014
83333.3238154706
83333.3238197386
83333.3238207235
83333.3238196435
83333.3238259561
83333.323837067
83333.3238445356
83333.3238485849
83333.323849293
83333.3238478447
83333.3238425767
83333.3238565423
83333.3238669857
83333.3238741021
83333.3238778307
83333.3238781852
83333.3238763416
83333.3238581731
83333.3238745172
83333.3238875859
83333.3238974378
83333.3239040823
83333.3239073733
83333.3239073375
83333.3239051021
83333.3238734653
83333.3238917622
83333.3239070303
83333.3239192069
83333.3239283187
83333.3239343428
83333.3239371316
83333.3239367171
83333.3239341007
83333.3238892447
83333.3239091406
83333.3239261401
83333.3239401632
83333.3239512448
83333.3239594503
83333.3239647756
83333.323967066
83333.3239662917
83333.3239633262
83333.323906355
83333.3239275329
83333.3239458292
83333.323961185
83333.32397369
83333.3239834895
83333.3239907026
83333.3239953171
83333.3239971354
83333.3239960428
83333.3239927802
83333.3239256682
83333.3239478738
83333.3239670826
83333.323983271
83333.3239966145
83333.3240073744
83333.3240157907
83333.3240219884
83333.3240259157
83333.3240273119
83333.3240259747
83333.3240224812
83333.3239481203
83333.3239711725
83333.3239909639
83333.3240075172
83333.3240211095
83333.3240321503
83333.3240410366
83333.3240480351
83333.3240532417
83333.3240565433
83333.3240576005
83333.3240561026
83333.3240524695
83333.3239747201
83333.3239985217
83333.324018631
83333.3240351189
83333.324048379
83333.3240589953
83333.3240675604
83333.3240745222
83333.3240801279
83333.3240844161
83333.3240871898
83333.3240880166
83333.3240864684
83333.3240828266
83333.3240065483
83333.3240311033
83333.3240513424
83333.3240673789
83333.3240797382
83333.3240892078
83333.3240966134
83333.3241026268
83333.3241076886
83333.3241119912
83333.3241154846
83333.3241178675
83333.3241186053
83333.324117154
83333.3241136868
83333.3240447545
83333.3240701936
83333.3240904695
83333.3241057253
83333.3241166317
83333.3241242137
83333.3241295752
83333.3241336575
83333.3241371414
83333.3241404165
83333.3241435802
83333.3241464596
83333.3241486313
83333.3241494602
83333.3241483078
83333.3241452416
83333.324090547
83333.3241171702
83333.324137514
83333.3241517392
83333.3241606673
83333.3241655996
83333.3241679752
83333.3241690636
83333.324169838
83333.3241709352
83333.3241726437
83333.3241749178
83333.3241774275
83333.3241796114
83333.3241807616
83333.324180147
83333.3241778174
83333.3241451596
83333.3241735068
83333.3241941249
83333.3242071883
83333.3242136617
83333.324215163
83333.3242135409
83333.3242104716
83333.3242072891
83333.3242049339
83333.3242039366
83333.3242044231
83333.3242061542
83333.3242086123
83333.3242110951
83333.3242128515
83333.3242130756
83333.3242118678
83333.3243539469
83333.3243734358
83333.3242097517
83333.3242407157
83333.3242620653
83333.3242739943
83333.3242776282
83333.3242749146
83333.3242682069
83333.3242596976
83333.3242511729
83333.324243948
83333.3242388503
83333.3242362254
83333.3242359703
83333.3242376081
83333.3242404174
83333.324243573
83333.3242463086
83333.3242476415
83333.3242475838
83333.3237109864
83333.3237106853
83333.3237361261
83333.323737421
83333.3237369343
83333.3237587043
83333.3237631729
83333.3237643732
83333.3237636308
83333.3237785049
83333.3237864481
83333.3237907651
83333.3237917823
83333.3237907336
83333.3237958526
83333.3238071104
83333.3238146921
83333.3238188229
83333.3238195848
83333.3238181805
83333.3238112759
83333.3238254933
83333.3238361535
83333.3238434394
83333.3238472917
83333.3238477182
83333.3238459321
83333.3238253994
83333.3238421392
83333.3238555682
83333.3238657253
83333.3238726145
83333.3238760751
83333.3238761306
83333.3238739646
83333.3238388621
83333.3238577197
83333.3238735338
83333.323886205
83333.3238957394
83333.3239020902
83333.323905094
83333.323904791
83333.3239022572
83333.3238523475
83333.323873011
83333.3238907812
83333.3239055365
83333.3239172767
83333.3239260292
83333.3239317637
83333.3239343133
83333.3239336759
83333.3239308018
83333.3238665953
83333.3238887776
83333.3239081093
83333.3239244884
83333.323937949
83333.3239485837
83333.3239564711
83333.3239615769
83333.3239637051
83333.3239627688
83333.3239596034
83333.3238823584
83333.3239058322
83333.3239263825
83333.3239439355
83333.3239585967
83333.3239705538
83333.3239799879
83333.3239869874
83333.3239914887
83333.3239932391
83333.3239920748
83333.3239886835
83333.3239004369
83333.3239250464
83333.3239465249
83333.3239648388
83333.3239801786
83333.3239928583
83333.3240031924
83333.324011391
83333.3240175223
83333.3240214734
83333.3240229245
83333.3240216147
83333.3240180832
83333.3239216874
83333.3239473561
83333.3239695378
83333.3239882399
83333.3240037519
83333.3240165361
83333.3240270751
83333.3240357349
83333.3240427151
83333.3240480409
83333.3240515295
83333.3240527816
83333.3240514292
83333.3240478822
83333.3239470187
83333.3239737654
83333.3239965008
83333.3240152674
83333.3240304651
83333.3240427292
83333.3240527423
83333.3240610643
83333.3240680635
83333.3240739002
83333.3240785274
83333.3240816743
83333.3240828547
83333.3240815986
83333.3240782099
83333.323977384
83333.3240053455
83333.3240285761
83333.3240471422
83333.3240615643
83333.3240726784
83333.3240814042
83333.3240885346
83333.324094648
83333.324100079
83333.3241049119
83333.3241089975
83333.324111962
83333.3241132336
83333.3241122579
83333.3241092491
83333.3240137663
83333.3240432317
83333.3240670134
83333.3240851901
83333.3240984097
83333.3241077392
83333.324114381
83333.3241194087
83333.3241236554
83333.3241276748
83333.324131723
83333.3241357672
83333.3241395265
83333.3241425105
83333.3241440888
83333.3241436221
83333.324141305
83333.3240571574
83333.3240886201
83333.3241131596
83333.3241308593
83333.3241425018
83333.3241494128
83333.3241531316
83333.3241550743
83333.3241563862
83333.3241578898
83333.3241600594
83333.3241630205
83333.3241665776
83333.3241702902
83333.324173553
83333.3241756988
83333.3241759803
83333.3241746791
83333.3241084891
83333.3241427373
83333.3241684629
83333.3241857412
83333.3241955142
83333.3241993875
83333.3241992993
83333.3241970883
83333.3241942884
83333.3241920551
83333.3241911325
83333.3241918505
83333.3241941446
83333.3241976165
83333.3242016486
83333.3242055304
83333.3242085422
83333.324209827
83333.324209716
83333.3243238142
83333.3243505864
83333.3243665059
83333.3241685106
83333.3242067347
83333.3242344104
83333.3242515348
83333.324259257
83333.3242595243
83333.3242547138
83333.3242471868
83333.3242389717
83333.3242316417
83333.3242262752
83333.3242234548
83333.3242232913
83333.3242254724
83333.3242293689
83333.3242341914
83333.32423912
83333.3242433606
83333.3242457984
83333.324246354
83333.3237094365
83333.3237107552
83333.3237103023
83333.3237312784
83333.3237357678
83333.3237369894
83333.3237362678
83333.3237502655
83333.3237582486
83333.3237625965
83333.3237636388
83333.323762615
83333.3237666911
83333.3237780362
83333.3237856922
83333.3237898806
83333.323790684
83333.3237893189
83333.3237810346
83333.3237954157
83333.3238062236
83333.3238136299
83333.3238175756
83333.3238180631
83333.3238163321
83333.3237938548
83333.3238108658
83333.3238245499
83333.3238349324
83333.3238420047
83333.3238455986
83333.3238457345
83333.3238436365
83333.3238057144
83333.3238249772
83333.3238411911
83333.3238542358
83333.3238640931
83333.3238706987
83333.3238738774
83333.3238736713
83333.3238712179
83333.3238172048
83333.3238384357
83333.3238567903
83333.3238721106
83333.3238843656
83333.3238935503
83333.3238996123
83333.3239023751
83333.3239018562
83333.3238990706
83333.3238289757
83333.3238519174
83333.3238720491
83333.3238892312
83333.3239034507
83333.3239147546
83333.323923186
83333.3239286908
83333.323931075
83333.323930274
83333.3239272025
83333.323841677
83333.323866124
83333.3238877245
83333.3239063624
83333.3239220828
83333.3239350102
83333.3239452736
83333.3239529291
83333.3239579022
83333.3239599477
83333.3239589324
83333.3239556362
83333.3238559923
83333.3238818079
83333.3239046197
83333.3239243457
83333.323941103
83333.3239551228
83333.3239666471
83333.323975836
83333.3239827326
83333.3239872222
83333.3239890022
83333.3239878546
83333.3239844151
83333.3238726477
83333.3238997704
83333.3239235992
83333.3239440885
83333.3239614386
83333.3239760071
83333.3239881799
83333.323998251
83333.3240063769
83333.3240125685
83333.3240166541
83333.3240182634
83333.3240170794
83333.3240136155
83333.323892408
83333.3239208649
83333.3239455901
83333.3239665683
83333.3239840927
83333.3239986678
83333.3240108504
83333.3240211023
83333.3240297261
83333.3240368511
83333.3240424308
83333.3240462201
83333.324047774
83333.3240466848
83333.3240433647
83333.3239160654
83333.3239459927
83333.3239715812
83333.3239928343
83333.3240101461
83333.3240241899
83333.3240357256
83333.3240454151
83333.324053744
83333.3240609949
83333.324067238
83333.3240723423
83333.3240759754
83333.324077622
83333.3240767999
83333.3240738379
83333.3239444237
83333.3239760961
83333.3240026218
83333.3240240106
83333.3240407622
83333.3240537443
83333.3240639561
83333.3240722998
83333.3240794821
83333.3240859787
83333.324092013
83333.3240975598
83333.3241023767
83333.3241060328
83333.3241079673
83333.3241076227
83333.3241053282
83333.3239782745
83333.3240121458
83333.3240398208
83333.3240613008
83333.3240771988
83333.3240886016
83333.3240967901
83333.3241029566
83333.3241080763
83333.3241128609
83333.3241177295
83333.3241228015
83333.3241279152
83333.3241326938
83333.3241366128
83333.3241390843
83333.3241394511
83333.324138146
83333.3240183555
83333.3240551225
83333.3240843474
83333.3241059998
83333.3241208243
83333.3241301555
83333.3241356002
83333.3241387003