/*--------------------------------*- C++ -*----------------------------------*\
  =========                 |
  \\      /  F ield         | OpenFOAM: The Open Source CFD Toolbox
   \\    /   O peration     | Website:  https://openfoam.org
    \\  /    A nd           | Version:  12
     \\/     M anipulation  |
\*---------------------------------------------------------------------------*/
/*   Windows 32 and 64 bit porting by blueCAPE: http://www.bluecape.com.pt   *\
|  Based on Windows porting (2.0.x v4) by Symscape: http://www.symscape.com   |
\*---------------------------------------------------------------------------*/
FoamFile
{
    format      ascii;
    class       volScalarField;
    location    "700";
    object      k;
}
// * * * * * * * * * * * * * * * * * * * * * * * * * * * * * * * * * * * * * //

dimensions      [0 2 -2 0 0 0 0];

internalField   nonuniform List<scalar> 
10142
(
3.08558624484735e-06
2.9939772903412e-06
3.1829175719553e-05
3.12248010042357e-06
2.92305084134583e-06
3.08272074929974e-05
3.03246119527983e-06
5.80963141201418e-05
3.1935017698128e-05
3.21744880445542e-06
2.75223366507505e-06
2.97583503799445e-05
2.95177971177266e-06
5.63212464716407e-05
3.09263474691282e-05
3.12293294755585e-06
7.68653896295034e-05
5.80545257913936e-05
3.20831840910254e-05
3.24380492640057e-06
2.50900525233487e-06
2.8511448128503e-05
2.76606916026725e-06
5.44232329569259e-05
2.98514876593876e-05
3.03182048831233e-06
7.450048029561e-05
5.62765941541523e-05
3.10629905831842e-05
3.14502003994277e-06
9.17549976703064e-05
7.6734205155277e-05
5.77936442068817e-05
3.19287191677056e-05
3.14735666731825e-06
2.21767526612116e-06
2.70840874008126e-05
2.50444819461608e-06
5.23707931790597e-05
2.86018781944385e-05
2.82865964010312e-06
7.19934149334282e-05
5.4376517663221e-05
2.99743698487915e-05
3.0444686927784e-06
8.88866532692665e-05
7.4370129369749e-05
5.60130155852432e-05
3.09002139230157e-05
3.04835201010483e-06
0.000104346174967045
9.1540555945578e-05
7.62108649003763e-05
5.71298452424088e-05
3.12525719091407e-05
2.96261434953282e-06
1.95788987806343e-06
2.54426131560882e-05
2.2439441799591e-06
5.01532432766998e-05
2.71605068166698e-05
2.55733282286904e-06
6.93377983466086e-05
5.23222864514065e-05
2.87104346785117e-05
2.82949490979184e-06
8.58670671402329e-05
7.18630969983714e-05
5.4111061739682e-05
2.98024094553704e-05
2.94288954553843e-06
0.000101018163545609
8.86763871250526e-05
7.38524353346305e-05
5.5354181050549e-05
3.02306157823016e-05
2.86639381827891e-06
0.000115349778320884
0.000104045314989873
9.08212636576938e-05
7.51694133619169e-05
5.59214554073267e-05
3.01096665555299e-05
2.74090644480196e-06
1.69202033125171e-06
2.33898346841373e-05
1.98690520259673e-06
4.77528446835627e-05
2.54137457187335e-05
2.30669206398855e-06
6.65330548513704e-05
5.01006588994564e-05
2.72285959161237e-05
2.56659374256322e-06
8.2700671792364e-05
6.92072085913783e-05
5.20554187033778e-05
2.85262422491913e-05
2.72622806305249e-06
9.75324015891458e-05
8.56594607603241e-05
7.13511052774572e-05
5.34575465674288e-05
2.91369739582209e-05
2.75985290763711e-06
0.000111585098661398
0.000100725050555791
8.79695139838506e-05
7.28272945257714e-05
5.41650027114439e-05
2.91083162713908e-05
2.64861158155034e-06
0.000125135549606308
0.000114979642635046
0.000103155056670336
8.9487339852172e-05
7.35357747955406e-05
5.41833585267743e-05
2.86552751209862e-05
2.50632163571393e-06
1.42031578511691e-06
2.10491189311069e-05
1.71872654100091e-06
4.51297292540702e-05
2.33491100003147e-05
2.04294976203044e-06
6.35777739891391e-05
4.76894230789768e-05
2.54061294704816e-05
2.31338614476014e-06
7.93973062390149e-05
6.64018509554253e-05
4.9827652201469e-05
2.69991300369209e-05
2.47329204195575e-06
9.39006326965715e-05
8.24950916132548e-05
6.87007783194588e-05
5.1406683182268e-05
2.78656615457191e-05
2.5496205392043e-06
0.000107654805496018
9.724508014701e-05
8.49645582055461e-05
7.03424426045373e-05
5.22875196952255e-05
2.8032575587076e-05
2.54412236011891e-06
0.000120946296553686
0.000111225938269857
9.98536232614863e-05
8.66616365921865e-05
7.1225163743244e-05
5.24613667174653e-05
2.76839548979081e-05
2.41774230905862e-06
0.000133914296677914
0.000124721007382454
0.000113951827459871
0.000101579734081655
8.75052516406436e-05
7.13339888156611e-05
5.20061044208497e-05
2.69832489271125e-05
2.25514698458058e-06
1.15092919201144e-06
1.86040941297294e-05
1.44609610192307e-06
4.2239257337738e-05
2.11100777510766e-05
1.76601474935291e-06
6.04651489721284e-05
4.50618524884914e-05
2.33210398616191e-05
2.04519033355119e-06
7.59689703365234e-05
6.34450753029127e-05
4.74066774368286e-05
2.51590852779919e-05
2.22612047760378e-06
9.01422381192473e-05
7.91932216687336e-05
6.59000169421015e-05
4.91814248311084e-05
2.6335356347804e-05
2.30932707794425e-06
0.000103578045982637
9.36182208692778e-05
8.18116276917857e-05
6.77083821433507e-05
5.02565959309311e-05
2.67843729333131e-05
2.34418910223227e-06
0.000116576505097987
0.000107304349807439
9.63917491055781e-05
8.36825486716725e-05
6.87720229810588e-05
5.06185122112729e-05
2.66379015432483e-05
2.31763140474333e-06
0.000129314887521
0.000120545262455291
0.000110222795224519
9.83133591949711e-05
8.47225934746386e-05
6.90710402133555e-05
5.0331640972289e-05
2.60487380886143e-05
2.1735738592978e-06
0.000133473747078681
0.000123594110610808
0.000112185065982983
9.93107446344754e-05
8.49187606008074e-05
6.86282375501511e-05
4.94556022986091e-05
2.51123094188168e-05
1.9878844998863e-06
9.00766631291876e-07
1.60315587267528e-05
1.1847781521389e-06
3.90173098046921e-05
1.87622237366495e-05
1.48623924322484e-06
5.71808143353894e-05
4.215087865064e-05
2.11143005848031e-05
1.7669975891616e-06
7.24273143845e-05
6.03318799832405e-05
4.47750679291103e-05
2.30794507573012e-05
1.96546874829406e-06
8.62809979595733e-05
7.57657716740164e-05
6.29473535054102e-05
4.67655750051766e-05
2.45162545764152e-05
2.07515272360244e-06
9.93839615126035e-05
8.98638789651026e-05
7.85203326837222e-05
6.49231113197111e-05
4.80521712740707e-05
2.52848315945212e-05
2.11734015705825e-06
0.00011205767569531
0.000103235235243012
9.27820988353163e-05
8.05548240991345e-05
6.61697414672984e-05
4.86244122841899e-05
2.54246938930302e-05
2.13021025201181e-06
0.00012449107463493
0.000116186568198633
0.000106324964118863
9.48861089169634e-05
8.17863689535058e-05
6.6665948969206e-05
4.85373356930499e-05
2.50401131432763e-05
2.07946970887407e-06
0.000136834851416128
0.000128889983729499
0.000119447997912487
0.000108499325971883
9.60982934944089e-05
8.21964865422602e-05
6.64277443849287e-05
4.78396958017441e-05
2.4221122124353e-05
1.91332496298825e-06
0.00013227743583559
0.000121682887671857
0.000109686235125986
9.64062804816468e-05
8.17868621524082e-05
6.54637101908366e-05
4.65561771366586e-05
2.30340889308442e-05
1.70505147972295e-06
6.811583310499e-07
1.34491613369274e-05
9.49763152001121e-07
3.55446330571363e-05
1.6329122158354e-05
1.22550704226617e-06
5.36914573591858e-05
3.89696727365048e-05
1.88152639783475e-05
1.49074289152564e-06
6.87815716986783e-05
5.70460907340209e-05
4.18611478298933e-05
2.09151125839355e-05
1.69785998514773e-06
8.23432882247359e-05
7.2224406611607e-05
5.98388806099132e-05
4.41451473504955e-05
2.24815563652221e-05
1.83074031923031e-06
9.5107547225592e-05
8.60055732752659e-05
7.51024998277587e-05
6.19862065441236e-05
4.56629926977697e-05
2.35186206919334e-05
1.8992503697828e-06
0.000107430049920726
9.90476601035639e-05
8.90435725132951e-05
7.72874331947318e-05
6.34162512179806e-05
4.64607378692408e-05
2.3977436925086e-05
1.91548582827984e-06
0.000119516952921989
0.000111677654445145
0.000102278438256994
9.13098964630897e-05
7.87007375470471e-05
6.41122635223747e-05
4.65949828691328e-05
2.38723084162478e-05
1.90743889844982e-06
0.000131499786486903
0.000124079170593217
0.000115118048623933
0.000104644216232502
9.27244604970616e-05
7.93205675541933e-05
6.40859189444197e-05
4.61058732612549e-05
2.32570051285712e-05
1.82714268012638e-06
0.000143431812742157
0.000136392899894657
0.000127728082856555
0.000117587506027849
0.000106064648859269
9.32664498309381e-05
7.91410574247414e-05
6.33389410804133e-05
4.5008728464091e-05
2.21920262606945e-05
1.63819656987643e-06
0.000130257543149121
0.000119003767396216
0.000106522626238857
9.29255599440279e-05
7.81453987534598e-05
6.18605567336968e-05
4.3311053221482e-05
2.07381502085439e-05
1.41082262887394e-06
5.04509164149929e-07
1.10048235357076e-05
7.49260495180408e-07
3.17890172502136e-05
1.3926959348221e-05
9.94825868797444e-07
4.99858471111269e-05
3.55484554190958e-05
1.6480253428814e-05
1.23657067604901e-06
6.50354868727843e-05
5.35514389650133e-05
3.87113960194687e-05
1.8688337709437e-05
1.4350313086214e-06
7.83572858987848e-05
6.85779542812491e-05
5.65584767940495e-05
4.12529628311411e-05
2.03824236836491e-05
1.58147501076199e-06
9.0788629954284e-05
8.20691754527638e-05
7.15691802666428e-05
5.88948282754509e-05
4.30802195932011e-05
2.156229574585e-05
1.6744163546579e-06
0.000102739595436871
9.47761383858896e-05
8.51990062634512e-05
7.38917054174194e-05
6.05121147013689e-05
4.41208396186205e-05
2.22831468055743e-05
1.71439748072725e-06
0.000114443475743305
0.000107058601997304
9.81115069129815e-05
8.76026031540472e-05
7.54739228639875e-05
6.14081964288669e-05
4.44889539349402e-05
2.24957028067251e-05
1.70424565803587e-06
0.000126042305839011
0.000119116971438723
0.000110636568939153
0.000100638807436588
8.92001309988564e-05
7.62945578750737e-05
6.15965467405385e-05
4.4227878878896e-05
2.2143365610365e-05
1.67300687361666e-06
0.000137612393745065
0.000131075245551781
0.000122950421666478
0.000113307827295261
0.000102273009762763
8.99647516013453e-05
7.63418493749716e-05
6.10741745286912e-05
4.3345878155119e-05
2.12800792605463e-05
1.56184392751862e-06
0.000149184380988369
0.000142980401214455
0.000135183290734601
0.000125766256233773
0.000114982301363378
0.000102985528620897
8.98757428271926e-05
7.55908929132856e-05
5.98236672029331e-05
4.18411898907737e-05
1.99507405930078e-05
1.35271610864786e-06
0.000127436801243999
0.000115630839652629
0.00010275581616204
8.89006489090053e-05
7.4010394533963e-05
5.78263459745915e-05
3.9716078333877e-05
1.8209803207826e-05
1.1107054683935e-06
3.81880334306893e-07
8.81690256899507e-06
5.87059517837477e-07
2.78000516490192e-05
1.16862982712406e-05
7.9770231849775e-07
4.60728777873564e-05
3.18789632112512e-05
1.42279889916033e-05
1.01211948958351e-06
6.11779148933494e-05
4.98683196746015e-05
3.5351557926334e-05
1.64605587548307e-05
1.19302605016606e-06
7.43524840746082e-05
6.48297575057987e-05
5.30731009062073e-05
3.81552764348833e-05
1.82438697190433e-05
1.33757872482965e-06
8.64724831019193e-05
7.80820211914634e-05
6.79290132241441e-05
5.56346073742498e-05
4.02464619248151e-05
1.95442125993173e-05
1.44618256840022e-06
9.80387905437838e-05
9.04596538482529e-05
8.12731807543347e-05
7.03786093459114e-05
5.74561994642103e-05
4.16007579240393e-05
2.04216862435144e-05
1.50968803038711e-06
0.000109325929048191
0.000102374715235182
9.38575492590629e-05
8.37858356331236e-05
7.21166585668379e-05
5.85553392900268e-05
4.22151540559545e-05
2.08862265281919e-05
1.52033273961048e-06
0.000120498799037822
0.000114053926463439
0.000106042571384164
9.65099167277571e-05
8.55418015429027e-05
7.31259180196583e-05
5.89582747256389e-05
4.21931117975212e-05
2.08534700929246e-05
1.48251950153952e-06
0.000131653201813496
0.000125632158568177
0.000118020247888306
0.000108874789318032
9.83289417411483e-05
8.65108969924442e-05
7.33921714996424e-05
5.86634443455056e-05
4.15432988712711e-05
2.02284027665243e-05
1.42721558009843e-06
0.000142838153740742
0.000137181034995629
0.000129904644110082
0.000121046296777096
0.000110775980557472
9.92776573435273e-05
8.66638175951185e-05
7.28837041421912e-05
5.7648663120466e-05
4.02591075089249e-05
1.9098924472517e-05
1.28767760940407e-06
0.000154078711220484
0.000148727267822869
0.000141736002030436
0.000133144216844753
0.000123029194945769
0.00011170563192142
9.93220614258762e-05
8.59570506922777e-05
7.15610616894405e-05
5.58886751096239e-05
3.83319849308815e-05
1.7483779143336e-05
1.06170416829325e-06
0.000123895210863151
0.000111629431078568
9.84172657430781e-05
8.43449741209647e-05
6.93896062943595e-05
5.33627750644149e-05
3.57619339841276e-05
1.54086178188043e-05
8.11579822342397e-07
3.02732255885323e-07
6.94670885961708e-06
4.76839826355636e-07
2.37164554271088e-05
9.69378121041275e-06
6.43290375193396e-07
4.19387508928452e-05
2.8007210756569e-05
1.21297084062799e-05
8.21394833142626e-07
5.72422392598625e-05
4.59864550765173e-05
3.17804614197868e-05
1.43193484606682e-05
9.79680343776878e-07
7.03563702243691e-05
6.09702584268019e-05
4.94156044288455e-05
3.48755824454068e-05
1.61186733059975e-05
1.11147029111303e-06
8.22113759546501e-05
7.40718248766289e-05
6.41847160653747e-05
5.21778340376381e-05
3.7221593668642e-05
1.75023044103663e-05
1.22312541817065e-06
9.33888541083813e-05
8.61420964377433e-05
7.72918770475643e-05
6.67559199099559e-05
5.42371653140399e-05
3.8854399236985e-05
1.84940841593329e-05
1.3030432146805e-06
0.000104228224117631
9.76773575037327e-05
8.95538257615018e-05
7.98828094210677e-05
6.86394467448991e-05
5.55543402545436e-05
3.97752997178139e-05
1.91263917228857e-05
1.33556533155277e-06
0.000114928843492061
0.00010894452530384
0.000101379822601781
9.22890136582015e-05
8.17694322945798e-05
6.98247084839063e-05
5.61735385333657e-05
3.99986483156074e-05
1.93372905790093e-05
1.31554902258392e-06
0.000125608657570035
0.000120101131025801
0.000112986626028932
0.00010432545949882
9.42572628436494e-05
8.29198156424632e-05
7.02987289058115e-05
5.61058320831789e-05
3.95916198365614e-05
1.903223162259e-05
1.26051614282343e-06
0.000136335671278432
0.000131238692686604
0.000124498826151856
0.000116172048023478
0.000106413815328186
9.54149491277564e-05
8.32982567135002e-05
7.00261436621532e-05
5.53299693844267e-05
3.85419855509014e-05
1.81144276019004e-05
1.17251348519943e-06
0.00014714854513375
0.000142403977654202
0.00013598137822074
0.000127932117293236
0.000118393009265357
0.000107594967731463
9.57170098486215e-05
8.28515440444098e-05
6.89603616548529e-05
5.38154978137813e-05
3.6840035072326e-05
1.67023189314215e-05
1.00948181070536e-06
0.000158071789901526
0.000153619264895316
0.000147457434231726
0.000139639338061754
0.000130304531074429
0.000119595784332808
0.000107821031646231
9.51044313206177e-05
8.15228795215386e-05
6.70585352057207e-05
5.15349231049938e-05
3.44709962150705e-05
1.47602267766855e-05
7.72127351506458e-07
0.000119702079280757
0.000107032129589708
9.35191383319275e-05
7.92653564383957e-05
6.42868161844293e-05
4.84666582468455e-05
3.14305408292754e-05
1.23293639764482e-05
5.32965658713991e-07
2.88837129724435e-07
5.38719461787958e-06
4.2656811295791e-07
1.9730202206268e-05
8.02748843344267e-06
5.40241787177564e-07
3.759667845348e-05
2.41232302007687e-05
1.02406062554998e-05
6.73875744747405e-07
5.32226995441726e-05
4.19043597164817e-05
2.80715353257684e-05
1.23139719043998e-05
7.99660973494606e-07
6.64004324930104e-05
5.70351654955402e-05
4.55769963952503e-05
3.14169079021225e-05
1.40717128689678e-05
9.12586046968704e-07
7.80659506968922e-05
7.00608462855044e-05
6.03270257809039e-05
4.85603971129783e-05
3.40381796778909e-05
1.54771368230152e-05
1.01477847542025e-06
8.88632902432231e-05
8.18733298024984e-05
7.32799622581429e-05
6.30259962988748e-05
5.08338602202474e-05
3.59203851632896e-05
1.6555781958893e-05
1.10093512641138e-06
9.92259747209e-05
9.30259153232427e-05
8.52415281931592e-05
7.59168860216114e-05
6.5049692485649e-05
5.23974765861377e-05
3.71361367693673e-05
1.72920983902367e-05
1.14984724366295e-06
0.000109406326527101
0.000103851358880094
9.66973697327388e-05
8.80106870599421e-05
7.79042025228857e-05
6.64009587424298e-05
5.32448693354573e-05
3.76509451279652e-05
1.76806415897846e-05
1.14991641630012e-06
0.000119550387390245
0.000114541135690542
0.00010790211407639
9.97010646423922e-05
9.00869006484829e-05
7.92096170843696e-05
6.70708932557461e-05
5.34043846785802e-05
3.74871123663951e-05
1.76151614267035e-05
1.1017859787393e-06
0.000129744827889457
0.000125209038643316
0.000119002175556999
0.000111190161291517
0.000101930261646071
9.14199361491533e-05
7.9792378542615e-05
6.70241814991123e-05
5.28668449295542e-05
3.66828747344332e-05
1.6992585138897e-05
1.02828708276244e-06
0.000140044613765712
0.00013592133578467
0.000130082202547213
0.000122590819965071
0.000113599923946086
0.000103325569222569
9.19547983358831e-05
7.95913653208341e-05
6.62100257722524e-05
5.16014301301001e-05
3.52172756637995e-05
1.57901898343389e-05
9.13247493909338e-07
0.000150487784883036
0.000146715658815355
0.000141185579672511
0.000133960745331406
0.000125188598734348
0.000115068215705838
0.000103826762552908
9.16201932830715e-05
7.8539670304907e-05
6.45781344959956e-05
4.95750665391623e-05
3.30781813427012e-05
1.40686726801099e-05
7.33351201212805e-07
0.000161102465742392
0.00015761418877473
0.000152332877061152
0.000145319490212801
0.000136723673001795
0.000126747737538587
0.000115533190036876
0.00010335958062564
9.03437994062948e-05
7.65792271143655e-05
6.20864060054601e-05
4.67585331233297e-05
3.02392739744653e-05
1.17501535026788e-05
5.03247081320573e-07
0.000114891394512078
0.000101850559852999
8.80670586296145e-05
7.3665424293817e-05
5.87011472053286e-05
4.31272238511584e-05
2.66903348289038e-05
9.07805031505472e-06
3.00169847659851e-07
2.99955166397829e-07
4.29699126081848e-06
4.39023080468659e-07
1.61319267743678e-05
6.74925727664357e-06
4.96237155143862e-07
3.30940746390384e-05
2.05735694855724e-05
8.66603850621876e-06
5.74415503543052e-07
4.90952603682717e-05
3.76645624536462e-05
2.4444204630279e-05
1.05080035835899e-05
6.60016797124189e-07
6.25391459543789e-05
5.30209196288976e-05
4.15669766837663e-05
2.78689045544055e-05
1.21467699583872e-05
7.44815069955687e-07
7.41009364281479e-05
6.60894337218552e-05
5.63930162820514e-05
4.47800900159201e-05
3.07035936404771e-05
1.3521339541709e-05
8.30742210461281e-07
8.45538018155495e-05
7.77098281157109e-05
6.92555242541798e-05
5.91794951000832e-05
4.72731455940294e-05
3.28494982063076e-05
1.46318261079822e-05
9.11112376325286e-07
9.44114467354459e-05
8.84907625315961e-05
8.09659441692174e-05
7.19095377054904e-05
6.13495471929954e-05
4.90701482693443e-05
3.43086555539377e-05
1.54601725354873e-05
9.69693650606012e-07
0.000104019347170271
9.88478833472222e-05
9.20508932236375e-05
8.37121254264304e-05
7.39667735010275e-05
6.2861978702642e-05
5.01684415062367e-05
3.51325018379387e-05
1.59342555488298e-05
9.85451179948816e-07
0.000113563843253855
0.00010902465413992
0.000102826483451516
9.50470375736282e-05
8.5849079280993e-05
7.53993283573372e-05
6.37183280054226e-05
5.05633668151111e-05
3.52399623387529e-05
1.60569783180255e-05
9.54539544892907e-07
0.000123150577615316
0.000119163082838824
0.000113471608508917
0.000106150061752445
9.73631922342533e-05
8.73187002022565e-05
7.6162439863648e-05
6.38865272330908e-05
5.02626553245625e-05
3.46767237014622e-05
1.56862031386453e-05
8.80942323576557e-07
0.00013284801314945
0.000129348506888893
0.000124092939551865
0.000117154222120372
0.000108693432523959
9.89289009659831e-05
8.80555867723352e-05
7.61882626790178e-05
6.33152894987563e-05
4.92457138455321e-05
3.34566223694103e-05
1.4737921902575e-05
7.92138864595104e-07
0.000142709066922768
0.000139635478822698
0.00013475338747902
0.000128136137160086
0.000119940452704789
0.000110380575768999
9.967086111321e-05
8.79768725403823e-05
7.5401400968938e-05
6.19495708923988e-05
4.74776487784813e-05
3.15582244546622e-05
1.32352423071234e-05
6.5853321514269e-07
0.000152778441794735
0.000150061459109375
0.000145489131380539
0.000139135123632096
0.000131154566908471
0.000121755969263133
0.000111137007427131
9.95011562686845e-05
8.6997537592212e-05
7.37335044018013e-05
5.97395578390359e-05
4.49230048379028e-05
2.89552251554184e-05
1.11623121404394e-05
4.77190522048153e-07
0.000163092839053998
0.000160652250050215
0.00015632162485025
0.000150169934239713
0.000142351402070779
0.00013307619167672
0.000122543742528173
0.000110873583369136
9.83317137822322e-05
8.50448565831901e-05
7.11289423117171e-05
5.66432303527795e-05
4.15481007086273e-05
2.5605517291605e-05
8.57128746070576e-06
2.81071970292824e-07
0.000109474202998502
9.60888998075354e-05
8.20631312384223e-05
6.7543547939218e-05
5.262304511063e-05
3.73178451718279e-05
2.14921797375727e-05
5.89752200430819e-06
1.41597886782759e-07
3.01252279010796e-07
3.43764760683017e-06
4.46609847208711e-07
1.3244745909423e-05
5.83735728615945e-06
5.18611746221681e-07
2.86013759475579e-05
1.76808832816178e-05
7.49882528918674e-06
5.24326378751344e-07
4.47777008390817e-05
3.33675617907647e-05
2.12062153265689e-05
8.99082250176099e-06
5.62235194837394e-07
5.87626639301926e-05
4.89129526960337e-05
3.74415863369468e-05
2.44371833183746e-05
1.04056808030108e-05
6.13378698756348e-07
7.04241434177052e-05
6.21993643388969e-05
5.23797273372679e-05
4.08556833536845e-05
2.73087886443812e-05
1.16711347996151e-05
6.75995754378793e-07
8.05800014642955e-05
7.37103554093737e-05
6.52541216633599e-05
5.52534051669793e-05
4.35671123489729e-05
2.96487503133021e-05
1.27645170947399e-05
7.41927257370842e-07
8.99029438978188e-05
8.41579917188503e-05
7.67759396443467e-05
6.78749663912128e-05
5.75295313824895e-05
4.55842911646159e-05
3.13648560899674e-05
1.36361675419605e-05
7.99241963759431e-07
9.88749494572283e-05
9.40227273864767e-05
8.75045863656855e-05
7.94325294196573e-05
6.99752767868547e-05
5.92101892314387e-05
4.69358760843806e-05
3.24263693718063e-05
1.41928723232513e-05
8.26097734065693e-07
0.000107748311400496
0.000103637438099178
9.78286921057663e-05
9.04135839295909e-05
8.15763089894381e-05
7.15070822646288e-05
6.02485700688762e-05
4.75830415350098e-05
3.28476402475064e-05
1.43936203253971e-05
8.10113637926197e-07
0.000116650887582829
0.000113184794198188
0.000107976443591994
0.000101107105951033
9.27534969683141e-05
8.3138898455049e-05
7.2425468230076e-05
6.06225865585896e-05
4.75231539413384e-05
3.2534782607081e-05
1.42130898293555e-05
7.52483461271918e-07
0.000125658724898243
0.000122769778777963
0.000118082348049961
0.000111675729643103
0.000103718885214169
9.44390876769636e-05
8.40426032234322e-05
7.26567574826742e-05
6.02842314571669e-05
4.67518482247518e-05
3.15557974553318e-05
1.35202131432755e-05
6.61412797668394e-07
0.000134833316535134
0.000132461084635818
0.000128228702023467
0.000122217211350313
0.000114590814311402
0.000105572743635398
9.53816679922053e-05
8.41923027720149e-05
7.21183367170726e-05
5.91773548887494e-05
4.52415279475138e-05
2.99023293584655e-05
1.2239199344926e-05
5.62777131942011e-07
0.000144234831777659
0.000142311661696572
0.000138468883213079
0.000132789976175987
0.000125437243923891
0.000116628128136847
0.000106577448152091
9.54785436296274e-05
8.34909127014334e-05
7.0733142818017e-05
5.72468674472251e-05
4.29540295601704e-05
2.75465809617246e-05
1.04194316998801e-05
4.25454905738948e-07
0.000153922356181539
0.000152365757058026
0.000148839745238621
0.000143428132377524
0.000136292735355454
0.000127647815539858
0.000117701395655056
0.000106629872602689
9.46275736052163e-05
8.18529371086261e-05
6.84352478476007e-05
5.44427494440993e-05
3.98478108086037e-05
2.44408443151053e-05
8.08944435304108e-06
2.66287881901476e-07
0.000163947863985137
0.000162657479524336
0.000159366724570956
0.000154152334708871
0.00014717353519771
0.000138642954176562
0.000128768047331337
0.000117725011192022
0.000105626556644252
9.27405058981424e-05
7.92087848231203e-05
6.51697008185332e-05
5.07189335928389e-05
3.58775154110609e-05
2.05215613627325e-05
5.50578464234872e-06
1.31166645268104e-07
0.000103452763364234
8.97467012574168e-05
7.55026036095788e-05
6.0886732276117e-05
4.60236956903953e-05
3.09859987014951e-05
1.582322657792e-05
3.14340519059464e-06
5.31809529989236e-08
1.95194192371739e-07
2.67193288987103e-06
4.1848102332387e-07
1.07415927482736e-05
4.92613104935743e-06
5.02294261540814e-07
2.43938411935677e-05
1.54329822468399e-05
6.61278228727034e-06
5.3460400628098e-07
4.0258877038783e-05
2.92269583316449e-05
1.85950654997894e-05
7.83319169836527e-06
5.08015743041816e-07
5.4944199853752e-05
4.46600670928029e-05
3.33183080318095e-05
2.13820833863039e-05
8.92619245253747e-06
5.18293577997833e-07
6.71014483950587e-05
5.8381584380622e-05
4.82784022661152e-05
3.6849180972039e-05
2.4032484573894e-05
9.98958812697116e-06
5.53372109345816e-07
7.71000148583289e-05
6.9976055728017e-05
6.13091842120785e-05
5.12465043330992e-05
3.97371757851588e-05
2.64040058413816e-05
1.09962217435265e-05
6.00032726152529e-07
8.58668367860895e-05
8.01361527053447e-05
7.27186675030918e-05
6.38383848437706e-05
5.36244000364642e-05
4.19687829107601e-05
2.83077424307758e-05
1.18563026765454e-05
6.46235447466896e-07
9.41102555258556e-05
8.94879857677284e-05
8.3134009251878e-05
7.52111867480208e-05
6.59413345450928e-05
5.54371794837214e-05
4.35430626647284e-05
2.96161425504933e-05
1.24580861848176e-05
6.76900654105124e-07
0.000102220933029794
9.84826548463483e-05
9.29899131905279e-05
8.58563121594624e-05
7.73011804874498e-05
6.75482779438986e-05
5.66652259146068e-05
4.44596136384655e-05
3.02761725451527e-05
1.27247910450745e-05
6.72177787768327e-07
0.000110355381132405
0.00010737102889049
0.00010259740288434
9.61235391981778e-05
8.8144919430501e-05
7.89084621669982e-05
6.85975234549354e-05
5.72404133704559e-05
4.46520327368127e-05
3.02615620322946e-05
1.26321407739783e-05
6.29902486449179e-07
0.000118588943822149
0.000116281576459223
0.000112130968346129
0.000106219639175162
9.87260835359272e-05
8.9892189501181e-05
7.99401318665578e-05
6.9012150546248e-05
5.71260945488286e-05
4.41266629246783e-05
2.95217838637454e-05
1.21243997654762e-05
5.54681782222492e-07
0.000126979451993645
0.000125291708025802
0.000121693344203195
0.000116268815037517
0.000109188493337284
0.000100685531030454
9.09895331585283e-05
8.02870264659641e-05
6.87034313346261e-05
5.62689831859694e-05
4.28705814725981e-05
2.81098638625407e-05
1.1102589302591e-05
4.60932798397484e-07
0.000135592047426419
0.000134463769323194
0.000131352914220546
0.000126348834662347
0.000119619639186783
0.00011139136335346
0.000101890590690921
9.13169908855686e-05
7.98395533502459e-05
6.75870333466211e-05
5.46121225589501e-05
4.08497302088207e-05
2.60008773273315e-05
9.51422547803034e-06
3.57432319309838e-07
0.000144504269541642
0.000143858026971424
0.000141162383300317
0.000136511030035428
0.000130072402364592
0.000122068240402799
0.000112718690452361
0.000102219713020369
9.07572946836179e-05
7.85001973281481e-05
6.55882782075768e-05
5.20997538822091e-05
3.80189584075377e-05
2.31529246563089e-05
7.47625979662327e-06
2.36914178538688e-07
0.000153800038197678
0.000153532936761694
0.000151165730397157
0.000146791059867517
0.000140577884401905
0.000132745127437469
0.000123508088101478
0.00011305510143596
0.000101555098403345
8.9208116785133e-05
7.61867731866903e-05
6.26420165985771e-05
4.86774496044629e-05
3.43245923845365e-05
1.94924201171005e-05
5.15700740451657e-06
1.24235821447884e-07
0.000163556436102213
0.000163537535928401
0.0001613965414397
0.000157214106988914
0.000151154889920238
0.000143434739527946
0.000134264874310917
0.000123830640881057
0.000112299630424629
9.97930616484414e-05
8.65844224228339e-05
7.28299709901293e-05
5.8687921988179e-05
4.428465495612e-05
2.96953823105083e-05
1.4986502262995e-05
2.89562701562931e-06
4.95924085722698e-08
9.68232583120729e-05
8.28144397491211e-05
6.83656066477047e-05
5.3657022651529e-05
3.8837647731746e-05
2.40545944953378e-05
9.883035208226e-06
1.20649679075501e-06
1.32124693435647e-08
4.54460737002597e-08
1.67157560631791e-06
1.73223894756605e-07
8.23777722811541e-06
3.80807249991856e-06
4.30622247594424e-07
2.05626266950228e-05
1.33031835483271e-05
5.63488970967532e-06
5.00719407253679e-07
3.57860933843256e-05
2.55137564048401e-05
1.64320049824598e-05
6.84499722162404e-06
5.05940606114318e-07
5.10899072890775e-05
4.03307128273763e-05
2.93888370058871e-05
1.88527398824347e-05
7.74234520575168e-06
4.69192661166338e-07
6.41359910221874e-05
5.45379027894089e-05
4.40678209252639e-05
3.28723671850974e-05
2.10880592306793e-05
8.55241108712842e-06
4.61704150595404e-07
7.43462568659767e-05
6.65615679553586e-05
5.74104708397499e-05
4.71590611186608e-05
3.58417799900515e-05
2.32679544258126e-05
9.38209933019643e-06
4.86709622714476e-07
8.25635644232484e-05
7.65766236397575e-05
6.88794309816908e-05
5.98291096404608e-05
4.96345235234954e-05
3.82434211729055e-05
2.52170929675959e-05
1.01729622491837e-05
5.17275094606575e-07
8.9923496400296e-05
8.53990362483308e-05
7.90304108369544e-05
7.10813331947184e-05
6.18763751924811e-05
5.15710785550474e-05
4.00350110199653e-05
2.67095715873992e-05
1.07774490137256e-05
5.43157780649776e-07
9.71269887810909e-05
9.36911264643815e-05
8.84097723144113e-05
8.14369999111462e-05
7.30536732695629e-05
6.35328811804724e-05
5.29638169830003e-05
4.11789044119363e-05
2.75955025512327e-05
1.10802574156033e-05
5.45444764240013e-07
0.000104387341505609
0.00010183505026862
9.74294700747408e-05
9.12699256068941e-05
8.35835978013862e-05
7.46540658861148e-05
6.46919728431663e-05
5.37452321945264e-05
4.16475892118255e-05
2.78277480981924e-05
1.10367221449506e-05
5.15242080040196e-07
0.000111758972433598
0.000109991086674633
0.000106330342422892
0.000100859079429311
9.37692937105421e-05
8.53255336502723e-05
7.5772123692242e-05
6.52689693137452e-05
5.38495643373209e-05
4.1376305744176e-05
2.73621170774932e-05
1.06370919681793e-05
4.56745801325064e-07
0.000119277496072133
0.000118237942829074
0.000115240091992356
0.000110365990443086
0.000103791425126737
9.57628075595818e-05
8.6525911270183e-05
7.62823518267107e-05
6.51705630247495e-05
5.32336036201665e-05
4.0371871734354e-05
2.61832591390994e-05
9.81207656302082e-06
3.76550492609758e-07
0.000126994556074642
0.000126635793311184
0.000124237740469849
0.000119889206711754
0.000113761419338368
0.000106089356625231
9.71126625036441e-05
8.70432722263592e-05
7.60615661729239e-05
6.43067474404808e-05
5.18423083013438e-05
3.86137573227243e-05
2.43176921550781e-05