/*--------------------------------*- C++ -*----------------------------------*\
  =========                 |
  \\      /  F ield         | OpenFOAM: The Open Source CFD Toolbox
   \\    /   O peration     | Website:  https://openfoam.org
    \\  /    A nd           | Version:  12
     \\/     M anipulation  |
\*---------------------------------------------------------------------------*/
/*   Windows 32 and 64 bit porting by blueCAPE: http://www.bluecape.com.pt   *\
|  Based on Windows porting (2.0.x v4) by Symscape: http://www.symscape.com   |
\*---------------------------------------------------------------------------*/
FoamFile
{
    format      ascii;
    class       volScalarField;
    location    "700";
    object      nut;
}
// * * * * * * * * * * * * * * * * * * * * * * * * * * * * * * * * * * * * * //

dimensions      [0 2 -1 0 0 0 0];

internalField   nonuniform List<scalar> 
10142
(
1.25082550937847e-06
1.2136872049313e-06
6.59114624953641e-05
1.31104227340025e-06
1.1849367785119e-06
6.41930276868813e-05
1.2732442193857e-06
0.000260735028420216
6.79409041508499e-05
1.40684670977338e-06
1.11569274720938e-06
6.2322598230379e-05
1.23936880875267e-06
0.000255086051053056
6.61577292935032e-05
1.36551756401968e-06
0.000514862417917191
0.000264342337436288
7.05745320579796e-05
1.4637402257814e-06
1.01709507645626e-06
6.00045963762145e-05
1.16139641337044e-06
0.000248807964608395
6.42092355972479e-05
1.32567117601088e-06
0.000504050187971391
0.00025859442823709
6.87081999799889e-05
1.41916298047831e-06
0.000774828123880556
0.000517588785518625
0.000268608719558054
7.21515538195574e-05
1.43897728467848e-06
8.98998804589192e-07
5.72406627984306e-05
1.05155648048103e-06
0.000241577312378785
6.18117197149581e-05
1.23685422150122e-06
0.000492082396568096
0.000252204910026479
6.66603140175869e-05
1.37378126818081e-06
0.000758003263301632
0.00050669605060426
0.000262723952187163
7.02100822266284e-05
1.39371163108669e-06
0.00101688340647775
0.000775514729695705
0.000519992271306292
0.00027073322078816
7.16744641235592e-05
1.35514752978054e-06
7.93694601031313e-07
5.3783518986391e-05
9.42169777877439e-07
0.000233274319562153
5.88799267376023e-05
1.11821457714321e-06
0.000478657944244091
0.000244851922116023
6.41404317031002e-05
1.27679528828469e-06
0.000739487612305087
0.000494638310400849
0.000256182661821022
6.8079519302817e-05
1.34549287521704e-06
0.000993454286041276
0.000758651417364087
0.000508985964648645
0.000264730577856204
6.97082055247956e-05
1.31113489498452e-06
0.00123205141799306
0.00101543371019677
0.0007743748207565
0.000519575151984954
0.000268916673106684
6.95164900413991e-05
1.25045235253265e-06
6.85922321826493e-07
4.78840019163229e-05
8.34237670598374e-07
0.000223443703242914
5.42636598588539e-05
1.00860778348468e-06
0.00046354016069526
0.000236337135529095
6.08158464075814e-05
1.15815411108348e-06
0.000719023487002283
0.000481115342883314
0.000248655610198534
6.54360505640391e-05
1.24643868840556e-06
0.000967829128860599
0.000740091210367838
0.000496806559864151
0.00025805942893848
6.75423799882982e-05
1.26240200917163e-06
0.00120158738022924
0.000992025728080634
0.000757467995246576
0.000508485136505068
0.000262869728435374
6.75686627341567e-05
1.2083472186029e-06
0.00141816149163272
0.00122905629277432
0.00101058585352299
0.000769555425539576
0.000514565631250924
0.000263479126856568
6.65057322959517e-05
1.14190593385568e-06
5.75759501256857e-07
4.09810165735068e-05
7.21610599927833e-07
0.000210813629993919
4.81271146471492e-05
8.93265008577615e-07
0.000446306206338471
0.000225859861912752
5.54058794448299e-05
1.04388686628123e-06
0.000696348482696265
0.000465871133554876
0.000239770489148155
6.15817929477068e-05
1.13079343496186e-06
0.000939798478851293
0.000719580557051195
0.000483150781548275
0.000250356294575181
6.4849288991605e-05
1.16623942215348e-06
0.00116846658639414
0.000966418431425534
0.000738866555840489
0.000496218475676208
0.000256146981048145
6.54114871700351e-05
1.16067814910511e-06
0.00138032192021751
0.00119867597798465
0.000987236659362835
0.000752661788336055
0.000503476916788162
0.000257463507120542
6.45975581621446e-05
1.10155077673313e-06
0.00157584616285656
0.0014142933948667
0.00122126159622317
0.00100102755417817
0.000759742853404717
0.000504939272050833
0.000255620805785723
6.3074488541942e-05
1.02733993741902e-06
4.66509112162952e-07
3.41305978524817e-05
6.07073427578779e-07
0.000195092447388162
4.15693634874795e-05
7.72126759752629e-07
0.000426237516043216
0.000212940574239783
4.89899279246192e-05
9.22841176593871e-07
0.000671088088269538
0.000448418131920736
0.000228665517364914
5.59075971741765e-05
1.01777621228216e-06
0.000909141764318031
0.000696856720794116
0.000467716623901519
0.000241082975655086
6.07986000448878e-05
1.05632299941825e-06
0.00113253964950582
0.000938410178931369
0.000718318553103163
0.000482464633316627
0.000248375330187733
6.27410424408747e-05
1.06946660424676e-06
0.00133939171998627
0.00116563769182611
0.00096170137919397
0.000734084860497548
0.000491217007112796
0.000250770264339687
6.2480078256322e-05
1.0559401918519e-06
0.00153038040430817
0.00137659480967453
0.00119105709267916
0.000977835486248598
0.000742968031223079
0.000493946790856325
0.000249686511218415
6.12158309825905e-05
9.90181434873171e-07
0.00157152685794949
0.0014045064363739
0.00120763825055706
0.000985882515312516
0.000744726203122099
0.000491514717954801
0.000246083697559218
5.9252676059894e-05
9.05720259010234e-07
3.64910666052541e-07
2.75053656306882e-05
4.97221508596272e-07
0.000175228149575056
3.51013551739383e-05
6.49696196295467e-07
0.000402661917479486
0.000196603207009225
4.24480079352941e-05
7.97254826632028e-07
0.000642701029057824
0.000428204906306727
0.000215336412419568
4.9381880256882e-05
8.98582434402304e-07
0.000875559270905627
0.000671542132438552
0.00045001410282243
0.000229645314490157
5.51170910751457e-05
9.49199345655309e-07
0.00109366098452291
0.000907784663759373
0.000695558755468433
0.000466884815340328
0.000238950462989832
5.87373507753811e-05
9.65970027166125e-07
0.00129533257441231
0.00112980284380113
0.000933783489382926
0.000713576688971141
0.000477478481768454
0.000243041477257448
5.98664107289776e-05
9.70551012016869e-07
0.00148128986699201
0.00133580643045117
0.00115821780251025
0.000952484555932973
0.00072453178127746
0.000481796639424261
0.000243079106570929
5.91501261083072e-05
9.47312997726868e-07
0.00165334253370177
0.00152625735281514
0.00136710395148929
0.00117776340666961
0.000962986723032839
0.000728185649067565
0.000480692918800913
0.000240260995391793
5.74536746348376e-05
8.71751631890813e-07
0.00156044872628084
0.00138777632297228
0.00118754050976776
0.000964882840236963
0.000724809786777473
0.000474839693990622
0.000234996631381459
5.495256046779e-05
7.7685758496902e-07
2.75717622017374e-07
2.15751703019291e-05
3.98315428530712e-07
0.000153088884651761
2.90070341774953e-05
5.35515699297883e-07
0.000374344257564709
0.000177229981790543
3.61378171244265e-05
6.72489716385616e-07
0.000610528237950909
0.000404443317343323
0.000198582776346218
4.29318570833834e-05
7.76179485071964e-07
0.000838625221520004
0.000643125054951041
0.000429621059610512
0.000216104471405187
4.87128133573749e-05
8.37381220389284e-07
0.00105162208182361
0.000874247594458926
0.00067022429857159
0.000449068335645046
0.00022746528484408
5.32383348618917e-05
8.6646686043487e-07
0.00124810363900474
0.00109103107341361
0.000903273664498587
0.000690876195916065
0.000461920120605829
0.000233685338827486
5.60315100972268e-05
8.72716602894662e-07
0.00142887395613617
0.00129190159082391
0.00112261270055248
0.000924786406076439
0.000704196963952536
0.000468196148490594
0.000235465349309496
5.66182390716027e-05
8.68945507910764e-07
0.00159549319042678
0.00147736381109083
0.00132664424974924
0.00114529636795856
0.000937971735731724
0.000710014263349248
0.00046873153569421
0.000233774098833001
5.54506012327741e-05
8.32486219527428e-07
0.00174966908172928
0.0016490088551034
0.00151560426315587
0.00135089429541908
0.00115818435578988
0.000942427164627571
0.000708601423176803
0.000464241227670688
0.000229308421574664
5.32227045552343e-05
7.46398972354853e-07
0.00154143098385974
0.00136349432200939
0.00116068670683702
0.000937945171538769
0.000700128305582103
0.000454968590945092
0.000222200757497273
5.00900475904968e-05
6.42705451608747e-07
2.03670954467457e-07
1.67132693628847e-05
3.13852597356082e-07
0.000129138747986431
2.37359764760722e-05
4.34389470190932e-07
0.000340750140980526
0.000155874162075441
3.03939656018491e-05
5.57610226091924e-07
0.0005737095746871
0.000375900902989845
0.00017941058699111
3.68516724595375e-05
6.55910232633413e-07
0.000797785577330025
0.000610943756950915
0.000405726830846633
0.000199249080375869
4.2488719554386e-05
7.23317357111564e-07
0.00100610867523232
0.000837383941108481
0.000641840958180474
0.000428658819629819
0.00021403472606359
4.71299388562973e-05
7.63876527010459e-07
0.0011975965129762
0.0010491199272209
0.000869892473333276
0.000665653762434003
0.000444206728133987
0.00022238877572073
5.08041903162604e-05
7.81093102753939e-07
0.00137322276742856
0.00124484502388092
0.00108411046104299
0.00089454474771873
0.000681720015521824
0.000452827701769318
0.000226314417183424
5.30635459515702e-05
7.76376772543017e-07
0.0015344591759989
0.00142516023097664
0.00128310851956654
0.00111011590678176
0.000910662138947402
0.000689991376228839
0.000455359141376827
0.000226323103502816
5.30186508693806e-05
7.62260389023087e-07
0.0016829844668069
0.00159143209562706
0.00146717228551108
0.00131101241985648
0.00112629355270348
0.000917901061881107
0.000690797536589511
0.000452523332819305
0.000222966213785461
5.12963475657401e-05
7.11611934701124e-07
0.00182069853460358
0.00174525949731215
0.00163763457632704
0.00149732048178995
0.00132739041593546
0.00113203522953055
0.000916055058653145
0.000684328161562496
0.000444631562417769
0.000216665829487607
4.8439783823751e-05
6.16236364340387e-07
0.0015137901661518
0.00133137002835284
0.00112677739543868
0.000904806653490431
0.000670469100252804
0.000431626612178161
0.000207427380770453
4.4559978326058e-05
5.06049429589278e-07
1.54165669342103e-07
1.28810184371023e-05
2.45441182632014e-07
0.000104968365826603
1.95739356894613e-05
3.4788110264165e-07
0.000302623663111515
0.000133177787135376
2.56438621494767e-05
4.56053998794583e-07
0.000531023399979885
0.000342845525516666
0.000158735791074654
3.14556292888753e-05
5.45083068722713e-07
0.000752375283707772
0.000574164663800273
0.000377249890506327
0.00018047029825917
3.66989320200905e-05
6.1166075261944e-07
0.000956683145589629
0.000796649501680904
0.000609787568558265
0.000404893489474983
0.000197601619210472
4.11920001142632e-05
6.59711848165441e-07
0.00114359653767928
0.00100376341390714
0.000833250718562568
0.000637496526318623
0.000424050518968225
0.000209336062128854
4.5052074717346e-05
6.87811002099875e-07
0.00131433624268764
0.00119453414776173
0.00104252314573057
0.00086150675906079
0.000656817209663807
0.000435417118480013
0.000215340718363882
4.81526890309207e-05
6.92589918003899e-07
0.0014703356658488
0.00136974030038954
0.00123647045408527
0.00107210501928319
0.000880882122388894
0.000667900487836654
0.000440296287028434
0.000217476863490484
4.98445771767501e-05
6.75467570823067e-07
0.00161315688042465
0.00153067329935055
0.00141547903628569
0.00126812078602521
0.00109175951123672
0.000891144793936731
0.000671196080193502
0.000439438919120128
0.000215709178935468
4.89794679196648e-05
6.50273736435872e-07
0.00174465228013997
0.0016789183892866
0.00158067380154005
0.00144969094489104
0.00128836174425491
0.00110091629715593
0.000892147881239572
0.000666969188512124
0.000433195241641417
0.000210489826028126
4.66076031052879e-05
5.86608507497487e-07
0.00186702047381419
0.0018163278177998
0.00173350339678531
0.00161794144419838
0.00147075592878034
0.00129628902896881
0.00109899240670314
0.000883584901146484
0.000655135729333063
0.000421578792339165
0.000202062325297936
4.3009091209762e-05
4.83724639894748e-07
0.00147721226507517
0.00129100874119905
0.00108526462093421
0.000864928146820921
0.00063531443973982
0.000404304585498012
0.000190267501968067
3.81356638552562e-05
3.70258100308194e-07
1.21281060028445e-07
9.85480641888657e-06
1.99070119333121e-07
8.22874855494228e-05
1.64048561846594e-05
2.80087523787995e-07
0.000260864218315464
0.000110302012626149
2.19338271390129e-05
3.69656536678089e-07
0.000482802790403757
0.000305632119081703
0.000137116697694434
2.70310250563635e-05
4.47266339863354e-07
0.000701575071230481
0.000531657962237181
0.000344821291727014
0.000160571620440767
3.16058277416952e-05
5.08064367011844e-07
0.000902801916999953
0.000751384804679593
0.000573302361806189
0.000376888497991371
0.000179452185410713
3.56955861707555e-05
5.57863907054412e-07
0.00108575561854029
0.000954534265338762
0.000792841895493141
0.000605838463566216
0.000400797742333599
0.000193685967907521
3.94122456599771e-05
5.93626517519803e-07
0.00125209529929628
0.00114076241173142
0.000997566947351718
0.000825327330579299
0.000629138650601372
0.000415751757105921
0.000202793293923654
4.27637026266022e-05
6.08406369482423e-07
0.00140323167144686
0.00131110928583604
0.0011866416601524
0.00103109970429284
0.000848415205396328
0.000643506607185332
0.000423313962328129
0.000206897855666307
4.52736833300336e-05
5.993885155083e-07
0.00154053289854414
0.00146684025658859
0.00136062416326549
0.0012222060350587
0.00105448412522606
0.0008620072673427
0.000649610979975617
0.000424754034408791
0.000207244016983535
4.62111602044474e-05
5.74319449905778e-07
0.00166572667324744
0.00160943350410954
0.00152057947776455
0.0013988768886705
0.00124640809446998
0.00106723447269499
0.000866079394405167
0.000647867016530945
0.000420436919599009
0.000203447047384465
4.44014870682364e-05
5.34146135626204e-07
0.00178100133661792
0.001740706017942
0.00166795185954105
0.00156204077023915
0.00142429450584811
0.0012583686480432
0.00106881142416967
0.000860400364907101
0.000638279450027464
0.000410452485068848
0.000196076480196368
4.12974460382012e-05
4.59932033273112e-07
0.00188891638064154
0.00186282590729891
0.00180451632901231
0.00171300462671659
0.0015891628298954
0.00143557208469873
0.00125716033869943
0.00105848160208699
0.00084445915453917
0.000620493778043313
0.00039456694995799
0.000185096593160228
3.67535239325964e-05
3.52259299184983e-07
0.00143125552573489
0.00124168762384447
0.00103532412788574
0.000817497418095464
0.000593853012562853
0.000372217680357899
0.000170055080122592
3.07472362152219e-05
2.43787030272523e-07
1.16614751009572e-07
7.36927085059056e-06
1.77654133802657e-07
6.22363792880501e-05
1.39669748676018e-05
2.34869263742897e-07
0.0002173115184339
8.93322688077596e-05
1.90681486074403e-05
3.02786505920507e-07
0.000429334754370541
0.000265222520866515
0.000115783267419224
2.35285168784103e-05
3.64614086522562e-07
0.000644696994999582
0.000483983355651115
0.000308820524500196
0.000139969948108525
2.73893108587392e-05
4.16824475257117e-07
0.000843836982239585
0.000700713268607758
0.000531401086608485
0.00034539647720565
0.000160413703031173
3.08521848944005e-05
4.62654596974408e-07
0.00102358526287612
0.00090089959736827
0.000748053936328035
0.000570026800163639
0.000373759604671794
0.000176282676178482
3.42066525964523e-05
5.0146828296306e-07
0.00118621808572913
0.00108319271153428
0.000948846988095951
0.000785557205460311
0.000598202203565245
0.000393308447066356
0.000188088051302107
3.74105711316011e-05
5.23771869393684e-07
0.00133313946451254
0.0012491561760468
0.00113343711058546
0.000986852858984472
0.00081297012159862
0.000616527107634344
0.000404271182578116
0.000194898385962496
4.02297472782457e-05
5.23912806612743e-07
0.00146541901654108
0.00140004793618987
0.00130262534998103
0.00117320175540118
0.00101433419093888
0.000830312181997906
0.000625852913219381
0.000408261754370432
0.000197090143394843
4.20049719560002e-05
5.01995308989426e-07
0.00158453670667554
0.00153716333727339
0.00145746421818141
0.00134498677494291
0.00120153131621579
0.00103091186045846
0.000837723007894607
0.000626864423569418
0.000406171144941937
0.000195369990367794
4.17761144854905e-05
4.68441208061513e-07
0.00169260993977369
0.00166220024414611
0.00159930405708675
0.0015030856754615
0.00137474289942591
0.00121761660064649
0.00103615022977851
0.000835121767155443
0.000619729912062472
0.000398041918449712
0.000189235372223425
3.92005615473556e-05
4.16087084612477e-07
0.00179227553054986
0.00177732563168146
0.00172988699882117
0.00164880645549448
0.00153479399373409
0.00139060950902296
0.00122056170202199
0.0010293743588348
0.000822080381206134
0.000604184994781844
0.000383775497231158
0.000179332724828127
3.52254063802285e-05
3.34569147430705e-07
0.00188648259355704
0.00188506508854007
0.00185132570036151
0.00178382638929733
0.00168289057443389
0.00155089688422793
0.00139127712041326
0.00120924725871792
0.00100965825621735
0.000797853821513162
0.000579584295564694
0.000362811803923616
0.000165120823461107
2.94755019905333e-05
2.3019336192569e-07
0.00137508664685284
0.00118237248848403
0.000975879875421162
0.00076140737298066
0.000544920626999983
0.000334202337695083
0.000145990805326619
2.26548084569981e-05
1.37238139715589e-07
1.19311107360224e-07
5.57030134891093e-06
1.82876152426863e-07
4.58332155395367e-05
1.21129476359546e-05
2.15578769676206e-07
0.00017426190500952
7.23892964140798e-05
1.69915499101449e-05
2.57763306724515e-07
0.000371587471143001
0.000223741825339403
9.67750294093242e-05
2.08180420582039e-05
3.00441291336147e-07
0.000582185879472327
0.000431484412586116
0.000270314914044908
0.000119853653831813
2.39910035896891e-05
3.39736698811177e-07
0.000778963365143576
0.000644330541441862
0.000484846626812439
0.000310841560391342
0.000140799489615218
2.67966142972313e-05
3.78442263486143e-07
0.000956470251251391
0.00084224174587831
0.000698085719706179
0.000529224784082296
0.000343473406042445
0.000158149689597954
2.95789887539971e-05
4.14840646697818e-07
0.00111621673528792
0.00102135039611007
0.000895871252064594
0.000741665850316676
0.000563466677765009
0.000367550944076421
0.000171482843609242
3.24801269878292e-05
4.4163633633589e-07
0.00125985088132131
0.00118361138623485
0.00107655094698653
0.000939020792003634
0.000774168923008994
0.000586569133642639
0.000382782988501393
0.000181187958768304
3.51217657018644e-05
4.48953870281116e-07
0.00138796707095129
0.00133029620343165
0.0012413927521814
0.00112095700351096
0.000971108500619081
0.000795825635464639
0.000599704764231065
0.000389885728806808
0.000185606444835621
3.7267912540058e-05
4.34898297842303e-07
0.00150162788109333
0.00146241840888175
0.00139145256123857
0.00128805673536456
0.00115369120243416
0.00099184778143678
0.000806940869666433
0.000603809323649366
0.000390182375625504
0.000185629019849771
3.81042026726871e-05
4.01315014136298e-07
0.00160276222042728
0.00158143494189762
0.00152791782483912
0.00144119233805755
0.00132221863599807
0.0011740488338103
0.00100094888638319
0.00080764330347829
0.000599353688999878
0.000384194349230345
0.000181381818392061
3.66702247048114e-05
3.60907838218968e-07
0.00169403227408647
0.00168944336872065
0.00165241733823049
0.00158158950578922
0.00147746393427366
0.00134265672433303
0.00118122463939043
0.00099786630479392
0.00079766926439098
0.000586224606132839
0.000371712483857615
0.000172667421477976
3.3245120761091e-05
3.00435803752154e-07
0.00177856171925336
0.00178905271840896
0.0017670565188987
0.001710891250919
0.00162063472303112
0.00149848011477741
0.00134808542248068
0.00117414522374588
0.000981738241389436
0.000776351959092801
0.000563863544175349
0.000352384713227969
0.000159626812541937
2.81613586029079e-05
2.18274793534057e-07
0.00185970439164594
0.00188316830144514
0.00187429973117832
0.00183111851419417
0.00175330506985727
0.00164266790845013
0.00150258379395949
0.00133699141675805
0.00115149032892134
0.000951435042179815
0.000742659493739473
0.000531247973154943
0.000325160330534324
0.000141258372171608
2.14990024614913e-05
1.28506595684305e-07
0.00130752458401194
0.00111179051796375
0.000905595536176226
0.000695202514713398
0.000486916687594328
0.000288730693797796
0.000117145585415294
1.45282119331506e-05
6.38948336051149e-08
1.22178126142125e-07
3.96008821301219e-06
1.84750098663587e-07
3.41432517764204e-05
1.06715050405302e-05
2.24910636687725e-07
0.000134648213948461
6.00982562660339e-05
1.59232805050208e-05
2.3519023967155e-07
0.000310799710848205
0.000183964019356824
8.18731596154374e-05
1.89281291690568e-05
2.55587699061463e-07
0.000514090483332301
0.000375234893308828
0.000231394618311945
0.000102089936912813
2.13486825797145e-05
2.79279162719255e-07
0.000708138892954499
0.00058255699356285
0.000434108247388642
0.000274291976715873
0.000121724767919244
2.34578638067018e-05
3.0751161047963e-07
0.000883626224568366
0.000777776425732433
0.000642787554645893
0.00048429302228895
0.000310542016149911
0.000139499377292884
2.56463007441124e-05
3.37529134630831e-07
0.00104132623488457
0.000954636135855486
0.000838072050199854
0.000692983751845399
0.000524213889271019
0.000338628551040293
0.000154262708637892
2.80388868193121e-05
3.63861513708659e-07
0.00118287175642293
0.00111400600966634
0.0010155505398035
0.00088717963623969
0.000731576268762065
0.000553189073808679
0.000358430527512904
0.000165407338099492
3.0389287997989e-05
3.76293589761196e-07
0.00130808161849784
0.00125738962843169
0.0011766897038922
0.00106521516051977
0.000924525597448997
0.000758242721683979
0.000570860718097123
0.000369373645121793
0.00017279164995274
3.23614462807759e-05
3.69074117211831e-07
0.0014173475833928
0.00138535596693676
0.00132256323081037
0.00122802910515328
0.00110277761289878
0.00094988872709269
0.000773554036171301
0.000578543310116117
0.000372438191699097
0.000174545093189181
3.3628603319844e-05
3.42788311539689e-07
0.00151226562171209
0.00149895645333411
0.00145410671961767
0.00137649769990351
0.00126677822059196
0.00112765052357023
0.000963136240934195
0.000777859648529143
0.000577022367505872
0.000368672207525531
0.000172042119928994
3.33907784642755e-05
3.01345191663018e-07
0.00159542981019746
0.00160010108143185
0.00157272216672471
0.00151170450741194
0.0014172907581522
0.00129183695754038
0.00113917509289273
0.000963910758090136
0.00077113472353918
0.000566491106438056
0.000358218450190642
0.000164927176053864
3.07237055076503e-05
2.56749963742092e-07
0.00167008321389637
0.00169142150378462
0.00168044145468393
0.00163518442388617
0.00155544721962339
0.00144319499071922
0.00130199989806216
0.00113639254569732
0.0009514906287962
0.000752872143553949
0.000546518694034534
0.000340658925968371
0.000153111855885858
2.63182806919876e-05
1.94610099242274e-07
0.00173983238490154
0.00177600254725164
0.00177979666997752
0.00174893913578776
0.00168278369308751
0.00158287086580354
0.00145245954945094
0.00129579124122867
0.00111803277170808
0.000924804825108239
0.000722106113814049
0.000516165915679693
0.000315143457219363
0.000136052724001753
2.03880369197167e-05
1.21747333663546e-07
0.00180847965558359
0.0018571439726683
0.00187361604244337
0.00185532727420485
0.00180119768034421
0.00171233844605365
0.00159167715505653
0.00144323802447635
0.00127149983486
0.00108260297769235
0.000882477103370019
0.000677434787377209
0.000473912901100079
0.000280099141361513
0.000112656049914836
1.36255211310343e-05
5.91878359446475e-08
0.00122716379888467
0.00102846214097173
0.000822856049857522
0.000617041481907263
0.0004178308992145
0.000234121516162568
8.33140262509767e-05
7.45198828503229e-06
2.3253642387367e-08
7.81929965413157e-08
2.73283954878913e-06
1.72280794742765e-07
2.43825184131276e-05
8.46300226333321e-06
2.16203814128471e-07
0.000101381919518367
5.12021831758331e-05
1.50627937407499e-05
2.39428820805395e-07
0.000249822515192134
0.000148590431911034
7.18334623668853e-05
1.80341792704761e-05
2.30868973774722e-07
0.000439832258101138
0.000316756772834667
0.000194674101608376
8.83310128830082e-05
1.95581285669254e-05
2.35628848976007e-07
0.000630345160813857
0.000515539608174583
0.000380330778273595
0.000237685297640473
0.000104873070926591
2.08401819757334e-05
2.51243228422886e-07
0.000803599078281907
0.000707618568281055
0.000582588623395312
0.000435763312949687
0.000275936114863912
0.000121362976638251
2.23764342207144e-05
2.72577188236385e-07
0.000960226159457438
0.000882275754974608
0.000774743054811733
0.000639378936343478
0.000481264021955357
0.000307390779314471
0.000136549451247095
2.41851701969534e-05
2.93958447463289e-07
0.00110123073249664
0.00103961456606442
0.000949886537336699
0.000830837655264962
0.000684681056881963
0.00051577308242731
0.000330919187371797
0.000149009198647896
2.60788453615405e-05
3.08210998891168e-07
0.00122531840530347
0.00118085781796948
0.00110809637238004
0.00100560930297072
0.000874238785140645
0.000717217293213034
0.000538967110244617
0.000346358847516148
0.000157801057724976
2.77558482633343e-05
3.06182646702143e-07
0.00133174961564028
0.00130589144339362
0.00125063372110161
0.00116471755269044
0.00104859183911801
0.000904815628700793
0.000737326039363182
0.00055083978209073
0.000352789019684042
0.000162226422986132
2.89245507850874e-05
2.86929875707926e-07
0.0014216746474001
0.00141511406016204
0.00137804058844
0.00130904805232753
0.00120840041898892
0.0010783515353674
0.000922602517055024
0.000745640141858929
0.00055262228523609
0.000351445131146331
0.000161203790736887
2.91325595286525e-05
2.5271219602044e-07
0.00149753929560226
0.00151010323732767
0.00149134119278752
0.00143946648402433
0.00135442308755878
0.0012382239837739
0.00109441880300786
0.000927460072415759
0.000742394955501836
0.000544866374413201
0.000343083092603977
0.000155798093012403
2.77204781133003e-05
2.10284722980125e-07
0.00156262001014884
0.0015934177172351
0.00159238046475518
0.00155729878678155
0.00148766551727674
0.00138515686406512
0.00125314355037468
0.00109601941551675
0.000918876005646447
0.000727329591446517
0.000527422487335881
0.000327444399718469
0.000145352052967979
2.39416247239628e-05
1.63495262115363e-07
0.00162069489813407
0.00166825619181191
0.00168369741953552
0.00166446622984679
0.00160956021923881
0.00152022247475964
0.0013995499464102
0.00125178492805715
0.00108200489936354
0.000895913988123857
0.000699621999337588
0.000499470321230537
0.000303758221027952
0.000129690621968366
1.88289152048303e-05
1.08317627427363e-07
0.00167586876155391
0.0017381752598059
0.0017682783151585
0.00176336867235629
0.00172197161013785
0.0016448513903895
0.00153475065601142
0.00139567862013265
0.00123247634102253
0.00105092508883654
0.000857244326824457
0.000657922094575747
0.000459558172902437
0.000270572884857847
0.000107814307426081
1.28156731767775e-05
5.60603780891783e-08
0.0017325187304087
0.0018069149617973
0.0018493289658884
0.00185670807005233
0.00182710668490362
0.00176079418097831
0.00166012284540618
0.00152881365590037
0.00137152000476489
0.0011933768027615
0.00100110706309296
0.000801190639140799
0.000600384685699423
0.000405654238994585
0.000226097847867823
7.93280660213221e-05
6.8955728606858e-06
2.16845349372084e-08
0.00113245387402802
0.000930733745574992
0.000725803644730378
0.000524827081164767
0.000335733266902145
0.000169490629556817
4.65134808145619e-05
2.5160247146952e-06
5.54754548789088e-09
1.55333048191856e-08
1.44106867580384e-06
7.05534534793421e-08
1.55277821701181e-05
5.35782410296043e-06
1.82339848453206e-07
7.27597654337769e-05
4.11725126986873e-05
1.21296341251703e-05
2.22259031104518e-07
0.000192853892616044
0.000118878393714349
6.40952683931284e-05
1.6648447600982e-05
2.29630602054559e-07
0.000359926587102407
0.000258991169797324
0.000162337373726977
7.90221372038085e-05
1.85789493945562e-05
2.13223262979743e-07
0.000540368506647265
0.000442865802815049
0.000325093060144993
0.000203307649741763
9.17935347562931e-05
1.91395145441567e-05
2.09271135680495e-07
0.000711836685910186
0.000630790727191244
0.00051775755394262
0.000384761204291972
0.000241359390807288
0.000105272463475876
1.97884687867611e-05
2.20652194326815e-07
0.000869415965557118
0.000803124251129751
0.000706103318175958
0.000581411816812255
0.000435148538911919
0.000274656414817169
0.000119306691569905
2.0950763597666e-05
2.34948170978335e-07
0.00101278372090627
0.000959239321600824
0.000878852207759465
0.000769367587095604
0.000633215886558882
0.00047493806900621
0.000301367062529521
0.000132154536352706
2.23235188980798e-05
2.4710729056022e-07
0.0011386438028424
0.00109979645516832
0.00103496452399094
0.000941664736549237
0.000819842371310399
0.000672372043002861
0.000503541137733076
0.000320264784286381
0.000141975770141737
2.35756640243665e-05
2.48356180283016e-07
0.00124450614220664
0.00122360405717236
0.00117524980379016
0.00109777557896633
0.000990841396143138
0.000856354188045411
0.000697982333088866
0.000520418180220414
0.000330831277446227
0.000147959723308906
2.44516963121449e-05
2.34661576434972e-07
0.00133119820788763
0.00132996834278199
0.00129966252688174
0.00123873023715027
0.00114695583113082
0.00102600887666943
0.000879184941127922
0.00071080914216362
0.000525989967232296
0.000332419623345473
0.000149092057818517
2.46964011369159e-05
2.08079546924985e-07
0.00140110674313038
0.00142000225339655
0.00140862646902573
0.00136506287582387
0.00128893654792307
0.0011818295888126
0.00104691963967882
0.000888441072025274
0.000711357372934085
0.000521260986257094
0.000326205393064262
0.000145023923080221
2.38217106540903e-05
1.71784231634818e-07
0.00145749009004266
0.00149610579408761
0.00150366000431254
0.00147776019050632
0.00141760190198224
0.00132452091384668
0.00120160089059366
0.00105304533286044
0.00088386268450838
0.00069965578234731
0.000506463245947342
0.00031255879967755
0.000136252213341659
2.11936611470876e-05
1.30922514198962e-07
0.00150417725015951
0.00156150301815876
0.00158721447630594
0.00157855771804511
0.00153419410506539
0.00145503893695898
0.00134396091177427
0.00120508842024654
0.00104343497720819
0.000864723875458788
0.000675118922903994
0.000481013035934608
0.000290767990733708
0.000121912315559669
1.68349355239534e-05
9.0265566899357e-08