/*--------------------------------*- C++ -*----------------------------------*\
  =========                 |
  \\      /  F ield         | OpenFOAM: The Open Source CFD Toolbox
   \\    /   O peration     | Website:  https://openfoam.org
    \\  /    A nd           | Version:  12
     \\/     M anipulation  |
\*---------------------------------------------------------------------------*/
/*   Windows 32 and 64 bit porting by blueCAPE: http://www.bluecape.com.pt   *\
|  Based on Windows porting (2.0.x v4) by Symscape: http://www.symscape.com   |
\*---------------------------------------------------------------------------*/
FoamFile
{
    format      ascii;
    class       volScalarField;
    location    "700";
    object      omega;
}
// * * * * * * * * * * * * * * * * * * * * * * * * * * * * * * * * * * * * * //

dimensions      [0 0 -1 0 0 0 0];

internalField   nonuniform List<scalar> 
10142
(
2.46683987631541
2.46684423974848
0.482908048380686
2.38167766499647
2.46684118035118
0.480226725608977
2.38168070909672
0.222817449853766
0.470041105535222
2.28699316144663
2.46683835846298
0.477488924161042
2.38167984455201
0.220793125453678
0.467463859467214
2.28699581011822
0.149293067341082
0.219618720006915
0.454600025752462
2.21610697667948
2.46683452748261
0.475154402335165
2.38167530777881
0.218735895543312
0.46490956295806
2.2870079271358
0.147803695095216
0.217624929267832
0.452100194623512
2.21610913137178
0.118419808009513
0.148253222060036
0.21515922603693
0.442522960039858
2.18721775585323
2.46682782535463
0.47316166649201
2.38165827618735
0.216786885586938
0.462725811971172
2.28697900765528
0.146303577277968
0.215604516412912
0.449658395561764
2.21612331110756
0.117264209235859
0.146774637933449
0.213201023808213
0.440110778153971
2.18721860542126
0.102613706057488
0.118038449097539
0.146561533903041
0.211018969434531
0.436034957377073
2.18619322577566
2.46680508538093
0.473055940473624
2.38167709541093
0.214996847363376
0.461286355496165
2.28697861317679
0.144858764343938
0.213689506699537
0.447618357347663
2.21609128397796
0.116116978447513
0.145284130823054
0.211220624202452
0.437758811468829
2.18722046005908
0.101683756328786
0.116886866741983
0.145097194154678
0.209096287624984
0.433673705336574
2.1861929151941
0.0936241593786575
0.102463916595512
0.117283337762673
0.144674765671037
0.207950867312499
0.433129844984962
2.19193193507179
2.46678126284934
0.488468669035034
2.38170160929269
0.213713091890751
0.468338217231156
2.28700601141414
0.143532449813147
0.211988093988253
0.447722058057705
2.21610726759164
0.115018039448413
0.143847436202348
0.209347453137354
0.43594076970269
2.18721393070675
0.100774401886383
0.115741762042749
0.143619491048926
0.207152076509372
0.43138802575907
2.18619178960914
0.0928647391753646
0.101534715990353
0.116136278411623
0.14322403802465
0.20605264453172
0.430796098272879
2.19192922429423
0.0882378701894097
0.0935511606026651
0.102074510850046
0.116284463577692
0.142908446133048
0.205645734344149
0.430869251893501
2.19485822904104
2.46685600848344
0.51363096113908
2.38179225911149
0.214074057997919
0.485154993635128
2.28705898295906
0.142453259861062
0.211146073831387
0.458545730616543
2.21612726386856
0.11401950059773
0.142532658009393
0.207813948991363
0.438427151022505
2.18721825356119
0.0999157104524636
0.11464330269194
0.142193246794106
0.205334095032433
0.429698798229328
2.18618963719849
0.0921334052249098
0.100624198571593
0.114993103333654
0.141757000298468
0.204130923117918
0.42855738036052
2.19192750555393
0.08762180385763
0.0927906626249927
0.101144565808498
0.115140210297873
0.141466592346699
0.20376234016304
0.428560392769326
2.19485325608768
0.0849792954631849
0.0881860919630534
0.0933066492979669
0.101475462546134
0.115177459384444
0.141272411880215
0.203450201406706
0.427799726178829
2.1951322074037
2.46710977771731
0.545085503926402
2.38207774583481
0.216508931551294
0.507827784215048
2.28720832045595
0.141857876644528
0.21161703282414
0.476037439726451
2.21618885830368
0.113202680340246
0.141486418114171
0.207318873361982
0.450011922344121
2.18723964142585
0.0991509153546204
0.113643478358776
0.140897315969631
0.204002064838753
0.433157282048609
2.18619407057886
0.0914564413067863
0.099762580341879
0.113893240454888
0.140338539797001
0.202341335159756
0.42690353700377
2.19192361212936
0.087036901422074
0.0920563486921341
0.100230436589752
0.113995742419962
0.140003342688147
0.201852130851951
0.426342320410794
2.19485101772543
0.0844985254365295
0.0875677153568461
0.0925419913973933
0.100541819741216
0.114032623093039
0.139834981200326
0.201579335330057
0.425522902662588
2.1951268552881
0.0849325268629746
0.0879982514924592
0.0928962509519997
0.10073283894582
0.114026819849771
0.139626007204248
0.200970656687682
0.423817303938014
2.19481068255959
2.4684579407777
0.582852049378545
2.38279746884582
0.222665764029996
0.534515651708511
2.2875911105826
0.14200700849318
0.214395682002594
0.497415582304564
2.21635232567511
0.112692077824546
0.140894882554251
0.207930778756866
0.467366787923893
2.18729932062537
0.098543868846628
0.112823556429572
0.139878624048919
0.20364262649557
0.444803129087312
2.18621381599225
0.0908727319700064
0.0989925062106171
0.112888137869592
0.139055949533048
0.201096790827793
0.430472795601789
2.19193152738901
0.0865088070113197
0.0913745577907076
0.09936146857408
0.112888811173584
0.13858161989253
0.200066313095535
0.424690466380736
2.19484625293944
0.0840423453970752
0.0869785962621782
0.091800492004544
0.0996195773736415
0.11288168589279
0.138369476899778
0.199677119015932
0.423331525911313
2.19512422384563
0.08276255441742
0.0844483949523748
0.0873730178179666
0.0921231932979552
0.0997919194480233
0.112878476316461
0.138191643327371
0.199115531523259
0.421576553254373
2.19480514058606
0.0847688447609935
0.0876819165002341
0.0923642050303083
0.0999150119178931
0.112839069842083
0.13786486475187
0.198114231948654
0.419163160638265
2.19480573107997
2.47049254982686
0.623362928251132
2.38444982034606
0.232182977477375
0.562936633177848
2.28846146597185
0.143428024536759
0.219881942901515
0.520653029859676
2.21675195204148
0.112659116193425
0.141048419612273
0.210799489261399
0.487169994610614
2.18745794987137
0.0981884232810088
0.112302274737384
0.13928293148423
0.204276880822726
0.461512173404752
2.1862686607412
0.0904389027859388
0.0983766770653741
0.112055769968084
0.138032904179463
0.2007470842378
0.441761012115504
2.19194807846382
0.0860746227824412
0.0907835372586264
0.0985787320199619
0.111868716351202
0.137288350061061
0.198817512910125
0.42792773001263
2.19485434553035
0.0836441537818881
0.0864443973429291
0.0911075014621329
0.098736200989899
0.11175955247707
0.136934623937135
0.197884669679734
0.421636363258446
2.19511911976615
0.0824195222367127
0.0839868755832065
0.0867738646933364
0.0913686790249984
0.0988563481870017
0.111716864926101
0.136722012632468
0.197224044457513
0.419418448340018
2.19480231296031
0.0819765373006406
0.0827120481934007
0.0842753520570025
0.0870441946691104
0.0915783815668383
0.0989640932811982
0.111686280659635
0.136435407510475
0.196280311708639
0.416965399375068
2.19480014114704
0.0845042979627648
0.0872785206914828
0.0917755201394022
0.0990735522328843
0.111615825457147
0.135966653445671
0.194918566927089
0.414017378823141
2.19513095048833
2.47707958883524
0.658448284220565
2.3873006038256
0.246161727180085
0.586744740089394
2.29017031273842
0.146693547850898
0.228058678524865
0.542221230513315
2.21762553516218
0.113359598204814
0.142461586389059
0.215769853210429
0.507123190404897
2.18784711264511
0.0982184789063568
0.112249210342219
0.139400385909969
0.207042174314282
0.479713766322363
2.18641927393713
0.0902373989900442
0.098006626857598
0.111506097195061
0.137393249779186
0.201276775902252
0.457507399099222
2.19199870064206
0.0857881551287654
0.0903387076413183
0.097941997287301
0.111006216125377
0.136225119676973
0.198395083005566
0.438608442863863
2.19486956763889
0.0833393375479834
0.0860015503484434
0.0904995481904968
0.097929816677647
0.110711026734657
0.135610511876656
0.196580290768142
0.423938928379502
2.195127054682
0.0821411920307104
0.0835814590174846
0.086225418389809
0.0906561259250317
0.0979508504679456
0.110573204975493
0.135270254055502
0.195419195806255
0.41765237793241
2.1947970768372
0.0817668828555232
0.0823630778290507
0.0838009434070307
0.0864277298819682
0.0908049322641272
0.0980113819859576
0.11051262538062
0.134963592149354
0.194405589166198
0.414845895865671
2.19479726429068
0.0819379914648255
0.0819250096817448
0.0825478972468915
0.0839942135056
0.0866228202215438
0.0909737841494604
0.0981117259036098
0.110460006118544
0.134546605008494
0.193113930284825
0.411866837919816
2.19512542090208
0.0841839272664558
0.0868510160136974
0.0911944245402924
0.0982537524078291
0.110385988714554
0.133973078450322
0.191469796255242
0.408658259987913
2.19485568691378
2.47707765247967
0.684488001631844
2.39185417680148
0.264842187740086
0.597033650086661
2.29303147667512
0.152244795775864
0.23937147400449
0.55483019323178
2.21929747849747
0.115207568810841
0.145454194274376
0.222706912454974
0.523294530325998
2.18870502245036
0.0988236664396955
0.11291143742059
0.140684204931047
0.211421362977354
0.497122633134278
2.18679835039516
0.0903877981968879
0.0980130170504254
0.111397832174162
0.13740553706208
0.20367475775564
0.474466220263724
2.19214278540219
0.0857284779322045
0.0901204931310847
0.0975374865497125
0.110398420133094
0.135493760517048
0.198727144768933
0.453290694638123
2.19491695506187
0.0831795742196335
0.0857026276117828
0.0900292234694607
0.0972549951023792
0.109797151331876
0.134481022460569
0.196038883759176
0.433749951425975
2.19514130958217
0.0819532585902829
0.0832668254201203
0.0857623172747894
0.0900190886078339
0.0971092492045576
0.109486247354774
0.133905909412839
0.194011956583912
0.418369886436746
2.1948048515979
0.0816121503190931
0.0820764029930367
0.0833783085887298
0.0858552201949851
0.0900646531851721
0.0970783845465479
0.109345351776315
0.133496242123855
0.192589388528985
0.412997601356195
2.19479197779223
0.0818719898324278
0.0817079828721867
0.082183081660186
0.083498001559356
0.0859820473958089
0.0901772983105053
0.0971406416105654
0.109275968661731
0.133077784746734
0.19126391174624
0.409781306053692
2.19512262939621
0.082526524685459
0.0818834939185314
0.0817627483703105
0.0822923581827894
0.0836503137864575
0.0861733991610507
0.0903755665826949
0.097282163356057
0.109230894432045
0.132569939772162
0.18970377023209
0.406513568446842
2.19485236171608
0.083870960045709
0.0864668282376534
0.0906850401686911
0.097516741050662
0.109220886468087
0.131986568984084
0.187956080855729
0.404047452203472
2.19192995822876
2.49612145387186
0.70490566372809
2.39533601503348
0.288214608439633
0.590909246706937
2.29674769691033
0.160768506940759
0.253913868747754
0.553013768614291
2.22204871723377
0.118562362102324
0.150463423853119
0.231776741667233
0.529737530515781
2.19037351229288
0.100283452348118
0.114679479585415
0.143307868784293
0.217196428295821
0.509990544709997
2.18765645315788
0.0910624738456934
0.0985804136779353
0.111956134042708
0.138443689090328
0.207417890082826
0.490321249429586
2.192515777959
0.0860127753554111
0.090245158886121
0.0974871250963465
0.110187655496488
0.135323031008733
0.200605132404516
0.469247155284874
2.19505560520556
0.0832430440208592
0.0856246283180739
0.0897722463632581
0.0967892452622377
0.109100667522634
0.133623825528151
0.196137154973123
0.447257616813274
2.19518630728496
0.0819029714270626
0.0830933976906204
0.0854342351243263
0.0895054215164347
0.0963790273612342
0.108506591391993
0.132699470209828
0.19332558177944
0.427119888568495
2.19481853346539
0.0815358488538217
0.0818774440409206
0.0830402906837732
0.0853583246247099
0.0893870856741849
0.0961938707292795
0.108216657465442
0.132090168752068
0.191038662600846
0.411853576893279
2.19479967643484
0.0818475644702482
0.0815434078832696
0.0818759084759483
0.0830466561885147
0.0853763833854411
0.089403923475985
0.0961785458141634
0.108087218326245
0.131601119704705
0.189444801713275
0.407968939735331
2.19511741636928
0.0826212435152806
0.0818081721935812
0.0815259609819651
0.081900626238872
0.0831239668335721
0.0855035349925289
0.0895546283321041
0.0962941758553943
0.10804101816514
0.131112612961167
0.187886048522654
0.404439512215148
2.1948499727696
0.0836838472690037
0.0824657120632723
0.0817157660814492
0.0815171984266082
0.0819957078174336
0.0833087976616001
0.08576553708159
0.0898498671428033
0.0965385703776597
0.108072856777364
0.130611352802055
0.18623247260543
0.401600314673358
2.19192893783902
0.0836343176521849
0.0861989179358315
0.0903283675257379
0.0969609868897952
0.108253751053633
0.130210521435315
0.184825650645762
0.400990966802549
2.18619365483965
2.47684900258225
0.731034959509985
2.40111560495267
0.317020405620807
0.574747825462437
2.30018086900016
0.17300821753227
0.270039376842439
0.537052991683942
2.22558050497906
0.123965504777744
0.157996989017279
0.242448982063428
0.523363710855023
2.19317081553601
0.102994791364048
0.117845303623736
0.147584091015367
0.224454665638396
0.513766590972038
2.18937730661276
0.0925130710551477
0.0999850429901346
0.113524468242856
0.140593203225015
0.212189975262128
0.501654481716275
2.19338245433317
0.0868157186959989
0.0908795275762902
0.0979608002838024
0.110566724723788
0.136006833228769
0.203765826239903
0.483993045277107
2.19542324772009
0.0836490152313849
0.0858812234726702
0.0898369592385103
0.0966408117625584
0.108741980718154
0.133222352525008
0.197440169709235
0.462224923789788
2.19532073189423
0.0820666775228238
0.0831372096391917
0.0853133965966507
0.0891831910488765
0.0958266490405519
0.107701604552661
0.131705824283354
0.193182436796631
0.439491738973598
2.19486220185125
0.0815810263418221
0.0818122956577173
0.0828343422596232
0.084982028183464
0.0888138263042258
0.0953973924527694
0.10716718231882
0.130809178442231
0.190202877326517
0.419358961723752
2.19481329607905
0.0818818695350199
0.0814546090237954
0.0816501524171116
0.082670077775476
0.0848336287788977
0.0886787121728311
0.095249119089079
0.106919740503809
0.130159036622633
0.187761051046661
0.406753604258693
2.19512516206178
0.0827388581827876
0.0817719382868303
0.0813367551784785
0.0815594360098148
0.0826335775173129
0.0848588703272513
0.0887465887601448
0.0953051021432897
0.106836905050951
0.129638180649608
0.186103027409799
0.402805194901707
2.19484701083643
0.0839646484694612
0.0825485528369685
0.0816154926701699
0.0812471014320666
0.0815670371694441
0.0827466049665412
0.0850647389483935
0.0890057076871246
0.0955377017873553
0.106884704277227
0.129177258310741
0.184451451202804
0.399389932602919
2.19192716018351
0.0853983314198656
0.0836120671550912
0.0822831320450016
0.0814650411523761
0.0812433530015979
0.0817254446943356
0.0830411054287723
0.0854743146039668
0.0894795826706404
0.0959815257500802
0.107122305556897
0.128878202466571
0.183134224627871
0.398641336335938
2.1861928472248
0.0835521127159729
0.08614084042465
0.090243749100377
0.0967490293736467
0.107724215778916
0.129045248901001
0.182822026148774
0.400711854716675
2.1872188611848
2.51405902630846
0.771410915077082
2.4006579023158
0.351970216020563
0.557193631103455
2.30188323223664
0.18990997853048
0.284207341481645
0.510020483831475
2.22846110581968
0.13212302400093
0.168339390261572
0.252587932852891
0.504754652440957
2.19682452498093
0.107421268978667
0.122880266545702
0.153772413300365
0.232524446801707
0.50630520365591
2.19233033276058
0.0951276269770272
0.102570698533027
0.116311041808829
0.14406081979367
0.218066086208019
0.504591340970494
2.19516235530522
0.0884019149627751
0.0922654671250868
0.0992077653204669
0.111822985015155
0.13763262238762
0.207711430163518
0.494669585551836
2.19629485099363
0.0845816441831912
0.0866409440566363
0.0903767633827138
0.0969567867723538
0.108878749381132
0.133505705971311
0.200070484206087
0.475988672743814
2.19568357678908
0.0825648088297378
0.0835137989519214
0.0855053757384222
0.0891483193336004
0.0955434547973559
0.107168916837244
0.131062359125853
0.193900864476677
0.453686061346966
2.19499428600931
0.0818202719867272
0.0819551719825094
0.0828315480905035
0.084790975279097
0.0884031796923457
0.0947435279755918
0.106249494427682
0.129687657380672
0.189863893842493
0.430852634978317
2.19485693466437
0.0820113818915313
0.0814835768717813
0.0815490313287527
0.082411014078818
0.0843927664775705
0.0880363921122731
0.0943841645982455
0.105805797841886
0.128818364089321
0.186806587297212
0.411665959090887
2.1951392112067
0.0828869132652964
0.0817918609624771
0.0812170245902664
0.0812897897294357
0.0822053399980342
0.084263020512457
0.0879721112338845
0.0943340486460998
0.105639275540972
0.128179172713461
0.184454112688919
0.401904324863361
2.19485081982205
0.0842422361756513
0.0826517664977657
0.0815492456786504
0.0810173162448656
0.0811799529737783
0.082210570854461
0.0843792601250214
0.0881649897563695
0.0945271484498114
0.10567548725234
0.127726807251025
0.182768840725913
0.398110820599378
2.19192655109092
0.0858999944398174
0.0838776060455212
0.0823341697475602
0.0813231837835167
0.0809279012997876
0.0812529763074094
0.0824406269616224
0.0847434833923228
0.0886158182746207
0.0949743264484859
0.105946834932209
0.12748284233556
0.181393242741167
0.396369802246928
2.18619160885243
0.0876982598883106
0.0853095551400958
0.083402682212399
0.0820099480594237
0.0811903213639642
0.0810122307693212
0.0815553468770319
0.0829276702747907
0.0853951712076857
0.0893858779768564
0.0957759820096899
0.106622958044226
0.127777274184563
0.181267254449867
0.398683030808453
2.18721824195948
0.0837263056749551
0.0864271625409456
0.0906178619043602
0.0971566507740025
0.108074022623091
0.129247932323961
0.183465554091352
0.405935846162263
2.21610854576862
2.46568095716546
0.868073492791055
2.4173727128663
0.387916944647021
0.547004125846283
2.30585691214659
0.21241556132713
0.29419960544863
0.470934697584601
2.22937133566249
0.144072530559564
0.181380913003665
0.259013032185097
0.474997947312138
2.19977407716397
0.114304127065914
0.13035288979849
0.161808371387754
0.239369168571868
0.487415594107821
2.19629238638525
0.0994496194438373
0.106769577957502
0.120660521085134
0.148949611442719
0.224348660598793
0.497536130987369
2.1982771750453
0.0911924060466373
0.094770621698852
0.101517400565274
0.114090855378901
0.140293776955261
0.212536793272228
0.497713772528004
2.19811323304673
0.0863350416863204
0.08815714025264
0.091610189870952
0.0979459708982546
0.109744385946147
0.134614435270084
0.203321051256733
0.486330560476046
2.19655537518424
0.0835889004199674
0.0844005567031346
0.0861646790937818
0.0895337608923622
0.0956500091306449
0.107034270984023
0.130948321868848
0.196039484973164
0.467035368653273
2.19535425673861
0.0823712449412984
0.0824226920246211
0.0831389038097073
0.0848782361353866
0.0882358576274448
0.0943063219991336
0.105539877169523
0.128820889534012
0.190099696695358
0.444776793982399
2.1949890283453
0.0823022446643571
0.0817008746484544
0.0816418006160914
0.0823328254409844
0.084108977080611
0.0875248816874698
0.0936269023797552
0.104784871760806
0.12760010922761
0.186397577913107
0.422648829455502
2.19518412950551
0.0830930248589401
0.0819034992676989
0.0812061085042014
0.0811303423543177
0.0818761196933916
0.083748542392338
0.0872593093806905
0.0934059989100362
0.104474687381254
0.126811425625335
0.183419022436806
0.404908593483098
2.19486760023708
0.084512220890774
0.0827829480105629
0.0815329654127731
0.0808472891038413
0.0808520154754978
0.0817229628082521
0.0837287161449434
0.0873444995456126
0.0935223567499078
0.104462990179741
0.126295917821755
0.181306259368072
0.39836338562347
2.19192682148663
0.0863638593439624
0.0841373137199357
0.0824003019130013
0.081207950758483
0.0806438446392683
0.0808124535401313
0.0818567254196532
0.084018980933247
0.0877474881776438
0.0939510691471724
0.104748232900534
0.126091014459896
0.179911482375734
0.395900926121371
2.18619129940061
0.0884696465689999
0.0857914068275473
0.0836273871894033
0.0820086470950409
0.0809924269621307
0.0806432276299795
0.0810359198640335
0.0822893913849753
0.0846375669835228
0.0885083369878029
0.0947717330436888
0.105475289611885
0.126443401872268
0.179642447399953
0.396774068287959
2.18721736146907
0.0906550778599897
0.0875847440576371
0.0850583689298086
0.083086330294442
0.081708707935703
0.0809670275733669
0.0809008578921045
0.081570059266375
0.0830724108240895
0.0856643735599415
0.089757325737559
0.0962007001011087
0.107021635146684
0.128088630463723
0.182161201091695
0.404078830409533
2.21610814409181
0.0843023265991544
0.0872630091882823
0.0917567582114175
0.0986752658636781
0.110149095667452
0.132350068500237
0.18992272117847
0.421821005396417
2.28699453242711
2.49631298205334
0.977713049803788
2.42906369191476
0.440544843082752
0.582078427498522
2.32324422011512
0.240613329373276
0.301412582229972
0.439014329020556
2.23283063618936
0.161149914801797
0.196694753193423
0.258863555884529
0.434352546954496
2.20045047515796
0.124920805242797
0.140991672232099
0.171149155211388
0.242067680290544
0.45639297348891
2.1996185112741
0.10645191327942
0.113243645017575
0.126937931463926
0.155033488978261
0.229157822514001
0.479342653466423
2.20253541884279
0.0959433838863634
0.0988895131709201
0.105235807480706
0.117601695255645
0.144008607951724
0.217562279475763
0.491419751469921
2.20133141014048
0.0894235550035497
0.0908289185705335
0.0938616578121669
0.0998443664860993
0.111424078240028
0.136532341680375
0.207307624983063
0.490230276652713
2.19839046315416
0.085459161961903
0.0860780415058011
0.0875199363125726
0.0905245281932187
0.0963095646977434
0.107483661657614
0.131582163641078
0.19875378714354
0.47770850327561
2.19622484771915
0.0834239758313901
0.0833992487052272
0.0839186153013012
0.0853774044311546
0.0884211291026328
0.0941810502662195
0.105136704703351
0.128362863998711
0.191862925265809
0.458454410196644
2.19534906699734
0.0828649618789998
0.0822204858096511
0.082036331783832
0.0825294844884384
0.0840602760218322
0.0872094376622355
0.0930355362387338
0.103914813765262
0.126568657881708
0.186539045090586
0.436727293289236
2.19531857703927
0.0834149670172563
0.0821711689062775
0.0813698589771336
0.0811426585802556
0.0816998090902123
0.0833607469854942
0.0866463405299709
0.0925542318231369
0.103372766670862
0.125557758563186
0.183133310505894
0.41618038241891
2.19491497029936
0.0847920668035485
0.0829689685637139
0.081599934871868
0.0807721585239435
0.0806162375259611
0.0813144732696759
0.0831395923648753
0.0865665583390993
0.0925429662815863
0.103271161202724
0.124956846888645
0.180424954625747
0.400519401476845
2.19194619497417
0.0867722456808314
0.0843870178351701
0.0824883984247703
0.0811333288992475
0.0804076170332658
0.0804178690827493
0.0813079959278858
0.0833169463905116
0.0868882774820932
0.0929249052169095
0.103545305462433
0.124753180216069
0.178882078349864
0.397392640964241
2.18619374460913
0.0891619204256226
0.0862325748751924
0.083840707755708
0.0820148991836219
0.0808123863958974
0.0802963003307126
0.0805392410192149
0.0816591658273288
0.0838788204535891
0.0876202385147889
0.0937481643940253
0.104310009359218
0.125161907647725
0.178524278046538
0.39706269401571
2.18721720707518
0.0917733188457257
0.0883299517097255
0.0854875214502687
0.0832446794415193
0.0816377480176064
0.0807034168637173
0.0804743673623543
0.0810036779278135
0.0823992274927483
0.0848853241137228
0.0888740476929299
0.0952119059612537
0.105922280300294
0.126858951156801
0.180796228093055
0.402398479844293
2.21610744847733
0.0944038487039214
0.0905064927713774
0.0872730295240721
0.0846735733660502
0.0827290990554344
0.0814602530366454
0.0808764692820466
0.0809978641956388
0.0818796882542586
0.0836224245498303
0.0864886740038855
0.0909021741295336
0.0977505312611531
0.109168475758763
0.13133863320923
0.188918033864167
0.419925519479077
2.28699433563476
0.0854986331299152
0.0889775836997935
0.0941929778722744
0.102237526562932
0.11568006974735
0.141922857672048
0.212476792429861
0.479525015675839
2.38167841478807
2.9257182698255
1.15995554853449
2.45521496417358
0.530518598075669
0.71074981685465
2.36164640503656
0.282609854119693
0.323108371978261
0.464555620682928
2.25286416828756
0.185560648524594
0.214620635488621
0.25636845580666
0.411149278640267
2.20328040595438
0.141945355302528
0.155722347055065
0.181035557808851
0.238575423919641
0.416726750330686
2.20047594530486
0.118689357786821
0.123147694951252
0.135554480632744
0.161687802829117
0.229733600374655
0.446845768600723
2.20624860229321
0.104442856539368
0.10552084088449
0.110882922716589
0.122567089905651
0.148499628997942
0.221026027676693
0.474119520378113
2.20577739641055
0.094964398739034
0.0953484140617564
0.0975486578361133
0.102903153858292
0.11406340383816
0.139240953823573
0.211363609498973
0.485565225427728
2.20165618848028
0.0887884496403926
0.0890278727375488
0.0899245745065982
0.0923893004942585
0.0977176607629653
0.108584849100343
0.132844680118431
0.202108624679476
0.482784504671109
2.19806457113579
0.0853005905258808
0.0851895148634958
0.0854229978564807
0.0864819470776563
0.0891069744941301
0.0944906645682799
0.105182701102519
0.128577684567137
0.194367690512851
0.46998707668006
2.19621981469697
0.0838785265619654
0.0832254924881106
0.0829010732531351
0.0831407870202708
0.0843561826612578
0.0871766226268004
0.092684255426462
0.103273164230665
0.125887701831925
0.188076508091966
0.451368363325728
2.19568149105559
0.0839536680348593
0.082702033677401
0.0818138095263923
0.0814213429239767
0.0817549300203586
0.0831625686585201
0.086184510388716
0.0918234803720645
0.102377550318444
0.124470105969571
0.183524980993956
0.430714253028514
2.19505380550317
0.0851309128708071
0.0832660247871136
0.0818102559666234
0.0808504812472289
0.0805248522853828
0.0810292858345132
0.0826480925477029
0.0858609020098754
0.0916143776734121
0.102124665040462
0.123762122247933
0.180544413521457
0.411896387522281
2.19199683827929
0.0871323633294309
0.0846436086349174
0.0826235585927215
0.0811290001462797
0.0802492005543272
0.0800963997745615
0.0808193995725691
0.0826586183046076
0.0860558630951036
0.0919119788086862
0.102361442249126
0.123540778127379
0.178475575248824
0.400741670862071
2.18621249781237
0.0897439607904411
0.0866157250918748
0.0840382453499466
0.0820342972816566
0.0806618150820885
0.0799848326181364
0.0800760507244358
0.0810524689212148
0.0831323139985163
0.086733145072936
0.092717983068024
0.103151654145907
0.124012512348075
0.178172082174629
0.399588246491207
2.18722116427642
0.092772901512302
0.0889923642690094
0.0858699823759905
0.0833839710452112
0.0815657579818596
0.0804488533761483
0.0800613623346531
0.0804521214239096
0.0817272310647698
0.0840996684819126
0.0879767800615106
0.0942047458262743
0.104821561198065
0.125760322463753
0.180256410444791
0.403197460834763
2.21610681721688
0.0960101608565964
0.0915888141298212
0.087949823341742
0.0850180799648813
0.0828003082887768
0.0813083294507745
0.0805424413311657
0.0805134322471144
0.081268854782619
0.0829192503802686
0.0856954438161794
0.0900236820151511
0.0967935474484216
0.108143358109975
0.130262934434641
0.187873816885068
0.418014871487172
2.28699422060006
0.0991985908572367
0.0942049868672334
0.0901105610329378
0.0867884689031356
0.0842252907425702
0.0824187377798446
0.0813514772253413
0.0810115123786591
0.0814182627460942
0.0826390403488559
0.0847976564637999
0.088199062007221
0.0933556042137033
0.101359309685228
0.114778303584936
0.14107306960733
0.212304417113128
0.478301067195884
2.38167751245985
0.0876609288710308
0.0921339463544109
0.098924359979471
0.109750048907374
0.128686114305403
0.170433582607003
0.30992220799871
0.85405959446379
3.68516580399512
2.94890112223629
2.93624876935594
0.760305992085497
1.10170889195697
2.41074114632021
0.365071455912829
0.397353798139818
0.672108124201512
2.30196937991196
0.227419110544848
0.243358214208862
0.270557378026863
0.430263931850031
2.2231212117153
0.174115745437552
0.176983390839924
0.192650277339978
0.234528164152071
0.398193591450154
2.20294350372899
0.144978718210512
0.139231139619035
0.14720442882639
0.168359113648817
0.224819809916831
0.410277506867474
2.20741119446383
0.123275497144454
0.117131400047345
0.119395474129466
0.129217349045853
0.153175887221942
0.220243360811281
0.440396524635072
2.20974604523943
0.106513273002311
0.103376470644716
0.103428684034244
0.10750662545096
0.117779773761923
0.142459410948908
0.213859357970718
0.469754174006309
2.20619056007993
0.0951017726794404
0.0942660453576183
0.093977621971723
0.0954590593306001
0.100041309124854
0.11041856376839
0.134710566728935
0.205489491639291
0.480177897055702
2.20134560439283
0.0886291397578898
0.0883633291273968
0.0880752137696714
0.0884841203955831
0.0905043653111557
0.0954004124122283
0.10576724412484
0.129301660060166
0.197391766035481
0.47699845682601
2.19805979278028
0.0856400642748642
0.0850225872268122
0.0845091915647507
0.084379501850744
0.0851513092234821
0.0875408252512962
0.0926679323905055
0.102965482765469
0.125745517681613
0.190726839863931
0.464219315607761
2.19655342292587
0.0848724358562836
0.0836688767105701
0.082705505902651
0.0821113743211617
0.0821557085318794
0.0832406151694956
0.085941107642751
0.0912711512581981
0.101553687284634
0.123690174286318
0.185178424355556
0.446587534549106
2.1954216347598
0.0856206241889062
0.0837721370856778
0.0822634233100128
0.0811749772655709
0.0806568524889809
0.0809306621218259
0.0823037450341913
0.085267140929297
0.0907707480897123
0.101058991814546
0.122756473582471
0.18152873599514
0.427548538546409
2.19214133690418
0.0874856881861818
0.0849548839161679
0.0828584115218931
0.0812485374637905
0.0802183384863048
0.0798908152161704
0.0804262968081515
0.0820724554620254
0.0852732366185669
0.0909323422888796
0.10122230562485
0.122534755762497
0.179323903348151
0.411856959654617
2.1862668380172
0.0902126592008378
0.0869476748942108
0.0842356211053732
0.0820891544588357
0.0805660082320225
0.0797335394179136
0.0796681946926728
0.0804893869281782
0.0824150872648285
0.0858614151966248