/*--------------------------------*- C++ -*----------------------------------*\
  =========                 |
  \\      /  F ield         | OpenFOAM: The Open Source CFD Toolbox
   \\    /   O peration     | Website:  https://openfoam.org
    \\  /    A nd           | Version:  12
     \\/     M anipulation  |
\*---------------------------------------------------------------------------*/
/*   Windows 32 and 64 bit porting by blueCAPE: http://www.bluecape.com.pt   *\
|  Based on Windows porting (2.0.x v4) by Symscape: http://www.symscape.com   |
\*---------------------------------------------------------------------------*/
FoamFile
{
    format      ascii;
    class       volScalarField;
    location    "700";
    object      p;
}
// * * * * * * * * * * * * * * * * * * * * * * * * * * * * * * * * * * * * * //

dimensions      [0 2 -2 0 0 0 0];

internalField   nonuniform List<scalar> 
10142
(
83333.3351774167
83333.3351689434
83333.3351768531
83333.3351777135
83333.3351598563
83333.3351684051
83333.3351692729
83333.3351757666
83333.3351770895
83333.3351782471
83333.3351503726
83333.3351594188
83333.3351602054
83333.335167291
83333.33516867
83333.3351698856
83333.3351746601
83333.3351759969
83333.3351775849
83333.335179076
83333.335140097
83333.3351498462
83333.3351507793
83333.3351581632
83333.3351597077
83333.3351609107
83333.3351660245
83333.3351675594
83333.3351692396
83333.3351708364
83333.3351745769
83333.3351749316
83333.3351764952
83333.3351784004
83333.3351802306
83333.3351290251
83333.3351394352
83333.3351405867
83333.3351483783
83333.3351501767
83333.3351515961
83333.335156643
83333.3351584619
83333.3351603582
83333.335162008
83333.3351656287
83333.3351663365
83333.3351681344
83333.3351701785
83333.3351721581
83333.3351759131
83333.3351749098
83333.3351754852
83333.3351773341
83333.335179568
83333.3351817085
83333.3351171323
83333.3351282114
83333.3351296164
83333.3351377444
83333.3351398249
83333.3351415366
83333.3351464261
83333.3351487042
83333.3351509231
83333.3351528594
83333.3351557842
83333.3351569648
83333.3351591184
83333.3351614338
83333.3351635308
83333.3351665694
83333.3351659999
83333.335166973
83333.3351691021
83333.3351715149
83333.3351738449
83333.3351788781
83333.3351762986
83333.3351755395
83333.3351764072
83333.3351785538
83333.3351810787
83333.3351834758
83333.3351043526
83333.3351161386
83333.3351178384
83333.3351262793
83333.3351286681
83333.335130727
83333.3351352925
83333.3351381154
83333.3351406868
83333.3351429958
83333.3351449281
83333.3351467607
83333.3351494485
83333.3351521561
83333.3351546032
83333.3351561516
83333.3351561664
83333.3351576752
83333.3351602273
83333.3351629629
83333.3351654709
83333.3351691571
83333.3351669986
83333.3351667197
83333.3351680332
83333.3351704972
83333.335173236
83333.3351758545
83333.3351835605
83333.3351792796
83333.3351770007
83333.3351765584
83333.3351777314
83333.3351801414
83333.3351828928
83333.3351854841
83333.3350905878
83333.3351031312
83333.3351051825
83333.3351139571
83333.3351166676
83333.3351191367
83333.335123217
83333.3351267166
83333.3351296695
83333.3351324144
83333.3351330111
83333.3351356704
83333.3351389631
83333.3351421061
83333.3351449964
83333.335144524
83333.3351453251
83333.3351475495
83333.335150713
83333.335153906
83333.3351568159
83333.335158173
83333.3351566057
83333.3351569702
83333.3351588852
83333.3351618299
83333.3351649278
83333.3351677743
83333.3351735756
83333.3351696132
83333.3351678036
83333.3351678926
83333.3351695491
83333.3351723038
83333.3351752936
83333.3351781276
83333.3351900058
83333.3351839488
83333.335180021
83333.3351781056
83333.3351780014
83333.3351794467
83333.335182051
83333.3351849584
83333.3351876796
83333.3350757736
83333.3350890814
83333.3350915404
83333.3351007194
83333.3351037366
83333.3351066887
83333.3351101656
83333.3351144784
83333.3351178337
83333.3351210875
83333.3351199844
83333.3351236364
83333.335127698
83333.3351313094
83333.3351347129
83333.3351316249
83333.3351334302
83333.3351365659
83333.3351404215
83333.3351441154
83333.3351475227
83333.3351457536
83333.3351450136
83333.3351462263
83333.3351489343
83333.3351525499
83333.3351561478
83333.3351594329
83333.3351621426
83333.3351586724
83333.3351575146
83333.3351583128
83333.3351606258
83333.3351638989
83333.3351672682
83333.3351703655
83333.3351799418
83333.3351740322
83333.3351704744
83333.3351690834
83333.3351695526
83333.3351715034
83333.3351744664
83333.3351776254
83333.335180601
83333.335190355
83333.3351846901
83333.3351811811
83333.3351796587
83333.3351798635
83333.3351815122
83333.3351842319
83333.335187227
83333.335190012
83333.335059871
83333.3350739439
83333.3350768337
83333.3350864641
83333.3350897643
83333.3350932766
83333.3350960464
83333.3351013477
83333.3351050929
83333.3351089459
83333.3351057214
83333.3351106518
83333.335115632
83333.3351197362
83333.3351237346
83333.335117321
83333.3351204639
83333.3351246714
83333.3351293841
83333.3351336237
83333.3351376082
83333.3351318002
83333.3351321651
83333.3351344599
83333.3351381376
83333.335142534
83333.3351466826
83333.3351504973
83333.3351490376
83333.3351463154
83333.335146046
83333.3351477678
83333.3351509377
83333.3351549175
83333.3351588089
83333.3351623632
83333.3351682823
83333.3351626563
83333.3351596589
83333.3351589922
83333.3351602274
83333.3351628685
83333.3351663612
83333.3351699079
83333.3351731667
83333.3351883811
83333.3351803757
83333.3351749107
83333.3351718311
83333.3351708823
83333.3351716848
83333.335173846
83333.3351769239
83333.3351801716
83333.3351832141
83333.3351910498
83333.3351858619
83333.3351828146
83333.3351816622
83333.3351821088
83333.3351838821
83333.3351866339
83333.3351896427
83333.33519243
83333.3350429042
83333.3350577767
83333.3350610208
83333.3350711304
83333.3350747072
83333.3350788281
83333.3350807451
83333.3350872263
83333.3350913488
83333.3350959022
83333.3350900918
83333.3350966234
83333.3351027191
83333.335107306
83333.3351120123
83333.3351014174
83333.3351062601
83333.3351118598
83333.3351176018
83333.3351224136
83333.3351270659
83333.335116099
83333.3351179246
83333.3351216536
83333.3351264985
83333.3351318276
83333.3351365742
83333.3351410084
83333.3351341195
83333.3351324447
83333.3351333513
83333.3351362457
83333.3351404489
83333.3351452506
83333.3351497202
83333.3351538166
83333.3351547237
83333.3351496329
83333.3351474546
83333.3351477592
83333.3351499843
83333.3351535197
83333.3351577273
83333.3351618005
83333.3351655176
83333.3351767649
83333.3351687799
83333.3351636766
83333.3351612425
83333.3351610834
83333.3351626856
83333.335165546
83333.3351691455
83333.3351727769
83333.3351761072
83333.3351990492
83333.3351887611
83333.3351812246
83333.3351762995
83333.3351737376
83333.335173191
83333.3351742413
83333.3351765193
83333.3351796163
83333.3351828703
83333.3351859077
83333.3351921791
83333.335187526
83333.3351849277
83333.3351840825
83333.3351846939
83333.3351865076
83333.3351892039
83333.3351921556
83333.3351948817
83333.3350249425
83333.3350406509
83333.3350441676
83333.3350547778
83333.3350586855
83333.3350633616
83333.3350641434
83333.3350720527
83333.3350765972
83333.3350819042
83333.3350729399
83333.3350814339
83333.3350888635
83333.335093948
83333.3350994832
83333.3350836753
83333.335090713
83333.3350980539
83333.3351050176
83333.3351104231
83333.3351158696
83333.3350983447
83333.3351021214
83333.3351076394
83333.3351140039
83333.3351204327
83333.3351258212
83333.3351309706
83333.3351170967
83333.3351168527
83333.3351192993
83333.3351237172
83333.3351291878
83333.3351349581
83333.3351400569
83333.3351447878
83333.3351390872
83333.3351348237
83333.3351337797
83333.3351353571
83333.335138825
83333.3351434318
83333.3351484665
83333.3351531214
83333.3351573743
83333.3351630901
83333.3351553133
83333.3351508317
83333.3351493143
83333.3351502021
83333.3351528317
83333.335156589
83333.3351608884
83333.335165034
83333.3351688126
83333.3351877694
83333.3351772168
83333.3351697843
83333.3351653171
83333.3351634798
83333.3351637644
83333.3351656208
83333.3351685826
83333.3351721805
83333.3351758013
83333.3351791191
83333.3352120384
83333.3351993517
83333.3351895274
83333.3351825856
83333.3351782609
83333.3351761907
83333.335175963
83333.3351771665
83333.3351794629
83333.3351824828
83333.3351856629
83333.3351886244
83333.3351938091
83333.3351896923
83333.3351874879
83333.3351868765
83333.3351875712
83333.3351893374
83333.3351918902
83333.3351947171
83333.3351973179
83333.3350063818
83333.3350226324
83333.3350264635
83333.3350374179
83333.3350419962
83333.3350470109
83333.3350462778
83333.3350558931
83333.3350610889
83333.3350670029
83333.3350540908
83333.3350650114
83333.3350740125
83333.3350797145
83333.3350861212
83333.3350638511
83333.3350736662
83333.3350831592
83333.3350915468
83333.3350976134
83333.3351039823
83333.3350781735
83333.335084503
83333.3350923489
83333.3351005803
83333.3351082976
83333.3351143848
83333.3351203741
83333.3350975532
83333.3350992396
83333.3351037668
83333.3351100801
83333.33511714
83333.3351240453
83333.3351298324
83333.3351352917
83333.3351210227
83333.3351179465
83333.3351184404
83333.3351216864
83333.3351267295
83333.3351326447
83333.3351386452
83333.3351439406
83333.3351488177
83333.3351471203
83333.3351398032
83333.335136257
83333.3351359871
83333.3351382302
83333.3351421377
83333.3351469616
83333.3351520672
83333.3351567801
83333.3351610746
83333.3351743684
83333.3351636382
83333.3351565141
83333.3351527853
83333.3351519568
83333.3351533342
83333.3351562189
83333.3351600491
83333.3351643133
83333.3351684251
83333.3351721716
83333.3352014117
83333.3351881437
83333.3351781488
83333.3351714158
83333.3351676434
83333.3351663532
83333.3351669687
83333.3351689588
83333.3351719047
83333.3351753925
83333.3351789123
83333.3351821402
83333.3352273295
83333.3352122471
83333.3351999909
83333.3351907898
83333.335184528
83333.3351807967
83333.3351791434
83333.3351791415
83333.3351804008
83333.3351826156
83333.3351854631
83333.3351884959
83333.3351913031
83333.3351959513
83333.3351923275
83333.3351904496
83333.3351899952
83333.335190689
83333.3351923196
83333.3351946458
83333.3351972786
83333.3351996951
83333.3349883191
83333.3350041366
83333.3350082931
83333.3350189541
83333.3350247588
83333.335029918
83333.3350272293
83333.3350387967
83333.3350450545
83333.3350513291
83333.3350335679
83333.3350473662
83333.3350582514
83333.3350648561
83333.3350719715
83333.3350417227
83333.3350550134
83333.3350670843
83333.3350771694
83333.3350840666
83333.3350913966
83333.3350551911
83333.3350648331
83333.3350756274
83333.3350861301
83333.3350953647
83333.3351022523
83333.3351092057
83333.3350749711
83333.3350792563
83333.3350864807
83333.3350952456
83333.3351042423
83333.3351124754
83333.3351190268
83333.3351253306
83333.3351000086
83333.3350985964
83333.3351011622
83333.3351065941
83333.3351136333
83333.3351211527
83333.3351282848
83333.3351342846
83333.3351398781
83333.3351284666
83333.3351219096
83333.3351196899
83333.335121094
83333.3351250932
83333.3351306029
83333.3351367159
83333.3351427533
83333.3351480953
83333.3351529849
83333.3351585463
83333.3351478034
83333.3351412664
83333.3351386115
83333.3351391336
83333.335141911
83333.3351460631
83333.3351509194
83333.335155944
83333.3351605947
83333.3351648282
83333.3351887005
83333.3351748378
83333.3351647765
83333.3351584863
83333.3351555664
83333.3351553474
83333.3351570624
83333.3351600475
83333.3351638105
83333.3351679145
83333.3351718932
83333.3351755228
83333.3352177038
83333.3352016813
83333.3351889444
83333.3351796908
83333.3351737477
83333.3351706427
83333.3351697943
83333.3351706193
83333.335172624
83333.3351754379
83333.3351787112
83333.3351820482
83333.3351851033
83333.3352448107
83333.3352274195
83333.3352127195
83333.3352010828
83333.3351926229
83333.3351870578
83333.3351838588
83333.335182535
83333.3351826643
83333.3351838817
83333.3351859171
83333.3351885035
83333.3351913116
83333.3351939114
83333.3351985708
83333.3351953821
83333.3351937605
83333.3351933848
83333.3351939954
83333.3351954069
83333.3351974227
83333.3351997924
83333.3352019529
83333.3349728515
83333.3349863684
83333.3349906861
83333.3349997289
83333.33500685
83333.3350123713
83333.3350071026
83333.3350205203
83333.3350283494
83333.3350349718
83333.3350114692
83333.3350285705
83333.3350415255
83333.3350495004
83333.335057128
83333.335017207
83333.3350347099
83333.3350498497
83333.3350619539
83333.3350699805
83333.3350781376
83333.3350290465
83333.335042898
83333.335057362
83333.3350705878
83333.3350816346
83333.3350895078
83333.3350974701
83333.3350487835
83333.3350565187
83333.3350672311
83333.3350790798
83333.3350904139
83333.3351002156
83333.3351076464
83333.3351149077
83333.3350753861
83333.3350762713
83333.3350816228
83333.3350898876
83333.3350994495
83333.3351089103
83333.3351173629
83333.3351241485
83333.3351305598
83333.3351065316
83333.3351011267
83333.3351007493
83333.3351043876
83333.3351106604
83333.3351181795
83333.3351258574
83333.3351329821
83333.3351390196
83333.3351445918
83333.3351398894
83333.3351293343
83333.3351237255
83333.3351225659
83333.3351248758
83333.3351294451
83333.3351351701
83333.3351412555
83333.3351471531
83333.3351523994
83333.3351571871
83333.3351735589
83333.335159151
83333.335149219
83333.3351436805
83333.3351419668
83333.3351431626
83333.3351462723
83333.3351504734
83333.3351551938
83333.335159995
83333.3351644729
83333.3351685493
83333.3352061092
83333.3351890547
83333.3351758431
83333.335166673
83333.3351613108
83333.3351591445
83333.3351593889
83333.3351612831
83333.3351642222
83333.3351677838
83333.3351716113
83333.3351753665
83333.3351787979
83333.3352365309
83333.3352178363
83333.3352022952
83333.3351903074
83333.3351819228
83333.3351767718
83333.335174244
83333.3351737201
83333.3351746357
83333.3351765391
83333.3351791115
83333.3351820736
83333.3351851457
83333.3351879635
83333.3352642913
83333.3352447538
83333.3352276784
83333.3352135689
83333.3352027058
83333.335195036
83333.335190126
83333.3351873814
83333.3351862978
83333.3351864649
83333.335187547
83333.3351893127
83333.335191551
83333.3351940602
83333.3351963822
83333.3352016149
83333.3351987986
83333.3351973616
83333.3351969893
83333.3351974409
83333.3351985544
83333.3352001741
83333.3352021958
83333.3352040355
83333.3349620106
83333.3349707992
83333.3349756131
83333.3349806722
83333.3349887951
83333.3349952982
83333.3349863888
83333.3350009566
83333.3350107991
83333.3350181472
83333.3349881388
83333.3350087254
83333.3350235051
83333.3350334329
83333.3350416254
83333.3349904586
83333.3350128657
83333.3350315191
83333.3350457789
83333.3350553971
83333.335064249
83333.3349995112
83333.3350185976
83333.3350375227
83333.3350539842
83333.3350671346
83333.335076298
83333.335085175
83333.3350184633
83333.3350306796
83333.335045829
83333.3350614815
83333.3350756158
83333.3350872729
83333.3350957674
83333.3351040358
83333.3350464083
83333.3350504319
83333.335059449
83333.3350713696
83333.3350840661
83333.3350958601
83333.3351058604
83333.3351135496
83333.3351208782
83333.3350805464
83333.3350768205
83333.3350789672
83333.335085577
83333.3350947725
83333.3351047992
83333.33511436
83333.3351227483
83333.3351295601
83333.3351359013
83333.3351177625
83333.3351076527
83333.3351034173
83333.3351043077
83333.3351089734
83333.3351158328
83333.3351235093
83333.3351310729
83333.3351379818
83333.3351438922
83333.3351493047
83333.3351555601
83333.3351406804
83333.3351311267
83333.3351267224
83333.3351266559
83333.3351296989
83333.3351345733
83333.3351402686
83333.3351461261
83333.3351517218
83333.3351567477
83333.3351613267
83333.3351921867
83333.3351740382
83333.3351604332
83333.3351515803
83333.3351471351
83333.3351462694
83333.3351479397
83333.335151177
83333.3351552477
83333.335159677
83333.3351641258
83333.3351683298
83333.335172168
83333.3352264649
83333.3352063075
83333.3351898548
83333.3351775561
83333.3351694165
83333.3351649614
83333.3351634177
83333.3351639684
83333.3351658919
83333.3351686476
83333.335171885
83333.3351753304
83333.3351787787
83333.3351819305
83333.3352576638
83333.3352364911
83333.3352182036
83333.3352033875
83333.3351923182
83333.3351848419
83333.3351804152
83333.3351783569
83333.335178042
83333.3351789345
83333.3351806295
83333.3351828621
83333.3351854188
83333.3351881502
83333.3351906569
83333.3352855057
83333.3352640601
83333.3352447493
83333.3352282087
83333.3352148755
83333.3352048742
83333.3351979809
83333.3351936624
83333.3351912904
83333.3351903586
83333.3351904751
83333.3351913382
83333.3351927518
83333.3351945517
83333.3351966769
83333.335198647
83333.3352050215
83333.3352025119
83333.3352011891
83333.3352007509
83333.3352009761
83333.335201715
83333.3352028553
83333.3352044077
83333.3352058947
83333.334955535
83333.3349595864
83333.3349650795
83333.3349634065
83333.3349725538
83333.334980675
83333.33496645
83333.334981057
83333.3349929411
83333.3350017567
83333.3349643548
83333.3349882082
83333.3350041231
83333.3350164878
83333.3350255981
83333.3349619998
83333.3349897929
83333.3350121467
83333.3350283414
83333.3350401055
83333.3350497086
83333.3349666001
83333.3349920995
83333.3350161996
83333.3350363491
83333.3350517262
83333.3350626129
83333.3350723141
83333.3349835398
83333.3350015225
83333.335022177
83333.3350424297
83333.3350598659
83333.3350736453
83333.3350834973
83333.3350927177
83333.3350123294
83333.3350205593
83333.3350343382
83333.3350508714
83333.3350674068
83333.3350819785
83333.3350937889
83333.3351025534
83333.3351108455
83333.3350496179
83333.3350482774
83333.335053864
83333.3350643572
83333.3350772709
83333.3350903831
83333.3351021856
83333.3351120433
83333.3351197375
83333.3351269285
83333.3350913425
83333.335082021
83333.3350797546
83333.335083428
83333.3350911828
83333.3351009523
83333.3351110347
83333.335120362
83333.3351284403
83333.3351350908
83333.3351412036
83333.3351340679
83333.3351188117
83333.3351099596
83333.3351071885
83333.3351093447
83333.3351147882
83333.3351218898
83333.3351294193
83333.3351366312
83333.33514314
83333.335148777
83333.3351539157
83333.3351755156
83333.335156214
83333.3351423416
83333.3351341073
83333.3351309937
83333.3351318725
83333.3351353804
83333.3351402987
83333.3351457467
83333.3351511972
83333.3351563476
83333.335161041
83333.3351653235
83333.3352142643
83333.335192489
83333.3351750958
83333.3351626099
83333.3351549857
83333.3351515796
83333.3351513761
83333.3351533135
83333.3351564906
83333.3351602685
83333.3351642698
83333.3351682495
83333.3351720938
83333.3351756009
83333.3352494855
83333.3352264647
83333.335206827
83333.3351912695
83333.3351800724
83333.3351729867
83333.3351693325
83333.3351682624
83333.3351689696
83333.3351707838
83333.3351732333
83333.3351760402
83333.3351790046
83333.3351820691
83333.3351848638
83333.335280767
83333.3352574171
83333.3352365504
83333.3352189306
83333.3352050479
83333.3351949816
83333.335188377
83333.335184582
83333.3351828838
83333.3351826667
83333.3351834322
83333.3351848261
83333.3351866316
83333.335188694
83333.3351909989
83333.3351931131
83333.335308119
83333.3352850757
83333.3352637446
83333.3352448834
83333.3352290896
83333.335216662
83333.3352075455
83333.3352013865
83333.3351975874
83333.3351955041
83333.3351946391
83333.3351946263
83333.3351951974
83333.335196179
83333.3351974491
83333.3351990681
83333.335200654
83333.3352087199
83333.3352064485
83333.3352051719
83333.3352046038
83333.3352045381
83333.3352048205
83333.3352054227
83333.3352064456
83333.3352074387
83333.3349506812
83333.334954251
83333.3349580785
83333.3349518785
83333.3349613528
83333.3349702888
83333.3349495522
83333.3349637003
83333.3349769527
83333.3349877734
83333.3349418116
83333.3349682592
83333.334984502
83333.3349992905
83333.3350099892
83333.3349319866
83333.3349661648
83333.334992058
83333.3350096647
83333.3350239962
83333.335034594
83333.3349301651
83333.3349638753
83333.3349936748
83333.3350177278
83333.3350351713
83333.3350482578
83333.3350588217
83333.3349433885
83333.3349690942
83333.3349964034
83333.3350220008
83333.335043176
83333.3350591986
83333.3350707967
83333.3350809132
83333.3349722909
83333.3349862277
83333.3350060815
83333.3350283151
83333.3350494569
83333.3350672721
83333.3350811332
83333.3350912394
83333.3351004636
83333.335012776
83333.3350147847
83333.3350249502
83333.3350404553
83333.3350580198
83333.3350748745
83333.3350893217
83333.3351008781
83333.3351096072
83333.335117695
83333.3350596592
83333.3350515872
83333.3350520894
83333.3350595
83333.33507126
83333.3350846849
83333.3350976961
83333.3351091073
83333.3351185319
83333.3351260146
83333.3351328943
83333.3351082648
83333.3350927556
83333.3350850368
83333.3350845627
83333.3350896924
83333.335098238
83333.3351081327
83333.3351178973
83333.3351267129
83333.335134271
83333.3351405861
83333.3351463499
83333.3351554928
83333.3351349673
83333.3351209955
83333.3351137733
83333.3351125274
83333.3351157211
83333.3351215843
83333.3351285988
83333.33513572
83333.335142377
83333.3351483281
83333.3351535637
83333.3351583351
83333.3351995358
83333.3351759683
83333.335157628
83333.335145141
83333.3351383796
83333.3351364515
83333.3351380172
83333.3351417196
83333.3351464493
83333.3351514594
83333.3351563512
83333.3351609303
83333.3351652004
83333.3351690929
83333.3352394328
83333.3352143368
83333.3351932266
83333.3351769446
83333.3351657878
83333.3351593905
83333.3351568638
83333.3351571202
83333.3351591322
83333.3351620811
83333.335165426
83333.3351688833
83333.3351722924
83333.335175698
83333.3351787933
83333.3352747452
83333.335249244
83333.3352266276
83333.3352078254
83333.3351934001
83333.3351833814
83333.3351772788
83333.3351742922
83333.3351735496
83333.3351742739
83333.3351758561
83333.3351778967
83333.3351801799
83333.3351825797
83333.3351851747
83333.3351875241
83333.3353054065
83333.3352802823
83333.3352571102
83333.3352368185
83333.3352201082
83333.3352072923
83333.3351982332
83333.3351924302
83333.335189167
83333.3351877205
83333.3351874982
83333.3351880467
83333.3351890612
83333.3351903591
83333.3351918399
83333.3351935895
83333.3351952694
83333.3353317505
83333.3353074711
83333.3352844072
83333.3352634107
83333.3352452318
83333.3352303553
83333.3352188981
83333.3352106531
83333.3352051705
83333.335201812
83333.335199933
83333.3351990552
83333.335198842
83333.3351990511
83333.3351995098
83333.3352001838
83333.3352012476
83333.3352023042
83333.3352126284
83333.3352105232
83333.3352092223
83333.3352084535
83333.3352080143
83333.3352077459
83333.3352077904
83333.3352081712
83333.335208572
83333.3349472556
83333.3349524201
83333.3349514616
83333.3349472338
83333.3349567343
83333.3349624494
83333.3349383062
83333.3349527948
83333.3349663429
83333.3349776557
83333.3349221318
83333.3349511456
83333.3349677602
83333.33498409
83333.3349967143
83333.3348996733
83333.3349434506
83333.3349724238
83333.3349909577
83333.3350077208
83333.3350199244
83333.3348864554
83333.3349338655
83333.3349705992
83333.3349984425
83333.3350175819
83333.3350331728
83333.335044742
83333.3348956266
83333.3349331974
83333.3349689799
83333.3350004512
83333.3350255989
83333.3350437562
83333.3350574931
83333.3350685207
83333.3349247424
83333.3349469893
83333.3349747513
83333.3350038024
83333.3350302835
83333.3350517439
83333.3350677664
83333.3350795533
83333.3350896822
83333.3349686894
83333.3349756173
83333.3349918531
83333.335013701
83333.3350369655
83333.3350582649
83333.3350757698
83333.3350892309
83333.3350992227
83333.3351081881
83333.3350216158
83333.3350154375
83333.3350197846
83333.3350321252
83333.3350489892
83333.3350669302
83333.3350834562
83333.3350973009
83333.3351082664
83333.3351167037
83333.3351243928
83333.3350771806
83333.3350615872
83333.3350555864
83333.3350582883
83333.3350673515
83333.3350798637
83333.3350932222
83333.3351056797
83333.3351163738
83333.3351251291
83333.3351321965
83333.3351386422
83333.3351313567
83333.3351095121
83333.3350956669
83333.3350899812
83333.3350913067
83333.3350975456
83333.3351064074
83333.3351160166
83333.3351251541
83333.3351332273
83333.3351400898
83333.3351459279
83333.3351512371
83333.3351817358
83333.3351561606
83333.3351368774
83333.3351246404
83333.3351191917
83333.3351192879
83333.3351231633
83333.335129098
83333.3351357416
83333.3351422343
83333.335148169
83333.3351534277
83333.3351581638
83333.3351624768
83333.3352271542
83333.3351997217
83333.3351770155
83333.3351600654
83333.3351491926
83333.3351438601
83333.3351428851
83333.3351448672
83333.3351485206
83333.3351528602
83333.3351572738
83333.3351614806
83333.3351653873
83333.3351691512
83333.3351725705
83333.3352671478
83333.3352392237
83333.3352146609
83333.3351946003
83333.335179699
83333.3351699332
83333.3351646435
83333.3351628088
83333.3351633323
83333.3351652456
83333.3351678226
83333.3351706206
83333.3351734348
83333.3351761925
83333.3351790707
83333.3351816759
83333.3353016789
83333.3352742234
83333.3352489796
83333.3352270959
83333.3352094083
83333.3351962508
83333.3351873863
83333.335182158
83333.3351797011
83333.3351791462
83333.3351797625
83333.3351810105
83333.3351825578
83333.3351842376
83333.3351859932
83333.3351879959
83333.3351898352
83333.3353310691
83333.335304658
83333.3352795582
83333.3352568339
83333.3352373857
83333.3352217677
83333.3352100709
83333.3352019802
83333.3351968931
83333.3351940569
83333.335192757
83333.3351924361
83333.3351926892
83333.335193251
83333.3351939501
83333.3351947821
83333.335195916
83333.3351970232
83333.3353560377
83333.3353308747
83333.3353064164
83333.335283543
83333.3352631287
83333.3352458426
83333.3352319937
83333.3352215286
83333.3352141182
83333.3352092409
83333.3352062372
83333.3352044767
83333.3352035064
83333.3352030143
83333.3352027689
83333.3352025972
83333.3352026734
83333.3352030826
83333.3352034881
83333.3352166507
83333.3352146279
83333.3352132119
83333.3352121307
83333.3352111797
83333.3352102786
83333.3352096462
83333.335209408
83333.3352092173
83333.3349475653
83333.3349467502
83333.3349463068
83333.3349550008
83333.334954685
83333.3349334675
83333.3349485706
83333.3349621264
83333.3349695971
83333.3349092659
83333.3349392774
83333.3349575654
83333.3349740678
83333.3349869597
83333.3348701281
83333.3349235509
83333.3349554688
83333.3349752026
83333.3349933746
83333.3350074272
83333.3348361635
83333.3349015766
83333.3349483086
83333.3349795814
83333.3350000981
83333.3350179912
83333.335031149
83333.3348351236
83333.3348905143
83333.3349400614
83333.3349784369
83333.3350074472
83333.3350274824
83333.3350435581
83333.3350555497
83333.334865143
83333.3349008385
83333.3349404349
83333.3349777862
83333.3350101144
83333.3350354491
83333.3350535665
83333.3350673488
83333.3350783905
83333.3349149658
83333.3349296239
83333.3349543572
83333.3349841828
83333.3350141969
83333.3350406128
83333.3350615259
83333.3350769872
83333.335088518
83333.3350983482
83333.3349756231
83333.3349724942
83333.3349822578
83333.3350009965
83333.3350242463
83333.3350476567
83333.3350683144
83333.3350849384
83333.3350976198
83333.3351071947
83333.3351156875
83333.3350397134
83333.3350242759
83333.3350208082
83333.3350278394
83333.3350420175
83333.3350595097
83333.3350770935
83333.335092745
83333.3351056103
83333.3351157183
83333.3351236356
83333.3351307942
83333.3351022083
83333.3350789234
83333.3350655187
83333.335062073
83333.3350668814
83333.3350770787
83333.3350897178
83333.3351025037
83333.3351140439
83333.335123762
83333.3351316523
83333.3351381548
83333.3351440483
83333.3351601904
83333.3351323317
83333.3351121172
83333.3351004692
83333.3350969251
83333.3350997483
83333.3351066115
83333.3351153474
83333.3351243304
83333.335132591
83333.3351397375
83333.3351457657
83333.3351510147
83333.3351557842
83333.3352121831
83333.3351820915
83333.3351576434
83333.3351401195
83333.3351298566
83333.3351260687
83333.3351271744
83333.3351313754
83333.3351370787
83333.3351431141
83333.3351488013
83333.3351538781
83333.3351583434
83333.3351625003
83333.3351662687
83333.3352576739
83333.3352270108
83333.3352002855
83333.3351789061
83333.3351636507
83333.3351544256
83333.3351503339
83333.3351500534
83333.3351522024
83333.3351555945
83333.3351593779
83333.33516307
83333.3351664921
83333.3351696443
83333.3351728105
83333.3351756921
83333.3352966747
83333.3352666087
83333.3352390483
83333.3352154194
83333.3351967314
83333.335183344
83333.3351749043
83333.3351705606
83333.3351692305
83333.335169843
83333.3351715073
83333.3351735967
83333.3351757565
83333.3351778498
83333.3351798875
83333.3351821347
83333.3351841583
83333.3353295878
83333.3353008434
83333.3352734707
83333.3352488154
83333.3352279771
83333.3352116001
83333.3351997424
83333.3351919577
83333.3351874801
83333.335185414
83333.3351849161
83333.3351853155
83333.335186143
83333.3351871222
83333.3351881071
83333.3351891652
83333.3351904969
83333.3351916983
83333.3353572338
83333.3353300412
83333.3353034771
83333.3352786655
83333.3352566759
83333.3352383018
83333.3352238813
83333.3352133042
83333.3352061174
83333.3352016477
83333.3351991298
83333.335197874
83333.3351973649
83333.3351972384
83333.335197252
83333.3351972406
83333.3351974213
83333.335197854
83333.3351982583
83333.335380747
83333.3353549304
83333.3353294111
83333.3353049723
83333.3352825469
83333.3352629631
83333.3352467283
83333.3352339689
83333.335224486
83333.3352178516
83333.3352134937
83333.3352107501
83333.3352090125
83333.3352078491
83333.3352069543
83333.335206099
83333.3352052223
83333.3352046079
83333.3352043731
83333.3352041604
83333.3352206659
83333.3352186102
83333.3352169306
83333.3352153509
83333.335213728
83333.3352120985
83333.3352109131
83333.3352100606
83333.3349425839
83333.334949796
83333.334950661
83333.3349304221
83333.3349503428
83333.3349598785
83333.3349616572
83333.3349071899
83333.3349333183
83333.3349543447
83333.3349697964
83333.3349792784
83333.3348537494
83333.3349106005
83333.3349436378
83333.3349654921
83333.3349835933
83333.3349981949
83333.3347927072
83333.3348721378
83333.334928569
83333.3349632109
83333.3349852947
83333.335004556
83333.3350195529
83333.3347653584
83333.334841634
83333.3349091571
83333.3349572697
83333.3349896382