/*--------------------------------*- C++ -*----------------------------------*\
  =========                 |
  \\      /  F ield         | OpenFOAM: The Open Source CFD Toolbox
   \\    /   O peration     | Website:  https://openfoam.org
    \\  /    A nd           | Version:  12
     \\/     M anipulation  |
\*---------------------------------------------------------------------------*/
/*   Windows 32 and 64 bit porting by blueCAPE: http://www.bluecape.com.pt   *\
|  Based on Windows porting (2.0.x v4) by Symscape: http://www.symscape.com   |
\*---------------------------------------------------------------------------*/
FoamFile
{
    format      ascii;
    class       surfaceScalarField;
    location    "700";
    object      phi;
}
// * * * * * * * * * * * * * * * * * * * * * * * * * * * * * * * * * * * * * //

dimensions      [0 3 -1 0 0 0 0];

internalField   nonuniform List<scalar> 
28893
(
7.48568921097308e-06
-1.67486206720986e-07
-3.79082679247648e-07
8.12205426491377e-06
-2.02628767586268e-07
-4.33741177028992e-07
2.84920258748986e-06
-4.4111922303638e-07
-6.91798415681591e-08
7.87327419958869e-06
-1.35551171253185e-07
-6.77067956695371e-07
8.86390119176227e-06
-2.46759463713753e-07
-4.95080925281188e-07
3.20163633845472e-06
-4.67237223891836e-07
-8.78228950689367e-08
8.37203970605686e-06
-1.66772376731552e-07
-7.65736084162028e-07
1.85235685896518e-06
-6.66438263523979e-07
-2.5874736616838e-08
3.56923254165285e-06
-4.54394820963598e-07
-1.53115660251893e-07
8.17595380738835e-06
-1.18185677495133e-07
-9.49226882198664e-07
9.65596434558718e-06
-2.1320298392212e-07
-5.78849408591982e-07
3.55625760472341e-06
-4.90488623358616e-07
-1.10895294593819e-07
8.95655485360586e-06
-1.96112211338215e-07
-8.83479391839674e-07
2.10968844218714e-06
-6.86308134739446e-07
-3.82600893360072e-08
3.98659499414626e-06
-4.72723111156551e-07
-1.99239918503873e-07
8.62149646059862e-06
-1.46781602921524e-07
-1.06451596742475e-06
1.63191242205095e-06
-8.60097072884734e-07
-2.56680805076059e-08
2.18612319077184e-06
-7.22072554665987e-07
-4.59683073721768e-08
3.99507535367095e-06
-4.92514984458966e-07
-2.27024339636755e-07
8.6945834966984e-06
-1.12371282931186e-07
-1.19821012541697e-06
1.04766576429346e-05
-1.30314478580758e-07
-6.90374537667202e-07
3.94947744555394e-06
-4.64751823896155e-07
-1.41672045946849e-07
9.55420621939373e-06
-1.47306541935508e-07
-1.02918902967474e-06
2.36844828000777e-06
-6.94111886610938e-07
-5.51354317289179e-08
4.42198882818536e-06
-4.8452957154827e-07
-2.57880980324818e-07
9.13328207924187e-06
-1.70208731797103e-07
-1.22505195571723e-06
1.86139761740455e-06
-8.77916850144648e-07
-3.7877250196342e-08
2.48172755187673e-06
-7.3409767706165e-07
-7.24913155020344e-08
4.45661656684288e-06
-5.105040212353e-07
-2.97062994228114e-07
9.1094512969325e-06
-1.39848328601588e-07
-1.3395362264256e-06
1.52291397451589e-06
-1.03737580323938e-06
-2.32568148453248e-08
1.90978884737438e-06
-9.52260482009532e-07
-4.6773566457009e-08
2.47938646282403e-06
-8.07672921831261e-07
-5.6302299569079e-08
4.45620909876435e-06
-5.32938312342829e-07
-2.96723508713104e-07
8.98094008522417e-06
-1.14939722223864e-07
-1.41566407142794e-06
1.1302543756382e-05
-5.23163752608773e-09
-8.20664426613737e-07
4.40448431568525e-06
-4.034262817174e-07
-1.81901325254144e-07
1.00994777675549e-05
-4.26408343148499e-08
-1.19300304175173e-06
2.65031357135148e-06
-6.71302829117403e-07
-7.53155446264318e-08
4.9137804230921e-06
-4.47149592831175e-07
-3.33621266603774e-07
9.62388239724047e-06
-1.05944493684058e-07
-1.41385541286806e-06
2.1019403747215e-06
-8.81714253705225e-07
-5.29405839381457e-08
2.78390938165267e-06
-7.3349550496219e-07
-1.08350202812159e-07
4.93979923308862e-06
-5.18421517463234e-07
-3.92844093514113e-07
9.57915283366047e-06
-1.5750724651005e-07
-1.53724082379974e-06
1.73696463039468e-06
-1.05694780821467e-06
-3.50195045335877e-08
2.1739410255958e-06
-9.63840664561744e-07
-7.22848899048402e-08
2.81063361370288e-06
-8.17060568419572e-07
-9.71808651653542e-08
4.96000653576995e-06
-5.48173039207678e-07
-3.92527346707115e-07
9.35991251928283e-06
-1.41843631928469e-07
-1.57666642480325e-06
1.44550735510335e-06
-1.20326169380117e-06
-2.08509028782061e-08
1.762371261204e-06
-1.15850045700259e-06
-4.56455458095935e-08
2.19055120355146e-06
-1.07777735744115e-06
-6.32154302979824e-08
2.75599076027941e-06
-8.86823270660835e-07
-5.88909697426988e-08
4.77161590372239e-06
-5.57526146838161e-07
-3.66170686298771e-07
8.9613290435571e-06
-1.21076582686106e-07
-1.59629921310158e-06
1.20873983325551e-05
1.67722662764599e-07
-9.52582858265991e-07
4.93305101984165e-06
-3.05724373687022e-07
-2.2807492130593e-07
1.05310479831909e-05
1.09514503023798e-07
-1.36175811883188e-06
2.96580563314138e-06
-6.18595123803307e-07
-1.00323039422559e-07
5.48529854851035e-06
-3.68632667009072e-07
-4.27435489329139e-07
1.00213264740988e-05
1.91188344607662e-08
-1.60956530654526e-06
2.3640359432604e-06
-8.61481503678456e-07
-7.19173145813227e-08
3.11408689889763e-06
-6.98988173925339e-07
-1.53657111957069e-07
5.48906029498339e-06
-4.73576714439623e-07
-5.15241885518792e-07
1.00005148261751e-05
-7.87697586865843e-08
-1.75643771343932e-06
1.96675813308748e-06
-1.06180402691223e-06
-4.97040691024012e-08
2.45237048884218e-06
-9.60060971238068e-07
-1.04805044063769e-07
3.14964366541645e-06
-8.12928280545993e-07
-1.52854957087837e-07
5.48900262582684e-06
-5.54212323426897e-07
-5.25133919460962e-07
9.77982331289543e-06
-1.53902822233994e-07
-1.80323424329443e-06
1.64748228979512e-06
-1.22672510556296e-06
-3.21973837298408e-08
2.00708155567438e-06
-1.17318065399853e-06
-7.03887113356461e-08
2.4904077365605e-06
-1.08678789669332e-06
-1.02414095500378e-07
3.11792777723983e-06
-8.93521499068078e-07
-1.1376744649045e-07
5.29620318666312e-06
-5.72948149311891e-07
-4.86010241419982e-07
9.30039142861684e-06
-1.46846442868729e-07
-1.76886159364577e-06
1.38213051260459e-06
-1.36082220526324e-06
-1.83244090243909e-08
1.66044185077603e-06
-1.34790123468886e-06
-4.38256510743196e-08
2.01927673115856e-06
-1.31578728707325e-06
-6.77585357386434e-08
2.43404990940742e-06
-1.18788793099396e-06
-7.67761042685425e-08
2.91454487577698e-06
-9.29350302477938e-07
-5.73805709022648e-08
4.9331884394533e-06
-5.67687409399528e-07
-4.33482684108529e-07
8.7508768491308e-06
-1.27785054574875e-07
-1.7408100747632e-06
1.2756753338189e-05
4.01272738042809e-07
-1.0706217494472e-06
5.54596387424739e-06
-1.65038918726698e-07
-2.80156135592546e-07
1.07799193624896e-05
3.12891383599189e-07
-1.51433800538262e-06
3.32081799540948e-06
-5.29878850506276e-07
-1.30859362182195e-07
6.15451135776753e-06
-2.468639005098e-07
-5.40905445479409e-07
1.02567080375429e-05
1.96300787279775e-07
-1.79344562380866e-06
2.6546089355243e-06
-8.12643611454702e-07
-9.65241672129724e-08
3.48305258972416e-06
-6.29843834422598e-07
-2.08080287670237e-07
6.12892637753233e-06
-3.8219956060458e-07
-6.65960974456512e-07
1.02964570346038e-05
6.36345359560067e-08
-1.96914852759045e-06
2.21862376400163e-06
-1.04485554953104e-06
-6.84912606460099e-08
2.75558443316665e-06
-9.2847657306395e-07
-1.45640655929932e-07
3.52045845610981e-06
-7.74122564815691e-07
-2.23932814985666e-07
6.08963898254116e-06
-5.00742009999009e-07
-6.9391844249959e-07
1.01315464323629e-05
-6.65156101204442e-08
-2.04164387658764e-06
1.86735242407938e-06
-1.23505515149812e-06
-4.66187802967691e-08
2.27040338084524e-06
-1.17123555165144e-06
-1.01851302828516e-07
2.80610200394408e-06
-1.07910588975794e-06
-1.54322249270138e-07
3.48732928026379e-06
-8.86076094594331e-07
-1.90397034928624e-07
5.84683844169733e-06
-5.76947275611067e-07
-6.52743934129796e-07
9.66614002203007e-06
-1.53444035561064e-07
-2.01555154297409e-06
1.5740272123188e-06
-1.38938425537781e-06
-2.92379892935857e-08
1.89050347590482e-06
-1.36776637917135e-06
-6.76725675633074e-08
2.29654271423077e-06
-1.32819959006452e-06
-1.0624304098308e-07
2.76201002672324e-06
-1.19391223031202e-06
-1.29983349295185e-07
3.28813744287659e-06
-9.34890923920661e-07
-1.25419104623805e-07
5.45709694745216e-06
-5.83553746105702e-07
-5.73202501416213e-07
9.05079713657955e-06
-1.517378518786e-07
-1.9170508001697e-06
1.32818442735192e-06
-1.5132433539187e-06
-1.49300467724197e-08
1.58507072385917e-06
-1.5260408792456e-06
-4.07242937241696e-08
1.898897067325e-06
-1.53193209341435e-06
-6.87998016873737e-08
2.23821929854347e-06
-1.44993299600032e-06
-9.0979875533052e-08
2.56337711903515e-06
-1.24380818729903e-06
-8.87948715804523e-08
2.97808420364678e-06
-9.41488820332594e-07
-5.41967786451734e-08
4.99996036845965e-06
-5.70915015399017e-07
-4.93544953784825e-07
8.47503326943237e-06
-1.40805551348353e-07
-1.84631609072008e-06
1.32001802433705e-05
7.07748410706645e-07
-1.15117526100353e-06
6.25534594551949e-06
3.16670647992861e-08
-3.39777257950681e-07
1.07625869387204e-05
5.75612639912684e-07
-1.62890124520956e-06
3.72032647191356e-06
-3.96367599555097e-07
-1.68178813287457e-07
6.94417614133611e-06
-7.65435278728335e-08
-6.80388310429289e-07
1.0256442310913e-05
4.27725950948073e-07
-1.94180526409454e-06
2.97910334085608e-06
-7.28357421661197e-07
-1.26015835331605e-07
3.89788911028942e-06
-5.17048053249969e-07
-2.75511983717812e-07
6.8793878384435e-06
-2.44007791202172e-07
-8.51054358581365e-07
1.03968924684465e-05
2.61253772358253e-07
-2.15511687340304e-06
2.49801336425481e-06
-1.00014011887798e-06
-9.1892952279051e-08
3.09308997228795e-06
-8.65945159152832e-07
-1.97929069446483e-07
3.93211160331888e-06
-6.89584314040793e-07
-3.12346086929458e-07
6.78794809248293e-06
-3.99432378135127e-07
-9.01197114966773e-07
1.03404553759581e-05
8.33644724304556e-08
-2.26144875998706e-06
2.11015988263632e-06
-1.22237469737939e-06
-6.52882291444513e-08
2.55954226481163e-06
-1.14393397018573e-06
-1.4217473877468e-07
3.14793639277843e-06
-1.04045654833541e-06
-2.21142459161969e-07
3.88885813783806e-06
-8.37380595726946e-07
-2.88827869022544e-07
6.46952917441717e-06
-5.1868643051232e-07
-8.64431664558841e-07
9.95191549857329e-06
-6.3192299044615e-08
-2.26421369949016e-06
1.78484861422538e-06
-1.40256349952262e-06
-4.33127542138129e-08
2.14126689366203e-06
-1.37033985676746e-06
-9.82776530986654e-08
2.59413303526454e-06
-1.32222094443844e-06
-1.56325900162057e-07
3.10521994395976e-06
-1.18217689282263e-06
-2.01427510946518e-07
3.66797116498687e-06
-9.25744880489038e-07
-2.21434048199611e-07
6.00449417383585e-06
-5.84312644835122e-07
-7.69268788397648e-07
9.36400749283853e-06
-1.54686624916855e-07
-2.17407242724945e-06
1.51219800233754e-06
-1.54793501415692e-06
-2.54628184844188e-08
1.80410229856968e-06
-1.55224179384469e-06
-6.37939368006074e-08
2.1589649923811e-06
-1.54970831443015e-06
-1.06233258714296e-07
2.54105930361987e-06
-1.45938995471862e-06
-1.43607256122571e-07
2.90151510772868e-06
-1.24760923168145e-06
-1.55403929868575e-07
3.34889317834764e-06
-9.46591837896202e-07
-1.33187670001571e-07
5.50903742641632e-06
-5.85828512414456e-07
-6.48200869783678e-07
8.73885839440969e-06
-1.60039752467844e-07
-2.0208092515054e-06
1.28043044553347e-06
-9.71152214964128e-09
1.52475557567809e-06
-1.69781087735232e-06
-3.47015049507198e-08
1.81525030775757e-06
-1.73445805262573e-06
-6.61898663089098e-08
2.10339728872438e-06
-1.68647007687926e-06
-9.67655099807022e-08
2.35451744780919e-06
-1.51633871442619e-06
-1.14454617386029e-07
2.60944254317028e-06
-1.25663306037881e-06
-1.00026747217488e-07
3.0018930788452e-06
-9.40033664786481e-07
-4.98567274124577e-08
5.02897526888755e-06
-5.72280749831506e-07
-5.47809298540638e-07
8.20200767246442e-06
-1.51689241139878e-07
-1.91517904065037e-06
1.32792114727284e-05
1.08418937215848e-06
-1.16322107649549e-06
7.07356360459597e-06
2.98855690989946e-07
-4.09326481205193e-07
1.0393224339465e-05
8.94910380749584e-07
-1.67671389491169e-06
4.16993931201926e-06
-2.03824969020025e-07
-2.14122166277924e-07
7.88231788598839e-06
1.55242378878412e-07
-8.57529601860973e-07
9.94306918274203e-06
7.19286995322267e-07
-2.03482325298871e-06
3.34425464212755e-06
-5.97895601735908e-07
-1.63622115758322e-07
4.36426619362807e-06
-3.52281673097561e-07
-3.58820566027146e-07
7.76666214073511e-06
-5.49986197032776e-08
-1.08493666980606e-06
1.02304700746692e-05
5.16177065089603e-07
-2.29157434656647e-06
2.81218271113337e-06
-9.19782665687967e-07
-1.22743793429785e-07
3.46913430960261e-06
-7.55826390122363e-07
-2.63283018253372e-07
4.39285778711386e-06
-5.59924552732693e-07
-4.20339713203667e-07
7.60580143233005e-06
-2.49111002783102e-07
-1.15854485207041e-06
1.03392417733459e-05
2.89166043156679e-07
-2.443055923964e-06
2.381652137402e-06
-1.18258267610893e-06
-8.90496973933106e-08
2.87938946215939e-06
-1.08407204065956e-06
-1.93613445434979e-07
3.52838941498743e-06
-9.65268495347646e-07
-3.02698134520614e-07
4.33242841868084e-06
-7.45432958128175e-07
-4.09915968660136e-07
7.18887906347305e-06
-4.13629361849287e-07
-1.12355659976511e-06
1.00885093911593e-05
8.58533490984131e-08
-2.48387258095491e-06
2.01942738433498e-06
-1.39521941997976e-06
-6.17337836582873e-08
2.4184653650825e-06
-1.34866394648255e-06
-1.37755989198857e-07
2.91987272325332e-06
-1.28787979332366e-06
-2.20489668802728e-07
3.47650898983962e-06
-1.13679458184024e-06
-2.93018733485409e-07
4.07842945930069e-06
-8.73932952125673e-07
-3.44038540898329e-07
6.61973694615213e-06
-5.26213607023197e-07
-1.01665273036583e-06
9.59076446931536e-06
-6.46526921495791e-08
-2.42632026707533e-06
1.71564373098939e-06
-1.56693278445972e-06
-3.90766272814029e-08
2.0449343985275e-06
-1.56083794829631e-06
-9.36475148455602e-08
2.44161602288281e-06
-1.54831152866119e-06
-1.54837069199851e-07
2.86435797738017e-06
-1.44916406874652e-06
-2.12637446380446e-07
3.25288625706314e-06
-1.23344746219414e-06
-2.45096833201019e-07
3.7244242318511e-06
-9.36420087131061e-07
-2.44858844470246e-07
6.03715748917873e-06
-5.86405485653318e-07
-8.65665124494462e-07
9.00607837862555e-06
-1.61707986276123e-07
-2.27957211531708e-06
1.45862122243627e-06
-1.7063104920926e-06
-1.98153911105074e-08
1.73563419442659e-06
-1.73159004403299e-06
-5.69922474049212e-08
2.06319122964763e-06
-1.75889890093114e-06
-1.02543438859703e-07
2.38752420272592e-06
-1.70149201829164e-06
-1.48257977853326e-07
2.66696512204791e-06
-1.52302091737843e-06
-1.80643753524577e-07
2.94476366268796e-06
-1.25894600876502e-06
-1.78375151141849e-07
3.36444209376281e-06
-9.44260183295913e-07
-1.37305481842264e-07
5.51689682646632e-06
-5.85614267096194e-07
-7.1053078453426e-07
8.43470533274642e-06
-1.72895158797615e-07
-2.08060873863984e-06
1.47187895528103e-06
-2.39565157298721e-08
1.75175140830338e-06
-1.9298632232413e-06
-5.77052669381721e-08
2.01480690035437e-06
-1.90836905187382e-06
-9.51243570704902e-08
2.21588723832479e-06
-1.76236496044758e-06
-1.25841807487922e-07
2.39769736558328e-06
-1.52992302289743e-06
-1.37570575056888e-07
2.62489317195131e-06
-1.25057391530518e-06
-1.1070091234381e-07
3.02074243200947e-06
-9.343392682798e-07
-4.50544068967857e-08
5.05706166399929e-06
-5.71915385006489e-07
-5.95517501621954e-07
7.96017784705309e-06
-1.67235842752032e-07
-1.94425737203869e-06
1.28949331000696e-05
1.49160514705716e-06
-1.1073285775277e-06
7.99336963375007e-06
6.59519620843507e-07
-4.95132654529277e-07
9.6335460463962e-06
1.23956407944482e-06
-1.6431169110052e-06
4.67424703743504e-06
6.75041043589719e-08
-2.72953682248216e-07
9.00050135872018e-06
4.61054568291149e-07
-1.09366646816111e-06
9.2659540404198e-06
1.05131523544591e-06
-2.05089465405476e-06
3.75859661117957e-06
-4.06632236217037e-07
-2.11535805339539e-07
4.88879932476246e-06
-1.19433126068159e-07
-4.63980257675739e-07
8.81941547575074e-06
2.00165724032977e-07
-1.39117179145893e-06
9.73241164485422e-06
8.22653538778736e-07
-2.35941516878988e-06
3.16895942948445e-06
-7.93726411647235e-07
-1.60946342352597e-07
3.89254176584174e-06
-5.94270175215289e-07
-3.45040015622008e-07
4.90695723779404e-06
-3.73563722778639e-07
-5.54352750054136e-07
8.56639003966989e-06
-4.1345038874805e-08
-1.48801083557016e-06
1.00640516477458e-05
5.48587224720151e-07
-2.5649831783349e-06
2.68951539936914e-06
-1.10827213990913e-06
-1.19374535035302e-07
3.2408606735408e-06
-9.81456847238858e-07
-2.58584224896258e-07
3.9506521568391e-06
-8.3932166473327e-07
-4.06146783284728e-07
4.82496574227545e-06
-6.03488376946967e-07
-5.58498845201477e-07
8.02458650352193e-06
-2.57992724979993e-07
-1.44710723808364e-06
1.00145004989074e-05
2.87694671456016e-07
-2.65674817904081e-06
2.28395591118622e-06
-1.36164776677402e-06
-8.54634354242864e-08
2.72866255527599e-06
-1.29524103578128e-06
-1.88078207891149e-07
3.27913998196662e-06
-1.21661641273144e-06
-3.01530647591205e-07
3.8848267405047e-06
-1.04990605316888e-06
-4.0654122871727e-07
4.52835837873079e-06
-7.78928336637955e-07
-4.94543804807229e-07
7.32222451490788e-06
-4.20941281045055e-07
-1.31924248891263e-06
9.67039288620549e-06
7.99344252018898e-08
-2.64346492119809e-06
1.94351915041193e-06
-1.56591511181506e-06
-5.7180058808512e-08
2.31312891319608e-06
-1.54610893901895e-06
-1.32483030859162e-07
2.75318701443788e-06
-1.51995148266175e-06
-2.17255016246015e-07
3.21626184497639e-06
-1.40836155940224e-06
-3.00827970253089e-07
3.63045301333965e-06
-1.18501952666592e-06
-3.59500940040691e-07
4.12639384658389e-06
-8.84329413024277e-07
-3.87887379411689e-07
6.62425968739811e-06
-5.2805459270188e-07
-1.14035747435103e-06
9.18510437925823e-06
-7.41148945841861e-08
-2.53121161672934e-06
1.65672153025946e-06
-1.73205502517995e-06
-3.2977908661995e-08
1.96891068535281e-06
-1.74715283332369e-06
-8.60378430098654e-08
2.33487069620688e-06
-1.76361733530211e-06
-1.50021515360766e-07
2.69466694887049e-06
-1.69574330479883e-06
-2.15400443157312e-07
2.99812544855122e-06
-1.50972934476585e-06
-2.67515872677987e-07
3.29048282758582e-06
-1.24362974796833e-06
-2.83605457650349e-07
3.72754729435532e-06
-9.330888049314e-07
-2.61285049016623e-07
6.01700254199579e-06
-5.85754100850422e-07
-9.41727095155537e-07
8.66286776444852e-06
-1.7373076801338e-07
-2.33400463885091e-06
1.40835769969733e-06
-1.86867384857371e-06
-1.13365923531508e-08
1.67663148125241e-06
-1.91074050712148e-06
-4.54169660819902e-08
1.99119803644881e-06
-1.96245115023552e-06
-9.28878756957901e-08
2.28642641467385e-06
-1.93025349129936e-06
-1.45401876036016e-07
2.50979557674522e-06
-1.77425719985461e-06
-1.90928935158428e-07
2.70830839853866e-06
-1.53434052275353e-06
-2.15859265996455e-07
2.95232333719312e-06
-1.25169410881768e-06
-1.9837033714623e-07
3.37321890073849e-06
-9.37313664052874e-07
-1.38081920640641e-07
5.52069794944273e-06
-5.84585820932324e-07
-7.62462999569033e-07
8.16405805482854e-06
-1.88372072112018e-07
-2.09614514652699e-06
1.69672593984076e-06
-4.13043261304597e-08
1.95016231728798e-06
-2.12291883938214e-06
-8.42437136131712e-08
2.12910778619581e-06
-1.99360042661198e-06
-1.25797082694485e-07
2.26179226847731e-06
-1.77706447134814e-06
-1.55074202290606e-07
2.41523399595046e-06
-1.52028244818232e-06
-1.60540098787894e-07
2.6393341767411e-06
-1.23878629401517e-06
-1.21261654665875e-07
3.04730922382892e-06
-9.26356715637811e-07
-4.04995610720339e-08
5.10396181936104e-06
-5.69219298342997e-07
-6.43064943526735e-07
7.75478183900503e-06
-1.85357438487141e-07
-1.93159669816631e-06
1.20847856890027e-05
1.86324220551603e-06
-1.05308959740627e-06
8.98781418432126e-06
1.14480578837006e-06
-6.47644704544254e-07
8.57244593273537e-06
1.53233451510088e-06
-1.5785600902522e-06
5.23552647878558e-06
4.48671867935854e-07
-3.50434090713288e-07
1.03232619155633e-05
8.61664453089718e-07
-1.43998608363115e-06
8.24572825049344e-06
1.36550429815209e-06
-1.9884196109752e-06
4.23322409580757e-06
-1.33339219061588e-07
-2.73784527365336e-07
5.47469937547673e-06
2.0208956208706e-07
-5.99892198543618e-07
1.00495171613065e-05
5.35356885434353e-07
-1.80781794086709e-06
8.87371322104055e-06
1.14677098299049e-06
-2.33896268502649e-06
3.579582938504e-06
-6.07366962137311e-07
-2.09889875368271e-07
4.37223622368328e-06
-3.61633303731687e-07
-4.49030198253623e-07
5.47950449251306e-06
-1.12917241101805e-07
-7.23445464032903e-07
9.68305405849465e-06
2.35624986015065e-07
-1.92080757769681e-06
9.46221759691907e-06
8.46927402089443e-07
-2.60451607741981e-06
3.04397890049457e-06
-9.89781010593778e-07
-1.58408462500635e-07
3.65083805652613e-06
-8.25541638917204e-07
-3.3965305150672e-07
4.42263186952013e-06
-6.54487234809924e-07
-5.36099044454114e-07
5.37134815434086e-06
-3.99070049098095e-07
-7.43007979298928e-07
8.99181803731956e-06
-4.52515579771365e-08
-1.86139799435822e-06
9.67618717147727e-06
5.35756931889375e-07
-2.7624003358098e-06
2.58698268326509e-06
-1.29532154620519e-06
-1.1597748885629e-07
3.08058205282868e-06
-1.20123141880271e-06
-2.51520514003621e-07
3.68465182501586e-06
-1.10181311526186e-06
-4.0160672318677e-07
4.33585873999233e-06
-9.12628648620952e-07
-5.48040590430465e-07
5.02344773022577e-06
-6.32380804416967e-07
-6.79201464619669e-07
8.1269754456156e-06
-2.68737205420557e-07
-1.69541235842853e-06
9.5492627652704e-06
2.71318253520106e-07
-2.80694086014008e-06
2.20238786043371e-06
-1.53972944338619e-06
-8.0786589125543e-08
2.6158912882262e-06
-1.50100517009464e-06
-1.82462123291855e-07
3.10102139128378e-06
-1.45597290273795e-06
-2.9655593035726e-07
3.60375267741527e-06
-1.3276070887253e-06
-4.11321852229032e-07
4.04111077586922e-06
-1.09508647517266e-06
-5.01037457853809e-07
4.56338298748805e-06
-7.90329913476224e-07
-5.62144385856717e-07
7.28598066502139e-06
-4.27057724944641e-07
-1.47394841528014e-06
9.22081903596467e-06
6.29832657109378e-08
-2.74216372779231e-06
1.87972689440081e-06
-1.73820378466419e-06
-5.07166512876026e-08
2.23038908338159e-06
-1.74044786040709e-06
-1.24319755470035e-07
2.63637500482814e-06
-1.74252281172115e-06
-2.11415523165724e-07
3.03136762160692e-06
-1.6610171783865e-06
-3.01299974150789e-07
3.35581479907705e-06
-1.46549262020489e-06
-3.78044464930308e-07
3.65838539534044e-06
-1.19494197563799e-06
-4.16793627596474e-07
4.11284960814674e-06
-8.82567736614062e-07
-4.18675374323649e-07
6.56671047344191e-06
-5.30915833592022e-07
-1.23326829768593e-06
8.80206301736678e-06
-9.12664278614822e-08
-2.57915013578974e-06
1.60266308553518e-06
-1.90231490411515e-06
-2.40455596171125e-08
1.90434677105428e-06
-1.9342428834485e-06
-7.3602540980388e-08
2.2549631986882e-06
-1.97411313447756e-06
-1.39307006220873e-07
2.58240718182009e-06
-1.93052447415801e-06
-2.11222472074635e-07
2.82522545910823e-06
-1.76484960552936e-06
-2.75709597756514e-07
3.03474602081563e-06
-1.51927078290611e-06
-3.18314106443626e-07
3.28702468712281e-06
-1.23578935077256e-06
-3.15607187008425e-07
3.72195157992376e-06
-9.2611511074639e-07
-2.69654923290474e-07
5.99020608428799e-06
-5.84952414318685e-07
-1.00001132827504e-06
8.35716918569929e-06
-1.89908142225198e-07
-2.33720911020917e-06
1.35480942337428e-06
-2.03917093249454e-06
6.09993846172492e-10
1.62003471538946e-06
-2.09444796759426e-06
-2.75012206647519e-08
1.92979676731092e-06
-2.16584192349097e-06
-7.50967995661671e-08
2.21343915124464e-06
-2.15338821024772e-06
-1.33030321671456e-07
2.41115807691466e-06
-2.01205923990425e-06
-1.89648698253126e-07
2.55505258984675e-06
-1.78606622252961e-06
-2.32464602743241e-07
2.71949283710828e-06
-1.52290347177382e-06
-2.48910179650399e-07
2.95810729907089e-06
-1.23888077439898e-06
-2.15579421985433e-07
3.38943869638498e-06
-9.28400502376453e-07
-1.36395918197977e-07
5.54393766706532e-06
-5.8168663850025e-07
-8.09130612152018e-07
7.93082921948768e-06
-2.0625384619789e-07
-2.06591562548615e-06
1.89453978050228e-06
-6.21346294596794e-08
2.06765460731409e-06
-2.21728786270259e-06
-1.13212606018184e-07
2.1800657374111e-06
-2.0095176206348e-06
-1.57493135641349e-07
2.28409070181047e-06
-1.76435251039336e-06
-1.84912796934837e-07
2.43302835812485e-06
-1.50341476268259e-06
-1.84116769582724e-07
2.66193168438058e-06
-1.2241205567855e-06
-1.32669701550589e-07
3.08583597718758e-06
-9.15042750890187e-07
-3.78951806053824e-08
5.18507262995265e-06
-5.63217257373901e-07
-6.97766676436688e-07
7.58107842976878e-06
-2.09229232157557e-07
-1.86859879918451e-06
1.09398418197644e-05
2.19960835909337e-06
-1.05467403193535e-06
1.01034507785773e-05
1.80331303128172e-06
-1.05570342766601e-06
7.44086035710537e-06
1.63258437138804e-06
-1.55409381733855e-06
5.85280542751923e-06
9.81556130414301e-07
-4.54026754929393e-07
1.18464898004515e-05
1.40420406994847e-06
-2.04273277507198e-06
7.01968880363451e-06
1.53422419174099e-06
-1.88675193891576e-06
4.77838430657338e-06
2.53879631481871e-07
-3.50367970735228e-07
6.12065849278706e-06
6.41053991441804e-07
-7.7578663022859e-07
1.14221037071516e-05
9.63680836739703e-07
-2.4107480762152e-06
7.69979919872096e-06
1.41285313269712e-06
-2.22733699043039e-06
4.05965644541023e-06
-3.40051744614093e-07
-2.73360978523813e-07
4.9173704016927e-06
-3.46968167927765e-08
-5.82131589346414e-07
6.10756064152142e-06
2.45534949513826e-07
-9.38125833775732e-07
1.09361158053041e-05
5.85894261575022e-07
-2.50001475884466e-06
8.51550040682132e-06
1.14841687021729e-06
-2.54066776029751e-06
3.4588477195043e-06
-8.13687730269314e-07
-2.08547343041458e-07
4.12182449578453e-06
-5.98649559958449e-07
-4.43862472221073e-07
4.95257422107056e-06
-3.92329599674294e-07
-6.99562515386926e-07
5.9717195264747e-06
-1.14385483205682e-07
-9.73804412306619e-07
1.00888224202732e-05
2.28587360914489e-07
-2.39947459719659e-06
9.03124787166733e-06
8.15279186881288e-07
-2.77483548482609e-06
2.94048432059409e-06
-1.18785328673329e-06
-1.5542948550863e-07
3.48594084373773e-06
-1.05513366196063e-06
-3.34174171365838e-07
4.14055255369702e-06
-9.19918806091421e-07
-5.30122877772921e-07
4.83592858699371e-06
-7.11185149575603e-07
-7.24053690392166e-07
5.5657410832757e-06
-4.23812109496572e-07
-9.06739476810683e-07
9.04070311725689e-06
-6.68226927446284e-08
-2.17254509160672e-06
9.18214529272973e-06
5.01538251642281e-07
-2.89681048405079e-06
2.50156761227812e-06
-1.48304887289215e-06
-1.11452705882832e-07
2.96296515391788e-06
-1.41769239535178e-06
-2.4659089234958e-07
3.49223065512424e-06
-1.34703605948364e-06
-3.97507551095514e-07
4.03517330804611e-06
-1.19643406466922e-06
-5.49220407201864e-07
4.49053418599306e-06
-9.54406772329142e-07
-6.75440047262383e-07
5.03804806359436e-06
-6.47788344305485e-07
-7.74814217576514e-07
8.02986375652468e-06
-2.82856674796526e-07
-1.88511787508226e-06
9.06812637140273e-06
2.4037527115693e-07
-2.89461641070463e-06
2.13449229758633e-06
-1.72029238382712e-06
-7.42026157451424e-08
2.52784679210462e-06
-1.70510179857779e-06
-1.74147661819687e-07
2.97534267495542e-06
-1.68741095787569e-06
-2.89991793042263e-07
3.40477783509427e-06
-1.58785799854096e-06
-4.09715892741622e-07
3.74629087805365e-06
-1.38110084717882e-06
-5.15782945123445e-07
4.05397152832052e-06
-1.10648591670596e-06
-5.80464826066778e-07
4.5271227792002e-06
-7.93615128439956e-07
-6.0986276054762e-07
7.17609927814294e-06
-4.35751379453573e-07
-1.58458211676299e-06
8.80431314269584e-06
3.49660511707067e-08
-2.77939091211609e-06
1.8223250256029e-06
-1.91641614038202e-06
-4.14497545117098e-08
2.1609346507584e-06
-1.93644376144329e-06
-1.11309239552745e-07
2.54944834607896e-06
-1.96129206130753e-06
-2.00036044921738e-07
2.90901778308222e-06
-1.9030878246837e-06
-2.95955977005124e-07
3.16822625921709e-06
-1.72609655214534e-06
-3.83695706899993e-07
3.38392835914581e-06
-1.47423103741071e-06
-4.47938314089085e-07
3.63912004806839e-06
-1.18839732950517e-06
-4.63059866647073e-07
4.08779427766926e-06
-8.79133749067129e-07
-4.36303728066143e-07
6.49891609611244e-06
-5.34764017273598e-07
-1.29849427127359e-06
8.46241564788033e-06
-1.15274645817792e-07
-2.56913402659118e-06
1.54618714773073e-06
-2.08221854924866e-06
-1.14739479430531e-08
1.84362661712571e-06
-2.12706508710827e-06
-5.48152792248389e-08
2.18776774446577e-06
-2.18541122802008e-06
-1.20275219607218e-07
2.50170126702674e-06
-2.16044254434515e-06
-1.97651052275857e-07
2.7162550298325e-06
-2.00810070418933e-06
-2.73068947056875e-07
2.86712146335301e-06
-1.77413688257742e-06
-3.32912091109525e-07
3.03631790607732e-06
-1.50689927551094e-06
-3.64028751509883e-07
3.28073234957879e-06
-1.22298594098019e-06
-3.41360410528691e-07
3.72380257652714e-06
-9.1770533563507e-07
-2.71272809103823e-07
5.98332150156068e-06
-5.83469856379071e-07
-1.04584373285204e-06
8.0921707407566e-06
-2.10555079584431e-07
-2.28799953009058e-06
1.29025552324607e-06
-2.22229106161425e-06
1.65958101125884e-08
1.55847492690822e-06
-2.28716971361888e-06
-2.16873411085867e-09
1.86985317101695e-06
-2.37403189586808e-06
-4.72722571220739e-08
2.15159621587986e-06
-2.37644621120512e-06
-1.09095144988575e-07
2.34210244915946e-06
-2.24416306688764e-06
-1.7537363349808e-07
2.46260498639869e-06
-2.02449268803638e-06
-2.33761562517584e-07
2.57250202479008e-06
-1.77094211868688e-06
-2.72837312477411e-07
2.73014483588678e-06
-1.50457131790092e-06
-2.80336028739269e-07
2.97232542061113e-06
-1.22332248975076e-06
-2.31050864919474e-07
3.41801530536701e-06
-9.16479015636688e-07
-1.33778031514617e-07
5.6035781637936e-06
-5.75329593817882e-07
-8.58552411612105e-07
7.72951177173658e-06
-2.30423551947664e-07
-1.98393776516915e-06
2.01502950234477e-06
-8.61554719780687e-08
2.12398497112204e-06
-2.23411834185937e-06
-1.44342102094556e-07
2.20794640613464e-06
-1.99382096030468e-06
-1.90795508858695e-07
2.30679367459357e-06
-1.74285499606018e-06
-2.16256860746256e-07
2.45877377956728e-06
-1.48300151970459e-06
-2.09293182696698e-07
2.69492047148807e-06
-1.2059243043974e-06
-1.46010301528708e-07
3.13893048191554e-06
-8.99415485644688e-07
-3.95367813142521e-08
5.31764148172976e-06
-5.51897931364376e-07
-7.72664862868806e-07
7.40970698061176e-06
-2.37241015158114e-07
-1.75861650952186e-06
9.55530671088745e-06
2.5102966110048e-06
-1.1257669433646e-06
1.13678996473011e-05
2.69629011462023e-06
-1.7611281933723e-06
6.41464126392644e-06
1.44402213696878e-06
-1.47246896781428e-06
6.52876032294744e-06
1.72486917674422e-06
-5.97513759510343e-07
1.30519562162276e-05
2.22433968034468e-06
-2.85292406234289e-06
5.78296632984025e-06
1.4379882388543e-06
-1.75535070482207e-06
5.40818045445271e-06
8.01161189551722e-07
-4.49401196304361e-07
6.82878100027337e-06