/*--------------------------------*- C++ -*----------------------------------*\
  =========                 |
  \\      /  F ield         | OpenFOAM: The Open Source CFD Toolbox
   \\    /   O peration     | Website:  https://openfoam.org
    \\  /    A nd           | Version:  12
     \\/     M anipulation  |
\*---------------------------------------------------------------------------*/
/*   Windows 32 and 64 bit porting by blueCAPE: http://www.bluecape.com.pt   *\
|  Based on Windows porting (2.0.x v4) by Symscape: http://www.symscape.com   |
\*---------------------------------------------------------------------------*/
FoamFile
{
    format      ascii;
    class       volVectorField;
    location    "700";
    object      U;
}
// * * * * * * * * * * * * * * * * * * * * * * * * * * * * * * * * * * * * * //

dimensions      [0 1 -1 0 0 0 0];

internalField   nonuniform List<vector> 
10142
(
(1.21388615320643e-05 0.000630284237320302 -2.14541377800093e-06)
(1.58318175519764e-05 0.000763806058088495 3.14180392376269e-05)
(1.63694043305726e-05 0.000635492328273321 0.000167059982116924)
(7.99335715106408e-05 0.000292552437361053 -3.03336223698665e-05)
(1.779274384089e-05 0.000827234714307154 9.02327559953206e-05)
(1.66566723806844e-05 0.000771456091915148 0.000192151204587103)
(8.90265456648101e-05 0.000370313656843028 1.19700166562777e-05)
(6.40121120911532e-06 0.000719203965539716 0.000308631064877418)
(6.52407067994588e-05 0.000468140346263922 0.000136965511361288)
(0.000168686052514119 0.00012499984185261 -4.26715703252131e-05)
(1.28554504073175e-05 0.000878020782986597 8.50302145890473e-05)
(1.57367912586509e-05 0.000871366802073511 0.000230988492736192)
(9.15008360644212e-05 0.000346863886191645 6.88418865152606e-05)
(5.29561937547548e-06 0.000843606314454819 0.000328136794594276)
(6.62356306658349e-05 0.000583477154108712 0.000158022353925154)
(0.000178933815024967 0.000176808171692725 -1.00516979813033e-07)
(1.45284877778275e-06 0.000724136277526306 0.00042639366356149)
(2.93599061443958e-05 0.000625465533963484 0.000280697771758176)
(0.000116549603342524 0.000376498647747713 0.000118987521221368)
(0.000273255881458174 6.06393071008219e-05 -4.82728155009447e-05)
(5.2035370438565e-06 0.000997507799314299 6.02808760994097e-05)
(1.31663688497882e-05 0.00096766903433723 0.000231376134708364)
(8.5909757096077e-05 0.000321024000617551 5.91497195125144e-05)
(3.18172129664441e-06 0.000956735648204784 0.000344329211952224)
(6.47975066707566e-05 0.000658382410842573 0.000193789228633071)
(0.000180867239026213 0.000118782640204826 5.61392992738133e-05)
(-1.23985506948716e-07 0.000837515024848422 0.000442105487402049)
(2.67452508402631e-05 0.000736432456956994 0.000297159339775688)
(0.000118584531308675 0.000479269030280654 0.000138753971195815)
(0.000285488904622548 9.78570200199029e-05 -6.4506558637893e-06)
(-5.15517790259031e-07 0.000708503012184029 0.000535384980755387)
(1.02550679429768e-05 0.000680489095139782 0.000399422080749823)
(5.20341334946802e-05 0.000572292745933454 0.000263773910801063)
(0.000176299913944632 0.000346952555218938 0.000108805259048945)
(0.000387337810497429 2.70563107266895e-05 -4.68462940797882e-05)
(-3.82766372331857e-06 0.00111792170805378 2.97876289180539e-05)
(9.86778586169683e-06 0.00109425634558769 0.000213033925213191)
(7.85506542827072e-05 0.000359623891306237 3.07718135448467e-05)
(3.3027400550912e-07 0.00107468340850552 0.000342622618748538)
(5.98688834374131e-05 0.000734797482036516 0.000194884948657541)
(0.000182222007847783 5.80871488853436e-05 4.47965820522943e-05)
(-2.29349633413802e-06 0.000951588253637215 0.000452211912067226)
(2.18797663972718e-05 0.000836661949197971 0.000312692124211435)
(0.000116102413944387 0.000539423491307282 0.000173566032119848)
(0.000291024266407231 2.22868477754263e-05 4.72389223710574e-05)
(-2.1900702754459e-06 0.000813694604764952 0.000549812180406471)
(6.05538481891121e-06 0.000786719325405022 0.000413065338633098)
(4.83474128270359e-05 0.000674832744753534 0.000278674618021513)
(0.000179011477618181 0.000443207910272814 0.000127488195188787)
(0.000404126916900035 5.51247613703916e-05 -6.47401771976136e-06)
(-1.3791416781282e-06 0.000693568269787617 0.000634777059226187)
(2.03366088608546e-06 0.000684606129775478 0.000508520556343479)
(1.87028759631384e-05 0.00065397344316848 0.000382992689541664)
(7.98394594545059e-05 0.000549400959226061 0.00025364505358057)
(0.00024381692840113 0.000338312072080476 0.000101996121922224)
(0.000506953003228877 1.18255026182314e-05 -4.36303048817087e-05)
(-1.33915852015071e-05 0.00120873399565908 -7.98629430865447e-06)
(6.24985188894611e-06 0.00123947303665115 0.000182531191251112)
(7.17504152009975e-05 0.000373200801550688 1.68030972954157e-06)
(-3.18131947297988e-06 0.00120816852997825 0.000327816836162578)
(5.29164419886622e-05 0.000843357998111833 0.00017816790413224)
(0.000187206599043942 5.77169974012495e-05 1.59532381729267e-05)
(-5.1999698147806e-06 0.00107367858885844 0.000449699640010301)
(1.50136435246773e-05 0.000942712235931453 0.000312037953808827)
(0.000110096019658549 0.000602575101466481 0.000174183511295518)
(0.000304142666016663 -5.50671052934294e-05 3.41698672082989e-05)
(-4.37474260916013e-06 0.000924396987202707 0.000557688578329366)
(2.74723070753113e-07 0.000893952910344058 0.000422616006131522)
(4.09563765840898e-05 0.000766124082914338 0.00029385200707023)
(0.000176172102023374 0.000495865163769366 0.000160177502564805)
(0.000415423575103679 -3.08365269110391e-05 4.35377480424563e-05)
(-3.05106198226464e-06 0.000792777015601823 0.000649552844257533)
(-2.65945634121069e-06 0.00078505244571256 0.000520679811822154)
(1.18913197313821e-05 0.000755244445595948 0.000395134428547221)
(7.4933973084174e-05 0.000646898437432757 0.000266967141223885)
(0.000248037800300072 0.000430325896017205 0.000119494841145442)
(0.0005314238175817 3.47364009767506e-05 -4.43955627795402e-06)
(-1.58993206389476e-06 0.000681400869326621 0.00072668068912049)
(-1.77467557665497e-06 0.000677946325217383 0.000606868716602957)
(4.08576802186003e-06 0.000670241643374982 0.000491519733828877)
(2.96208891580523e-05 0.000642679371017948 0.000372789911545662)
(0.000112666595653925 0.000539658698497907 0.000246175501052338)
(0.000316130581774083 0.0003413993947758 9.64462340759266e-05)
(0.000624064298434687 1.29604769521481e-05 -4.36599175135852e-05)
(-2.19197741022786e-05 0.00125146833961068 -5.70536219087598e-05)
(2.19894878069701e-06 0.00139691823283962 0.000139882447461039)
(6.91434429227755e-05 0.000327485379591866 -3.32339205977649e-05)
(-7.59351658228135e-06 0.00135561519948315 0.000299571530641899)
(4.49059308108257e-05 0.000966818018476633 0.000150192525541852)
(0.000197087775347016 2.51876264140585e-05 -1.3050469906309e-05)
(-8.92575598886206e-06 0.0012077456641779 0.000434474164596199)
(6.30291661552533e-06 0.00106321485836754 0.000299700721471779)
(0.000102567764630097 0.000697541620763534 0.00015860255409102)
(0.000326258072317147 -7.52125782654623e-05 5.18669482867472e-06)
(-7.24909088229912e-06 0.00104416166120395 0.000554925997707458)
(-7.51043473315106e-06 0.00100898096866567 0.000420556755470826)
(3.02978259871267e-05 0.000863388549217365 0.000293523888709361)
(0.000171053834183387 0.0005522714561026 0.000159255578122044)
(0.000442472165283718 -0.000116181361923284 2.95813571249989e-05)
(-5.22527886393284e-06 0.000899245769433261 0.000657158664414037)
(-8.80322622277362e-06 0.000890944817800322 0.00052747492296119)
(1.99598482810967e-06 0.000857122812134299 0.000404077175272817)
(6.53309018594448e-05 0.000732466778044079 0.000280955967648906)
(0.000245840768632119 0.000477986328891942 0.000149407910507655)
(0.000550680182282734 -5.52975656511944e-05 4.1762958906847e-05)
(-3.23560867590442e-06 0.000776112624009948 0.000742577052744342)
(-6.60880716185073e-06 0.000773277611436667 0.000619028769915545)
(-3.90972824484117e-06 0.000767242121079948 0.000502114096077333)
(1.99953389517599e-05 0.000740743979800792 0.000383207708025391)
(0.000107043233998987 0.000633441409772403 0.000258478333237293)
(0.000323010658219906 0.000430428597253927 0.000112532396169914)
(0.000657543748097085 3.37136979107937e-05 -5.13570672246483e-06)
(-1.30429623046993e-06 0.000670372452433877 0.00081363073665787)
(-3.1633990455456e-06 0.000669881071614463 0.00069748463296493)
(-2.76668701933866e-06 0.000669101766838203 0.000589189921029128)
(7.17517154198622e-06 0.00066572395126165 0.000480932691800533)
(4.32972735022452e-05 0.000638769518506326 0.000364552423811509)
(0.000148611076215059 0.000538594385689518 0.000239661483042751)
(0.000389707764093327 0.000353119281284996 9.05024045026314e-05)
(0.00073505449284767 2.74703684994119e-05 -4.60749627609506e-05)
(-2.56431990680408e-05 0.00121884995976527 -0.000119152220225529)
(-2.57583535417292e-06 0.0015595825302718 8.19104006661959e-05)
(7.66079251382703e-05 0.000202137877851353 -7.63571394342792e-05)
(-1.30770639648307e-05 0.00151594779799308 0.000256635823010875)
(3.56575125157355e-05 0.00109691758607543 0.000113340210784482)
(0.000217458530046233 -7.37551189791269e-05 -4.74300937264606e-05)
(-1.34912584017506e-05 0.00135444350668563 0.000404696685786516)
(-4.75618627952942e-06 0.00119465396466199 0.000275832271420707)
(9.38648804510999e-05 0.000804892887283616 0.000132982271343851)
(0.000359034425281126 -0.000131017117201301 -2.41643776922674e-05)
(-1.08692978584299e-05 0.00117468452438342 0.00053951848736864)
(-1.75625130995578e-05 0.00113494308693298 0.000407115546000682)
(1.69316302134145e-05 0.000973921910283143 0.000282373446096412)
(0.000165133480291277 0.000639596632273984 0.000143431387273508)
(0.000484356338956009 -0.000146598216087065 2.12413790692306e-06)
(-8.07270328641204e-06 0.00101515014498313 0.000654529747948628)
(-1.69055356211355e-05 0.00100536688457284 0.000524622377072585)
(-1.12562132222205e-05 0.000966391120176731 0.000402058850237913)
(5.16333106061751e-05 0.000823648851527406 0.000279824910412439)
(0.000242989188802227 0.000529876135021978 0.000146379777922816)
(0.000592492886784841 -0.000142131598366804 2.78408702232427e-05)
(-5.38956113209605e-06 0.000878637689003137 0.000750811274088612)
(-1.2887444235884e-05 0.000875574842276273 0.000624899267374184)
(-1.47127677475412e-05 0.000869253053953674 0.000507884919737379)
(5.94937295862751e-06 0.000838695646485426 0.000390777937890914)
(9.57108168910797e-05 0.000714529047984908 0.000271150366119876)
(0.000322571509930216 0.00047468237007812 0.000139585055312929)
(0.00068560908198324 -5.53460950754165e-05 3.80289091141902e-05)
(-2.91496640987009e-06 0.000761685492487384 0.000831004921803678)
(-8.00082728559324e-06 0.000761059679519379 0.000710214704572541)
(-1.11425767440186e-05 0.000761668421741785 0.000599150319855034)
(-4.37370527440592e-06 0.00076060070934171 0.000489506998825291)
(3.1039696933701e-05 0.000734340396901682 0.000373271230162786)
(0.000142865383866233 0.000629619732438673 0.000250956835620813)
(0.000400309925008196 0.000440100918692514 0.00010475518150895)
(0.000778151275769072 4.84056061177224e-05 -8.10285312983593e-06)
(-5.01106960939962e-07 0.000658517545391678 0.000898553237268075)
(-2.77683652269845e-06 0.000661549738625002 0.00078333990153874)
(-5.3902777152923e-06 0.000663960231297956 0.000678696982690923)
(-3.4124821555917e-06 0.000668126128905447 0.000577861996401708)
(1.16584525404354e-05 0.000666071955112984 0.000471916686882413)
(5.86352066240332e-05 0.000640403295615687 0.000356586997047665)
(0.000185525226944066 0.000544015783145193 0.000232707077547115)
(0.00046154353409835 0.000371541736083353 8.29542039300093e-05)
(0.000836170790342394 5.20417111760469e-05 -5.03174416862115e-05)
(-1.95017508153806e-05 0.00108434606074061 -0.000194586350236132)
(-7.31038440986073e-06 0.00171556968657586 9.40877074477001e-06)
(0.000104578039372805 -2.62068296795767e-05 -0.000121847309018046)
(-1.98558024840348e-05 0.00168774953342923 0.000195605485875197)
(2.4888880007143e-05 0.00122653824834183 6.63912754185979e-05)
(0.000254756670365385 -0.000259119758519508 -8.71485704699979e-05)
(-1.92473074123477e-05 0.00151487329671087 0.000357336554708951)
(-1.85556553254376e-05 0.0013343194138407 0.000241015319022712)
(8.33420283150878e-05 0.00091499606858149 9.9917071052133e-05)
(0.000408707511854343 -0.000255547229517774 -5.8484541425056e-05)
(-1.5472820289064e-05 0.00131768671857342 0.000508915074979351)
(-3.00952468540335e-05 0.00127147203413288 0.000381475243228407)
(6.30799881615722e-07 0.001093108938666 0.000261095405077268)
(0.000158386126974548 0.000737489657367976 0.000117735324400904)
(0.000541085884603202 -0.000213387062404699 -2.62138441770007e-05)
(-1.16740394077012e-05 0.00114171261743983 0.000639135114210024)
(-2.71697763039425e-05 0.0011291795479241 0.00051046812107403)
(-2.77887608355214e-05 0.00108556722211253 0.000389472395370033)
(3.46220362177708e-05 0.000926945978351609 0.0002682908693227)
(0.000240564270850431 0.000611397869203311 0.000129347641177002)
(0.000653092818150809 -0.000175574702351012 2.50799550913059e-06)
(-8.21871585829485e-06 0.000990810869673017 0.000748699827772486)
(-2.10843905802903e-05 0.000986522883554317 0.000621533363750129)
(-2.88045809792574e-05 0.0009792620457228 0.000504682210033288)
(-1.27103447998687e-05 0.000943576443538829 0.000387739418772163)
(7.97881151446502e-05 0.000800786787027354 0.000268333543349651)
(0.000323084006248844 0.000523337033207541 0.000134507827398594)
(0.000740796741306343 -0.000140270294719241 2.38992630769226e-05)
(-5.02640866158573e-06 0.000860947009244252 0.000840304793389443)
(-1.42970580172019e-05 0.000859593960487273 0.000715973095329987)
(-2.22296293822207e-05 0.000860702223664474 0.000603430752063025)
(-2.0047492920629e-05 0.000859823242633306 0.000493631160937563)
(1.31994701851381e-05 0.000828958940805989 0.000379260674140917)
(0.000130286360963705 0.00070732378614163 0.000261725273240822)
(0.000402929742004503 0.000482083437042839 0.000129099868058205)
(0.000815690437506751 -3.66715537413783e-05 3.2698892163595e-05)
(-2.07195597483352e-06 0.000747178324566855 0.000917842838918977)
(-7.54900627393432e-06 0.000749358887254359 0.000796808104662339)
(-1.38200033123846e-05 0.000752691273446831 0.000688733184906176)
(-1.56268869947372e-05 0.000759153657248338 0.000585621082976136)
(-3.3636687660657e-06 0.000759312405608404 0.000478558522991907)
(4.41968986455716e-05 0.000733986190168565 0.000363741101377157)
(0.000180244155482419 0.000633131638313662 0.000242174173149614)
(0.000476773133465621 0.000457115208449529 9.54022961691056e-05)
(0.000889029422266834 7.4697199900832e-05 -1.2950230485668e-05)
(-6.5100508158685e-07 0.00065207050292045 0.000867162452484327)
(-4.87839050378552e-06 0.000657655442033848 0.000763565000535434)
(-7.64463229735606e-06 0.00066506822963945 0.00066667924179068)
(-3.51643702269464e-06 0.000671139391000904 0.000568125574379492)
(1.6925163675996e-05 0.00067032496503134 0.000462862132958527)
(7.44752426675036e-05 0.000646386355623335 0.000347838679327901)
(0.000221824454450259 0.000554355329219677 0.000223851892179651)
(0.000529791135110625 0.000394857984338488 7.29509158387829e-05)
(0.000924870078338635 8.3125376051381e-05 -5.75560522190912e-05)
(1.3371588323228e-06 0.000807660056522155 -0.000268253426030019)
(-1.06344449029619e-05 0.00185052542890641 -7.44615135476403e-05)
(0.000164620118416696 -0.000366269178860649 -0.000155369036196382)
(-2.79375403182132e-05 0.00186766017685817 0.000112804952962411)
(1.34888630905148e-05 0.0013435055560247 1.41390202255693e-05)
(0.000318945198637597 -0.000549091665121955 -0.000121071168319609)
(-2.63945086023526e-05 0.0016907713705022 0.00028805654529939)
(-3.51995739713299e-05 0.00147924307537736 0.000193684414660118)
(7.01459695111946e-05 0.00101939486525015 5.74532312794003e-05)
(0.000480315764791953 -0.000465214465134238 -9.46955146140362e-05)
(-2.11266163956304e-05 0.00147541013807438 0.000459600442563143)
(-4.5794322014909e-05 0.00141858695617904 0.000341674621395019)
(-1.87737904577876e-05 0.0012171137123651 0.000231926929533482)
(0.000149705182006407 0.000835739551144871 8.32646490966343e-05)
(0.000619926018291972 -0.000347010355437259 -5.87914570107084e-05)
(-1.61709925486213e-05 0.00128095048521565 0.000608049922804131)
(-4.00787949699753e-05 0.00126347181815664 0.000483340709237088)
(-4.8469056390163e-05 0.00121371744673127 0.000365977798807343)
(1.4448621048492e-05 0.00103682787165038 0.000248504119518692)
(0.000237790141481058 0.000701773048527587 0.000102125154531876)
(0.000733038648448759 -0.000245279060087935 -2.41022135677352e-05)
(-1.18105876340321e-05 0.00111378238108733 0.00073362082138025)
(-3.14250952108096e-05 0.00110662687769987 0.000606680112976562)
(-4.64791554951354e-05 0.0010976616281029 0.000490974263506105)
(-3.57444901852664e-05 0.00105716446355941 0.000374503281625158)
(6.04067538177675e-05 0.000897973734883907 0.000255880879478203)
(0.000325457662213806 0.00060007395970112 0.000116055570308112)
(0.000817399526823015 -0.000173914210593637 -2.29964952895045e-06)
(-7.82688319887213e-06 0.000970080968427639 0.000839026791019421)
(-2.25198855801523e-05 0.000966805430697519 0.000712307630063348)
(-3.65335656996721e-05 0.000967770351862982 0.000599178699284158)
(-4.03232500211174e-05 0.000966409459226303 0.000489111167798203)
(-1.02487217068318e-05 0.000929793100111739 0.000374751927417961)
(0.000112954779353802 0.000789632793703307 0.000256632685732646)
(0.000407696032307457 0.000528241746424823 0.000122733378128769)
(0.000881387317220361 -0.000117556879956361 1.73137145391973e-05)
(-4.11755321845752e-06 0.000843904897568178 0.000928367703174545)
(-1.37635841327712e-05 0.000844618961310894 0.000802744395031935)
(-2.49302083033262e-05 0.000848225457989255 0.000692286860089132)
(-3.18186621341043e-05 0.000856034390117645 0.000587936887335453)
(-2.36841109378813e-05 0.00085614402943412 0.000480851998775993)
(2.32030894722383e-05 0.00082578998445571 0.000368056579136643)
(0.000167284606720503 0.000708342895944292 0.000250066367528581)
(0.000483699038974435 0.000497406704702045 0.000117512428448823)
(0.000935448718930858 -5.51989412199264e-06 2.49556031824007e-05)
(-6.12652813587089e-07 0.000730500392850362 0.00100574127337942)
(-5.33901943625513e-06 0.000737252386602201 0.000881994445377786)
(-1.31764838909561e-05 0.000743127519961084 0.000773720151303535)
(-1.99711493411951e-05 0.00075261074237661 0.000674232246528346)
(-1.95407447087701e-05 0.000761106273758963 0.000573793961072493)
(-1.1891223276127e-06 0.000762277179202903 0.000467729993278713)
(5.84707444083166e-05 0.000738384540770816 0.000353437250326401)
(0.000217641708324994 0.000642136439577777 0.000230892881004735)
(0.000550275984646912 0.000479603466077432 8.3586305131572e-05)
(0.000986644642867965 0.000108097279474768 -2.05290931460538e-05)
(-1.38352653275898e-06 0.000650011226352856 0.000846378242899491)
(-7.21558918451958e-06 0.00066036102902783 0.000750972969600787)
(-9.90639490845086e-06 0.000670000956823499 0.000656338571775616)
(-3.45009527931351e-06 0.000677459899471833 0.000558230880897251)
(2.22904100614068e-05 0.000677935730674205 0.000452784282264813)
(8.99659963744078e-05 0.000655886430992422 0.000337307885135952)
(0.00025660532231821 0.000568292680149968 0.000212029807946023)
(0.000593377501244542 0.000421396325376448 5.91316364744926e-05)
(0.000999195936139942 0.000116555406518158 -6.7054143440125e-05)
(3.40418318104846e-05 0.000377439845132754 -0.000287110645326624)
(-1.39962678713717e-05 0.00193380378643003 -0.000170200297298454)
(0.000259205223107698 -0.000829964463798988 -0.000153949899276192)
(-3.69254974812412e-05 0.00205040541364654 4.549010069085e-06)
(2.54203401531608e-06 0.00143330163960532 -3.46894785032335e-05)
(0.000417063917130586 -0.000936503370370089 -0.000135007306541493)
(-3.50484000498737e-05 0.00188387599426639 0.000191248234087327)
(-5.51672861938125e-05 0.00162413893496079 0.000133491621320659)
(5.49651598061431e-05 0.00110422712792626 1.4579703779949e-05)
(0.000582431420922227 -0.000768524814770813 -0.000120028686539044)
(-2.81267267442681e-05 0.00165071561920074 0.000386974647784617)
(-6.51799051574538e-05 0.00157712157647636 0.000285409525869685)
(-4.239139905135e-05 0.00134205596560261 0.00019291366111232)
(0.000138800506151419 0.000924189900104267 4.31840826335677e-05)
(0.000725810545312724 -0.000559956881915341 -9.04013952178561e-05)
(-2.18345701016078e-05 0.00143583825702358 0.000557726170917766)
(-5.58920917031442e-05 0.00140968566952948 0.0004408850921266)
(-7.39219004762251e-05 0.00135010402005712 0.000330270886245174)
(-1.00021390498458e-05 0.00114933865811483 0.000219704184624244)
(0.000233728247755763 0.000789589702458721 6.73719987600737e-05)
(0.000837955765869343 -0.000377033592636558 -5.33990111055468e-05)
(-1.63247126448436e-05 0.0012498969510277 0.000702772162924572)
(-4.42556141455461e-05 0.0012371305121219 0.00057800137152731)
(-6.82276413551113e-05 0.00122509554245165 0.000465556221545206)
(-6.41988164707126e-05 0.00117796229842482 0.000350978497731469)
(3.71371801294752e-05 0.00100016013138926 0.000234107878830286)
(0.00032828166571671 0.000683145561231172 8.77930069433972e-05)
(0.000915543815523754 -0.000238315982751186 -2.78951685581061e-05)
(-1.14169444718702e-05 0.00109023578552037 0.000824559947906962)
(-3.29214367829265e-05 0.00108311118724805 0.000696736607618026)
(-5.44372922577387e-05 0.00108292874505983 0.000584248811428072)
(-6.55370555135738e-05 0.00108047246973277 0.000474578044064925)
(-3.91557975138058e-05 0.00103808935161407 0.000360317328998325)
(9.22461687003414e-05 0.000881709831360857 0.000241796572091144)
(0.000415751022766403 0.000600726928363332 0.000103052034749609)
(0.000970311634633968 -0.000146390499535237 -1.01526703789854e-05)
(-6.88298059868211e-06 0.00095078872653028 0.000928099644312608)
(-2.19581127777852e-05 0.000948633758326333 0.000798925893458435)
(-3.92619874902626e-05 0.000951707550401619 0.000687115781600579)
(-5.25689216682293e-05 0.000960299630835176 0.000582073810307867)
(-4.978540978344e-05 0.000959579120528512 0.00047466781148286)
(-4.13348124387665e-06 0.000922978352141045 0.000361930737590564)
(0.000149766327892661 0.000787343176254345 0.000243286645840185)
(0.00049350277106483 0.000541607441101845 0.000109659924643708)
(0.0010093935658842 -7.97379981828819e-05 8.36975409180956e-06)
(-2.59833405077065e-06 0.000825313483889525 0.00101796146083665)
(-1.14072240471893e-05 0.000829701447086272 0.000887913937204324)
(-2.4162920083835e-05 0.000835471437868369 0.000776738657849925)
(-3.62392236599164e-05 0.000846362928274312 0.000675456025105873)
(-4.07077319665692e-05 0.000856251787375507 0.000574079750283262)
(-2.55898857080751e-05 0.000857036082654765 0.000468236835655793)
(3.51830452638284e-05 0.000827826722276476 0.000355948654536285)
(0.000205495395805096 0.000715316448347025 0.000236445238548538)
(0.000562356562103228 0.000518501985358562 0.000103316612990331)
(0.0010405125844749 3.24374060140368e-05 1.4522634573507e-05)
(1.54451267986108e-06 0.000708920735877421 0.00109647493592889)
(-1.16584481234215e-06 0.000722903224327326 0.000967758871253483)
(-9.46170687950809e-06 0.000732974407431199 0.000857434614892381)
(-1.93480575272222e-05 0.000744846273289267 0.000758267975396215)
(-2.61503044344299e-05 0.000756893096824251 0.000661621536861777)
(-2.29704336875948e-05 0.000766682549435835 0.000561996892227305)
(1.63386393091891e-06 0.000768871001498825 0.000455977916577763)
(7.30850939040251e-05 0.000746617549264139 0.00034127064487739)
(0.000254129193352787 0.000655100382098238 0.000216726337075849)
(0.000619556252617087 0.000505709852909935 6.8050753158257e-05)
(0.00106834438692434 0.000144050907327038 -3.13217886557883e-05)
(-2.45463852804066e-06 0.000654225085812185 0.000833076176283192)
(-9.95914873644721e-06 0.000666997139672994 0.000740112165132956)
(-1.2486688555384e-05 0.000678166731607909 0.000645757630973562)
(-3.66854333862794e-06 0.000686808104087967 0.000547135954068654)
(2.72002487239001e-05 0.0006885639252648 0.000440780592292207)
(0.00010457904166572 0.000668340923687728 0.000324026901367933)
(0.000289441618714573 0.000584666555109165 0.000195747364487664)
(0.000651440530174726 0.000449175047263246 3.98194088189058e-05)
(0.00105672734467082 0.000148026930822021 -7.84915040466622e-05)
(7.78539320803794e-05 -0.000179911403810805 -0.000231085642276446)
(-2.58673410294512e-05 0.00192163171755005 -0.00027290614417464)
(0.000378902628434599 -0.00136736906799622 -7.13022333086909e-05)
(-4.56787699162042e-05 0.00222829357094582 -0.000131554621133854)
(-1.47107481874785e-05 0.00146597579832327 -6.70008075945105e-05)
(0.000546438950750042 -0.00140781578309199 -9.90637160718957e-05)
(-4.5667573999045e-05 0.00209549869823084 6.03736686720078e-05)
(-7.7796326380147e-05 0.0017601396120057 6.3691577638908e-05)
(3.77267261549578e-05 0.00114892619018404 -1.0612361394197e-05)
(0.000721200195211253 -0.0011556915656672 -0.000121034910449971)
(-3.66445235147365e-05 0.0018474312424807 0.000285298214806889)
(-8.86613872285749e-05 0.00174674639790196 0.000210639920014409)
(-7.11405463492586e-05 0.0014613126691222 0.00014232443472235)
(0.000127331780694912 0.000988296468706075 9.44859621689853e-06)
(0.000866789826674791 -0.000852924879103042 -0.00010950960671911)
(-2.88424704309738e-05 0.00161026710844412 0.000483519148042054)
(-7.5337701354999e-05 0.00156942257356562 0.00038032922354186)
(-0.000104925029801973 0.00149461755689969 0.000281366593402825)
(-3.97147738728012e-05 0.00125989932539752 0.000179817390033798)
(0.000229134062224926 0.000864224247871528 3.02676499004835e-05)
(0.000975140010057831 -0.000581129908840224 -8.1626464745501e-05)
(-2.19768068487475e-05 0.00140255063859657 0.000652699512853074)
(-6.02296700240663e-05 0.00138008845740874 0.000533046638734811)
(-9.49805932654296e-05 0.00136229752257289 0.000426929429301361)
(-9.87738815707809e-05 0.00130505183200546 0.000316354115710572)
(9.26473435341435e-06 0.00110282221508799 0.000202879084928558)
(0.000330962498096144 0.000760845340881418 5.35967656760653e-05)
(0.00104070028908044 -0.000362053259581972 -5.40851898007327e-05)
(-1.59672270594656e-05 0.00122390765001568 0.000794401131526059)
(-4.58859293993674e-05 0.00121008175832908 0.000666952014645385)
(-7.65920955791647e-05 0.00120681735683437 0.000556722852885397)
(-9.63450314645588e-05 0.00120205297990774 0.000448988697597412)
(-7.42925495015285e-05 0.00115194883033668 0.000335875306256434)
(6.77900831248151e-05 0.000977179883427741 0.000218236200193212)
(0.000425557794369073 0.000676932538606885 7.35702112662472e-05)
(0.00108199081916919 -0.000204830218442487 -3.55424442823857e-05)
(-1.04860748953976e-05 0.00106894195220718 0.000914434133341861)
(-3.2419699258608e-05 0.001061816940215 0.000782774588803869)
(-5.72682021379041e-05 0.00106308067714451 0.000670800975009095)
(-7.84033042126142e-05 0.00107163414039636 0.000565956599551052)
(-8.20374506913365e-05 0.00106942320232704 0.00045875644414804)
(-3.75920639714626e-05 0.00102642554955233 0.000346043086512625)
(0.000129225170662147 0.000874923703430376 0.000227534190686043)
(0.000507928349359834 0.000610419368344188 8.87666328219187e-05)
(0.00110742931952448 -0.000103575657027596 -1.92023066760595e-05)
(-5.33004900034405e-06 0.000930560686462833 0.00101880456899759)
(-1.95453093679909e-05 0.000931235682560812 0.000883945625136083)
(-3.84703615239824e-05 0.000935727493895849 0.000770666674886185)
(-5.70979490797594e-05 0.000947389494780382 0.000668325330974678)
(-6.76830360522795e-05 0.000958039599649989 0.000566376094918875)
(-5.67421942903442e-05 0.000957557255733213 0.000460374891302249)
(5.06712756407195e-06 0.000921760910780504 0.000348233015076359)
(0.000189029862395664 0.0007914302664351 0.000228875799802757)
(0.00057794219887019 0.000560978546678728 9.42565826691999e-05)
(0.00112084475031215 -3.52038601060093e-05 -1.70719784523258e-06)
(-3.71598505717599e-07 0.000802532284300614 0.00111145272144358)
(-7.11516366316937e-06 0.000813271451818642 0.000974303675839234)
(-2.02195764412809e-05 0.000822401023295795 0.000859432648182037)
(-3.54845594426799e-05 0.000835633568435583 0.000758532855584535)
(-4.75158463997358e-05 0.000849371269679061 0.000660598566214308)
(-4.86375977260236e-05 0.000860380575253096 0.000560388470337305)
(-2.60873799530635e-05 0.000861818526804971 0.000454775518503943)
(4.84502134793843e-05 0.000834005491042614 0.000341981330460714)
(0.00024394668650372 0.000726477041161138 0.000220167568370396)
(0.000637514051895119 0.000543018232090215 8.55399114829456e-05)
(0.00112899893756242 7.14061506988062e-05 2.33935865798907e-06)
(4.44666873883451e-06 0.000679396841116234 0.00119327115192084)
(5.15600677260235e-06 0.000703575519272371 0.00105566962915346)
(-2.43613203685239e-06 0.000720604057362076 0.000941325401936818)
(-1.42517699590433e-05 0.00073644968433651 0.000841088659018173)
(-2.59893459948969e-05 0.000751134480364659 0.000744910176095112)
(-3.2403095074049e-05 0.000764753412781933 0.000649023235775427)
(-2.62065289092344e-05 0.000775525700215531 0.000549149051785196)
(4.62633463081745e-06 0.000778696485612669 0.000442314292763361)
(8.7526367691931e-05 0.000758044644620253 0.000326250449019287)
(0.00028934924533929 0.000670703235931419 0.000198423524859029)
(0.000683754955476624 0.000533415839164507 4.69243001263597e-05)
(0.00113305578284827 0.000177115272562336 -4.44302969775217e-05)
(-4.23254194007423e-06 0.000662587737541604 0.000821562875010604)
(-1.34705623070927e-05 0.000677020296319409 0.000728908652970807)
(-1.5750525356199e-05 0.000689357999969713 0.00063384722212046)
(-4.57886742213207e-06 0.000699056373693908 0.000533995810324183)
(3.12885565698084e-05 0.000702007717972772 0.000425983923584318)
(0.000118044293600061 0.000683213574384328 0.000306866048101958)
(0.00032017442396201 0.000601971115977218 0.000173640707369394)
(0.000703829570295887 0.000475849376775425 1.20209832539873e-05)
(0.00109349468917767 0.000169520267619751 -9.48127128545364e-05)
(0.000126943562116599 -0.000755682449429225 -6.36267506078067e-05)
(-4.67509076759463e-05 0.00178539114908392 -0.00035098319129457)