/*--------------------------------*- C++ -*----------------------------------*\
  =========                 |
  \\      /  F ield         | OpenFOAM: The Open Source CFD Toolbox
   \\    /   O peration     | Website:  https://openfoam.org
    \\  /    A nd           | Version:  12
     \\/     M anipulation  |
\*---------------------------------------------------------------------------*/
/*   Windows 32 and 64 bit porting by blueCAPE: http://www.bluecape.com.pt   *\
|  Based on Windows porting (2.0.x v4) by Symscape: http://www.symscape.com   |
\*---------------------------------------------------------------------------*/
FoamFile
{
    format      ascii;
    class       volScalarField;
    location    "500";
    object      nut;
}
// * * * * * * * * * * * * * * * * * * * * * * * * * * * * * * * * * * * * * //

dimensions      [0 2 -1 0 0 0 0];

internalField   nonuniform List<scalar> 
10116
(
5.12295298461172e-06
5.45858002868806e-06
5.46583359374454e-06
0.000145151609113087
5.77828492940405e-06
5.82167391561595e-06
0.000149872378802206
5.91728654051627e-06
0.000149186178130519
0.000466860495637986
6.08061098901283e-06
6.16089218356906e-06
0.000154227359510937
6.29982162064302e-06
0.000154006495567491
0.000478138277894681
6.18518148048796e-06
0.000154356443149483
0.00047264219507921
0.000860816412306964
6.36821991786339e-06
6.48201890178657e-06
0.000158250745349677
6.66481162589105e-06
0.000158460194664668
0.000488468843283451
6.58319926327981e-06
0.000159295648385214
0.000484007248077631
0.000879128562552332
6.09439627696438e-06
0.000157440579555566
0.000479521824148681
0.00086512874595874
0.00126427472974738
6.64179533945087e-06
6.78740898619268e-06
0.000161979425504823
7.01041771287804e-06
0.000162575199186517
0.000497976303789145
6.96344129246401e-06
0.000163867219539144
0.00049443356276528
0.000895885619981073
6.48679383772605e-06
0.000162448788815337
0.000490988870901725
0.000883491811278462
0.0012896493840957
5.74063137495815e-06
0.000156549283463108
0.000482950977146702
0.000868914684224995
0.00126565966316444
0.0016485851122886
6.9008131524005e-06
7.07785138107511e-06
0.000165435575024438
7.33925775050988e-06
0.000166388382691214
0.000506736922276677
7.32366134666862e-06
0.000168094466050504
0.000504031729203403
0.000911274839061853
6.86186306020462e-06
0.000167088899713358
0.00050152240390583
0.000900308477462938
0.00131283290486561
6.11161681018533e-06
0.00016153034772078
0.00049446586653319
0.000887303098612923
0.00129103729787177
0.00168080675041164
5.28991475428006e-06
0.000152338709463686
0.000479955359385275
0.00086826214349492
0.00126419284574794
0.00164682578643339
0.00200228689668511
7.14491969671621e-06
7.3532902792231e-06
0.000168631809562474
7.65177752569427e-06
0.000169924826771691
0.000514801004201266
7.66651921404857e-06
0.000172012577688328
0.00051288106793786
0.000925410532973657
7.21739607764551e-06
0.000171383160007663
0.000511225750328517
0.000915757235927175
0.00133407257505561
6.46650282113176e-06
0.000166147457766079
0.000505047625771902
0.0009041612408876
0.00131423100453238
0.00171019061271793
5.63363897056615e-06
0.000157210013530456
0.000491400566154428
0.00088660388347686
0.00128949493586779
0.00167899837137047
0.00204101276774167
4.81617915935073e-06
0.000146375089833732
0.000470916327748419
0.00086035499868904
0.0012568925776229
0.00163979541129302
0.00199813365023799
0.0023225654665727
7.37396622356582e-06
7.61295044370882e-06
0.000171573663265215
7.94844275493724e-06
0.000173199388030128
0.000522214890716156
7.99231166047059e-06
0.000175647179603665
0.00052103397377263
0.000938389249443569
7.55579947536244e-06
0.000175364625089952
0.000520175945853111
0.000929955049838985
0.0013535388101451
6.80299122361337e-06
0.000170422682254798
0.00051480136084953
0.000919656087525247
0.0013354875893667
0.00173704947539312
5.96283000781119e-06
0.000161726719008733
0.000501918674565417
0.000903428041755526
0.00131264112963651
0.0017083415371813
0.00207626056352107
5.13121091896554e-06
0.000151092282045715
0.000482174672965908
0.000878521164957483
0.00128201506350476
0.00167178587929962
0.00203676930371837
0.00236739115895887
4.32305935188285e-06
0.000139525541370959
0.000457733164148997
0.000845055754509847
0.00124166918113235
0.00162525278571985
0.00198648906969073
0.0023169419711967
0.00261061321234928
7.58811084062292e-06
7.85676326699563e-06
0.000174275462520517
8.22855968518729e-06
0.000176219053197704
0.000529015844981683
8.30149914790984e-06
0.000179015678298187
0.000528527938529146
0.000950293793997992
7.87752041037415e-06
0.000179058809976358
0.000528431525026652
0.000942991404454339
0.00137137420585853
7.12342893138063e-06
0.0001743873942417
0.000523801234991688
0.000933906313141736
0.00135497145361557
0.00176161248947924
6.27494144572661e-06
0.000165910036780273
0.000511617311963393
0.00091889923934114
0.0013338646955993
0.00173516876287476
0.00210841075390002
5.43325594754787e-06
0.000155467124933214
0.000492519855667067
0.000895189206230837
0.00130500948152899
0.0017009868412888
0.00207193596935189
0.00240811716578367
4.60820735870534e-06
0.000144066251717198
0.000468721331904751
0.000862908851431452
0.00126646295223415
0.0016569173705228
0.00202484846513617
0.00236165026577069
0.00266110775714415
3.80480670884706e-06
0.000131902109075344
0.000441673588086911
0.000823635035317715
0.00121817929318836
0.00160176194298089
0.00196547422685163
0.00230193983498348
0.00260409209338864
0.00286897870326426
7.78749385447521e-06
8.08467529864295e-06
0.000176751978441612
8.49165204340572e-06
0.000178987191021994
0.000535238556926094
8.59401556369203e-06
0.000182126834627038
0.000535403881279132
0.0009611930720638
8.1828609558498e-06
0.000182484690213506
0.000536022930790171
0.00095494892020786
0.00138769912854026
7.42818653513547e-06
0.000178067007510637
0.000532108651823337
0.000946995907950938
0.00137282354452369
0.00178406905741373
6.57221574546094e-06
0.000169790299998433
0.000520568612341456
0.000933135128218332
0.00135332689513946
0.0017597038281652
0.00213775141129008
5.71943660059977e-06
0.000159519238542309
0.000502060665732381
0.00091052250538704
0.00132610327044688
0.00172769609328703
0.00210401469626951
0.00244519406872021
4.88185510217672e-06
0.000148277652304761
0.000478815846686207
0.000879292812532723
0.00128916572721212
0.00168583651464418
0.00205978953619782
0.00240226768428276
0.00270691355359115
4.05840270429659e-06
0.000136246850170093
0.000452333001909975
0.000841056905546063
0.00124248490160229
0.00163292059119619
0.00200336825441239
0.00234629686835781
0.00265445189563546
0.00292470328753712
3.26603603710693e-06
0.000123378823520854
0.000423055247041288
0.00079704450082372
0.00118697690015027
0.00156895624068376
0.00193397511395327
0.00227560526566615
0.00258661541673377
0.00286178516307705
0.00310036417892185
7.97221818651524e-06
8.29686999862303e-06
0.000179014958867617
8.73752121662462e-06
0.000181522128727772
0.000540917608575798
8.86898158662951e-06
0.000184982706861158
0.000541693654824343
0.000971146846659833
8.47203032465027e-06
0.000185653510663043
0.000542991101311504
0.000965897470132018
0.00140261502227006
7.71753285949691e-06
0.000181481545080543
0.000539760571483285
0.000959004378435658
0.0013891640640463
0.00180457849377438
6.85503804170797e-06
0.000173392289719451
0.000528834391240416
0.000946223210545728
0.00137116189846746
0.00178213540421664
0.00216451857790982
5.99214616975325e-06
0.000163278029038652
0.000510867557409488
0.000924636371940266
0.0013454592143681
0.00175212867505282
0.0021332909888007
0.00247896451359465
5.14079916949368e-06
0.000152177419230765
0.000488125262531999
0.000894368489950293
0.00131000064639258
0.00171230070750332
0.00209167378501011
0.00243924596660522
0.00274854527540338
4.30187197505641e-06
0.000140275791671611
0.000462120719587034
0.000857047184218187
0.00126474848378961
0.00166139088172926
0.00203790358140988
0.00238662280118529
0.00270012905155131
0.00297518939940643
3.48647844486023e-06
0.000127504196474031
0.000433333121767435
0.000813933079151464
0.00121064251733005
0.00159942000198979
0.00197118212652715
0.00231937309438794
0.00263656331130258
0.00291736104890398
0.00316087760798793
2.71885308250297e-06
0.000113853884716307
0.000401738024476737
0.000765519617391238
0.00114843335560749
0.00152687988534196
0.00189164475721092
0.00223683247222691
0.00255585889948857
0.00284227856096294
0.00309254977987259
0.00330726109103488
8.14236603829804e-06
8.49349357817949e-06
0.000181073532330958
8.96623340656158e-06
0.000183837774057061
0.000546082936207734
9.12614343842414e-06
0.000187594456313339
0.000547431795548119
0.000980209075298876
8.74448307557681e-06
0.000188570540361241
0.000549367024755045
0.000975896042566706
0.00141620860584604
7.99152374986339e-06
0.000184643529965641
0.000546785587527396
0.000970001492844765
0.00140409460554446
0.0018232757639525
7.12367018772454e-06
0.000176735897086216
0.000536461262512824
0.000958234705957561
0.00138748835145877
0.00180262240184449
0.0021889111277489
6.25159644244529e-06
0.000166767320587379
0.000519001840984531
0.000937625009208305
0.00136320260264077
0.00177446915453571
0.00216000023299344
0.0025097111360798
5.38761451263662e-06
0.000155795054767989
0.000496718607413642
0.00090824853453857
0.00132912930154936
0.00173651936678757
0.00212077691034274
0.00247292754210354
0.00278639825108309
4.53192315559022e-06
0.000144004561381272
0.000471145596878653
0.000871762703053389
0.0012851875082067
0.0016874557028866
0.0020694327371546
0.00242334481893659
0.002741643519548
0.00302101024947883
3.69814383480574e-06
0.00013132783452516
0.000442763590838416
0.000829434768932915
0.00123232733567758
0.00162726781920412
0.00200510851834789
0.00235918400800122
0.00268189530816379
0.00296770218865224
0.00321564858664142
2.90518075797035e-06
0.00011773219740299
0.000411578471908393
0.000781776810268023
0.00117131328666437
0.00155646065485517
0.0019279359894488
0.00227973874443921
0.0026051072116116
0.00289738992296989
0.00315290097465263
0.00337212386915991
2.1793856153301e-06
0.000103278378054694
0.000377451288707155
0.000728818003259055
0.0011024276500199
0.00147536897692004
0.00183827221369244
0.00218529238209432
0.00251052880815362
0.00280765294842411
0.00307120435027787
0.00329883022403025
0.00349191933343657
8.29796998148904e-06
8.67467063137719e-06
0.000182935029615864
9.1780917843137e-06
0.000185944187661396
0.000550758915484858
9.36536576486286e-06
0.000189978476597364
0.000552649765756533
0.000988426980519892
8.99946627742566e-06
0.000191236267977128
0.000555181805434532
0.000984998168222261
0.00142855522781453
8.25031075697782e-06
0.000187559956176927
0.000553217563808655
0.000980045474247631
0.00141770162868761
0.00184027534630097
7.37805152466026e-06
0.00017983462136804
0.000543470419325367
0.000969237027120286
0.00140240735036114
0.00182129944195721
0.002211097586159
6.49817070992979e-06
0.000170006577203163
0.000526513325527751
0.00094955236024048
0.00137944845600508
0.00179487461547025
0.00218434054831838
0.00253767166059788
5.6225417418354e-06
0.000159153072131256
0.000504655800186159
0.000921028242364975
0.00134667464552862
0.00175866920807596
0.00214733089758268
0.00250359408185655
0.00282079902614065
4.75116898468109e-06
0.00014746331414459
0.000479475355618535
0.000885312923786431
0.00130395927634419
0.00171132322158576
0.00209821994592483
0.00245679734856342
0.00277939063382061
0.00306260907745023
3.89781105797568e-06
0.000134864149492632
0.000451455536855576
0.00084370125343373
0.00125224112705348
0.001652774007995
0.00203609721483735
0.00239545191501157
0.00272310395011118
0.00301339051276993
0.00326530115371994
3.08407130799833e-06
0.000121324841317924
0.000420598225664493
0.000796698728446591
0.00119228571898865
0.00158351410026541
0.00196104428851642
0.00231878626671801
0.00264982702148831
0.00294733830232913
0.00320751175172694
0.0034307895116383
2.33170212439621e-06
0.000106880294053952
0.000386790270147601
0.000744338150934682
0.00112437415434756
0.00150387701648794
0.00187341765693737
0.00222705950841733
0.0025587499147643
0.00286196309688084
0.0031310419865759
0.00336351672927387
0.00356069737949915
1.66513000545219e-06
9.1630375254507e-05
0.000349856462485302
0.000686396432931551
0.00104840195826814
0.00141386428031573
0.00177333341002744
0.00212070876512807
0.00245029578179622
0.00275633924847657
0.00303304696254083
0.00327574581593966
0.00348288181670183
0.00365637906743834
8.43889108907022e-06
8.84038693617839e-06
0.000184604811850948
9.37328643708036e-06
0.000187849103211979
0.000554965308881811
9.58679925838514e-06
0.000192146499691178
0.000557373051376444
0.000995840641842361
9.23684733268346e-06
0.00019366677239751
0.000560467332387095
0.000993251471646276
0.00143972002950695
8.49303378882255e-06
0.000190233688396958
0.0005590829594421
0.000989188248082216
0.00143006017609333
0.00185567595085561
7.61829724708118e-06
0.00018269760559033
0.000549890175135482
0.000979288162817397
0.0014160046774366
0.00183828102103618
0.00223122118885763
6.73170444178188e-06
0.000173010263512
0.000533431814201445
0.000960482188168997
0.00139429608888547
0.00181347855024319
0.0022064798963839
0.00256304755788288
5.84584804932021e-06
0.000162270624583777
0.000511986957413176
0.000932777674395847
0.00136274418193578
0.00177890373969694
0.00217153166673108
0.00253148244794135
0.00285202251875583
4.96008350056556e-06
0.000150674169406518
0.00048716845343509
0.000897791546875487
0.00132119074784199
0.00173315891199283
0.0021244907867912
0.00248725830221834
0.00281369604862426
0.00310035309375288
4.08813561983686e-06
0.000138143564680602
0.000459476981607138
0.000856838566495257
0.00127053603674302
0.00167614234361879
0.00206440339851045
0.00242849875008518
0.00276057724463212
0.00305486963147958
0.00331032104538989
3.25251119829339e-06
0.000124644588597102
0.000428906799912026
0.000810430926393501
0.00121155072911139
0.00160830345303062
0.00199130035216971
0.00235437702556455
0.00269049287873787
0.00299267757378285
0.0032570174411057
0.0034839247874392
2.47801090478514e-06
0.000110214298063665
0.000395340709813077
0.000758585163175667
0.00114449948331747
0.00152996355253735
0.00190549875522889
0.00226509140108795
0.00260256011559564
0.00291120961662677
0.00318521545963766
0.0034220071020051
0.00362287508127762
1.78469349132708e-06
9.49258957749678e-05
0.000358623069551974
0.000701060483793551
0.00106925732276302
0.00144110290822334
0.00180709780350988
0.00216105916306989
0.00249715821049851
0.00280946505673134
0.00309198857040249
0.00333987183293896
0.00355146964355804
0.00372865023503854
1.18872743891706e-06
7.88580254956244e-05
0.000318473626907436
0.000637401766862598
0.000985384665718295
0.00134140087360603
0.00169589626295924
0.00204237476756441
0.00237491353229804
0.00268798626876546
0.00297621783398086
0.00323430457184577
0.00345814936508836
0.0036467617724643
0.00380248970564059
8.56438190044571e-06
8.99039288235976e-06
0.000186086191799939
9.55175657545426e-06
0.000189557976471378
0.000558717518563677
9.79059587416226e-06
0.000194106980193435
0.000561622115172028
0.00100248326201849
9.45651822980602e-06
0.00019587556213428
0.000565250775445815
0.00100069656579637
0.00144975847976893
8.71926898511373e-06
0.000192666757290953
0.000564411951666448
0.000997477192538444
0.00144123533684805
0.0018695619583386
7.84448563330132e-06
0.000185329357262462
0.000555748545579765
0.000988437677417654
0.00142835442263885
0.0018536653137155
0.00224940396257006
6.95231207253923e-06
0.000175788450400671
0.000539770847030969
0.000970470046070484
0.0014078301172709
0.00183039457157713
0.00222656105989423
0.0025860097970823
6.05749559720799e-06
0.000165161609857792
0.000518749320696411
0.00094355052106245
0.00137743423859437
0.00179735414369577
0.00219354551819945
0.00255679335527253
0.00288030172012416
5.15869748582898e-06
0.000153654913709609
0.000494274291943556
0.000909275392903771
0.0013369798508557
0.001753111148178
0.00214843704749135
0.00251496191573039
0.00284483372428305
0.00313455186845942
4.2695052046642e-06
0.000141188554960858
0.000466884542657999
0.000868937952444261
0.00128733849613723
0.0016975318292542
0.0020902426942102
0.00245859574203667
0.00279463690677281
0.00309250585974123
0.00335111206343799
3.41308467960503e-06
0.000127722153574638
0.000436572282305918
0.000823076005119253
0.00122925395105331
0.0016310244124209
0.00201895370047075
0.00238681852362166
0.00272748094742439
0.00303384396674801
0.00330190460553528
0.00353205194520541
2.61508442096943e-06
0.000113291411390344
0.000403211019505469
0.000771694585148465
0.00116299145535993
0.00155387789701014
0.00193483160601159
0.00229977541254163
0.00264241783864429
0.00295592494792225
0.00323433181089307
0.00347498136074438
0.00367915351284052
1.899536851799e-06
9.797380019044e-05
0.000366638217455908
0.000714526685463654
0.00108839338463356
0.00146604423993104
0.00183793868722298
0.00219782396199752
0.00253975830243591
0.00285766336108364
0.00314537517309134
0.00339788249042414
0.00361345739270813
0.00379396914627629
1.27721199917672e-06
8.18165988257147e-05
0.00032659074222859
0.000651081896470406
0.00100497975919519
0.00136716222028421
0.00172803444370877
0.00208102606941288
0.00242008920659736
0.00273954161382001
0.00303382652213165
0.0032974454930447
0.00352613227605517
0.00371882960187152
0.00387785014744582
7.57378270974786e-07
6.47463478434267e-05
0.000282501907785477
0.000580543963080486
0.000911926086237576
0.00125656482387527
0.0016046306865459
0.00194910697437373
0.00228361312203719
0.00260241022954016
0.00290033008828229
0.00317237911327725
0.00341365403275711
0.00362048916324119
0.00379233311272209
0.00393191174509369
8.67281844306979e-06
9.12361039078178e-06
0.000187380984239178
9.71310105810321e-06
0.00019107393032993
0.00056202698349207
9.97682771223141e-06
0.000195865450340201
0.000565412608919997
0.00100838139232023
9.65847587567313e-06
0.000197872168985892
0.000569553595810971
0.00100736703107572
0.00145871682247787
8.9287683889355e-06
0.00019487515151388
0.00056923254365626
0.00100495349773351
0.00145128269181423
0.00188200407742289
8.05599395759612e-06
0.00018773108777211
0.000561069327730419
0.000996731452316896
0.00143952113620169
0.00186753623914263
0.00226574903095385
7.16024095211528e-06
0.000178348725937328
0.000545560215200863
0.000979564405214181
0.00142012301565193
0.0018457198427854
0.00224470557993731
0.00260670345069577
6.25754079067699e-06
0.000167838232134206
0.000524960754877442
0.000953398494319395
0.0013908272567212
0.00181413222772398
0.00221351389504907
0.0025796972062964
0.00290583413023794
5.34707713353861e-06
0.000156419312603404
0.000500831726068871
0.000919815005603118
0.00135141823234674
0.00177130757572913
0.00217022196140773
0.00254010681902158
0.00287303576354909
0.00316546793157035
4.44217102667421e-06
0.000144015239564835
0.000473726008623669
0.000880076453493348
0.0013027459848309
0.00171708274882658
0.00211380074019997
0.00248597231243491
0.00282555393516065
0.0031266077283176
0.00338801526686088
3.56607761764651e-06
0.000130579191176693
0.000443651223892557
0.000834722242727946
0.00124551771697375
0.00165183580969846
0.0020442062020244
0.00241637226678197
0.00276110547590242
0.00307119963200409
0.00334257615763899
0.00357560678298339
2.74575993129012e-06
0.000116142941610705
0.000410468832298086
0.000783765049344724
0.00117998791707348
0.00157580602087653
0.00196165635834733
0.00233140603126683
0.00267868304817487
0.00299653339990732
0.00327887005622012
0.00352296296549859
0.00373008512596015
2.00623375229089e-06
0.000100780610735539
0.000374008253407142
0.000726916829800775
0.00110598158852596
0.00148892033738163
0.00186615396607198
0.00223137183024656
0.00257853732907603
0.00290144575082551
0.00319379135167692
0.00345042899129672
0.00366956104980543
0.00385306309597986
1.36206054106093e-06
8.45486366531659e-05
0.000333996400686589
0.000663649187585329
0.0010229717110059
0.00139076950189596
0.00175741355679496
0.00211626882891886
0.00246118326317019
0.00278634229168366
0.00308603336695574
0.00335458900240391
0.00358760019354572
0.0037839447116972
0.00394595559362844
8.16740176330494e-07
6.73280882720552e-05
0.000289880258452737
0.000593094290053905
0.000930070256924841
0.00128062398659264
0.00163488496869387
0.00198576618633432
0.00232677173977437
0.00265201645705662
0.00295616732878655
0.00323404847028684
0.0034805689803473
0.00369191079680882
0.00386747823474803
0.00400998153314712
3.92858456785198e-07
4.88662560978383e-05
0.000240490738302958
0.000513807232483102
0.000825914567815783
0.00115738663777805
0.00149776648462254
0.00183931635504567
0.00217507327051158
0.00249884665584745
0.00280526817303607
0.00308954478077494
0.00334703750510035
0.00357317784709317
0.00376464430950923
0.00392126373339364
0.0040461160300306
8.76272975512864e-06
9.23777342928421e-06
0.000188490570568573
9.85612327595858e-06
0.000192398691837992
0.000564902878022753
1.01450565020952e-05
0.000197424969700993
0.000568755591029761
0.00101355571807225
9.84293130146831e-06
0.0001996625672548
0.000573391733274175
0.00101328967591423
0.00146663241250952
9.12125281889823e-06
0.000196869838761332
0.000573567570886928
0.00101165124412074
0.00146024861937459
0.00189306156590407
8.25205866075632e-06
0.000189905904182892
0.000565879384149153
0.00100421052717617
0.00144956028028985
0.00187996469066191
0.00228034364619375
7.35554620749332e-06
0.000180694631409802
0.000550822056205859
0.00098780779778289
0.00143123800371806
0.00185953747152239
0.00226101647897927
0.00262525146932577
6.44609152875089e-06
0.000170309142343757
0.000530636042376533
0.000962369126067094
0.00140299387479197
0.00182933344244531
0.00223155714708539
0.00260033859902057
0.00292878766706709
5.52527930122192e-06
0.000158979283209232
0.000506869577873199
0.000929456449826584
0.00136458524174908
0.00178785719800095
0.00218998451419832
0.00256286171840126
0.00289849905827248
0.00319332398399251
4.60596612576807e-06
0.00014663712418775
0.000480040003331797
0.000890314385645827
0.00131684136783912
0.00173491762227659
0.00213523619885721
0.00251082331456472
0.00285355800761257
0.00315743676667919
0.00342132024802282
3.71181099976242e-06
0.000133232304271885
0.000450188086279127
0.000845444732496395
0.00126044371006762
0.00167086589025015
0.00206723583656039
0.0024432604997066
0.00279163191900535
0.0031050498491133
0.00337937205117089
0.00361495840416225
2.87036475661034e-06
0.000118789059466137
0.000417169438777545
0.000794881765112382
0.00119560566558633
0.00159590200800918
0.00198616477849957
0.00236023150271261
0.00271165927867407
0.0030333890383382
0.00331922871329859
0.00356638683917187
0.00377613286505416
2.1077646365655e-06
0.000103379433039767
0.000380801009600084
0.000738323194905054
0.00112215056333144
0.00150990523067931
0.00189197030136772
0.00226198580811655
0.00261383698602682
0.00294122006782703
0.00323770349800492
0.00349802714873442
0.00372033462551563
0.00390650860599826
1.44003470927288e-06
8.70551883069198e-05
0.00034079587218166
0.000675209491941818
0.00103951406032868
0.0014124345683558
0.00178430945072514
0.00214844938017332
0.00249861520831014
0.0028288789731136
0.00313339863480229
0.00340636339547506
0.00364323967169678
0.00384285088050791
0.00400755222760933
8.73391403502744e-07
6.97051730212612e-05
0.000296587713406935
0.000604625848059768
0.000946743137800918
0.00130269313033225
0.00166256883320359
0.00201922296949711
0.00236606215582985
0.00269707848252264
0.00300679849708829
0.00328988822664352
0.00354109495706603
0.00375646879783692
0.00393536718290836
0.0040805388047554
4.26168629411206e-07
5.10130213593743e-05
0.000247009980749914
0.000525054881330731
0.000842390143425241
0.00117949708978445
0.00152586127938092
0.00187367862390707
0.00221587588660221
0.00254612670682471
0.0028589068803598
0.00314925489706745
0.00341235319989521
0.0036434556517007
0.00383910598990476
0.00399910743832012
0.00412654286068661
1.40922040900064e-07
3.11141736047284e-05
0.000190071858551563
0.000434092668019263
0.000724336424653193
0.00104120248636579
0.00137300346939261
0.00171101033581026
0.00204756085902689
0.00237591981295186
0.00269030597451092
0.00298575333022452
0.0032578446481611
0.00350227479303305
0.00371476555144481
0.00389229168802899
0.0040350271488537
0.00414638687353356
9.33312609313174e-06
0.000189423703358538
9.97818676742128e-06
0.000193534125549547
0.000567353433659358
1.02940161576236e-05
0.000198787525282641
0.000571660561394809
0.00101802229495443
1.0009575668431e-05
0.000201249952570096
0.000576776564287334
0.00101848548910028
0.00147353473506104
9.2970093707145e-06
0.000198657803699868
0.000577433568429986
0.0010175976049423
0.00146817063227951
0.00190278201132144
8.43234546500132e-06
0.00019186740936127
0.000570202448861953
0.00101090942415062
0.00145851825516739
0.00189100973849025
0.00229325969929787
7.53719462489958e-06
0.000182822501244935
0.000555576345341079
0.000995239629194732
0.00144122981421388
0.00187191792552077
0.00227558050826046
0.00264175641595737
6.62335013916798e-06
0.000172580545480545
0.000535799977023474
0.00097050276360998
0.00141399504853654
0.00184303943414866
0.00224777736556241
0.00261883978208676
0.00294930305550452
5.69327334518671e-06
0.000161345489573558
0.000512400463708032
0.000938243191767942
0.00137654937140382
0.00180285306246609
0.0022078429671923
0.00258336975930406
0.00292139055828411
0.00321830833113489
4.76111966907356e-06
0.000149065557114133
0.000485857776900632
0.000899688038442807
0.0013297002662421
0.00175114169034566
0.0021546843883611
0.00253331438867771
0.0028788440199143
0.00318521485696416
0.00345127290798022
3.85027911645008e-06
0.000135693318284383
0.000456220456911393
0.000855305063777716
0.00127410699972418
0.00168823088790178
0.00208819525904658
0.00246767244066009
0.00281928552385971
0.00313565341555767
0.00341258080357218
0.00365042029431227
2.98907844030386e-06
0.000121246191815107
0.000423357837805638
0.000805116590864232
0.0012099438196208
0.00161428962450409
0.00200852397669971
0.00238646466157543
0.0027416036951702
0.00306679094524609
0.0033557442250023
0.00360562083066361
0.00381768991140766
2.20467557409118e-06
0.000105790581766679
0.000387069555212307
0.000748826886467132
0.00113701038187206
0.00152914451412713
0.00191557356740228
0.00228989726172191
0.00264594687558726
0.00297732833133592
0.00327750140694621
0.0035411072930387
0.00376624019658698
0.00395479087385619
1.51408287847387e-06
8.93721911646547e-05
0.000347057116999737
0.000685850143830349
0.00105472418634929
0.00143231731090376
0.00180893272993596
0.00217783484622249
0.00253270878904426
0.00286753866115055
0.00317637147062036
0.00345327115486453
0.0036935970224312
0.00389612650300165
0.00406323492151949
9.24566235841955e-07
7.18737913704221e-05
0.00030273254894285
0.000615229176496666
0.000962079581544703
0.00132296043501432
0.0016879323534652
0.00204979649605793
0.00240187717563328
0.00273806241748754
0.00305275854307957
0.00334050085267086
0.00359589506163099
0.00381487686622533
0.00399676404615202
0.00414434249639871
4.57751284123052e-07
5.29773207357352e-05
0.000252905090123555
0.000535385671116636
0.000857545209044469
0.001199801814706
0.00155160004431693
0.00190507378934734
0.00225305797911809
0.00258911138523359
0.00290757795187111
0.00320335191442865
0.00347146035507173
0.00370700302322428
0.00390640393392405
0.00406943682153671
0.00419923960771281
1.54189821878164e-07
3.27255657764426e-05
0.000195567043939375
0.000443818110426968
0.000738890732942566
0.00106109190260492
0.00139864450635904
0.00174275619455961
0.0020856592715463
0.00242049181347607
0.00274132496521763
0.00304303241471463
0.00332102875266943
0.00357083735873831
0.00378801500384145
0.00396941891589098
0.00411521846220312
0.00422884840068685
2.67196132839992e-08
1.3055981786936e-05
0.000128451449749411
0.000337385588926222
0.000603229302480759
0.000904588176262431
0.00122746801969435
0.00156175962596496
0.00189899141244145
0.00223184680927094
0.00255406885727778
0.00286033426630887
0.0031460940316873
0.00340730609733305
0.00363997944660749
0.00384009744131413
0.00400490690279862
0.00413490788453724
0.00423383287580602
1.00806950649884e-05
0.000194490675506161
0.000569395069868833
1.04209115857525e-05
0.000199955987111533
0.000574137013850186
0.00102179560653549
1.01570631197527e-05
0.000202636612573572
0.000579718162924644
0.00102297074734278
0.00147944616399975
9.45567829649302e-06
0.000200242554659085
0.000580842505248989
0.00102281398580681
0.00147507834920886
0.00191120355888747
8.59679579307791e-06
0.000193624279385113
0.000574056347226752
0.00101685575536803
0.00146643270388429
0.00190071923523471
0.00230455597494585
7.70449503916318e-06
0.00018473670837394
0.000559845766629986
0.00100189421226744
0.00145014455413663
0.00188291995826577
0.00228846951777645
0.00265630292500016
6.78926037370389e-06
0.000174651502956938
0.000540468174803978
0.000977834851691271
0.00142388383683426
0.00185531959524517
0.00226226051412868
0.00263530312149933
0.00296749877728612
5.85126480473424e-06
0.000163524801886344
0.000517436352360572
0.000946214350719181
0.00138736920394201
0.00181637459930163
0.00222389766769363
0.00260175194006443
0.00294185091504421
0.00324058059959355
4.90758219556193e-06
0.000151310360194816
0.000491203250324108
0.000908237895139087
0.001341388082261
0.00176584494367715
0.00217226051720053
0.00255358611890214
0.00290157713937437
0.00321012985994063
0.00347808140388064
3.98154375239717e-06
0.000137973510889207
0.000461779419265851
0.000864350084866688
0.0012865774365644
0.00170403153458181
0.00210721495674646
0.00248976916287646
0.00284425754684095
0.00316322993838665
0.00344244741884394
0.00368225989928573
3.10201416907364e-06
0.000123526470543334
0.000429067875832889
0.000814529288926984
0.001223083229207
0.00163107471044388
0.00202887892108707
0.00241028730253562
0.00276873487787345
0.00309699287816248
0.00338870212467389
0.0036409776073349
0.00385509135614265
2.29716103637466e-06
0.000108029071460097
0.000392857016267668
0.000758496671331191
0.00115065529983557
0.00154676067427878
0.00193711654205321
0.00231530765488144
0.00267511321692441
0.00301006018286872
0.00331351472014651