/*--------------------------------*- C++ -*----------------------------------*\
  =========                 |
  \\      /  F ield         | OpenFOAM: The Open Source CFD Toolbox
   \\    /   O peration     | Website:  https://openfoam.org
    \\  /    A nd           | Version:  12
     \\/     M anipulation  |
\*---------------------------------------------------------------------------*/
/*   Windows 32 and 64 bit porting by blueCAPE: http://www.bluecape.com.pt   *\
|  Based on Windows porting (2.0.x v4) by Symscape: http://www.symscape.com   |
\*---------------------------------------------------------------------------*/
FoamFile
{
    format      ascii;
    class       volScalarField;
    location    "500";
    object      omega;
}
// * * * * * * * * * * * * * * * * * * * * * * * * * * * * * * * * * * * * * //

dimensions      [0 0 -1 0 0 0 0];

internalField   nonuniform List<scalar> 
10116
(
2.46684080289412
2.46683937620765
2.38167915593664
0.588301488086821
2.46684296055528
2.38166561584907
0.592606985805699
2.28699598870675
0.574095463546015
0.308960907901382
2.46683873864376
2.38168115142711
0.596534287939591
2.28698408871966
0.578305692235594
0.312210343234674
2.21611155685982
0.55659439118645
0.305067383460492
0.219983265984677
2.46684018393712
2.3816768863936
0.600141908999888
2.28699529407819
0.582169793715363
0.315188407549369
2.21610866980698
0.560698762342195
0.308264640094686
0.222538647717405
2.18722004162014
0.542461489452171
0.299424675771174
0.218634595086102
0.179833170547351
2.46684036137273
2.38167831457462
0.603449084772114
2.28700715071431
0.585726863471809
0.317926290439452
2.21610777623832
0.56447926837798
0.311209247608057
0.224885039232707
2.18721680669061
0.546463721015378
0.302552954343972
0.221154405249953
0.181964351192454
2.18619056140802
0.534253967197656
0.29397547254007
0.21633473855506
0.179323251377455
0.158317372688788
2.46684027355081
2.38167882394126
0.606477383324556
2.28699488805213
0.588988238413237
0.320442323862802
2.21611981621152
0.567963002347013
0.313920714198613
0.227047591391408
2.18721638577025
0.550158752854347
0.305447155160612
0.223482330087435
0.183930481094659
2.18618866139388
0.538173145111357
0.297034311856143
0.218809994686812
0.181427878402059
0.160171093154536
2.19192356688865
0.529852383060565
0.289702845162069
0.213674766906157
0.178243560213165
0.158119229807543
0.145635366040204
2.46683995439073
2.38167884349941
0.609246024621717
2.28699535625915
0.591971091196786
0.322753060534796
2.21610859319903
0.571157125533429
0.31641203706809
0.229040773695587
2.18721731502461
0.553566232997671
0.308116644942555
0.225631318210525
0.185750291359699
2.18619094853945
0.54179966323616
0.299873291198747
0.221107885955756
0.183382779273818
0.16189055577501
2.19192438861071
0.533704255373528
0.292701997533563
0.216106438969494
0.180316764221115
0.159951349462227
0.147294016957297
2.19484406644401
0.526013829200313
0.286286184991496
0.211085979483763
0.176766502569072
0.157541303109042
0.14554590313794
0.13773908544222
2.46683978504417
2.38167839094607
0.611781508326227
2.28699536226502
0.594695449534429
0.324869907891441
2.21610912826935
0.574078354695709
0.318697988939401
0.230874010718496
2.18721854171178
0.556692208820394
0.310570800424294
0.227612221532544
0.187432754682575
2.18619249795843
0.545146588714151
0.302495509979579
0.223233519163356
0.18519517847016
0.163489620375337
2.19192763990854
0.537276523489235
0.295491420685085
0.218369957136383
0.182252446068019
0.161663124801811
0.148841349203267
2.19484900882524
0.529798083885686
0.289234215382518
0.213479605932207
0.178810432630352
0.159349189777677
0.147185499909879
0.139252620888024
2.19511644958611
0.521076971559928
0.282933377600718
0.208605668987541
0.175081747220754
0.156623103254286
0.145176689736683
0.137682971571488
0.132682860001912
2.46683990677036
2.38167804636786
0.614091395123397
2.28699488697729
0.597182329250353
0.326804147550802
2.21610902010285
0.576745256973919
0.32079331691589
0.232554736029117
2.18721893297476
0.559551474074701
0.312820390936893
0.229434646492095
0.188983807372907
2.18619332334242
0.54821965328881
0.304908244832845
0.225193731239341
0.186871838818169
0.164973544667666
2.19192922591298
0.540576588515643
0.298070839526899
0.220467283676269
0.184050985504269
0.163258043015584
0.150287588559232
2.19485127197041
0.533316872831772
0.291980822903996
0.215710431084197
0.18072382126781
0.161047619692763
0.148726851076378
0.140672877653574
2.19512173051142
0.524782076332459
0.285831834912391
0.210966266771705
0.177100977109548
0.158410070801226
0.146796081210924
0.139178807328336
0.13408394711958
2.19479106206845
0.514851926854667
0.279136654480696
0.206054307796215
0.173285121970545
0.155458375191627
0.144535154578976
0.137402764019486
0.132638620978594
0.12943088278574
2.46684022002074
2.38167802958593
0.616179696628891
2.28699449508457
0.59945956815374
0.328563842319271
2.21610859564203
0.579174881255091
0.322707167026033
0.234089876944248
2.18721863028617
0.562159671917821
0.314882236787058
0.231105759731612
0.190408408718894
2.18619296407863
0.551030500653298
0.307119576826977
0.226997491955064
0.188418015748596
0.166345797010372
2.19192935559213
0.543608434597443
0.300446186672679
0.222402897353846
0.185716218009936
0.164739178044845
0.15163526621265
2.19485490421041
0.536571147903234
0.294523151091957
0.21777973873448
0.182504832791609
0.162633855977565
0.150170513358801
0.142007136018809
2.19512424883346
0.528239049053209
0.288537518981999
0.21316773252597
0.178992996691232
0.160093383940202
0.148327318989824
0.140593929559705
0.13540632581309
2.1947964491521
0.518462952928987
0.281981694978089
0.208384218342522
0.175283785591155
0.157229375121194
0.146138764654257
0.138880755960119
0.134022805419324
0.130742306016038
2.19479622405428
0.507537852066711
0.274747849124671
0.20328197051879
0.171384102362168
0.154143333272197
0.143684939489799
0.136910540611082
0.132404755835903
0.129395388113576
0.127385116972715
2.46684052630004
2.38167823826378
0.61805258529674
2.28699438130914
0.601523274868412
0.330154130488168
2.21610826886637
0.581394343589182
0.324449595798276
0.235485455216686
2.18721838558272
0.564534275948714
0.316764816766284
0.232632089773759
0.191711186175001
2.18619245882425
0.553592863122403
0.309142792428734
0.228651825609133
0.189838363672439
0.167609439141438
2.19193017652708
0.546382464044705
0.302624003801887
0.224183753243375
0.187252663088721
0.166109280168536
0.152885898629966
2.19485246846861
0.539563185001607
0.296866222506878
0.219691001777446
0.184155032105627
0.164108567765482
0.151516781802145
0.143255850581829
2.19512998790003
0.531441695722142
0.291044606729785
0.215211317532431
0.180755912637314
0.161668353270844
0.14976519798422
0.141926340053437
0.136654961082806
2.19479898194182
0.521847242841187
0.284643956943261
0.210558304106754
0.177156924506409
0.158898934239681
0.147659319700893
0.140287622154033
0.135340554431154
0.131987005727871
2.19480165421141
0.511040249510929
0.27753368830603
0.205581405612871
0.173365181581424
0.155902816486819
0.145278571836194
0.138376091457788
0.133772637615109
0.130690466854066
0.128623744798072
2.19511835084351
0.499212174085947
0.269775973167584
0.200238460200403
0.169369395094276
0.152743968733242
0.142715555128678
0.13626684808633
0.132007839872597
0.129195023627563
0.127359239881038
0.126174279501724
2.46684067564232
2.38167846466504
0.619718606397314
2.28699446389101
0.603375217892974
0.331580099410424
2.21610812657094
0.583412107598603
0.326025628126298
0.236746454293196
2.18721828147891
0.566692266240749
0.318478364650629
0.234019843764656
0.192896467015402
2.1861925995857
0.555924078746193
0.310990707522225
0.230162875419586
0.191137339971735
0.168767460315153
2.19192560145426
0.548911104496715
0.304613136152046
0.225817265808321
0.188664498981466
0.167371140881794
0.154040982848233
2.1948527181049
0.542302715045693
0.299015412377811
0.221449009381813
0.185678421267702
0.165473517948028
0.152766489865307
0.144418894667866
2.19512531012005
0.534387873047553
0.293357126890724
0.217100028796861
0.182390323312925
0.163134069946809
0.151107695668252
0.143174269271162
0.137828582646524
2.19480477306468
0.524989349321716
0.287114410506091
0.212577726894268
0.178903113400217
0.160462537229325
0.149089840316415
0.141615926039776
0.136587734447722
0.133168079890592
2.19480411277543
0.514340756672925
0.280148535636501
0.207728495767899
0.175221808031859
0.157561366025844
0.146790646557911
0.139775153870105
0.135083354609034
0.131930891437431
0.129805541157914
2.19512371954644
0.502590448546183
0.272496249849499
0.202506768699013
0.171335103727296
0.154495757804955
0.144304492352403
0.137726748786899
0.133365660021134
0.130474924952732
0.128581949061863
0.127353229985845
2.1948478584119
0.489786155873516
0.264257867160873
0.196950406421222
0.167262471541331
0.151310433309273
0.141708735488521
0.135557198396819
0.131514745047225
0.128870602315046
0.127188594129232
0.126158662401974
0.125552603316583
2.46684064221503
2.38167856149577
0.621186361243041
2.28699458411622
0.605022651649279
0.332847451198169
2.21610811195761
0.585225903383452
0.327439473049379
0.237877412744081
2.18721813548526
0.56865930682452
0.320029767540748
0.235274069515412
0.193968239208122
2.18619290281801
0.558039540606549
0.312671413071492
0.231536814472478
0.192319238685191
0.169822872540541
2.19192819025174
0.551209544783063
0.306428559566653
0.227309538841658
0.189955895859777
0.1685276310479
0.155102215079992
2.19484585270533
0.544800782825196
0.300977634915559
0.223061464585002
0.18707876272291
0.166731033483185
0.153920893469184
0.145496452124598
2.1951233359375
0.537087886945374
0.295479661036568
0.218837647673105
0.183899505179021
0.164491582687554
0.152354637551964
0.144336939093541
0.138925692892274
2.19480015470226
0.527882301834231
0.289395108675865
0.214445184745724
0.180522761656521
0.161918464587626
0.150427007861995
0.142861561508293
0.137760905827931
0.134282837470005
2.19480992350875
0.517412996392753
0.282579227841558
0.209724196806322
0.17695300442547
0.159115092043355
0.148214415854392
0.14109871141172
0.136327495704928
0.133110790407721
0.130932131717878
2.19512596666166
0.505794940593642
0.275059461022276
0.204626556335113
0.173177161936832
0.156146343288875
0.145811573124163
0.139121185359349
0.134670642926024
0.131709245327502
0.129759758586007
0.128483474301375
2.19485291589123
0.493019455787961
0.266907056167615
0.199187328286425
0.169214993671601
0.153058184009117
0.143297793403074
0.137017729912333
0.132870243798433
0.130142292104111
0.128397019620429
0.127322025917898
0.126682472694408
2.19192765331609
0.479022733996911
0.258239720377759
0.193503098907956
0.165135806002194
0.149909498119869
0.140740034420466
0.134866177002014
0.131010484059517
0.1284974858016
0.126925489355869
0.126015649021979
0.125547066832109
0.125348803802996
2.46684050039522
2.38167850858917
0.622463546271142
2.28699462096519
0.606473714379373
0.333961951286217
2.21610814042867
0.586839901792727
0.32869629475197
0.238882705668123
2.18721799056135
0.57043201497919
0.321422824258963
0.236399180236705
0.194930246997397
2.18619273279667
0.559955930699676
0.314194078635513
0.232778959630681
0.193388044346005
0.170778643872887
2.19193103762335
0.553294090889864
0.308079742179677
0.228666368711278
0.191131036556883
0.169581697839196
0.156071520961593
2.1948509122686
0.54707076047568
0.302764009612684
0.224534484769697
0.188359938522361
0.167883755989103
0.1549815849564
0.146489141003479
2.19511801965706
0.539551203703598
0.297418157178704
0.220430214300138
0.185287187995918
0.165742749508228
0.15350684312477
0.145414304171007
0.139945359241103
2.19479808419679
0.530535019079736
0.291489988773337
0.216163926004911
0.182018173586095
0.163267589898199
0.151669833827049
0.144022776581465
0.138857935057472
0.135328626116409
2.19480540488336
0.520245312927672
0.284825822886836
0.211570808268093
0.178559171080088
0.160562134847433
0.14954615820481
0.142341373662045
0.137499309573086
0.134225338468266
0.131999659931753
2.19513163075226
0.508787701795379
0.277447136895104
0.206598441091934
0.174894980774121
0.15769245162972
0.147230787894823
0.140441431893002
0.135911923707462
0.132886902313348
0.130885412996608
0.129565507013377
2.19485255486382
0.496114969489124
0.269414551442327
0.201279635054265
0.171044378452454
0.154703935398147
0.144803768577147
0.138411916102486
0.134173580752022
0.1313725148987
0.129569483175897
0.12844853130288
0.127770221808868
2.19193032253663
0.48208265315172
0.260812322753129
0.195709973931041
0.167078017832814
0.151657226779962
0.142334095758088
0.136333198311902
0.132370932856555
0.129769551736693
0.128127208288911
0.127165459194
0.12666159676128
0.126438344415287
2.18619316583205
0.466619038184917
0.251825021209061
0.190062225465987
0.163132244381547
0.14865368010303
0.139903808387149
0.134280628402194
0.130580015327829
0.128162467967174
0.126653291061033
0.125806515597759
0.125429406825666
0.125352627900634
0.125438850002851
2.46684034403216
2.38167837977611
0.623557325781321
2.28699455104593
0.607736270521336
0.334929112001674
2.21610812019581
0.588261458135873
0.329801734561412
0.239766580356155
2.18721795804653
0.572011757857191
0.322661769706338
0.237399416452107
0.195786069639659
2.18619237837851
0.561692147226853
0.315563014108144
0.233893661399255
0.194347476073278
0.171637726729807
2.19192892420189
0.555176266153827
0.309574294218486
0.22989337972431
0.192193899607683
0.170536298816594
0.156951021201926
2.19485649617563
0.549126680379297
0.304389221782324
0.22587384520392
0.189525942579547
0.168934518940432
0.15595044299767
0.147397999515751
2.19512317259869
0.541790658544718
0.299180527031815
0.221884778744392
0.186557033291992
0.166889942366359
0.154565703878744
0.146406887403113
0.140887281568688
2.1947923848653
0.532957643789111
0.293404148223506
0.217738319574853
0.183393317489553
0.164511469841537
0.152818687986163
0.145099112674782
0.139877667406075
0.136303560058233
2.19480323613488
0.52284373519736
0.286890724090692
0.213271106658839
0.180042151541369
0.161903243287443
0.150784562830636
0.143500582740774
0.138595711675046
0.135271257788185
0.133004506162991
2.19512717403219
0.511550818862117
0.279656864888072
0.208424209751609
0.17648903004587
0.159132427288996
0.148558381129665
0.141681835923049
0.137082441826633
0.134000792656021
0.131952941521552
0.130594534500793
2.19485558276338
0.499017469789457
0.271756394003095
0.203227794512597
0.172750512982353
0.156245011583464
0.146221374610367
0.139731801294703
0.13541426660589
0.132548784845804
0.130693555648937
0.129529842765201
0.128815516600825
2.19193053319912
0.485051161684997
0.263261082967303
0.197775430693994
0.168897174818736
0.15330162944477
0.143843158009311
0.137731931584299
0.133677901357671
0.13100056134989
0.129296940876763
0.128287257624591
0.1277458172819
0.127491008649535
2.18619326213848
0.469464083523015
0.254313639997995
0.19224121790693
0.165067920382354
0.150406274822224
0.141508355531566
0.135760141659648
0.131952268003474
0.129443081972408
0.127857635585105
0.12695087344351
0.126530974438626
0.126427003898749
0.126495367585713
2.1872225768608
0.452786626403419
0.245318607457381
0.186948928093976
0.16150652412328
0.147732745966775
0.139342398547453
0.133911981878128
0.130316084162338
0.127951163600845
0.126461554894453
0.125621431234069
0.125268074317208
0.125257724053845
0.125451088461788
0.125730438552548
2.46684022555632
2.38167825929687
0.624473708945848
2.28699443818413
0.60881763746343
0.335754040191299
2.21610802160031
0.589498259857312
0.330761290252901
0.240533153286743
2.18721794616756
0.573403561685261
0.323751781163601
0.23827893612947
0.196539174706066
2.18619237164844
0.563243705519678
0.316781742198144
0.234884942076941
0.195201076593388
0.172403082551404
2.19192635636024
0.556872774992565
0.310919641665008
0.23099505166892
0.193148173258604
0.171394382024268
0.157743009895233
2.19485263827251
0.550980239240523
0.305859109091155
0.227084975625004
0.190580735090617
0.16988623660882
0.156829570785887
0.148224427103291
2.19512727738939
0.543816391988667
0.300779093666047
0.223207383278906
0.187712882090779
0.167935847030439
0.155533001188021
0.147315684003901
0.141751739781564
2.19479722313122
0.535161218487262
0.295144429416617
0.219175377343709
0.184651821142919
0.165652256409207
0.153874724737047
0.146090908408129
0.140819711924748
0.137206547223688
2.19479727009853
0.525219082684317
0.288778763814806
0.214828817538726
0.18140548306988
0.163139965422156
0.151929715215929
0.144575455418696
0.139615148913157
0.136246444967419
0.133943973135651
2.19512508842636
0.514089202432186
0.281689845469824
0.210106146487085
0.177960997762505
0.160466692855421
0.149793183530451
0.142839473883227
0.138178331153764
0.135046704518662
0.132958105155536
0.131566138490035
2.1948532106827
0.50170174354374
0.273927037460918
0.20503295295721
0.174333973461519
0.157680042157379
0.147547114689938
0.140971945758777
0.136584976883138
0.133662693152057
0.131761011443559
0.13055906293614
0.12981283348156
2.19192744641621
0.487850609584661
0.265555258642971
0.199700831088178
0.17059388655231
0.154840710334776
0.145262651521821
0.139055231466887
0.134921711673495
0.132178464774824
0.130420851805976
0.129367556505939
0.12879058149006
0.12850589070409
2.18619471361911
0.472282982348293
0.25670160021675
0.194282383439116
0.166880567550491
0.152053682776524
0.143025288530464
0.137168597962712
0.133268536748634
0.130680973215335
0.129030208977536
0.128071095638376
0.127611027335698
0.127476312760903
0.127519099204268
2.18721940471083
0.455361393617347
0.2477142767171
0.189104578478555
0.163442237608092
0.149496724771597
0.140964032831531
0.1354107321325
0.131707176699619
0.129248086474231
0.127677486480757
0.126770303148903
0.126365233362188
0.126319604696372
0.126492556914028
0.126760050810612
2.2161134346418
0.439711406052093
0.239673683260416
0.184837677128882
0.160725794531758
0.147468568059101
0.139281804234139
0.133923995368542
0.130341294914837
0.127960228489806
0.126437069783258
0.125552837689451
0.12515887000195
0.125138500740418
0.12537626135266
0.125750110070769
0.126153477575332
2.46684015387546
2.38167818723332
0.625217879016452
2.28699435520286
0.609723888042349
0.336441761571758
2.21610791189308
0.590557834312132
0.33157962147371
0.241186355831337
2.18721777354698
0.574614655897106
0.324698039754881
0.239041797122667
0.197192942622193
2.18619245982691
0.564612844943399
0.317854608079417
0.235756786895942
0.195952278871603
0.173077625745714
2.19192844307735
0.558398459260576
0.312119227500462
0.231975254246258
0.193997336817814
0.172158880618524
0.158449877207273
2.19485008024361
0.5526411389192
0.307181144912868
0.228172856206326
0.191527999981169
0.170741829174665
0.157621243319226
0.148970114375162
2.19512818885931
0.545639029753433
0.302225085701061
0.22440313946981
0.188758606213617
0.168883311880583
0.156410792067712
0.148142075183807
0.142539499127007
2.19479932936694
0.537154512160613
0.29671858155067
0.22048145075719
0.185797447278156
0.166692500987119
0.154839600244429
0.146999072373944
0.141684308233712
0.138037205687824
2.19480176472533
0.527381163857736
0.290495908388852
0.216248896216754
0.182653129092164
0.164274368050012
0.152982586443444
0.14556611524907
0.140557056166089
0.137149720068001
0.134816284849189
2.19511913237263
0.516410682921822
0.2835498440393
0.21164752310949
0.179313615526777
0.161697115655979
0.150935200901567
0.14391320026201
0.139197634184538
0.136022145923545
0.133897991516443
0.132476937928719
2.19485171209349
0.504171835929785
0.275926222974693
0.206696859161529
0.175796353490843
0.159009413496827
0.148780000025391
0.142129479595314
0.137681488690181
0.134709262197218
0.132766688341115
0.131531157213081
0.13075711116522
2.19192862319553
0.490445865837119
0.267685724346799
0.201486546474774
0.172168866743187
0.156273471161837
0.146589518606671
0.140297998417145
0.136095341369692
0.133294564669816
0.131489422423929
0.130397214788307
0.129788264844529
0.129476922043508
2.18619094240793
0.474964277880799
0.25894776901477
0.196187534257365
0.16857138231106
0.153594684614672
0.144450832894398
0.138499653372478
0.134519995861405
0.131864959029827
0.130157625463649
0.129152278468079
0.128655271667708
0.128490828692161
0.128508772234709
2.18721884687694
0.458001341816788
0.25004223000239
0.191126962418344
0.165254470500664
0.151153147603988
0.142494723398001
0.136834819481427
0.133038833861417
0.130499336055884
0.128859705716286
0.127895117379741
0.127444684598421
0.12736519456444
0.127513071436726
0.127760001693746
2.21610968677025
0.441903353081485
0.241970554037664
0.186979160564169
0.162672260604668
0.149253509978742
0.140929149900378
0.135450046668584
0.131759087310911
0.129281428471811
0.127673149801569
0.126715869561431
0.126262127316121
0.126196829905211
0.126405592180718
0.126764741084923
0.127161341153262
2.2869972684867
0.434554151220729
0.237822541271978
0.185284944005615
0.161701186521251
0.148428640555279
0.140092922537633
0.134569722718291
0.130834766614234
0.128320101868761
0.126679538291981
0.125688893311516
0.125196834146761
0.12509544307013
0.125293859362695
0.125692795529758
0.1261796638306
0.126653823463454
2.38167816861927
0.625797994733111
2.28699432764512
0.610459083556177
0.3369964393591
2.2161078606209
0.591446028205601
0.332261462625195
0.241729950793797
2.18721759841153
0.575652420503941
0.325505018555452
0.239691891109339
0.197750626146696
2.18619214144988
0.565804867219773
0.318786218194068
0.236513105503319
0.196604432541592
0.173664257593385
2.19193069383333
0.559749208654864
0.313176469245389
0.232837721041015
0.194744754461494
0.172832701416282
0.159074099973402
2.19485224688886
0.554131517677191
0.308361921108773
0.229141434222581
0.19237116666323
0.171504195745264
0.1583278492547
0.149636989855814
2.19512591424171
0.547268588324515
0.303523828589171
0.22547710182188
0.189697942458817
0.169735223473546
0.157201322455906
0.148887747040958
0.143251753601023
2.19480698275924
0.538944642075613
0.298137974138153
0.221662027647276
0.186833959309309
0.167634980022114
0.15571530764919
0.147824944485624
0.142472211846414
0.138795764104116
2.19480358136484
0.529337532429499
0.292048601436492
0.217538738408586
0.183788819761676
0.165308920659966
0.15394472600995
0.14647336238331
0.14142159378268
0.13798066437023
0.135620486421208
2.1951233616461
0.518525385419399
0.285242551106598
0.213052609980879
0.180551129049605
0.162825796484247
0.151985328928158
0.144902983399
0.140139586760345
0.136925769647667
0.134770738745306
0.133324576538107
2.19484823000087
0.506433344307459
0.277757231995706
0.208222431889173
0.177140151992175
0.160234952387596
0.149920199490558
0.143203211245297
0.138701603936928
0.135685609890817
0.13370729179706
0.132442531574438
0.131644408126232
2.1919282280851
0.49283720150508
0.269650631779778
0.203133669713307
0.173623663738756
0.157600449324051
0.147822847726731
0.141457713591981
0.137194602907058
0.134343543797707
0.132496736378335
0.131370280273577
0.130733191257104
0.130398545301352
2.18619182441514
0.477457703559492
0.261038789331194
0.19795660880759
0.170141241990532
0.155028731431856
0.145782451555588
0.139748709135326
0.135700119340292
0.132986649238404
0.131230073332326
0.130183994156492
0.129653841310094
0.129462379977045
0.129457935168528
2.18721766922195
0.460546244617139
0.252243894711841
0.193017757485728
0.166945152526962
0.152701579465606
0.143931586260039
0.138178783751648
0.13430310462797
0.13169462334963
0.129995735507836
0.128981403513231
0.128490708529439
0.128379611628147
0.12850251622594
0.128728792666907
2.21610871984906
0.444315041198359
0.244245884307823
0.188993935280281
0.164494327281706
0.150927815315136
0.142481424790189
0.136896947979861
0.133113034470253
0.130552946092731
0.128872209252206
0.127852698469586
0.127347656802083
0.127242634407463
0.127422752592636
0.127761580873753
0.128141864587227
2.28698419106163
0.43613434530785
0.240012445780583
0.187432082041494
0.163676413756734
0.150249054527543
0.141777988284764
0.136133380691299
0.132288587904149
0.129674425794378
0.127944561743055
0.126875343322662
0.1263164189941
0.126161189031535
0.126320328574281
0.126695553467174
0.127172573883569
0.127644424806903
2.38167969099607
0.471051003262708
0.249643107087629
0.192290797331336
0.166377808416883
0.15167866460298
0.1424129245579
0.136255776721236
0.132069558143266
0.129221121759388
0.127325204633455
0.126131803305105
0.125471414745177
0.125225783365025
0.125308310646191
0.125642379296835
0.126137532405298
0.126685739947565
0.127188596564225
2.28699435779735
0.611030027003477
0.337425473629966
2.21610786296679
0.592165393506379
0.33281105308967
0.242167750537991
2.18721763936476
0.576522243819032
0.326177172027718
0.240232921190986
0.198215353184449
2.18619183029496
0.566826408751034
0.319580799217251
0.237157661698568
0.197160786430454
0.174165769308017
2.19192815865758
0.560927066157357
0.314095225280221
0.233586138054367
0.195393702104847
0.173418724197819
0.159618175599569
2.19485451046682
0.555459902337622
0.309404483253477
0.229994243151744
0.193113514495806
0.172176208382698
0.158951858536251
0.150227153273875
2.19512590061767
0.548718720538933
0.304683400497618
0.226433821173445
0.190534334462754
0.170494447315346
0.157906960794375
0.149554621608913
0.143890013282147
2.19480490985426
0.540541501396803
0.299412543379809
0.222721926062257
0.187765096980994
0.168482556822414
0.156504057069717
0.148570188742793
0.143184603247363
0.139482956521773
2.1948049626262
0.53109517979706
0.293443515504691
0.218703816507031
0.184816304848757
0.166246343105419
0.154818069369527
0.1472984824819
0.14220948287295
0.138739492056157
0.1363563302936
2.1951248445159
0.520439271760318
0.286773586707082
0.214326614709382
0.181677421310807
0.163855178066663
0.152945066684328
0.145809539468529
0.141004253568138
0.137757083701678
0.13557535661586
0.134107604724945
2.19485011945575
0.508494065331887
0.279424550728015
0.209613543293147
0.178368703578861
0.161359059914789
0.150968661721347
0.14419306629166
0.139644424169076
0.136590201521137
0.134580797570247
0.133290743856602
0.132471878775198
2.19192921889522
0.495029837501901
0.27145182753052
0.204644744189093
0.174960642286977
0.158823253972049
0.14896318615651
0.142533321368843
0.138217274394629
0.135322297190953
0.133439118737605
0.132282780067932
0.131621207312421
0.131266356301471
2.18619271536672
0.479758989057826
0.26297042019401
0.199589947358357
0.171591640168089
0.156356581679176
0.147019507371041
0.140913617765162
0.136805038801837
0.134040771955598
0.132241307425943
0.131159542906107
0.130600143230743
0.130384793531057
0.130360632429092
2.18721426789469
0.462922650974498
0.254299624531553
0.194775997044656
0.168515465657951
0.154142002902778
0.145272698650432
0.13943865736146
0.135494033710257
0.132826124898573
0.131076055023216
0.130018441566209
0.129492150876167
0.129352437396769
0.12945233093602
0.129659674413439
2.21610684513456
0.446697907053711
0.246414435104978
0.1908821993492
0.166194761536831
0.152491909328544
0.143936729571193
0.138260238334913
0.134396142965355
0.131765416114578
0.130022705273531
0.128949765959309
0.12840015101953
0.128259593443493
0.128412451250403
0.128730253154188
0.12909333776614
2.28700717368183
0.438212211746327
0.242256535143801
0.189461937360737
0.165525919804248
0.151955019182542
0.14336291975625
0.137612426050085
0.133673128441396
0.13097399369499
0.1291681043192
0.128032001693023
0.127415986040976
0.127214322781781
0.127338377405352
0.127689325392009
0.128150053428159
0.128609248369365
2.38166628498341
0.471940430273367
0.251711126087706
0.194481866329994
0.168413225932131
0.153557837292262
0.144153350433387
0.137871033708383
0.133571109303308
0.1306189888888
0.128628893806599
0.127351190090477
0.126617187804858
0.126309670433769
0.126343280978356
0.126642819137962
0.127118750142759
0.127661363411789
0.128166534437048
3.68516441843931
0.796523433562719
0.322006112759825
0.217890585344851
0.179407105575702
0.159405831350174
0.147410370238988
0.139668583097849
0.134478493826465
0.130951171799467
0.128572802862842
0.127022276596989
0.126086863987319
0.12562004737323
0.125518654949696
0.125706641863919
0.126114765887411
0.126656788327084
0.127225780628869
0.127722009410143
2.21610790843142
0.59272085954282
0.333235479662697
0.242505533188487
2.18721771688427
0.577225368096895
0.326718345659034
0.240668322215471
0.198590216152455
2.18619206547132
0.567682690569758
0.320242517176002
0.237694014543612
0.19762441505493
0.174584807546893
2.19192566944164
0.561937124850598
0.314879120774262
0.23422406239445
0.195947354203682
0.173919766849416
0.160084555384132
2.19485167505948
0.556621874108772
0.310311887056222
0.230734692678141
0.19375821515917
0.172760706602208
0.159495786039512
0.150742764142496
2.19512581305032
0.550008864451007
0.305709294169786
0.227276890472218
0.191271005041477
0.171163813604946
0.158530156691519
0.150144801036152
0.144456009571839
2.19480438151785
0.541957335576525
0.300548367801832
0.223666083842887
0.188594415532768
0.169238082375048
0.157208191418925
0.149236711812546
0.143822999666361
0.140099891677946
2.19480280664187
0.532660262944695
0.294690774392408
0.219749346658101
0.185739283830401
0.16708948330598
0.155604797887857
0.148043110602586
0.142921884662892
0.139426940186068
0.137024098319181
2.1951262419407
0.522160342359776
0.28814859401331
0.215476511771832
0.182696241444596
0.164787961696276
0.153816320908917
0.146634111719246
0.141792311111328
0.138516271206228
0.136311589502909
0.134825289828469
2.19484918081457
0.510360867467448
0.280933482479645
0.210874666074243
0.179486510969746
0.162384238020282
0.151926903267536
0.145099739271999
0.14050994790523
0.137422459527195
0.13538614739503
0.134074311021618
0.133237582529485
2.19192707562473
0.497030595501983
0.273093695702847
0.206023355438905
0.176182885722776
0.159944539111966
0.150011646080038
0.143524823410293
0.139162441514088
0.136229172248921
0.13431436644924
0.133132112482895
0.1324493732701
0.132077060045331
2.18619628736204
0.481872638341418
0.264743477935891