/*--------------------------------*- C++ -*----------------------------------*\
  =========                 |
  \\      /  F ield         | OpenFOAM: The Open Source CFD Toolbox
   \\    /   O peration     | Website:  https://openfoam.org
    \\  /    A nd           | Version:  12
     \\/     M anipulation  |
\*---------------------------------------------------------------------------*/
/*   Windows 32 and 64 bit porting by blueCAPE: http://www.bluecape.com.pt   *\
|  Based on Windows porting (2.0.x v4) by Symscape: http://www.symscape.com   |
\*---------------------------------------------------------------------------*/
FoamFile
{
    format      ascii;
    class       volScalarField;
    location    "500";
    object      p;
}
// * * * * * * * * * * * * * * * * * * * * * * * * * * * * * * * * * * * * * //

dimensions      [0 2 -2 0 0 0 0];

internalField   nonuniform List<scalar> 
10116
(
83333.3309479324
83333.3309448729
83333.3309479678
83333.3309479739
83333.3309416678
83333.3309449069
83333.3309449095
83333.3309480349
83333.3309480131
83333.3309481691
83333.3309382982
83333.3309417015
83333.330941703
83333.330944976
83333.3309449471
83333.330945096
83333.3309481424
83333.3309480836
83333.3309482146
83333.3309486819
83333.3309347529
83333.3309383347
83333.3309383228
83333.3309417737
83333.3309417406
83333.3309418762
83333.3309450892
83333.3309450192
83333.3309451416
83333.3309456092
83333.3309482965
83333.3309481952
83333.3309482926
83333.3309487339
83333.3309495945
83333.3309310293
83333.3309347919
83333.3309347683
83333.3309384115
83333.3309383631
83333.3309384821
83333.3309418929
83333.3309418162
83333.330941923
83333.3309423892
83333.3309452525
83333.3309451362
83333.3309452221
83333.3309456631
83333.3309465402
83333.3309485008
83333.3309483541
83333.330948412
83333.3309488249
83333.3309496432
83333.3309509064
83333.3309271202
83333.3309310705
83333.3309310357
83333.3309348732
83333.330934811
83333.330934916
83333.330938538
83333.3309384427
83333.3309385315
83333.3309389974
83333.3309420655
83333.3309419398
83333.3309420076
83333.3309424449
83333.3309433391
83333.3309454691
83333.3309453042
83333.330945348
83333.3309457586
83333.3309465927
83333.3309478902
83333.3309487555
83333.3309485633
83333.3309485784
83333.3309489555
83333.3309497448
83333.330950949
83333.3309525864
83333.3309230176
83333.3309271637
83333.330927117
83333.3309311566
83333.3309310809
83333.3309311713
83333.3309350072
83333.3309348944
83333.3309349674
83333.3309354358
83333.3309387213
83333.3309385735
83333.3309386199
83333.330939055
83333.3309399712
83333.3309422951
83333.3309421181
83333.3309421414
83333.3309425449
83333.3309433936
83333.3309447286
83333.3309457394
83333.3309455262
83333.3309455245
83333.3309458969
83333.3309467003
83333.3309479367
83333.3309496274
83333.3309490588
83333.330948823
83333.3309487946
83333.3309491311
83333.330949884
83333.3309510515
83333.330952625
83333.3309545973
83333.3309187132
83333.3309230636
83333.3309230043
83333.3309272548
83333.3309271646
83333.3309272389
83333.3309312984
83333.3309311687
83333.3309312251
83333.3309316947
83333.3309352015
83333.3309350321
83333.3309350595
83333.3309354945
83333.3309364356
83333.330938965
83333.3309387627
83333.3309387615
83333.3309391588
83333.3309400266
83333.3309414046
83333.3309425815
83333.3309423541
83333.3309423291
83333.3309426915
83333.3309435069
83333.3309447775
83333.3309465259
83333.3309460609
83333.330945802
83333.3309457544
83333.3309460835
83333.3309468487
83333.3309480475
83333.3309496702
83333.3309517123
83333.3309494079
83333.3309491313
83333.3309490615
83333.3309493561
83333.3309500677
83333.3309511933
83333.3309527216
83333.3309546353
83333.3309569032
83333.330914198
83333.3309187619
83333.3309186891
83333.3309231601
83333.3309230544
83333.3309231112
83333.3309274049
83333.3309272573
83333.3309272954
83333.3309277659
83333.3309315041
83333.3309313139
83333.3309313218
83333.3309317557
83333.3309327216
83333.3309354597
83333.330935232
83333.3309352082
83333.3309356021
83333.3309364913
83333.3309379165
83333.3309392688
83333.3309390135
83333.3309389608
83333.3309393131
83333.3309401445
83333.3309414547
83333.3309432668
83333.3309429221
83333.3309426469
83333.3309425737
83333.3309428898
83333.3309436642
83333.330944895
83333.3309465715
83333.3309486893
83333.3309464305
83333.3309461294
83333.3309460386
83333.3309463231
83333.3309470446
83333.3309481992
83333.3309497744
83333.3309517544
83333.3309541083
83333.3309497995
83333.3309494861
83333.3309493784
83333.3309496331
83333.3309503024
83333.3309513821
83333.3309528607
83333.3309547236
83333.3309569417
83333.3309594718
83333.3309094625
83333.3309142495
83333.3309141624
83333.3309188642
83333.3309187418
83333.3309187803
83333.3309233189
83333.330923152
83333.3309231706
83333.3309236424
83333.3309276227
83333.3309274105
83333.3309273974
83333.3309278298
83333.3309288223
83333.3309317774
83333.3309315251
83333.3309314784
83333.330931868
83333.330932779
83333.3309342537
83333.3309357813
83333.3309354975
83333.3309354189
83333.3309357641
83333.3309366138
83333.330937967
83333.3309398485
83333.3309396296
83333.3309393244
83333.3309392208
83333.3309395236
83333.3309403103
83333.3309415772
83333.3309433137
83333.3309455147
83333.3309433134
83333.3309429942
83333.3309428755
83333.330943145
83333.3309438727
83333.3309450564
83333.3309466824
83333.3309487345
83333.3309511809
83333.3309468446
83333.3309465056
83333.3309463758
83333.3309466186
83333.3309472954
83333.3309484014
83333.3309499243
83333.3309518499
83333.3309541498
83333.3309567809
83333.3309502297
83333.3309498841
83333.330949743
83333.3309499623
83333.3309505919
83333.3309516256
83333.3309530517
83333.3309548579
83333.3309570215
83333.3309595069
83333.3309622685
83333.3309044967
83333.330909517
83333.3309094148
83333.3309143581
83333.3309142178
83333.3309142371
83333.3309190325
83333.3309188446
83333.3309188428
83333.3309193165
83333.3309235496
83333.3309233137
83333.3309232781
83333.3309237096
83333.3309247311
83333.330927912
83333.3309276338
83333.3309275623
83333.3309279474
83333.3309288821
83333.3309304098
83333.3309321176
83333.3309318062
83333.3309317011
83333.3309320385
83333.3309329071
83333.3309343057
83333.3309362607
83333.330936163
83333.330935827
83333.3309356948
83333.3309359869
83333.3309367881
83333.3309380943
83333.3309398957
83333.3309421869
83333.3309400437
83333.3309396928
83333.3309395415
83333.3309397952
83333.3309405318
83333.3309417478
83333.33094343
83333.3309455615
83333.3309481085
83333.3309437512
83333.3309433926
83333.3309432334
83333.3309434597
83333.3309441404
83333.3309452723
83333.3309468426
83333.3309488365
83333.3309512253
83333.3309539644
83333.3309472988
83333.3309469272
83333.3309467631
83333.33094697
83333.3309476052
83333.3309486627
83333.3309501299
83333.3309519953
83333.3309542368
83333.3309568188
83333.3309596948
83333.330950693
83333.3309503216
83333.3309501522
83333.3309503422
83333.330950937
83333.3309519276
83333.3309533019
83333.3309550489
83333.3309571511
83333.330959581
83333.3309623006
83333.3309652643
83333.3308992901
83333.3309045542
83333.330904436
83333.3309096321
83333.3309094731
83333.330909472
83333.3309145366
83333.3309143262
83333.3309143029
83333.3309147792
83333.3309192767
83333.3309190153
83333.3309189558
83333.3309193873
83333.3309204401
83333.330923856
83333.3309235499
83333.3309234518
83333.3309238329
83333.3309247936
83333.3309263786
83333.330928272
83333.3309279312
83333.3309277977
83333.330928127
83333.3309290164
83333.330930464
83333.3309324976
83333.3309325212
83333.3309321549
83333.3309319935
83333.3309322743
83333.3309330906
83333.3309344389
83333.3309363094
83333.3309386963
83333.3309366007
83333.3309362171
83333.3309360352
83333.3309362754
83333.3309370227
83333.3309382741
83333.3309400173
83333.3309422346
83333.33094489
83333.3309405066
83333.330940115
83333.3309399215
83333.3309401302
83333.3309408169
83333.3309419775
83333.3309435998
83333.3309456688
83333.330948155
83333.3309510106
83333.3309442308
83333.330943839
83333.3309436442
83333.330943834
83333.3309444712
83333.3309455518
83333.3309470628
83333.3309489925
83333.3309513188
83333.3309540051
83333.330957003
83333.3309477874
83333.3309473902
83333.3309471974
83333.3309473752
83333.3309479746
83333.3309489868
83333.3309503995
83333.330952202
83333.3309543777
83333.3309568998
83333.3309597296
83333.3309628198
83333.3309511815
83333.3309507937
83333.3309506021
83333.3309507701
83333.3309513364
83333.3309522885
83333.3309536143
83333.3309553033
83333.3309573409
83333.3309597064
83333.3309623704
83333.3309652944
83333.3309684339
83333.3308938314
83333.3308993508
83333.3308992158
83333.3309046762
83333.3309044975
83333.3309044748
83333.3309098216
83333.3309095876
83333.3309095413
83333.330910021
83333.3309147956
83333.3309145066
83333.3309144217
83333.3309148539
83333.3309159407
83333.3309196012
83333.3309192652
83333.3309191389
83333.3309195166
83333.3309205057
83333.3309221523
83333.3309242368
83333.3309238647
83333.3309237006
83333.3309240222
83333.3309249347
83333.3309264352
83333.330928553
83333.3309286985
83333.3309283003
83333.3309281073
83333.3309283765
83333.3309292098
83333.3309306037
83333.3309325483
83333.3309350372
83333.3309329834
83333.3309325678
83333.3309323545
83333.3309325805
83333.3309333392
83333.3309346285
83333.3309364371
83333.3309387458
83333.3309415165
83333.3309370894
83333.3309366642
83333.3309364384
83333.3309366315
83333.330937326
83333.3309385179
83333.3309401965
83333.330942347
83333.330944938
83333.3309479189
83333.3309410131
83333.3309405872
83333.3309403576
83333.3309405286
83333.3309411696
83333.3309422759
83333.3309438347
83333.3309458348
83333.3309482537
83333.3309510535
83333.3309541826
83333.3309447459
83333.3309443286
83333.330944105
83333.3309442654
83333.3309448655
83333.3309458988
83333.3309473521
83333.3309492148
83333.3309514706
83333.3309540924
83333.3309570405
83333.3309602653
83333.3309483018
83333.3309478892
83333.3309476752
83333.3309478315
83333.3309484019
83333.3309493742
83333.3309507359
83333.330952477
83333.3309545839
83333.3309570367
83333.3309598061
83333.3309628526
83333.3309661296
83333.3309516833
83333.3309512935
83333.3309510889
83333.3309512431
83333.330951788
83333.3309527071
83333.3309539882
83333.3309556223
83333.3309575964
83333.3309598935
83333.3309624916
83333.3309653606
83333.3309684624
83333.3309717545
83333.3308881061
83333.3308938953
83333.3308937444
83333.3308994802
83333.3308992807
83333.3308992359
83333.3309048774
83333.3309046187
83333.3309045479
83333.3309050315
83333.3309100966
83333.3309097782
83333.3309096665
83333.3309100998
83333.3309112234
83333.3309151393
83333.330914771
83333.3309146149
83333.3309149898
83333.3309160097
83333.3309177223
83333.3309200042
83333.3309195985
83333.3309194018
83333.3309197164
83333.3309206542
83333.3309222117
83333.3309244196
83333.3309246875
83333.3309242553
83333.3309240284
83333.3309242862
83333.3309251386
83333.3309265821
83333.3309286061
83333.330931204
83333.3309291866
83333.3309287372
83333.3309284901
83333.3309287012
83333.3309294731
83333.3309308038
83333.3309326827
83333.3309350891
83333.3309379827
83333.3309334992
83333.3309330407
83333.3309327823
83333.3309329587
83333.3309336614
83333.3309348871
83333.3309366264
83333.330938864
83333.3309415668
83333.3309446809
83333.3309376238
83333.3309371635
83333.3309369012
83333.3309370549
83333.3309377014
83333.3309388356
83333.3309404463
83333.3309425227
83333.3309450417
83333.3309479633
83333.330951233
83333.3309415567
83333.3309411046
83333.3309408464
83333.3309409874
83333.33094159
83333.3309426465
83333.330944144
83333.3309460724
83333.3309484157
83333.330951146
83333.3309542222
83333.3309575913
83333.3309452881
83333.3309448557
83333.3309446119
83333.330944751
83333.3309453216
83333.3309463134
83333.330947713
83333.3309495106
83333.330951693
83333.3309542404
83333.3309571233
83333.3309603008
83333.3309637236
83333.3309488295
83333.3309484165
83333.3309481918
83333.3309483356
83333.3309488849
83333.3309498233
83333.3309511384
83333.3309528215
83333.3309548609
83333.3309572406
83333.3309599388
83333.3309629254
83333.3309661607
83333.3309695999
83333.3309521802
83333.3309518101
83333.3309516071
83333.3309517573
83333.3309522891
83333.3309531812
83333.330954422
83333.3309560043
83333.3309579172
83333.3309601465
83333.330962674
83333.3309654769
83333.3309685252
83333.3309717815
83333.3309752055
83333.3308820981
83333.3308881728
83333.3308880088
83333.3308940326
83333.3308938128
83333.3308937478
83333.3308996939
83333.3308994093
83333.3308993132
83333.330899802
83333.3309051696
83333.3309048205
83333.33090468
83333.3309051148
83333.3309062783
83333.3309104613
83333.3309100582
83333.3309098704
83333.3309102427
83333.330911296
83333.3309130795
83333.330915566
83333.330915124
83333.3309148928
83333.3309152006
83333.3309161659
83333.3309177847
83333.3309200892
83333.3309204808
83333.3309200122
83333.3309197492
83333.3309199955
83333.3309208693
83333.3309223662
83333.3309244753
83333.3309271896
83333.3309252029
83333.3309247174
83333.3309244345
83333.3309246302
83333.3309254174
83333.3309267934
83333.3309287479
83333.3309312586
83333.3309342832
83333.3309297307
83333.3309292371
83333.3309289437
83333.3309291028
83333.330929815
83333.3309310779
83333.3309328828
83333.3309352138
83333.3309380357
83333.3309412916
83333.3309340626
83333.3309335684
83333.3309332728
83333.3309334083
83333.3309340605
83333.330935225
83333.3309368917
83333.3309390501
83333.3309416761
83333.3309447275
83333.3309481465
83333.3309381967
83333.3309377098
83333.330937419
83333.3309375423
83333.3309381489
83333.3309392308
83333.3309407762
83333.3309427759
83333.3309452137
83333.3309480609
83333.3309512742
83333.3309547975
83333.3309421282
83333.3309416609
83333.3309413833
83333.3309415034
83333.330942076
83333.3309430894
83333.3309445303
83333.3309463895
83333.330948654
83333.3309513044
83333.3309543103
83333.3309576289
83333.3309612076
83333.330945844
83333.3309454119
83333.3309451595
83333.3309452871
83333.3309458368
83333.3309467938
83333.3309481448
83333.3309498812
83333.3309519917
83333.3309544609
83333.3309572672
83333.3309603799
83333.3309637575
83333.3309673524
83333.3309493511
83333.3309489609
83333.3309487407
83333.3309488833
83333.3309494204
83333.3309503316
83333.330951605
83333.3309532338
83333.3309552084
83333.3309575157
83333.3309601382
83333.3309630532
83333.33096623
83333.3309696295
83333.330973209
83333.3309526449
83333.3309523258
83333.3309521474
83333.3309523074
83333.3309528359
83333.3309537077
83333.3309549129
83333.3309564467
83333.3309583011
83333.3309604644
83333.3309629212
83333.3309656528
83333.3309686359
83333.3309718405
83333.3309752307
83333.3309787683
83333.3308758077
83333.3308821687
83333.3308819885
83333.3308883183
83333.33088808
83333.3308879993
83333.3308942599
83333.3308939493
83333.3308938294
83333.3308943265
83333.3309000045
83333.3308996236
83333.3308994528
83333.3308998899
83333.3309010969
83333.3309055571
83333.3309051173
83333.3309048956
83333.3309052651
83333.3309063546
83333.3309082144
83333.3309109133
83333.3309104324
83333.3309101645
83333.3309104653
83333.3309114603
83333.330913145
83333.3309155528
83333.3309160701
83333.3309155623
83333.3309152611
83333.330915496
83333.330916393
83333.3309179475
83333.3309201477
83333.3309229862
83333.3309210251
83333.3309205011
83333.3309201799
83333.3309203603
83333.3309211644
83333.3309225895
83333.330924625
83333.3309272473
83333.3309304116
83333.3309257771
83333.3309252459
83333.3309249152
83333.3309250566
83333.3309257801
83333.3309270839
83333.3309289594
83333.3309313902
83333.3309343392
83333.3309377462
83333.3309303247
83333.3309297946
83333.3309294636
83333.33092958
83333.3309302391
83333.330931437
83333.3309331643
83333.3309354109
83333.3309381513
83333.3309413409
83333.3309449186
83333.3309346663
83333.3309341453
83333.3309338211
83333.3309339256
83333.3309345363
83333.3309356457
83333.330937243
83333.3309393194
83333.3309418587
83333.3309448309
83333.33094819
83333.3309518768
83333.3309387986
83333.3309382967
83333.330937987
83333.3309380899
83333.3309386659
83333.3309397029
83333.3309411886
83333.3309431145
83333.3309454681
83333.3309482295
83333.3309513674
83333.3309548368
83333.3309585816
83333.330942714
83333.3309422478
83333.3309419627
83333.3309420726
83333.3309426245
83333.3309436023
83333.3309449924
83333.3309467868
83333.3309489748
83333.3309515413
83333.3309544647
83333.3309577133
83333.3309612436
83333.3309650047
83333.3309463932
83333.3309459858
83333.3309457403
83333.3309458693
83333.3309464078
83333.3309473373
83333.3309486452
83333.3309503245
83333.3309523664
83333.3309547583
83333.3309574834
83333.3309605188
83333.3309638328
83333.3309673846
83333.3309711285
83333.3309498387
83333.3309495043
83333.3309493119
83333.3309494686
83333.3309500044
83333.3309508957
83333.3309521327
83333.330953711
83333.3309556239
83333.3309578609
83333.3309604077
83333.3309632459
83333.3309663519
83333.3309696948
83333.3309732367
83333.330976937
83333.330953042
83333.330952813
83333.3309526932
83333.3309528838
83333.3309534218
83333.3309542815
83333.3309554566
83333.3309569459
83333.3309587445
83333.3309608438
83333.3309632313
83333.3309658911
83333.3309688035
83333.3309719449
83333.3309752858
83333.3309787916
83333.3309824262
83333.3308692037
83333.33087589
83333.3308756853
83333.3308823246
83333.3308820651
83333.3308819621
83333.3308885605
83333.3308882246
83333.3308880844
83333.3308885953
83333.3308945906
83333.3308941776
83333.3308939775
83333.3308944188
83333.3308956736
83333.3309004166
83333.3308999391
83333.3308996817
83333.3309000484
83333.330901177
83333.3309031189
83333.330906037
83333.3309055142
83333.3309052072
83333.3309055005
83333.3309065274
83333.3309082831
83333.3309108016
83333.3309114471
83333.3309108969
83333.3309105543
83333.330910778
83333.3309117001
83333.3309133166
83333.3309156144
83333.3309185855
83333.3309166455
83333.3309160801
83333.3309157175
83333.3309158829
83333.3309167054
83333.3309181834
83333.3309203058
83333.3309230471
83333.3309263603
83333.3309216311
83333.3309210598
83333.3309206893
83333.3309208126
83333.3309215492
83333.3309228973
83333.3309248487
83333.3309273863
83333.3309304707
83333.3309340385
83333.3309264033
83333.3309258348
83333.3309254658
83333.3309255628
83333.3309262305
83333.330927465
83333.330929258
83333.330931599
83333.3309344615
83333.3309377983
83333.3309415449
83333.3309309607
83333.3309304036
83333.3309300442
83333.3309301288
83333.3309307446
83333.3309318843
83333.3309335379
83333.330935697
83333.3309383451
83333.3309414504
83333.3309449647
83333.3309488252
83333.3309353001
83333.3309347643
83333.3309344219
83333.3309345064
83333.3309350858
83333.3309361483
83333.3309376825
83333.3309396804
83333.3309421297
83333.3309450102
83333.3309482889
83333.3309519183
83333.3309558392
83333.3309394151
83333.3309389153
83333.3309385995
83333.3309386934
83333.3309392492
83333.3309402496
83333.3309416821
83333.3309435393
83333.3309458112
83333.3309484827
83333.330951532
83333.3309549262
83333.3309586193
83333.3309625569
83333.3309432931
83333.3309428528
83333.330942577
83333.3309426901
83333.3309432321
83333.3309441823
83333.3309455277
83333.3309472621
83333.3309493773
83333.3309518612
83333.3309546973
83333.3309578626
83333.3309613242
83333.3309650389
83333.3309689576
83333.3309469069
83333.3309465594
83333.330946344
83333.3309464906
83333.3309470299
83333.3309479401
83333.3309492107
83333.3309508374
83333.3309528141
83333.3309551313
83333.3309577754
83333.3309607281
83333.3309639656
83333.3309674559
83333.3309711587
83333.3309750306
83333.3309502551
83333.3309500174
83333.3309498888
83333.3309500808
83333.3309506294
83333.33095151
83333.3309527167
83333.330954249
83333.3309561034
83333.3309582726
83333.3309607454
83333.3309635063
83333.3309665359
83333.33096981
83333.3309732978
83333.3309769627
83333.3309807659
83333.3309533416
83333.3309532254
83333.3309532198
83333.3309534696
83333.3309540349
83333.3309548937
83333.3309560461
83333.330957496
83333.3309592425
83333.3309612804
83333.3309636004
83333.3309661893
83333.3309690301
83333.3309721026
83333.330975383
83333.3309788425
83333.3309824476
83333.3309861641
83333.3308692992
83333.3308690633
83333.330876062
83333.3308757722
83333.3308756409
83333.3308825844
83333.3308822197
83333.3308820545
83333.3308825774
83333.3308889132
83333.330888468
83333.3308882412
83333.3308886902
83333.3308899984
83333.3308950293
83333.3308945137
83333.3308942213
83333.330894586
83333.3308957566
83333.330897787
83333.330900927
83333.3309003608
83333.330900013
83333.3309002977
83333.3309013588
83333.3309031905
83333.3309058278
83333.3309066029
83333.330906007
83333.3309056205
83333.3309058319
83333.3309067808
83333.3309084638
83333.3309108662
83333.330913979
83333.3309120558
83333.3309114456
83333.3309110378
83333.3309111882
83333.3309120311
83333.3309135657
83333.3309157811
83333.3309186497
83333.3309221216
83333.3309172853
83333.3309166712
83333.3309162574
83333.3309163625
83333.3309171136
83333.3309185096
83333.3309205424
83333.3309231939
83333.3309264228
83333.3309301619
83333.3309222915
83333.3309216821
83333.3309212725
83333.3309213495
83333.3309220272
83333.3309233019
83333.3309251654
83333.3309276074
83333.3309306001
83333.3309340937
83333.33093802
83333.3309270733
83333.3309264777
83333.3309260806
83333.3309261448
83333.3309267672
83333.3309279404
83333.3309296549
83333.3309319029
83333.3309346671
83333.3309379144
83333.3309415938
83333.3309456388
83333.3309316283
83333.3309310568
83333.3309306797
83333.3309307445
83333.3309313282
83333.3309324188
83333.3309340056
83333.3309360813
83333.3309386334
83333.330941641
83333.3309450698
83333.3309488693
83333.3309529769
83333.3309359491
83333.3309354163
83333.3309350691
83333.3309351459
83333.3309357053
83333.3309367301
83333.3309382084
83333.3309401336
83333.3309424959
83333.3309452803
83333.3309484643
83333.3309520134
83333.3309558791
83333.3309600036
83333.3309400249
83333.3309395531
83333.3309392483
83333.3309393477
83333.3309398947
83333.3309408674
83333.3309422535
83333.3309440476
83333.3309462421
83333.3309488255
83333.3309517811
83333.3309550857
83333.3309587048
83333.3309625928
83333.3309666971
83333.3309438351
83333.3309434577
83333.3309432149
83333.3309433488
83333.3309438936
83333.3309448252
83333.3309461324
83333.3309478118
83333.3309498581
83333.3309522625
83333.3309550119
83333.3309580882
83333.3309614672
83333.3309651152
83333.3309689898
83333.330973044
83333.3309473472
83333.330947102
83333.3309469543
83333.3309471403
83333.3309476954
83333.3309485962
83333.3309498362
83333.3309514152
83333.3309533305
83333.3309555759
83333.3309581409
83333.3309610108
83333.3309641659
83333.3309675815
83333.3309712254
83333.3309750587
83333.3309790398
83333.3309505691
83333.3309504512
83333.3309504447
83333.3309507026
83333.3309512826
83333.3309521646
83333.3309533492
83333.3309548413
83333.3309566414
83333.3309587459
83333.3309611468
83333.3309638317
83333.3309667841
83333.3309699834
83333.3309734053
83333.3309770192
83333.3309807896
83333.3309846795
83333.330953528
83333.3309535279
83333.3309536774
83333.3309540338
83333.3309546534
83333.3309555281
83333.3309566691
83333.3309580874
83333.3309597875
83333.3309617682
83333.3309640234
83333.3309665431
83333.330969313
83333.3309723155
83333.3309755297
83333.3309789321
83333.3309824942
83333.3309861837
83333.3309899684
83333.3308694897
83333.3308691625
83333.3308689834
83333.3308763441
83333.3308759422
83333.3308757453
83333.3308762733
83333.3308829625
83333.3308824807
83333.3308822221
83333.33088268
83333.3308840418
83333.3308893813
83333.3308888267
83333.3308885007
83333.3308888661
83333.3308900824
83333.3308922087
83333.3308955728
83333.3308949628
83333.3308945744
83333.3308948507
83333.3308959476
83333.3308978604
83333.3309006254
83333.3309015282
83333.3309008841
83333.3309004526
83333.3309006496
83333.3309016268
83333.3309033808
83333.3309058952
83333.3309091594
83333.3309072474
83333.330906589
83333.3309061336
83333.3309062669
83333.3309071316
83333.3309087271
83333.3309110419
83333.3309140465
83333.3309176878
83333.3309127318
83333.3309120717
83333.3309116106
83333.3309116966
83333.3309124641
83333.3309139115
83333.3309160313
83333.3309188047
83333.3309221877
83333.3309261091
83333.330917982
83333.3309173291
83333.3309168756
83333.3309169317
83333.3309176209
83333.330918939
83333.3309208782
83333.3309234281
83333.3309265598
83333.3309302203
83333.3309343377
83333.3309229976
83333.3309223612
83333.3309219234
83333.3309219666
83333.3309225969
83333.3309238067
83333.330925587
83333.33092793
83333.3309308182
83333.3309342168
83333.3309380718
83333.330942313
83333.3309277764
83333.3309271672
83333.3309267531
83333.3309267975
83333.3309273867
83333.3309285084
83333.3309301523
83333.3309323115
83333.3309349736
83333.330938117
83333.3309417054
83333.3309456857
83333.3309499916
83333.3309323117
83333.3309317445
83333.3309313637
83333.3309314222
83333.3309319859
83333.3309330374
83333.3309345655
83333.330936564
83333.3309390235
83333.3309419287
83333.3309452564
83333.3309489704
83333.3309530194
83333.3309573419
83333.3309365913
83333.3309360886
83333.3309357544
83333.3309358389
83333.3309363907
83333.3309373874
83333.3309388173
83333.330940676
83333.3309429561
83333.3309456465
83333.3309487303
83333.3309521835
83333.3309559702
83333.3309600417
83333.3309643421
83333.3309405961
83333.3309401906
83333.3309399225
83333.3309400454
83333.3309405973
83333.3309415519
83333.3309428987
83333.3309446352
83333.330946757
83333.3309492557
83333.3309521187
83333.3309553277
83333.3309588578
83333.330962674
83333.330966731
83333.3309709782
83333.3309443007
83333.3309440307
83333.3309438602
83333.3309440375
83333.330944601
83333.3309455244
83333.3309468008
83333.3309484308
83333.3309504126
83333.3309527408
83333.3309554059
83333.3309583933
83333.3309616833
83333.3309652506
83333.3309690614
83333.330973074
83333.3309772435
83333.3309476812
83333.3309475621
83333.3309475437
83333.3309478003
83333.3309483904
83333.3309492947
83333.3309505132
83333.330952051
83333.3309539097
83333.3309560868
83333.3309585753
83333.3309613638
83333.3309644358
83333.3309677706
83333.3309713428
83333.3309751205
83333.3309790656
83333.3309831384
83333.330950766
83333.3309507674
83333.3309509273
83333.3309513007
83333.330951941
83333.3309528419
83333.3309540168
83333.3309554774
83333.3309572298
83333.3309592743
83333.3309616065
83333.3309642174
83333.3309670935
83333.3309702171
83333.3309735669
83333.3309771184
83333.3309808413
83333.3309847012
83333.330988663
83333.3309536069
83333.3309537324
83333.3309540095
83333.3309545136
83333.3309552361
83333.3309561566
83333.3309573051
83333.330958705
83333.3309603681
83333.3309622981
83333.3309644932
83333.3309669467
83333.3309696475
83333.3309725805
83333.3309757273
83333.3309790669
83333.3309825758
83333.330986226
83333.3309899867
83333.3309938273
83333.3308697962
83333.3308693511
83333.330869102
83333.3308696171
83333.3308767524
83333.3308762246
83333.3308759291
83333.3308763879
83333.3308778053
83333.3308834638
83333.3308828651
83333.3308825002
83333.330882867
83333.3308841322
83333.3308863568
83333.3308899609
83333.3308893062
83333.3308888774
83333.3308891472
83333.3308902825
83333.3308922821
83333.3308951845
83333.3308962125
83333.33089552
83333.3308950428
83333.3308952252
83333.3308962314
83333.3308980607
83333.3309006945
83333.3309041209
83333.3309022116
83333.3309015022
83333.330900998
83333.330901112
83333.3309019991
83333.3309036591
83333.3309060802
83333.3309092301
83333.3309130518
83333.3309079626
83333.3309072527
83333.3309067413
83333.3309068064
83333.3309075913
83333.3309090936
83333.3309113065
83333.3309142101
83333.3309177574
83333.3309218731
83333.3309134673
83333.3309127678
83333.3309122662
83333.3309123004
83333.3309130024
83333.3309143672
83333.3309163874
83333.3309190527
83333.3309223325
83333.3309261708
83333.3309304916
83333.3309187264
83333.3309180466
83333.330917565
83333.3309175862
83333.3309182255
83333.330919475
83333.3309213258
83333.3309237705
83333.330926791
83333.3309303508
83333.3309343926
83333.3309388422
83333.3309237379
83333.3309230889
83333.3309226351
83333.3309226586
83333.3309232544
83333.33092441
83333.3309261155
83333.3309283642
83333.3309311438
83333.3309344319
83333.3309381903
83333.3309423628
83333.3309468791
83333.330928496
83333.3309278928
83333.3309274762
83333.3309275157
83333.3309280847
83333.3309291657
83333.3309307476
83333.330932825
83333.3309353886
83333.3309384229
83333.3309419039
83333.3309457933
83333.3309500368
83333.3309545693
83333.3309329877
83333.330932453
83333.3309320875
83333.3309321562
83333.3309327132
83333.3309337361
83333.3309352136
83333.3309371418
83333.330939514
83333.3309423191
83333.33094554
83333.3309491517
83333.3309531164
83333.3309573826
83333.3309618906
83333.3309371934
83333.3309367607
83333.3309364666
83333.3309365778
83333.3309371364
83333.3309381153
83333.3309395047
83333.3309413029
83333.3309435061
83333.3309461064
83333.3309490913
83333.3309524423
83333.3309561336
83333.3309601283
83333.3309643781
83333.3309688294
83333.3309410871
83333.3309407951
83333.3309406045
83333.3309407751
83333.3309413485
83333.3309422961
83333.3309436117
83333.3309452967
83333.3309473506
83333.3309497686
83333.3309525416
83333.3309556553
83333.3309590899
83333.330962819
83333.3309668071
83333.3309710098
83333.3309753786
83333.3309446557
83333.3309445185
83333.3309444836
83333.3309447371
83333.3309453398
83333.3309462687
83333.3309475239
83333.3309491114
83333.3309510341
83333.3309532903
83333.330955874
83333.3309587743
83333.330961975
83333.330965455
83333.3309691881
83333.3309731403
83333.330977271
83333.3309815374
83333.330947891
83333.330947898
83333.3309480575
83333.330948436
83333.3309490912
83333.3309500172
83333.3309512272
83333.3309527333
83333.3309545426
83333.3309566567
83333.3309590725
83333.330961782
83333.330964772
83333.330968025
83333.3309715193
83333.3309752289
83333.3309791221
83333.3309831619
83333.3309873107
83333.3309508551
83333.3309509806