/*--------------------------------*- C++ -*----------------------------------*\
  =========                 |
  \\      /  F ield         | OpenFOAM: The Open Source CFD Toolbox
   \\    /   O peration     | Website:  https://openfoam.org
    \\  /    A nd           | Version:  12
     \\/     M anipulation  |
\*---------------------------------------------------------------------------*/
/*   Windows 32 and 64 bit porting by blueCAPE: http://www.bluecape.com.pt   *\
|  Based on Windows porting (2.0.x v4) by Symscape: http://www.symscape.com   |
\*---------------------------------------------------------------------------*/
FoamFile
{
    format      ascii;
    class       surfaceScalarField;
    location    "500";
    object      phi;
}
// * * * * * * * * * * * * * * * * * * * * * * * * * * * * * * * * * * * * * //

dimensions      [0 3 -1 0 0 0 0];

internalField   nonuniform List<scalar> 
28903
(
1.64736856099034e-06
-3.97280335679083e-08
-1.27468170556388e-08
1.70402000643245e-06
-3.91659083834244e-08
-1.74838605263072e-08
2.03814202019907e-06
-8.03955457456532e-08
-1.93099591007123e-08
8.72175425207457e-09
-5.98722248677032e-09
-9.8176299824696e-09
1.76471363456599e-06
-3.90238259576393e-08
-2.16701810418532e-08
2.10426032040859e-06
-8.09539409413306e-08
-2.43236811769088e-08
1.31709893387088e-08
-4.84391690746275e-09
-1.70870634609007e-08
2.26080599144601e-06
-1.23021661718044e-07
-2.24022393736689e-08
1.27844523903453e-07
-1.21064610304105e-08
-1.81909548808038e-08
-2.04032279282653e-07
8.89243765765486e-11
-1.02666280585343e-08
1.82952003392729e-06
-4.01426637485479e-08
-2.46712219375819e-08
2.17573564912418e-06
-8.23108922723964e-08
-2.81700670596923e-08
1.92493736628897e-08
-4.04918356085022e-09
-2.36949349346206e-08
2.33320981841846e-06
-1.25047127876038e-07
-2.82901121058394e-08
1.35064267485951e-07
-1.03010460240425e-08
-2.60876600070595e-08
-2.02788015108641e-07
7.10591780541087e-10
-1.90407945392606e-08
2.5071289152441e-06
-1.69164764090326e-07
-2.53194690221364e-08
1.50650006420107e-07
-1.82926368646784e-08
-2.1827441682003e-08
-1.82584264147919e-07
-2.92988212919571e-10
-1.89677734406917e-08
-2.28818402786925e-07
1.12708095147413e-09
-1.1559283319931e-08
1.89877689369084e-06
-4.13920637611652e-08
-2.78514965464306e-08
2.25142924629198e-06
-8.47026252112113e-08
-3.11195331806703e-08
2.80980043921055e-08
-3.71476898332527e-09
-2.97968648918988e-08
2.4112046502376e-06
-1.27978867469314e-07
-3.23057629596537e-08
1.45068227988617e-07
-9.1147573099444e-09
-3.30998014490995e-08
-2.00219958220646e-07
1.24250464481371e-09
-2.75039998059407e-08
2.58657007098346e-06
-1.72550996118617e-07
-3.19337406220213e-08
1.58930469398354e-07
-1.59164763044032e-08
-3.09402285462152e-08
-1.80095040788623e-07
9.94107260216517e-10
-2.88582023129006e-08
-2.2757630651868e-07
1.61963950273959e-09
-2.1902035463741e-08
2.69736460608227e-06
-2.18855633730616e-07
-2.67370444334544e-08
1.80666388871917e-07
-2.59840764526361e-08
-2.44248052530802e-08
-2.10527540539938e-07
-2.42605774696467e-10
-2.30766798693372e-08
-2.28148145118689e-07
2.12315399117766e-09
-2.08296320917188e-08
-2.18376613739102e-07
1.15467010136161e-09
-1.35469895005319e-08
1.97266209822347e-06
-4.26555955263798e-08
-3.12360720803614e-08
2.33166769779501e-06
-8.71480613872748e-08
-3.44712185345027e-08
3.95759428469653e-08
-3.39262316710798e-09
-3.59369751768412e-08
2.49363162237523e-06
-1.31670761818802e-07
-3.54525515753037e-08
1.58522837147574e-07
-8.3519550418163e-09
-3.9936980164465e-08
-1.95791499333541e-07
1.65339477766444e-09
-3.58793212848861e-08
2.67173006084779e-06
-1.7686120493767e-07
-3.62567429699246e-08
1.705669656363e-07
-1.42305078305768e-08
-3.88165786874802e-08
-1.75596493316899e-07
2.06373469869509e-09
-3.84198864861689e-08
-2.24945137556268e-07
2.06847638426161e-09
-3.2203139427775e-08
2.78232034277702e-06
-2.23441977606721e-07
-3.40381831510925e-08
1.90512299459858e-07
-2.30231391013696e-08
-3.46710668534145e-08
-2.07675333112327e-07
1.7600857192222e-09
-3.455813676833e-08
-2.25904705770673e-07
3.10665138502599e-09
-3.25866326218983e-08
-2.16359561132631e-07
1.53601615079044e-09
-2.54552029277384e-08
2.8060433376201e-06
-2.71357716874007e-07
-2.68261170099375e-08
2.05438658191768e-07
-3.60645798200308e-08
-2.45011792559824e-08
-2.34874933804091e-07
-5.3727852002435e-10
-2.55942334593053e-08
-2.64595545170327e-07
3.24103745573903e-09
-2.51482100243543e-08
-2.22702703415676e-07
2.51444985156603e-09
-2.3634065990983e-08
-1.96751304755904e-07
1.09436834128543e-09
-1.63873010211859e-08
2.05135838309607e-06
-4.39412642517252e-08
-3.47623633574667e-08
2.41691312492828e-06
-8.97182133714009e-08
-3.81523975225873e-08
5.36479197414853e-08
-3.05047586049255e-09
-4.22565739880425e-08
2.58096714094947e-06
-1.3534563854968e-07
-3.91311303699918e-08
1.75175815437872e-07
-7.59038136043359e-09
-4.69219515810534e-08
-1.89425871038057e-07
2.07680113512918e-09
-4.43790804680744e-08
2.76152543178379e-06
-1.81780160506783e-07
-3.96822743611641e-08
1.86250701087663e-07
-1.28418115181521e-08
-4.66444633148766e-08
-1.6882982325349e-07
3.00457597871628e-09
-4.80504939740307e-08
-2.20689616040583e-07
2.4848938127116e-09
-4.26194538253366e-08
2.87304683754047e-06
-2.29018251197289e-07
-3.8560685214929e-08
2.04111723752314e-07
-2.06968443608577e-08
-4.33835191576732e-08
-2.02302761555348e-07
3.51024066696269e-09
-4.56332708393188e-08
-2.21901840163725e-07
4.03690718008819e-09
-4.43901726011091e-08
-2.12976453045415e-07
1.91503752377129e-09
-3.75009122142845e-08
2.89408544515892e-06
-2.77018102602728e-07
-3.4452235592049e-08
2.1649117022132e-07
-3.25484426395462e-08
-3.55595338415029e-08
-2.31488469866804e-07
2.23236287320142e-09
-3.85260524296296e-08
-2.62000745107279e-07
4.82038536374645e-09
-3.88661436594589e-08
-2.19834685366116e-07
3.26641338278558e-09
-3.71844014723455e-08
-1.9382776050339e-07
1.41474647699469e-09
-2.97927451703378e-08
2.85117069014887e-06
-3.25776532739401e-07
-2.61237764318427e-08
2.25541364852152e-07
-4.89615604427922e-08
-2.26733132107225e-08
-2.55189978261192e-07
-1.89441590191931e-09
-2.47942126311788e-08
-2.98031037281095e-07
4.1201062557338e-09
-2.75714536179763e-08
-2.57199967541259e-07
3.67717921330452e-09
-2.79968343119837e-08
-2.02950072562952e-07
2.10832952242309e-09
-2.69727314519072e-08
-1.71788648969434e-07
9.58079116288708e-10
-1.99811966795584e-08
2.13532175154201e-06
-4.54246792283119e-08
-3.85337985788318e-08
2.50756575161912e-06
-9.25115292806713e-08
-4.20756875776781e-08
7.04654331582255e-08
-2.69395388284891e-09
-4.88832734682504e-08
2.67367159318418e-06
-1.39187918354711e-07
-4.32422130348179e-08
1.94934533402259e-07
-6.81542227028958e-09
-5.41435482551529e-08
-1.81041989732706e-07
2.49450782817262e-09
-5.31339939002584e-08
2.85667004648561e-06
-1.86728709488578e-07
-4.37547629915941e-08
2.05634274830889e-07
-1.13962832241082e-08
-5.46981825634892e-08
-1.59765183454148e-07
3.97410790078055e-09
-5.78843520554154e-08
-2.1470676997897e-07
2.91937066023996e-09
-5.32807764864045e-08
2.96844723697972e-06
-2.35065480433068e-07
-4.20886720966119e-08
2.22266562006022e-07
-1.85265924376213e-08
-5.21413520771119e-08
-1.9424086416228e-07
5.17987248946187e-09
-5.68787913837292e-08
-2.15986786043543e-07
4.94629406011519e-09
-5.64258606619482e-08
-2.08085448178921e-07
2.2906313425309e-09
-4.98006980368723e-08
2.9878491713896e-06
-2.83727113203361e-07
-3.90687017539215e-08
2.3159468709481e-07
-2.95635066173508e-08
-4.4791942382772e-08
-2.25216661913181e-07
4.79834020391737e-09
-5.09434062290912e-08
-2.57281214941327e-07
6.33014628859594e-09
-5.26454736378455e-08
-2.15348834120785e-07
4.04121753302983e-09
-5.10010852289666e-08
-1.89600548527928e-07
1.72988470628629e-09
-4.34577741116096e-08
2.94042950334759e-06
-3.32269071126918e-07
-3.39736415939386e-08
2.37545168228515e-07
-4.48254496413406e-08
-3.4185366373624e-08
-2.51516685734999e-07
1.63576170781344e-09
-3.86360089103234e-08
-2.95066827634372e-07
6.32214613311207e-09
-4.29906380455709e-08
-2.53915559178294e-07
4.91364949594825e-09
-4.37962563598331e-08
-1.99267497613303e-07
2.77614799784456e-09
-4.22279025261221e-08
-1.68026165310386e-07
1.20073395225954e-09
-3.47554464993712e-08
2.86335056652074e-06
-3.81101999894813e-07
-2.5418466098487e-08
2.43227906921027e-07
-6.47462146408455e-08
-1.99036584711443e-08
-2.70369767966181e-07
-4.75124474309188e-09
-2.1615734492658e-08
-3.2439141844974e-07
4.35363262289443e-09
-2.61516672856156e-08
-2.89415402520093e-07
4.60423852765565e-09
-3.03281051068818e-08
-2.34065989757704e-07
3.08681163206435e-09
-3.16118608655084e-08
-1.79275102419362e-07
1.67743982135977e-09
-3.08881860229359e-08
-1.47070376693543e-07
7.22665536822965e-10
-2.41148171271517e-08
2.22513584267971e-06
-4.71450075612106e-08
-4.26725193105393e-08
2.60387290715704e-06
-9.5516687380171e-08
-4.62077105625657e-08
9.01622101026855e-08
-2.33626072348424e-09
-5.58934988327808e-08
2.77219463030428e-06
-1.43347347496443e-07
-4.76824482364573e-08
2.17942253209638e-07
-6.03594652916915e-09
-6.17360397199042e-08
-1.70563152051309e-07
2.91481830097716e-09
-6.22762112366292e-08
2.95761958583561e-06
-1.91845955226034e-07
-4.83036407440905e-08
2.28546955348233e-07
-9.92855542159286e-09
-6.30375318288346e-08
-1.48323616425584e-07
4.95756813978454e-09
-6.80436164385279e-08
-2.0689215078069e-07
3.35244991067562e-09
-6.43007830901436e-08
3.06941576863968e-06
-2.41214804020608e-07
-4.64621650192444e-08
2.44568498568289e-07
-1.62561964363147e-08
-6.11917663280091e-08
-1.83504341104917e-07
6.92661956491594e-09
-6.83879233591307e-08
-2.08051545243654e-07
5.8856046509696e-09
-6.87846854934671e-08
-2.01589596588148e-07
2.67787264602189e-09
-6.24542062422954e-08
3.08620772552304e-06
-2.9079898468119e-07
-4.26362056739601e-08
2.5164837376879e-07
-2.66222125718105e-08
-5.4042052892175e-08
-2.15915201431551e-07
7.3310052033102e-09
-6.35922817900685e-08
-2.50312518881572e-07
7.84577117740597e-09
-6.67453897369831e-08
-2.09122155371048e-07
4.83062729678951e-09
-6.51918769039695e-08
-1.83961995954048e-07
2.04333206788688e-09
-5.74825962027701e-08
3.03531086381782e-06
-3.39840626331815e-07
-3.87519383181201e-08
2.53756609427228e-07
-4.11447151693862e-08
-4.36811873896016e-08
-2.44721005920469e-07
5.06300924652555e-09
-5.18485248822582e-08
-2.89710896315824e-07
8.49430427349058e-09
-5.84636556190278e-08
-2.48742577544423e-07
6.14061671216267e-09
-5.99172560095331e-08
-1.94077523460278e-07
3.40961998321733e-09
-5.78695799817245e-08
-1.63040259764642e-07
1.44444054950942e-09
-4.98877728359018e-08
2.9528022920672e-06
-3.88207268261417e-07
-3.35187991753311e-08
2.5607644627421e-07
-5.99688190100472e-08
-3.16796256387266e-08
-2.66554251668975e-07
-4.68325296815905e-10
-3.58929611601041e-08
-3.21301194833849e-07
7.16922966421284e-09
-4.25703863678854e-08
-2.85779382420081e-07
6.2935250046463e-09
-4.80052999070763e-08
-2.29874200263286e-07
4.0423456224495e-09
-4.92538833524359e-08
-1.74778130384485e-07
2.11334840956567e-09
-4.76368678783457e-08
-1.42600350840037e-07
9.03442755206107e-10
-4.01287099472155e-08
2.86454953835758e-06
-4.36509118273131e-07
-2.52158834603685e-08
2.61460955110453e-07
-8.36538221889312e-08
-1.69471138870469e-08
-2.81874088127949e-07
-9.26095312830032e-09
-1.73739809308364e-08
-3.4377368644323e-07
3.65423198086669e-09
-2.20127599172574e-08
-3.14593413032544e-07
5.10583053204806e-09
-2.84817885688394e-08
-2.63525640274299e-07
3.81121556121442e-09
-3.38999725383974e-08
-2.07452935619408e-07
2.24575020617291e-09
-3.57905107345388e-08
-1.55069948127372e-07
1.07434207720172e-09
-3.52345509810651e-08
-1.24041989587005e-07
4.61420127352685e-10
-2.86297716637593e-08
2.32126099123825e-06
-4.89420085652951e-08
-4.71728882795468e-08
2.70627197342054e-06
-9.885463409167e-08
-5.06802543441457e-08
1.12842491133444e-07
-1.9994440703185e-09
-6.33495393059393e-08
2.87688891494986e-06
-1.4779263284547e-07
-5.24075046728571e-08
2.44423326505804e-07
-5.24875160684959e-09
-6.97721677248618e-08
-1.57902553937028e-07
3.34072542574216e-09
-7.18951279835733e-08
3.0648924922797e-06
-1.973283417236e-07
-5.32718950430381e-08
2.55106632829784e-07
-8.46357775889024e-09
-7.18182591638693e-08
-1.34423241405334e-07
5.95694744525159e-09
-7.86745974461024e-08
-1.97160355943365e-07
3.78752745364768e-09
-7.5795299443066e-08
3.17643703535922e-06
-2.47518392157761e-07
-5.13464043445626e-08
2.70847529719091e-07
-1.39557942603468e-08
-7.05544985224296e-08
-1.70023281020396e-07
8.71900152999329e-09
-8.02803410343438e-08
-1.97989436620998e-07
6.8335196186697e-09
-8.15846631410141e-08
-1.93381879077864e-07
3.0587714242785e-09
-7.55673159326985e-08
3.19010777639014e-06
-2.97951399098691e-07
-4.71570817843627e-08
2.76184898367805e-07
-2.35487246801275e-08
-6.37023184068515e-08
-2.03612662369837e-07
9.99239417656652e-09
-7.6555941526678e-08
-2.40996113232106e-07
9.42229819503267e-09
-8.12386264483667e-08
-2.01046420103416e-07
5.6443304964353e-09
-7.98264903610654e-08
-1.76820804720934e-07
2.36511570883044e-09
-7.19605379253304e-08
3.13461427423404e-06
-3.47663559827746e-07
-4.24279715812894e-08
2.751109973712e-07
-3.74602284336627e-08
-5.31446905332737e-08
-2.34652580012801e-07
8.51170967911785e-09
-6.52921722991523e-08
-2.81839384156644e-07
1.07002262145952e-08
-7.43168950776503e-08
-2.41549921655721e-07
7.39247738839306e-09
-7.6498657931184e-08
-1.87273175534678e-07
4.03618392244604e-09
-7.39879633903011e-08
-1.5673723891418e-07
1.68863302881342e-09
-6.54740305226483e-08
3.0477878733478e-06
-3.9642563243004e-07
-3.84132698831972e-08
2.73213597420177e-07
-5.56495304812678e-08
-4.13781158555556e-08
-2.59507805628146e-07
3.7959108199241e-09
-4.94592263719414e-08
-3.15661423459172e-07
1.00179404329322e-08
-5.90096555128715e-08
-2.80044820593783e-07
8.00001917381729e-09
-6.6055833747974e-08
-2.23954193576938e-07
4.98853419535462e-09
-6.74149202024969e-08
-1.68880146001584e-07
2.56768860883729e-09
-6.48900711021662e-08
-1.36986269265785e-07
1.08005866485925e-09
-5.65819502212608e-08
2.95383155790719e-06
-4.43858413737153e-07
-3.36378070817116e-08
2.75131823151e-07
-7.82388523092668e-08
-2.89226308854453e-08
-2.77912412230835e-07
-4.25028864520036e-09
-3.1856837099657e-08
-3.40699114240897e-07
7.06062064269589e-09
-3.88573456059457e-08
-3.10862790589237e-07
7.23474758377222e-09
-4.72397862896743e-08
-2.58952221920755e-07
5.06884760038548e-09
-5.36041958257009e-08
-2.02378075462098e-07
2.92442157725631e-09
-5.51399399362676e-08
-1.49862367365003e-07
1.38848958076028e-09
-5.33293222905466e-08
-1.18988078685828e-07
5.62507253657451e-10
-4.57449236695417e-08
2.86570266259241e-06
-4.90915353204608e-07
-2.60371377847877e-08
2.83475525667586e-07
-1.0609707620808e-07
-1.42264690135561e-08
-2.91387168097923e-07
-1.55953738454159e-08
-1.28261151183257e-08
-3.59341141868852e-07
1.8420966128402e-09
-1.66453453572329e-08
-3.33299883121219e-07
5.00124390230054e-09
-2.36510137976888e-08
-2.86769757714967e-07
4.23189403273256e-09
-3.177375851702e-08
-2.34466061842465e-07
2.66755241437602e-09
-3.82211138252459e-08
-1.80539370782138e-07
1.3391600826877e-09
-4.05459442286269e-08
-1.31710172191109e-07
5.09990120102717e-10
-3.99530915972768e-08
-1.03008792695395e-07
1.2606592735989e-10
-3.33419898156118e-08
2.4241743082098e-06
-5.08534308580832e-08
-5.20558384265225e-08
2.81550477407056e-06
-1.02560285006649e-07
-5.56047806097437e-08
1.38657023224067e-07
-1.68893509881673e-09
-7.12944346489749e-08
2.98822232318764e-06
-1.52698147370311e-07
-5.74872060900038e-08
2.74565219400622e-07
-4.4892906223193e-09
-7.83251239522862e-08
-1.42955344367661e-07
3.76314742957144e-09
-8.20597916519046e-08
3.17896982753352e-06
-2.03256381899512e-07
-5.86168699033538e-08
2.85594235138245e-07
-7.01260280517893e-09
-8.11251646492296e-08
-1.17951399939931e-07
6.97304679868497e-09
-8.98733478525283e-08
-1.85419730911793e-07
4.22299992970918e-09
-8.78580215342092e-08
3.29005852937624e-06
-2.54207185973376e-07
-5.67250199584167e-08
3.01188586206613e-07
-1.16559845779587e-08
-8.04251171634904e-08
-1.53698932410527e-07
1.05471087319873e-08
-9.27284800051457e-08
-1.85711911504359e-07
7.79063274365411e-09
-9.49560674404493e-08
-1.83365563363311e-07
3.4361131848157e-09
-8.92470790080154e-08
3.30006422473148e-06
-3.05281773979744e-07
-5.21906041508883e-08
3.05029366800612e-07
-2.04213733620287e-08
-7.37324674184823e-08
-1.88238752168677e-07
1.27443186436437e-08
-8.9952010624598e-08
-2.2921798870544e-07
1.10301403516447e-08
-9.62524861197984e-08
-1.91015131199491e-07
6.45986794301811e-09
-9.50170387948378e-08
-1.68071886608892e-07
2.68003260318298e-09
-8.69959143648073e-08
3.2392073075933e-06
-3.55619699326595e-07
-4.69349973439186e-08
3.01121317243357e-07
-3.36835076843982e-08
-6.30313420076025e-08
-2.21377944233668e-07
1.21060650877186e-08
-7.90866227681746e-08
-2.71349319747096e-07
1.29945702982401e-08
-9.06186584453129e-08
-2.32223521271722e-07
8.6859137536888e-09
-9.36060023469568e-08
-1.78755177077648e-07
4.68060578589918e-09
-9.0659194000469e-08
-1.49027312781074e-07
1.93694024086387e-09
-8.16071136136972e-08
3.14699284106334e-06
-4.0480352498362e-07
-4.2049839582337e-08
2.95609708997378e-07
-5.12706219904151e-08
-5.10083016776714e-08
-2.49053918846773e-07
8.14300966212173e-09
-6.32274254613737e-08
-3.07343214701214e-07
1.2934903813133e-08
-7.58438638793397e-08
-2.72070530984355e-07
9.74736264712206e-09
-8.46445573573469e-08
-2.16186887669361e-07
5.94768215540922e-09
-8.61766480657132e-08
-1.61483154063057e-07
3.03088090227482e-09
-8.27264910991331e-08
-1.30139998328175e-07
1.25277892363666e-09
-7.35732053754112e-08
3.0486038739071e-06
-4.52488173393124e-07
-3.87035437018029e-08
2.93129238609849e-07
-7.33175303113628e-08
-3.87216022702018e-08
-2.70681122984984e-07
7.65942716870125e-10
-4.55779066939836e-08
-3.35005103721899e-07
1.05521516912562e-08
-5.56870386321783e-08
-3.04914037827827e-07
9.41824965292e-09
-6.63767292046729e-08
-2.52464564681504e-07
6.34061133851526e-09
-7.38939512863023e-08
-1.95691162459804e-07
3.59813960218282e-09
-7.51314844329706e-08
-1.43345727899623e-07
1.70103835282636e-09
-7.20273870955165e-08
-1.12864736212396e-07
6.74774624409069e-10
-6.33799287628175e-08
2.95473688936819e-06
-4.98058542745019e-07
-3.48219236876374e-08
2.98083796328666e-07
-1.0006622981807e-07
-2.64114195507935e-08
-2.87248355064525e-07
-9.88296735063345e-09
-2.74268493017389e-08
-3.56296901734672e-07
5.81051262878817e-09
-3.3647738197507e-08
-3.29629805404249e-07
7.55368783304955e-09
-4.28457890713751e-08
-2.82083299720591e-07
5.79125067876557e-09
-5.26477492847714e-08
-2.28930320603381e-07
3.55913042782482e-09
-5.97735322102899e-08
-1.74657996356528e-07
1.79563252859928e-09
-6.14271390854144e-08
-1.25908943373387e-07
7.02453250581647e-10
-5.92697281331835e-08
-9.74905578819299e-08
1.8456579293663e-10
-5.1447564323953e-08
2.87040559764135e-06
-5.42634255105021e-07
-2.85353310493428e-08
3.12551529265143e-07
-1.32600610843292e-07
-1.2156711127146e-08
-2.99676428225825e-07
-2.39554719835829e-08
-8.3606951513426e-09
-3.73657899224316e-07
-1.23706212109331e-09
-1.08406364197438e-08
-3.48915848184148e-07
4.12158159227672e-09
-1.74116173050719e-08
-3.0435664106833e-07
4.23120952277693e-09
-2.64285502253827e-08
-2.56057105698481e-07
2.88358420551452e-09
-3.595954107842e-08
-2.05173265227704e-07
1.47422629508663e-09
-4.32316041554168e-08
-1.54369499967267e-07
4.88775094322381e-10
-4.57890650712105e-08
-1.09766839136067e-07
-1.9483376967207e-11
-4.50261885946257e-08
-8.38881096352672e-08
-1.10572863410359e-10
-3.82308132255305e-08
2.53442050405503e-06
-5.28984903576813e-08
-5.7336567374749e-08
2.93214913520627e-06
-1.06506163217624e-07
-6.09901835549278e-08
1.67799583426674e-07
-1.42426629587707e-09
-7.97737608610162e-08
3.10690584185012e-06
-1.58199803177561e-07
-6.30309571877858e-08
3.08548640114213e-07
-3.81615940684381e-09
-8.74547216074975e-08
-1.25591160419717e-07
4.17029602996119e-09
-9.28282522792191e-08
3.30020204498741e-06
-2.09620210071526e-07
-6.43057878350199e-08
3.20269904525571e-07
-5.61007036612714e-09
-9.10370632820364e-08
-9.87767602467287e-08
7.98433503207241e-09
-1.01717157174398e-07
-1.71563021466265e-07
4.65193059318766e-09
-1.0056814302231e-07
3.41078228739514e-06
-2.61437120847541e-07
-6.25325890659541e-08
3.35843336980544e-07
-9.38492866178286e-09
-9.08953158605406e-08
-1.34402877491947e-07
1.23980954729078e-08
-1.05845192312853e-07
-1.71112448585406e-07
8.75200097824763e-09
-1.09001682302824e-07
-1.71441188428397e-07
3.80898091174404e-09
-1.03590720353165e-07
3.41664103178526e-06
-3.13026369099266e-07
-5.77580988231243e-08
3.3824238344414e-07
-1.72722157106309e-08
-8.43136203601086e-08
-1.69696831667537e-07
1.555838054428e-08
-1.03977453096286e-07
-2.14877900581628e-07
1.26614151751341e-08
-1.1193944010914e-07
-1.78926826611158e-07
7.27573487817997e-09
-1.10882849631368e-07
-1.57615019565339e-07
2.98917758195057e-09
-1.02693218147919e-07
3.34975015470854e-06
-3.63786890816153e-07
-5.20141506552772e-08
3.31680552282247e-07
-2.98090911188052e-08
-7.33569350631876e-08
-2.04840257138089e-07
1.58252367926887e-08
-9.33489834634728e-08
-2.58119823042152e-07
1.53500263383211e-08
-1.07502189272805e-07
-2.20647620944955e-07
9.99606029064284e-09
-1.11364780629655e-07
-1.68418459091315e-07
5.32140420952463e-09
-1.07994317077478e-07
-1.39809029762835e-07
2.1764736322465e-09
-9.83905277459433e-08
3.25126947877996e-06
-4.13316124607013e-07
-4.65749638682332e-08
3.22765312616768e-07
-4.6801951434188e-08
-6.0971030240822e-08
-2.35276667575798e-07
1.26380703829337e-08
-7.73358598102456e-08
-2.96246913923383e-07
1.59616236370498e-08
-9.3147839850123e-08
-2.61732336376362e-07
1.15523042575457e-08
-1.03822032144654e-07
-2.06452579370021e-07
6.93067513596079e-09
-1.05589132264543e-07
-1.52487101529374e-07
3.49980465912754e-09
-1.01217631436622e-07
-1.2197437118926e-07
1.42537605322349e-09
-9.11978659520605e-08
3.14734082117886e-06
-4.61233600133793e-07
-4.22721309043582e-08
3.16521630518635e-07
-6.83176552276022e-08
-4.83984532086267e-08
-2.59989970859397e-07
5.90551779200659e-09
-5.94634499896013e-08
-3.26552587558567e-07
1.41497622014499e-08
-7.28926639182227e-08
-2.96595822196395e-07
1.16660190834277e-08
-8.60787020160264e-08
-2.43930696521967e-07
7.63786796535141e-09
-9.48676452184146e-08
-1.87280601293293e-07
4.27837164667594e-09
-9.58344623988914e-08
-1.35425314598882e-07
2.00933965163391e-09
-9.14028268915445e-08
-1.05587020934137e-07
7.81593464078095e-10
-8.16324557193589e-08
3.04923535136102e-06
-5.06892212190499e-07
-4.00623106990046e-08
3.17003738011025e-07
-9.46457418972327e-08
-3.62897056775241e-08
-2.79816804486272e-07
-4.17383892704258e-09
-4.12126726748165e-08
-3.50605719239682e-07
9.88776354013055e-09
-5.06031125354695e-08
-3.23686139698128e-07
1.01925691472051e-08
-6.24024832174638e-08
-2.75376315977259e-07
7.38824732239222e-09
-7.41305787168902e-08
-2.2161408493527e-07
4.45034343699895e-09
-8.2062175467786e-08
-1.67266207851102e-07
2.23508759078488e-09
-8.30570467446381e-08
-1.18877393481393e-07
8.85751642000034e-10
-7.92695173485708e-08
-9.09681313512618e-08
2.40957584609517e-10
-7.01434547700378e-08
2.95921232169851e-06
-5.49222510787757e-07
-3.76489291528393e-08
3.28264272331783e-07
-1.2601101219692e-07
-2.45865696284181e-08
-2.95329001966447e-07
-1.75941427302099e-08
-2.30436766168496e-08
-3.70624913596712e-07
3.25196232053602e-09
-2.79004599280424e-08
-3.45339908523647e-07
7.07257396540853e-09
-3.67407848248951e-08
-2.99732058503033e-07
6.0844670608895e-09
-4.77629834075523e-08
-2.50360133138822e-07
3.97811553656375e-09
-5.87631862819615e-08
-1.98748631561418e-07
2.06206328261995e-09
-6.6463914895912e-08
-1.47797993539724e-07
7.58945170290651e-10
-6.80550339385661e-08
-1.0348164489745e-07
7.31622596030963e-11
-6.5443243986104e-08
-7.801361173259e-08
-9.24974285729365e-11
-5.72294792467941e-08
2.87786130040929e-06
-5.88820634889203e-07
-3.35377241728567e-08
3.5206665771855e-07
-1.63740462538861e-07
-1.14012458158987e-08
-3.06813199997625e-07
-3.45573831431913e-08
-4.37639372774266e-09
-3.87823273156648e-07
-5.73544589807008e-09
-4.97972295434192e-09
-3.63889495015206e-07
2.32359300704054e-09
-1.0596595363928e-08
-3.19406033121306e-07
3.6663096279286e-09
-1.94961278541344e-08
-2.72661829507465e-07
2.7953018135292e-09
-3.02290394695927e-08
-2.25142177576993e-07
1.45076057170952e-09
-4.09381184214535e-08
-1.76502895982753e-07
3.53757262286505e-10
-4.88297382712748e-08
-1.29496429549116e-07
-2.69500154199392e-10
-5.14449374770841e-08
-8.94359980494208e-08
-4.52725559281064e-10
-5.034027134915e-08
-6.65448139157286e-08
-2.91607786024558e-10
-4.32446390871713e-08
2.65253151728532e-06
-5.50739426023979e-08
-6.30319798875771e-08
3.05689352356576e-06
-1.10785926676902e-07
-6.68297065452763e-08
2.00508847663466e-07
-1.21490018514748e-09
-8.88278449813026e-08
3.23366471824288e-06
-1.64203239071378e-07
-6.90531032804176e-08
3.46602342228705e-07
-3.2609835998415e-09
-9.7203040065326e-08
-1.05656253163147e-07
4.54484401634085e-09
-1.04252410226213e-07
3.42920702913135e-06
-2.16734933807187e-07
-7.04612642957207e-08
3.59362682311304e-07
-4.31950305790051e-09
-1.01608553445359e-07
-7.67476391224862e-08
8.9589929934195e-09
-1.14271207834341e-07
-1.55463604004723e-07
5.0654758980223e-09
-1.13993062699878e-07
3.53921382068328e-06
-2.69280946179913e-07
-6.87521602299718e-08
3.75158385078501e-07
-7.17959351013812e-09
-1.02044494944672e-07
-1.11981803485234e-07
1.42456904716916e-08
-1.19717088440265e-07
-1.54066091691134e-07
9.70067404486713e-09
-1.23810516346568e-07
-1.5749698488808e-07
4.17169338661125e-09
-1.18683637619932e-07
3.54039096951328e-06
-3.21338768537364e-07
-6.38234869158248e-08
3.76035170173853e-07
-1.4174156964214e-08
-9.55239761654301e-08
-1.47838884863971e-07
1.84043719470426e-08
-1.18755866081859e-07
-1.97856677225419e-07
1.43032545467696e-08
-1.28417813461859e-07
-1.64671675040525e-07
8.08530179752499e-09
-1.27532531977984e-07
-1.45346125584091e-07
3.29157648580848e-09
-1.1915079739814e-07
3.46673559334909e-06
-3.72384913318024e-07
-5.76208536691591e-08
3.66837758245329e-07
-2.59173568494333e-08
-8.42660918035353e-08
-1.84949022342581e-07
1.96308662799404e-08
-1.08277897214894e-07
-2.42039193909262e-07
1.7745834921691e-08
-1.25140203995324e-07
-2.06711281228279e-07
1.13142307811612e-08
-1.29912959834384e-07
-1.5615665692027e-07
5.95425634189951e-09
-1.26109297064917e-07
-1.28981976591824e-07
2.40803793621906e-09
-1.15927919631976e-07
3.36117218941007e-06
-4.22125589927979e-07
-5.15456020672186e-08
3.54573647257665e-07
-4.22950952684932e-08
-7.13321567502484e-08
-2.18135642409498e-07
1.7256087821758e-08
-9.19239545141502e-08
-2.82254926775702e-07
1.90708334191286e-08
-1.11059817734141e-07
-2.48901848951651e-07
1.33892599334945e-08
-1.23723944327712e-07
-1.9463659234065e-07
7.91593573126576e-09
-1.25774579740971e-07
-1.41788260422091e-07
3.95735879242612e-09
-1.2047364308805e-07
-1.12391917140128e-07
1.5869887469101e-09
-1.09559835044613e-07
3.25091249830886e-06
-4.70104334121284e-07
-4.67688041915349e-08
3.44759698778677e-07
-6.32159021941934e-08
-5.83960778748062e-08
-2.45903947129386e-07
1.12328223329146e-08
-7.36491805059858e-08
-3.1524290298441e-07
1.78761975122803e-08
-9.05584741290462e-08
-2.85782818806067e-07
1.39850875374169e-08
-1.06393061853427e-07
-2.3322313032606e-07
8.96613248484955e-09
-1.16564463781981e-07
-1.77034245704171e-07
4.96600899829685e-09
-1.1730128222654e-07
-1.26005024196403e-07
2.31317947707388e-09
-1.11525729374669e-07
-9.70692435993623e-08
8.8117421390224e-10
-1.00596827255659e-07
3.1474708470666e-06
-5.15934195550967e-07
-4.35496807090784e-08
3.41485176701178e-07
-8.91299819992834e-08
-4.59355671272289e-08
-2.68865903106176e-07
1.68011830786912e-09
-5.5115843712406e-08
-3.42117195099381e-07
1.41006462583984e-08
-6.79027925966353e-08
-3.15312469638268e-07
1.29169999933127e-08
-8.25157200492852e-08
-2.66508138818088e-07
9.02342745533854e-09
-9.63318545367392e-08
-2.12392311605382e-07
5.34873586397299e-09
-1.05159196426667e-07
-1.58256795056723e-07
2.6678235485015e-09
-1.05501765322149e-07
-1.10525721337741e-07
1.05707205448055e-09
-1.00029507615032e-07
-8.33594563150168e-08
2.86729947237888e-10
-8.95275525429797e-08
3.05341869966483e-06
-5.58009719240214e-07
-4.30670294068677e-08
3.48280856030205e-07
-1.20221420003005e-07
-3.44948974020748e-08
-2.87671418512689e-07
-1.12779495959651e-08
-3.68446570102994e-08
-3.6492487037985e-07
7.85742933505355e-09
-4.48806126546916e-08
-3.39465538581506e-07
1.01257907226285e-08
-5.64090096137212e-08
-2.93037583850569e-07
7.99126797979333e-09
-6.96994822404624e-08
-2.42781808802565e-07
5.08253004636161e-09
-8.23402092398109e-08
-1.90653292008793e-07
2.62991548581599e-09
-9.05514455639514e-08
-1.39806514355276e-07
1.00053140679294e-09
-9.11627014169662e-08
-9.60398446106081e-08
1.47906750288057e-10
-8.66179672567546e-08
-7.119455667256e-08
-8.16474732681108e-11
-7.68808182698305e-08
2.96645320650245e-06
-5.94791212149117e-07
-4.30169228874009e-08
3.69101137072944e-07
-1.56678096822034e-07
-2.40014329784122e-08
-3.02243215123602e-07
-2.76446145276918e-08
-1.91031641747795e-08
-3.84791350659881e-07
-7.84695069346087e-10
-2.20365524846128e-08
-3.60403314078788e-07
5.63232080510449e-09
-2.9945014197333e-08
-3.14897471162969e-07
5.7913323426376e-09
-4.09544070216663e-08
-2.67007967079515e-07
4.08321026887997e-09
-5.35201471187243e-08
-2.18501506696292e-07
2.16068586463351e-09
-6.55025903183462e-08
-1.6930973095614e-07
6.89652970412157e-10
-7.35871583418639e-08
-1.22360800949733e-07
-1.52070739179725e-10
-7.49653429808565e-08
-8.27782184473446e-08
-4.40956080279649e-10
-7.17522629674901e-08
-6.04182848814324e-08
-3.06452272330584e-10
-6.30495350850238e-08
2.88325653073316e-06
-6.25185297926539e-07
-4.22145188584339e-08
4.0588028891656e-07
-2.00079594821219e-07
-1.28969580253227e-08
-3.12452121995245e-07
-4.76663530666037e-08
-1.45346095678125e-09
-4.02153931652363e-07
-1.18059601056446e-08
5.62251879707203e-10
-3.79146660872817e-07
-5.16391491094944e-10
-3.59126447461816e-09
-3.34115236733607e-07
2.41905365888321e-09
-1.18560612784833e-08
-2.87067275524516e-07
2.28840110313582e-09
-2.27377821919014e-08
-2.4074653499028e-07