/*--------------------------------*- C++ -*----------------------------------*\
  =========                 |
  \\      /  F ield         | OpenFOAM: The Open Source CFD Toolbox
   \\    /   O peration     | Website:  https://openfoam.org
    \\  /    A nd           | Version:  12
     \\/     M anipulation  |
\*---------------------------------------------------------------------------*/
/*   Windows 32 and 64 bit porting by blueCAPE: http://www.bluecape.com.pt   *\
|  Based on Windows porting (2.0.x v4) by Symscape: http://www.symscape.com   |
\*---------------------------------------------------------------------------*/
FoamFile
{
    format      ascii;
    class       volScalarField;
    location    "800";
    object      nut;
}
// * * * * * * * * * * * * * * * * * * * * * * * * * * * * * * * * * * * * * //

dimensions      [0 2 -1 0 0 0 0];

internalField   nonuniform List<scalar> 
10123
(
2.07064276818478e-07
2.50555995186682e-07
2.21148588878699e-05
2.28490060240883e-07
2.91864360034976e-07
2.48544842198911e-05
2.76285363737551e-07
0.000122563600406598
2.333156271961e-05
2.57097323215311e-07
3.31429316051121e-07
2.72528995544276e-05
3.21754797567042e-07
0.000132361549558658
2.61888405090685e-05
3.10695512320425e-07
0.000270336617230974
0.000125331012747661
2.49792777568845e-05
2.77697458524899e-07
3.69073164698477e-07
2.94411872904745e-05
3.65142711238575e-07
0.000141021249053333
2.86796470354342e-05
3.61772698907634e-07
0.000288158118208015
0.000135296837670263
2.79578380647554e-05
3.3515316094319e-07
0.000427077615665272
0.000272715687489754
0.000128956731328465
2.61370571866658e-05
2.78076128444808e-07
4.0404599253153e-07
3.14445814658171e-05
4.06258299338451e-07
0.000148854358498779
3.09445252568756e-05
4.10185120274923e-07
0.000304309081026269
0.000144094950216756
3.05605473187095e-05
3.89491535214167e-07
0.000452491421472519
0.000290649416533482
0.000139070479966666
2.91793321222549e-05
3.35393658197227e-07
0.000574165817927529
0.000428117116692451
0.000275625665305061
0.000131346992683975
2.62135041962531e-05
2.61827321227546e-07
4.35894307215869e-07
3.32633723139571e-05
4.44357083439752e-07
0.000155970573989708
3.3012354426594e-05
4.55556993347442e-07
0.000319053310016028
0.000152040447776639
3.29211748629838e-05
4.41200155891165e-07
0.000476066013327076
0.000306902311970953
0.000148012714518691
3.18489238317187e-05
3.89333393487472e-07
0.000606460833991046
0.000453572461953363
0.000293635059992698
0.000141521694861975
2.92438037998024e-05
3.16642797016834e-07
0.000703111522097156
0.000573805455930655
0.000428830635285188
0.000276959312867936
0.000131166332663075
2.53627090110828e-05
2.39516242207018e-07
4.6425651326374e-07
3.4895417692056e-05
4.78878960044052e-07
0.000162406546533583
3.48848590706012e-05
4.97442674979958e-07
0.000332518131996356
0.000159248048060351
3.50694302109048e-05
4.89412802176299e-07
0.000497901924553496
0.000321731123095982
0.000156082915159493
3.42693138196688e-05
4.41168181375124e-07
0.000636945725334622
0.000477183872604908
0.000309962675604154
0.000150535873234495
3.19060541180738e-05
3.67738456578735e-07
0.000741510163919036
0.000606074269171405
0.000454253917783854
0.000294951971858924
0.000141297704619831
2.83367826538758e-05
2.90475505460873e-07
0.000809735043189275
0.000701796826167831
0.000572130703914078
0.000427588577996544
0.000275240377794784
0.000128603616977806
2.40604384336181e-05
2.16778807523575e-07
4.88918901155837e-07
3.63403554398163e-05
5.09374654940142e-07
0.000168179463299064
3.65608946173338e-05
5.35281365820766e-07
0.000344760662875681
0.000165758067323419
3.70103742046597e-05
5.33964904824466e-07
0.000518060558029996
0.000335264158229459
0.000163394454545283
3.64683122019067e-05
4.89604190977165e-07
0.000665597822567805
0.000499047852121053
0.000324856289795445
0.000158671694895935
3.43246296769401e-05
4.1711017130229e-07
0.000778281097892947
0.000636527098664083
0.000477832260317447
0.000311270200036371
0.000150273772119853
3.09358630240423e-05
3.38594210307991e-07
0.000853491943470238
0.000740113970571257
0.000604250951315599
0.000452867865356435
0.000293106199492597
0.000138612287836154
2.69475419189778e-05
2.63107094472463e-07
0.000891740172601958
0.000807979138652821
0.000698295304932702
0.000568035553662866
0.000423219149048788
0.000270463534301511
0.000124553244360194
2.25941510934211e-05
1.94377735582213e-07
5.09799721705689e-07
3.76008717174854e-05
5.35702395674253e-07
0.000173304227597958
3.80403199509584e-05
5.68636475097287e-07
0.000355810460054431
0.000171590071860634
3.87433061352015e-05
5.74133933558215e-07
0.000536568576299149
0.000347561174416791
0.000169990322231135
3.84532339906749e-05
5.34268297482743e-07
0.000692391981260148
0.000519226082834501
0.000338442294650928
0.000166038092814069
3.65217380475199e-05
4.63799253705057e-07
0.000813326113825929
0.000665142354227057
0.000499661374861416
0.000326155637769977
0.000158378082446185
3.33015908515566e-05
3.84396391141856e-07
0.000895940723137658
0.000776794644427187
0.000634553737769645
0.000476306630482521
0.000309303935853455
0.000147460754625035
2.94640590816959e-05
3.07622185209742e-07
0.000940194798884802
0.000851613832940217
0.000736357550357283
0.000599861032576411
0.000448231155586831
0.000288101167334936
0.000134376278990011
2.53671285308501e-05
2.36186932078474e-07
0.000947596046639748
0.000889884330660681
0.000803414137828727
0.000691899285913628
0.000560743554933242
0.000415602907086598
0.000263385019420649
0.000119641069853113
2.10235929266062e-05
1.71935791700524e-07
5.26959591851507e-07
3.86825761849608e-05
5.57818149768069e-07
0.000177799957206078
3.93270295905733e-05
5.97329568223318e-07
0.000365690852945288
0.000176760513052155
4.02691803582795e-05
6.09477612968727e-07
0.000553434238758612
0.000358653952879856
0.000175891867819189
4.02235725288248e-05
5.74561887977446e-07
0.000717289633972661
0.00053774691642527
0.000350781707173905
0.000172680216870591
3.8504732207123e-05
5.0667667066377e-07
0.000846543696494527
0.000691896567955041
0.000519803569117529
0.00033973244725877
0.000165717562149423
3.54570965444761e-05
4.28014409984791e-07
0.000936946425663432
0.000811745607025145
0.000663021029411626
0.000498003081065071
0.000324078742703735
0.000155447733875691
3.17479142428477e-05
3.50507712480883e-07
0.000987755986430741
0.000893928297621865
0.000772779056973649
0.000629872086853262
0.000471409194119669
0.000304072799286142
0.000143038878260362
2.77823199403409e-05
2.7658601327548e-07
0.00100023213052449
0.000938187194491228
0.000846705768270284
0.000729516996562669
0.000592124417901958
0.000440223559831301
0.000280698588579032
0.000129216363440453
2.36638925935295e-05
2.09072223480831e-07
0.000976011334533232
0.00094581882906554
0.00088487054519497
0.000795562225460028
0.000682129357128342
0.000550106255758677
0.000405172115415438
0.000254597094421246
0.00011406263552759
1.9338266511519e-05
1.49388400581198e-07
5.40559052322391e-07
3.95940606483314e-05
5.75822744766397e-07
0.000181691706529832
4.0427399983476e-05
6.21291226487732e-07
0.000374429928742677
0.000181290086328234
4.15923578202714e-05
6.39783652565023e-07
0.000568662649459522
0.000368567424853045
0.000181117045591511
4.1780411962092e-05
6.10021334436983e-07
0.000740242399000607
0.000554620218573501
0.000361907608609939
0.000178620094804833
4.02736169850877e-05
5.45447808656682e-07
0.000877818923564223
0.000716752948343663
0.000538288644594218
0.000352062059979806
0.00017233628427361
3.74016591200151e-05
4.68667780228832e-07
0.000976352792914851
0.000844868012797736
0.000689632741367046
0.000518021087563264
0.000337555595834026
0.000162686871247338
3.38342987191798e-05
3.91051439087358e-07
0.00103430254491268
0.000934795085003752
0.000807472819218146
0.000658056441556668
0.000492857964831207
0.000318635770312219
0.000150851596933969
2.99807057206153e-05
3.15601481002122e-07
0.00105238186280742
0.00098558090892364
0.000888666144411726
0.000765492663654687
0.000621696405052329
0.000463017238801461
0.000296349082135003
0.000137638119724725
2.59568637835429e-05
2.45196192193339e-07
0.00103263689602025
0.000998284803793286
0.000932766181561682
0.00083827375667738
0.000719114325945573
0.000580889676618536
0.000429269572860865
0.000271479836035401
0.000123323982004659
2.18177090655757e-05
1.81605581285361e-07
0.000975599449300253
0.000974395523963181
0.000940762279230349
0.000876367565331217
0.000784119160115123
0.000668825716590798
0.000536247608136111
0.000392245737073572
0.000244291412530301
0.000107795097866503
1.75223063761068e-05
1.26797405020566e-07
5.50840598277413e-07
4.03463884772853e-05
5.89889572592004e-07
0.000185012582724393
4.13508866480664e-05
6.40636031052521e-07
0.000382065697064382
0.000185205215988376
4.27200582574107e-05
6.65006277514841e-07
0.000582267268963689
0.000377330848321655
0.000185687411072095
4.31280073116272e-05
6.40424306813253e-07
0.000761203439776279
0.000569852204826394
0.000371845789089956
0.000183875946216941
4.18291735171459e-05
5.79650567546557e-07
0.000907024951974927
0.000739664789410067
0.000555127619917346
0.000363177858255661
0.000178256124422741
3.91373545330739e-05
5.05310538329217e-07
0.00101397547473017
0.000876049215870981
0.000714355058078377
0.000536391856136261
0.000349795947225309
0.000169217833946773
3.57238378590273e-05
4.28525264297077e-07
0.00107966037308812
0.000974061072767147
0.000840345337244011
0.00068439865866904
0.000512644684815741
0.000331920257372175
0.000157934659844575
3.19859767669675e-05
3.53033386738236e-07
0.00110403095168389
0.00103195380653171
0.000929176608340854
0.000799746467964676
0.000649454368556242
0.000484098513506737
0.000310610087427884
0.00014523648130628
2.80496669355324e-05
2.80291480127274e-07
0.00108894206391585
0.00105024323663545
0.000979727474532168
0.000879642349457394
0.000754456791164086
0.000609871420324954
0.000451549616248583
0.000286712027558981
0.000131449068817378
2.39694361543774e-05
2.13295188455204e-07
0.00103679253269303
0.00103085768799799
0.000992802851406352
0.000923572177435295
0.000826014998902722
0.000704989546295714
0.000566266385359843
0.000415670502563034
0.000260617772480986
0.000116661977804119
1.98059195747719e-05
1.54075132568858e-07
0.000944458070960985
0.000974130172879351
0.000969503884062661
0.000932293327669449
0.000864180630701636
0.000768896230231071
0.000651870132198665
0.00051915265953576
0.000376816407172004
0.000232369725645748
0.000100731836606248
1.55622452945134e-05
1.04619255699347e-07
5.58086568892529e-07
4.09516092954802e-05
6.00324386884183e-07
0.000187797942292072
4.21087563680929e-05
6.55578069617891e-07
0.000388648384209906
0.000188539270938381
4.36621829868525e-05
6.85259551360157e-07
0.000594277450838611
0.000384983095793881
0.00018963083447851
4.42738079054165e-05
6.65707966980475e-07
0.000780139174304668
0.000583456980634493
0.000380625818684561
0.000188468951484566
4.31752671754954e-05
6.09024276799114e-07
0.000934033501933607
0.000760586189694536
0.00057032714817009
0.00037310545261009
0.000183494637014554
4.06649216992298e-05
5.37714712323872e-07
0.00104960234361829
0.000905164256369733
0.0007371434721126
0.000553127259018922
0.00036083296110579
0.00017506190253068
3.74104027417333e-05
4.6285896155158e-07
0.0011236013139775
0.00101154432380711
0.00087128866208952
0.000708868687730243
0.000530802429518015
0.00034398775159459
0.000164331515052858
3.38015364205013e-05
3.87894025153808e-07
0.0011550522578143
0.00107713471115713
0.000968090773491066
0.000832191719689352
0.000675388377658752
0.000503539807834645
0.000323617128751764
0.000152125367671921
2.9965433710083e-05
3.13916995796496e-07
0.00114521886721287
0.00110169250403948
0.00102565626685759
0.000919558118316595
0.00078808396876626
0.00063705415034152
0.000472138910529131
0.000300582427989317
0.000138779992658863
2.59379305807203e-05
2.44188341347316e-07
0.00109708819991178
0.00108696189435112
0.00104427743428055
0.000969810884782272
0.000866555004424243
0.000739510846883418
0.000594493736000888
0.000437294063573476
0.000275326110711209
0.000124428045495406
2.17946167513247e-05
1.81070195616158e-07
0.00101239148341006
0.0010352434517834
0.00102563747737577
0.000983581261125836
0.000910399646682626
0.000809745862077012
0.000687011306280841
0.000548216068710977
0.000399393869151892
0.000247995614695998
0.000109106274428466
1.76157421173094e-05
1.26965340189135e-07
0.000879902810005551
0.00094289313362781
0.000969285325563304
0.000961615400459934
0.000920352101051738
0.000848056677366824
0.000749573368111905
0.000630937607656178
0.00049851736437241
0.00035856404656822
0.000218533305642334
9.27151810804616e-05
1.34553348651191e-05
8.29913454524518e-08
5.62589411110564e-07
4.14222374269048e-05
6.07426311788923e-07
0.000190091049044111
4.27141944280765e-05
6.6645787779077e-07
0.000394239116464528
0.0001913300900835
4.44307488505489e-05
7.00797790395872e-07
0.000604742575362152
0.000391574820534809
0.000192980530775642
4.52276624966554e-05
6.85972074886112e-07
0.000797039194416021
0.000595464197703235
0.000388286685426474
0.000192427271214264
4.43187321492491e-05
6.33481412671119e-07
0.000958729615534244
0.000779483960486735
0.000583901017869166
0.000381873597138535
0.000188072192992884
4.19874004336458e-05
5.65622477259987e-07
0.00108300438465247
0.000932086265472769
0.000757953138472368
0.000568233971044326
0.000370691464248781
0.000180235622500381
3.8895714372227e-05
4.93442158304207e-07
0.00116584010912211
0.00104703487341553
0.000900181705244493
0.000731424843771423
0.000547344179660275
0.000354871115058224
0.000170058579966856
3.54290680076487e-05
4.19511575378186e-07
0.00120522590854184
0.00112089742053484
0.00100523275669509
0.000862726745348555
0.000699472848107833
0.000521376740845234
0.000335433857174854
0.000158347225010236
3.17025709501087e-05
3.45271942865632e-07
0.00120150453704757
0.00115250782061778
0.001070389503132
0.000957883014201843
0.000819916363470855
0.000662433978330572
0.000491115762999319
0.000313230624179533
0.000145434420900811
2.77446472739803e-05
2.73883030854067e-07
0.00115753425641576
0.001143023728804
0.00109521212256839
0.00101499793485676
0.000905635775098644
0.000772323085359384
0.000620940862238833
0.000457256587003619
0.000288709194344052
0.000131438133562909
2.36196289379472e-05
2.07666851701048e-07
0.00107715076915573
0.00109536102490669
0.00108126424169558
0.00103423190317958
0.000955622416301047
0.00084922617724866
0.000720511810583381
0.000575504541541256
0.000420200797356719
0.000262053182715797
0.00011644300398929
1.94187170648311e-05
1.49167239894791e-07
0.000959257432075028
0.00101105413804518
0.00103047064408617
0.00101704955619451
0.000970500419054533
0.000893005473776006
0.000789142052496409
0.000664830804274876
0.000526406326242594
0.000380095115885739
0.000233287673303066
0.000100478659476649
1.52415764421518e-05
1.00701413618709e-07
0.000778921752975699
0.000877485642384525
0.000937221042082268
0.000962255449644114
0.000950980223478528
0.000904579890399398
0.000827458622541213
0.000725549715332869
0.00060541725179012
0.000473731354933906
0.000336890346606573
0.000202278634523071
8.34855319752803e-05
1.11765923723982e-05
6.18617799538086e-08
5.64541869433193e-07
4.17723519296311e-05
6.11514827333975e-07
0.000191937146850796
4.31807065917089e-05
6.73618393364503e-07
0.000398909148536999
0.000193620942085625
4.50396318087409e-05
7.11933157666371e-07
0.000613732734613132
0.000397167810275861
0.000195776021841871
4.60021960857143e-05
7.01448879444041e-07
0.000811924125900446
0.000605923265550378
0.000394878602539399
0.000195783048165747
4.52692433588214e-05
6.53098424124552e-07
0.00098102697498212
0.000796347935800171
0.000595878024185638
0.000389520199990166
0.000192014620960016
4.3110763528282e-05
5.88907689247114e-07
0.00111395422142139
0.000956701156451001
0.00077675082151234
0.000581724855876124
0.000379398792541079
0.000184757727147534
4.01824035139633e-05
5.19716678397302e-07
0.00120604239018978
0.0010803056185657
0.000926900355272031
0.000752023899821092
0.000562276862825135
0.000364594279138394
0.000175131160627985
3.68648498449603e-05
4.47715185682953e-07
0.00125423265099883
0.00116295871230181
0.00104039831963006
0.000891236085942789
0.000721669846636085
0.000537623932351027
0.000346092242930195
0.000163921848327379
3.32576285878304e-05
3.7421649324841e-07
0.00125767851393457
0.00120247009752637
0.00111370779225263
0.000994449512096004
0.000849859526487641
0.000685990422108515
0.000508519021652357
0.000324719711230795
0.000151446997332783
2.93860987887893e-05
3.01794223989266e-07
0.00121855313241866
0.00119908378582834
0.00114549409070742
0.0010589798890122
0.000943127284519524
0.000803353796162916
0.000645610232632414
0.000475642112476524
0.000300910612578011
0.000137804977887541
2.52985148739096e-05
2.33331472010654e-07
0.00114149486128659
0.0011555960289756
0.00113677538620516
0.0010842959091921
0.000999767544590144
0.000887237129974488
0.000752311054252796
0.000601038896957821
0.000439387954555526
0.000274845759900075
0.000123073662332245
2.10818655151722e-05
1.71247376539279e-07
0.00103014046023706
0.00107574207086261
0.0010902517322842
0.0010718129791117
0.00101996350219585
0.00093693206287587
0.000827328049845084
0.000697090209609569
0.000552548227680327
0.000399903981922401
0.000246559584199991
0.000107308927974836
1.68372820249409e-05
1.1827590639031e-07
0.000876713788474408
0.000957915706466032
0.00100661911634621
0.00102307302083616
0.00100512821328252
0.000953211977831012
0.000870867657390076
0.000763585676191272
0.000637807357565222
0.000500195937210365
0.000357129907625437
0.000215964710789579
9.05145860767859e-05
1.26727935755875e-05
7.49581536206427e-08
0.000639765287135669
0.000766968919733569
0.000868259740813974
0.000930679496047404
0.000954090162141676
0.000937095620328713
0.000884142800064227
0.00080150905946536
0.000695929528949816
0.000574406158459057
0.000443862156163044
0.000310851512654107
0.000182780706277791
7.25634790347504e-05
8.66332121856946e-06
4.07161226633022e-08
5.64009894846625e-07
4.20128475519465e-05
6.1283641935824e-07
0.000193377389508413
4.35217044100376e-05
6.77399458587563e-07
0.000402736210725046
0.000195456826273886
4.55028880003008e-05
7.19024471150236e-07
0.000621337169814572
0.000401833793888464
0.000198060829914189
4.66112795219615e-05
7.12445061027862e-07
0.000824848726893421
0.000614904252355814
0.000400463349245394
0.000198575540917431
4.60388308488045e-05
6.68065939730301e-07
0.00100088115202896
0.0008111985181431
0.000606306294020393
0.000396093878753982
0.000195353864146903
4.40438257582307e-05
6.0761118769676e-07
0.00114224983138917
0.000978923057787037
0.00079352543200757
0.000593627002703911
0.000386990642149693
0.000188652067850806
4.12755745256155e-05
5.41691409170957e-07
0.00124384557088451
0.00111113093255472
0.000951331974639412
0.000770632875396307
0.000575612584546102
0.000373182925580894
0.000179566050810682
3.81079509801301e-05
4.72160802891079e-07
0.00130165219101908
0.00120298653979403
0.00107336550995125
0.000917600179775449
0.000741938931290487
0.000552289174713007
0.000355615282720769
0.000168862417321995
3.46303841333378e-05
4.00037880643986e-07
0.00131346410707358
0.00125126117684566
0.00115533518299754
0.00102906201096019
0.000877805208082241
0.000707690291285003
0.000524365286456448
0.000335082356879282
0.000156834112289917
3.0858898763652e-05
3.27415585908362e-07
0.00128027177919369
0.00125502072478368
0.00119491144272635
0.00110154680086807
0.00097887136847081
0.000832516342684052
0.000668486978278727
0.00049249230349889
0.000311993084497905
0.000143563853029604
2.68289683738316e-05
2.57438786879054e-07
0.00120664859519006
0.00121638432476058
0.00119223885500861
0.00113367328151063
0.0010426886091882
0.000923655581096884
0.000782343547170621
0.000624828209532567
0.000457044665774002
0.000286506622203723
0.000129102314467812
2.2616449916123e-05
1.92750462455013e-07
0.00109861678328445
0.00113991711951561
0.00114996998675057
0.00112636305808836
0.0010687903850614
0.000979749763871322
0.000864032981141626
0.000727661712791181
0.000576974141750103
0.000418153906596051
0.000258638202665716
0.000113497707778853
1.83189987602597e-05
1.35932131009089e-07
0.000957314940999802
0.0010290423558797
0.00107142851203113
0.0010820851576063
0.00105855277142777
0.00100114261128037
0.000913229019350279
0.000800227803610616
0.000668580553776296
0.000524959463653782
0.000375744631333259
0.000228298335459301
9.67575747159784e-05
1.40421111452681e-05
8.81398239387814e-08
0.000762392896950765
0.000874544228563466
0.000952907573733628
0.00100069706432096
0.00101343825826428
0.000989373693548433
0.000930942110726829
0.000843109836274182
0.000732154180481572
0.000605005218850721
0.000468617505958995
0.000329535433159173
0.000195191344107728
7.87622944282563e-05
9.86416514309222e-06
4.9307064014618e-08
0.000413386063142747
0.00045542969484592
0.000668827995841643
0.000860283810675012
0.000926332884098573
0.000944091360582823
0.00091864790312964
0.000857829554435158
0.000769041074314885
0.000659549221085402
0.000536695677405344
0.000407586369039483
0.000279035426928565
0.000158689903195175
5.91417621554293e-05
5.90073337773208e-06
2.12396608329816e-08
5.61381794650376e-07
4.21538827822732e-05
6.11509233743357e-07
0.000194455417698181
4.37494448719039e-05
6.78079286938142e-07
0.000405799811234922
0.000196881802143961
4.58344193421545e-05
7.22448264071214e-07
0.000627659153857605
0.000405650866440999
0.000199880398909918
4.70691930247627e-05
7.19310901161267e-07
0.000835900951674443
0.000622496085779984
0.000405112444932085
0.00020084851673594
4.66408269185686e-05
6.78665784437028e-07
0.00101829846491396
0.000824090092996951
0.000615254567875427
0.000401654903368323
0.00019812767981338
4.47977307319415e-05
6.21887237218296e-07
0.00116773709842746
0.000998707648427476
0.000808295686166333
0.000603986248055001
0.000393513637568995
0.000191948660766594
4.21830109750838e-05
5.59358585641898e-07
0.00127889095547987
0.00113930987130949
0.00097339081951997
0.000787239610319307
0.000587376617698399
0.000380670451148691
0.000183385091417624
3.91640373518748e-05
4.92646266657795e-07
0.00134698068702233
0.00124062085314441
0.00110391284154146
0.000941709422773108
0.000760248537682524
0.000565384384434246
0.000364026963571607
0.000173181884013272
3.58208561390253e-05
4.2230000110732e-07
0.00136841219117805
0.00129846316543678
0.00119494755765327
0.00106150703763795
0.000903640526001342
0.000727497254335019
0.00053866368015966
0.000344340499579017
0.000161608096873366
3.21588365356329e-05
3.50282963274148e-07
0.0013425811111405
0.00131055730443765
0.00124315392680444
0.00114243377895713
0.00101268319786604
0.000859711041029539
0.000689543384945009
0.000507825905390353
0.000321986647517595
0.000148725846768798
2.82035463366858e-05
2.79685963160199e-07
0.00127322051792456
0.00127785237714586
0.00124754288148311
0.00118216140239049
0.00108418529513666
0.000958333064017156
0.000810530944721664
0.000646863369558794
0.000473214787159216
0.00029709530415199
0.000134557577244226
2.40162120478378e-05
2.13038179838685e-07
0.00116742420352167
0.00120485872815679
0.00121014328716259
0.00118079435743395
0.00111688388754264
0.00102131522498973
0.000899139957449896
0.00075648705772568
0.000599699741804715
0.000434934039730109
0.00026965450707679
0.00011913204473497
1.96911071373072e-05
1.53112095568143e-07
0.00103124944360832
0.00109747508825784
0.0011352648209494
0.00114082702788197
0.00111169312129799
0.00104838987168633
0.000954445805924242
0.000835379537584071
0.000697690103788414
0.000548063161633987
0.000392878782854067
0.000239537800877014
0.000102436080936803
1.53227074402154e-05
1.01440076291305e-07
0.000859089122520796
0.000956200365404851
0.00102541315224858
0.00106512569818163
0.00107097365887226
0.0010410024779045
0.000977033153734773
0.000883634579458208
0.000766980629314151
0.000634020960448967
0.000491748044718705
0.000346718333837238
0.000206423954752515
8.43350543766057e-05
1.09838620187886e-05
5.80720153974444e-08
0.000600592303025814
0.000693347837908656
0.000865763355276688
0.000947969207650492
0.000994521625405169
0.00100087119545924
0.000968653081618227
0.000902524488689247
0.000808547872131533
0.000693651430616925
0.000565182154812193
0.00043032577012066
0.000295877834211411
0.000169627759868404
6.44261415862683e-05
6.77514866677664e-06
2.55994850255989e-08
0.000288677700207288
0.000283341795033271
0.000264059188085387
0.000369105326023449
0.000606576371766979
0.00086146915506619
0.000923115816674698
0.000930052702076077
0.000893941486588992
0.000824184713804472
0.000728660846691953
0.000614990862985941
0.000490740485866239
0.00036314301393486
0.00023941086795109
0.000128025506199954
4.2259037624758e-05
3.10734845712826e-06
7.17314942377682e-09
5.58802051319369e-07
4.2211319541523e-05
6.08124727680206e-07
0.000195211983979479
4.38757237124816e-05
6.75841236096298e-07
0.000408178340930354
0.000197939282823067
4.60474203927782e-05
7.225073367357e-07
0.000632810374911958
0.000408698997204415
0.00020128017705828
4.73902309777893e-05
7.22397418844484e-07
0.000845196533109412
0.000628802406275968
0.000408903898436239
0.000202647385187786
4.70892484792457e-05
6.85214534030577e-07
0.00103333844061168
0.000835110130570279
0.000622810430170874
0.000406274321207745
0.000200378205943855
4.53851570733223e-05
6.3198574775733e-07
0.00119032986913351
0.00101606103859613
0.000821113858896463
0.000612868847047398
0.000399025876281154
0.000194683296365693
4.29148727163064e-05
5.72849027175681e-07
0.00131086198664723
0.00116468938406883
0.000993031486796735
0.000801860616074046
0.000597612291601082
0.000387100898957635
0.000186616052882902
4.00398789612867e-05
5.09108229899492e-07
0.00138966911167131
0.00127550548834849
0.00113184196445604
0.00096347930621013
0.000776586413029683
0.000576933560727672
0.000371358468925048
0.00017690041870605
3.68318432532522e-05
4.40978182570515e-07
0.00142190344888062
0.00134357551197084
0.00123219279595896
0.0010915706150125
0.00092726130947305
0.000745382701909704
0.000551426479431854
0.000352516072182254
0.000165781578812805
3.32847547480551e-05
3.70158496401918e-07
0.00140510964388122
0.00136524579200613
0.00128981412783092
0.00118132952832302
0.00104436086646798
0.000884833699508416
0.000708748258327607
0.000521653463388182
0.000330911782297416
0.000153298728244556
2.94157322888028e-05
2.99548845203764e-07
0.00134145029483438
0.00133988854500774
0.00130241768448549
0.0012294616882867
0.00112400582228677
0.000991097017789206
0.000836783144223263
0.000667122435658237
0.000487918230905422
0.000306640906110888
0.000139447377106928
2.52742375199061e-05
2.31692377376599e-07
0.00123801630554285
0.00127118467511908
0.00127092121075044
0.00123500483023118
0.00116404753866072
0.00106143690466415
0.000932510540581739
0.000783496567783149
0.000620721391226683
0.000450288929199256
0.00027966010505249
0.000124232559185808
2.09449922763645e-05
1.69370424196196e-07
0.00110371100623367
0.0011661292271468
0.00119965454015036
0.00119989259314975
0.00116463748109158
0.00109484680966784
0.000994375628913007
0.000868930450418344
0.000725085284158807
0.000569527991468468
0.000408623979925873
0.000249793818434766
0.000107614304302694
1.65125583971623e-05
1.1438139478404e-07
0.000941835089620653
0.00103047816731735
0.00109401459786492
0.00112811780857783
0.00112816256229742
0.00109231503577028
0.00102238994558356
0.000922976557263135
0.000800315291360583
0.00066141452143468
0.000513297853664472
0.000362546402311199
0.000216682011146422
8.94258378307012e-05
1.20389035164748e-05
6.69969857757453e-08
0.00073442430521795
0.000856674075454799
0.000952093314225037
0.00102118478402881
0.00105730925785375
0.00105623354705304
0.00101812420874837
0.00094649163639726
0.000846949286046222
0.000726364634622114
0.000592143412606226
0.000451543517594871
0.000311390785789093
0.000179583225281309
6.92234835635606e-05
7.60558944588097e-06
3.00566903832246e-08
0.00039844116630538
0.00042753310739776
0.00060486103592328
0.000859271193642906
0.000946472691283655
0.000987137394595477
0.000983680397250421
0.000941427223184419
0.00086650889904085
0.000765757599771204
0.0006466252489332
0.000516765279248221
0.000383506162765396
0.000254125784297217
0.000137281341712535
4.64377131902073e-05
3.61026436872412e-06
8.67680410503558e-09
0.000161781371791051
0.00020064572102033
0.000158840806742055
0.000188270846517696
0.000213633386068551
0.000333011526546474
0.000613262885702804
0.000869689408534564
0.000916969133945684
0.000909460587583497
0.000861168146575205
0.000781596631254736
0.000678792274801941
0.000560599661208836
0.000434655049855075
0.00030831436281798
0.000189588921729971
8.91288334068142e-05
2.23369376418486e-05
9.65622529523632e-07
1.18624611270088e-09
4.2214767850477e-05
6.05067389412796e-07
0.000195689306491208
4.39180623478621e-05
6.71442999025275e-07
0.00040994841575763
0.000198671145227605
4.61551794632061e-05
7.19445473520499e-07
0.000636905517796132
0.000411057599364906
0.000202304504794741
4.75881644856961e-05
7.22015739862988e-07
0.00085287145091558
0.000633934909087457
0.000411918125079478
0.000204018033734914
4.73981676105701e-05
6.88036132442749e-07
0.00104610982091096
0.000844374210332235
0.000629076812210891
0.000410028454511062
0.000202149900518656
4.58195111115337e-05
6.38185516680289e-07
0.00121002051660255
0.00103104237018048
0.000832065184869733
0.000620360232808283
0.000403595457308971
0.000196896355498817
4.34830217099114e-05
5.82372697913823e-07
0.00133952121689632
0.00118718374488768
0.00101025800107571
0.000814545192503464
0.000606382896211047
0.000392529590195316
0.000189292576060586
4.07447012641863e-05
5.21667406825451e-07
0.0014291797894601
0.0013073262045056
0.00115700077586265
0.00098286379729427
0.000790967537440774
0.000586977835155972
0.000377651193619585
0.000180043577848119
3.7668845693361e-05
4.56007686842272e-07
0.00147318558870578
0.00138605332009089
0.00126672166491972
0.0011190600465697
0.000948586626483925
0.000761335801278787
0.000562676990916556
0.000359638179606215
0.000169372141264181
3.42399683491042e-05
3.86857792664548e-07
0.00146719866370911
0.00141847063817352
0.00133440409743868