/*--------------------------------*- C++ -*----------------------------------*\
  =========                 |
  \\      /  F ield         | OpenFOAM: The Open Source CFD Toolbox
   \\    /   O peration     | Website:  https://openfoam.org
    \\  /    A nd           | Version:  12
     \\/     M anipulation  |
\*---------------------------------------------------------------------------*/
/*   Windows 32 and 64 bit porting by blueCAPE: http://www.bluecape.com.pt   *\
|  Based on Windows porting (2.0.x v4) by Symscape: http://www.symscape.com   |
\*---------------------------------------------------------------------------*/
FoamFile
{
    format      ascii;
    class       volScalarField;
    location    "800";
    object      p;
}
// * * * * * * * * * * * * * * * * * * * * * * * * * * * * * * * * * * * * * //

dimensions      [0 2 -2 0 0 0 0];

internalField   nonuniform List<scalar> 
10123
(
83333.3296688064
83333.3296672138
83333.3296687139
83333.3296687517
83333.3296657163
83333.3296671086
83333.3296671632
83333.3296687718
83333.3296686291
83333.3296686535
83333.3296642934
83333.3296655988
83333.3296656695
83333.3296671308
83333.3296670238
83333.3296670727
83333.3296689213
83333.3296686427
83333.3296685085
83333.3296685168
83333.3296629273
83333.3296641664
83333.3296642505
83333.3296655596
83333.329665516
83333.3296655848
83333.3296672901
83333.3296670017
83333.3296669043
83333.329666942
83333.3296691743
83333.3296687434
83333.3296684829
83333.3296683573
83333.3296683378
83333.3296615987
83333.3296627942
83333.3296628867
83333.3296640798
83333.3296640849
83333.3296641705
83333.3296656825
83333.3296654301
83333.3296653983
83333.3296654574
83333.3296676644
83333.3296671177
83333.3296668418
83333.3296667565
83333.3296667672
83333.3296694742
83333.3296689615
83333.3296685297
83333.3296683074
83333.3296681704
83333.3296681154
83333.3296602903
83333.3296614616
83333.3296615594
83333.3296626719
83333.3296627141
83333.3296628094
83333.3296641723
83333.3296639518
83333.3296639698
83333.3296640474
83333.3296661244
83333.3296655146
83333.3296652683
83333.3296652535
83333.3296652844
83333.329668224
83333.3296674641
83333.3296669079
83333.3296666712
83333.3296665754
83333.3296665485
83333.3296698238
83333.3296692389
83333.32966871
83333.329668318
83333.3296681073
83333.3296679495
83333.329667851
83333.3296589899
83333.329660152
83333.3296602521
83333.3296613105
83333.329661383
83333.3296614838
83333.3296627417
83333.3296625459
83333.3296626021
83333.3296626898
83333.329664665
83333.3296640093
83333.3296637896
83333.3296638292
83333.3296638773
83333.3296668817
83333.3296659354
83333.3296653053
83333.3296651
83333.3296650741
83333.3296650654
83333.3296690025
83333.329668006
83333.3296672203
83333.3296667037
83333.3296664784
83333.3296663596
83333.3296662868
83333.3296702416
83333.3296695721
83333.3296689569
83333.3296684652
83333.3296680952
83333.3296678802
83333.3296676936
83333.3296675506
83333.329657688
83333.3296588525
83333.3296589525
83333.3296599781
83333.3296600749
83333.3296601782
83333.3296613597
83333.3296611869
83333.3296612739
83333.329661367
83333.3296632704
83333.3296625842
83333.329662386
83333.329662465
83333.3296625227
83333.3296655761
83333.3296644858
83333.3296638012
83333.3296636227
83333.3296636526
83333.3296636572
83333.3296679996
83333.3296666787
83333.3296656939
83333.3296651037
83333.3296649117
83333.3296648586
83333.3296648047
83333.3296700607
83333.3296687718
83333.3296677354
83333.3296669827
83333.329666488
83333.3296662575
83333.3296661045
83333.3296659864
83333.3296708059
83333.3296699887
83333.32966926
83333.3296686733
83333.3296682127
83333.3296678527
83333.3296676188
83333.3296674052
83333.3296672201
83333.3296563786
83333.3296575537
83333.3296576516
83333.3296586619
83333.3296587775
83333.3296588805
83333.3296600071
83333.3296598571
83333.3296599685
83333.3296600639
83333.3296619063
83333.3296612075
83333.3296610299
83333.3296611392
83333.3296612025
83333.3296642929
83333.3296631011
83333.3296623799
83333.3296622214
83333.3296622903
83333.3296623039
83333.3296669569
83333.3296653864
83333.3296642471
83333.329663601
83333.3296634361
83333.3296634357
83333.3296633917
83333.3296695559
83333.329667785
83333.3296664119
83333.3296654559
83333.32966489
83333.3296646944
83333.3296646049
83333.3296645038
83333.3296715263
83333.3296698307
83333.3296684736
83333.329667458
83333.3296667344
83333.329666249
83333.3296660026
83333.3296658141
83333.3296656548
83333.3296716654
83333.3296705589
83333.329669646
83333.3296689333
83333.3296683822
83333.3296679383
83333.3296675791
83333.3296673194
83333.3296670854
83333.3296668686
83333.3296550579
83333.3296562491
83333.3296563432
83333.3296573523
83333.3296574811
83333.3296575816
83333.3296586711
83333.3296585441
83333.3296586737
83333.3296587687
83333.3296605542
83333.3296598598
83333.329659703
83333.3296598361
83333.3296599019
83333.3296629966
83333.3296617461
83333.3296610076
83333.3296608673
83333.3296609664
83333.3296609855
83333.3296658617
83333.3296641161
83333.3296628683
83333.3296621825
83333.3296620357
83333.3296620734
83333.3296620347
83333.3296688892
83333.3296667556
83333.329665123
83333.3296640098
83333.329663388
83333.3296632205
83333.3296631793
83333.329663087
83333.3296716964
83333.3296693414
83333.3296674912
83333.3296661311
83333.3296652046
83333.329664651
83333.3296644394
83333.3296643105
83333.3296641694
83333.329673602
83333.3296713063
83333.3296695053
83333.3296681488
83333.3296671625
83333.3296664568
83333.329665976
83333.329665709
83333.3296654912
83333.3296652995
83333.3296730968
83333.329671449
83333.3296702009
83333.3296692721
83333.3296685868
83333.3296680576
83333.3296676267
83333.3296672682
83333.3296669864
83333.329666743
83333.3296665075
83333.3296537245
83333.3296549348
83333.3296550237
83333.3296560419
83333.3296561793
83333.3296562754
83333.3296573425
83333.329657238
83333.3296573801
83333.3296574725
83333.3296592025
83333.3296585285
83333.3296583931
83333.3296585438
83333.3296586094
83333.3296616714
83333.3296604011
83333.3296596643
83333.3296595423
83333.3296596651
83333.3296596868
83333.3296646804
83333.329662831
83333.3296615201
83333.3296608131
83333.3296606823
83333.3296607497
83333.3296607165
83333.3296680548
83333.3296656735
83333.3296638594
83333.3296626341
83333.3296619701
83333.329661819
83333.3296618126
83333.3296617244
83333.3296715168
83333.3296686849
83333.3296664652
83333.3296648401
83333.3296637545
83333.3296631483
83333.3296629662
83333.3296628833
83333.3296627473
83333.3296746398
83333.3296714926
83333.3296690192
83333.3296671573
83333.3296658238
83333.3296649197
83333.3296643754
83333.329664146
83333.3296639828
83333.3296638086
83333.3296766118
83333.3296734173
83333.3296709658
83333.3296691238
83333.3296677828
83333.3296668207
83333.3296661357
83333.3296656624
83333.3296653758
83333.3296651442
83333.3296649287
83333.3296755767
83333.3296729434
83333.3296710814
83333.3296697636
83333.3296688469
83333.3296681881
83333.329667683
83333.3296672705
83333.329666919
83333.3296666261
83333.3296663857
83333.329666149
83333.3296523784
83333.3296536089
83333.3296536916
83333.3296547274
83333.3296548679
83333.3296549582
83333.3296560156
83333.3296559319
83333.3296560814
83333.3296561693
83333.3296578453
83333.3296572044
83333.3296570906
83333.3296572531
83333.3296573165
83333.3296603109
83333.3296590554
83333.3296583373
83333.3296582343
83333.329658375
83333.329658397
83333.3296634033
83333.329661514
83333.3296601815
83333.3296594719
83333.3296593579
83333.3296594493
83333.329659419
83333.3296670269
83333.3296645035
83333.3296625825
83333.3296612893
83333.3296606011
83333.3296604645
83333.3296604872
83333.3296604013
83333.3296710048
83333.3296678607
83333.3296653897
83333.3296635788
83333.3296623771
83333.3296617288
83333.3296615642
83333.3296615124
83333.3296613787
83333.3296750504
83333.3296713212
83333.3296683645
83333.3296661236
83333.3296645221
83333.3296634626
83333.3296628698
83333.3296626692
83333.3296625503
83333.3296623806
83333.3296787063
83333.3296744695
83333.32967115
83333.3296686191
83333.3296667668
83333.3296654626
83333.3296645879
83333.329664058
83333.329663812
83333.3296636267
83333.3296634293
83333.3296810481
83333.3296764947
83333.329673067
83333.3296705073
83333.3296686559
83333.329667343
83333.3296664179
83333.3296657646
83333.3296653066
83333.3296650105
83333.3296647795
83333.329664555
83333.3296798918
83333.3296755334
83333.3296725759
83333.3296705561
83333.3296692257
83333.329668343
83333.3296677231
83333.3296672522
83333.3296668672
83333.3296665336
83333.3296662467
83333.3296660232
83333.3296658075
83333.3296510203
83333.3296522713
83333.3296523468
83333.3296534058
83333.3296535453
83333.3296536286
83333.3296546854
83333.3296546217
83333.3296547736
83333.3296548554
83333.3296564801
83333.3296558818
83333.3296557887
83333.3296559577
83333.3296560171
83333.3296589157
83333.3296577033
83333.329657018
83333.3296569338
83333.3296570872
83333.3296571076
83333.3296620343
83333.3296601597
83333.3296588419
83333.3296581469
83333.3296580507
83333.3296581608
83333.3296581314
83333.3296658094
83333.3296632352
83333.3296612736
83333.3296599538
83333.3296592601
83333.3296591392
83333.329659186
83333.3296591033
83333.3296701536
83333.3296668422
83333.3296642278
83333.3296623054
83333.3296610318
83333.329660358
83333.3296602069
83333.3296601813
83333.3296600497
83333.3296749019
83333.3296708168
83333.3296675466
83333.3296650474
83333.3296632549
83333.3296620801
83333.3296614475
83333.3296612643
83333.3296611739
83333.3296610051
83333.3296797798
83333.3296748834
83333.3296709744
83333.3296679487
83333.3296657131
83333.3296641446
83333.3296631211
83333.3296625471
83333.3296623331
83333.3296621868
83333.329661993
83333.329684343
83333.3296785982
83333.32967411
83333.3296706608
83333.3296681094
83333.3296662894
83333.3296650344
83333.3296642037
83333.3296636967
83333.3296634427
83333.329663252
83333.3296630402
83333.3296876392
83333.3296810424
83333.3296761431
83333.3296725028
83333.3296698942
83333.3296680737
83333.3296668182
83333.3296659505
83333.3296653426
83333.3296649121
83333.3296646228
83333.3296644055
83333.3296641916
83333.3296873167
83333.3296800258
83333.3296751797
83333.3296719206
83333.3296698508
83333.3296685711
83333.3296677533
83333.3296671885
83333.329666764
83333.3296664183
83333.3296661171
83333.3296658572
83333.3296656667
83333.3296654935
83333.3296496517
83333.3296509226
83333.3296509903
83333.3296520763
83333.3296522111
83333.3296522865
83333.3296533514
83333.3296533049
83333.3296534548
83333.3296535295
83333.329655106
83333.3296545565
83333.329654483
83333.3296546537
83333.3296547077
83333.3296574894
83333.3296563424
83333.3296557
83333.3296556349
83333.3296557955
83333.3296558128
83333.3296605844
83333.3296587691
83333.3296574957
83333.3296568299
83333.3296567519
83333.3296568756
83333.3296568456
83333.3296644215
83333.3296618725
83333.3296599269
83333.3296586171
83333.3296579353
83333.3296578317
83333.3296578983
83333.3296578175
83333.3296689896
83333.3296656321
83333.3296629677
83333.3296610004
83333.3296596964
83333.3296590153
83333.3296588793
83333.3296588772
83333.3296587479
83333.3296742254
83333.3296699719
83333.3296665358
83333.3296638886
83333.3296619794
83333.3296607313
83333.3296600734
83333.3296599057
83333.329659838
83333.3296596684
83333.329679997
83333.3296747373
83333.3296704719
83333.3296671251
83333.3296646256
83333.3296628666
83333.3296617308
83333.3296611197
83333.3296609238
83333.3296608052
83333.3296606098
83333.3296860847
83333.3296796659
83333.3296745115
83333.3296704602
83333.3296674069
83333.3296652065
83333.3296636958
83333.3296627249
83333.32966218
83333.3296619589
83333.3296618017
83333.3296615916
83333.3296921545
83333.3296843338
83333.3296782266
83333.3296735003
83333.3296699834
83333.3296674638
83333.3296657161
83333.3296645372
83333.3296637668
83333.3296632948
83333.3296630469
83333.3296628658
83333.3296626532
83333.3296974306
83333.3296877995
83333.3296806992
83333.3296754283
83333.3296716795
83333.3296691078
83333.3296673754
83333.3296662107
83333.3296654211
83333.3296648734
83333.3296644852
83333.3296642216
83333.3296640318
83333.3296638486
83333.3297000056
83333.3296877232
83333.3296797151
83333.3296743228
83333.3296709515
83333.3296689714
83333.3296678084
83333.3296670815
83333.3296665869
83333.3296662217
83333.3296659286
83333.3296656766
83333.3296654633
83333.3296653251
83333.3296652111
83333.3296482741
83333.3296495636
83333.3296496231
83333.3296507385
83333.329650866
83333.3296509327
83333.3296520123
83333.3296519802
83333.3296521247
83333.3296521911
83333.3296537241
83333.3296532273
83333.3296531711
83333.329653339
83333.3296533866
83333.3296560382
83333.3296549724
83333.3296543803
83333.3296543328
83333.3296544958
83333.3296545089
83333.3296590682
83333.329657347
83333.3296561408
83333.3296555143
83333.3296554552
83333.3296555875
83333.3296555558
83333.3296628902
83333.3296604275
83333.3296585436
83333.3296572741
83333.3296566188
83333.3296565335
83333.3296566152
83333.3296565348
83333.3296675558
83333.3296642504
83333.3296616132
83333.3296596582
83333.3296583603
83333.3296576893
83333.3296575703
83333.3296575894
83333.3296574622
83333.3296730842
83333.3296688128
83333.3296653335
83333.3296626333
83333.3296606745
83333.3296593938
83333.3296587278
83333.3296585755
83333.3296585294
83333.329658361
83333.3296794548
83333.3296740626
83333.3296696325
83333.3296661154
83333.3296634625
83333.3296615852
83333.3296603763
83333.3296597417
83333.3296595602
83333.3296594625
83333.3296592661
83333.3296866014
83333.3296798763
83333.3296743617
83333.329669947
83333.3296665656
83333.3296641007
83333.329662403
83333.3296613247
83333.3296607463
83333.3296605453
83333.3296604099
83333.3296601992
83333.3296944394
83333.3296860527
83333.3296792701
83333.3296738662
83333.3296697367
83333.3296667154
83333.3296645967
83333.3296631744
83333.3296622749
83333.329661771
83333.3296615561
83333.3296614017
83333.3296611864
83333.3297029308
83333.3296922862
83333.3296839535
83333.3296774502
83333.3296725865
83333.3296690994
83333.3296666834
83333.3296650522
83333.3296639753
83333.3296632817
83333.3296628595
83333.3296626352
83333.3296624752
83333.329662281
83333.3297119275
83333.3296978283
83333.3296874742
83333.3296797609
83333.3296742914
83333.3296705968
83333.3296681651
83333.3296665739
83333.3296655295
83333.3296648365
83333.3296643638
83333.329664034
83333.3296638147
83333.329663667
83333.3296635313
83333.329721179
83333.3297010189
83333.3296875881
83333.3296785487
83333.3296729191
83333.3296697196
83333.3296679598
83333.3296669543
83333.3296663356
83333.3296659253
83333.3296656327
83333.3296654058
83333.3296652194
83333.3296650743
83333.3296650086
83333.3296649698
83333.3296468936
83333.3296481946
83333.3296482465
83333.329649392
83333.3296495104
83333.3296495682
83333.3296506675
83333.3296506476
83333.3296507841
83333.3296508413
83333.3296523355
83333.3296518932
83333.329651852
83333.3296520136
83333.3296520535
83333.3296545684
83333.3296535945
83333.3296530569
83333.3296530252
83333.3296531861
83333.3296531941
83333.3296575015
83333.3296558999
83333.329654777
83333.3296541979
83333.3296541563
83333.3296542926
83333.3296542582
83333.3296612456
83333.3296589159
83333.3296571285
83333.3296559226
83333.3296553051
83333.3296552386
83333.3296553308
83333.3296552501
83333.3296659015
83333.3296627244
83333.3296601763
83333.3296582797
83333.3296570187
83333.3296563723
83333.329656272
83333.329656308
83333.3296561823
83333.3296715546
83333.3296673829
83333.3296639592
83333.3296612848
83333.329659334
83333.3296580572
83333.3296573995
83333.3296572642
83333.3296572394
83333.3296570733
83333.3296782707
83333.3296729218
83333.3296684801
83333.3296649186
83333.3296622082
83333.3296602786
83333.3296590354
83333.3296583928
83333.3296582275
83333.3296581484
83333.3296579516
83333.3296860937
83333.3296793277
83333.3296736887
83333.3296691077
83333.3296655507
83333.3296629291
83333.3296611128
83333.3296599632
83333.3296593626
83333.3296591787
83333.32965906
83333.3296588474
83333.3296950783
83333.3296865472
83333.3296794685
83333.3296737012
83333.3296692001
83333.329665847
83333.3296634666
83333.3296618638
83333.3296608636
83333.3296603306
83333.3296601364
83333.3296599977
83333.3296597799
83333.3297054087
83333.32969452
83333.3296856314
83333.3296784484
83333.3296728929
83333.3296687871
83333.3296658769
83333.3296638902
83333.3296625865
83333.3296617763
83333.329661328
83333.3296611348
83333.3296609958
83333.3296607913
83333.329717642
83333.3297032466
83333.3296918942
83333.3296829404
83333.3296761983
83333.3296713651
83333.3296680291
83333.3296657862
83333.3296643101
83333.3296633579
83333.3296627568
83333.3296623997
83333.3296622155
83333.3296620879
83333.3296619353
83333.3297331663
83333.3297126711
83333.3296975511
83333.3296861997
83333.3296781443
83333.3296727687
83333.3296693068
83333.3296670981
83333.3296656884
83333.3296647876
83333.3296642072
83333.329663823
83333.3296635668
83333.3296634095
83333.3296633214
83333.3296632542
83333.3297514342
83333.3297233289
83333.3297016219
83333.329686025
83333.329676414
83333.3296711117
83333.3296683336
83333.3296668566
83333.329666025
83333.3296655274
83333.3296652152
83333.3296650081
83333.3296648601
83333.329664756
83333.3296647007
83333.3296647349
83333.3296647684
83333.329645532
83333.3296468191
83333.3296468665
83333.3296480353
83333.3296481444
83333.3296481934
83333.3296493156
83333.3296493063
83333.3296494329
83333.3296494804
83333.3296509415
83333.3296505539
83333.3296505254
83333.3296506775
83333.3296507089
83333.3296530864
83333.3296522099
83333.3296517293
83333.329651711
83333.329651866
83333.3296518678
83333.3296558996
83333.3296544344
83333.3296534057
83333.3296528784
83333.3296528527
83333.3296529887
83333.3296529508
83333.3296595173
83333.3296573538
83333.3296556881
83333.3296545631
83333.3296539913
83333.3296539427
83333.3296540411
83333.3296539592
83333.329664077
83333.3296610849
83333.3296586726
83333.3296568699
83333.3296556696
83333.3296550596
83333.3296549784
83333.3296550271
83333.3296549021
83333.3296697149
83333.3296657324
83333.3296624415
83333.3296598553
83333.3296579594
83333.3296567166
83333.3296560817
83333.3296559654
83333.3296559587
83333.3296557951
83333.329676565
83333.3296713921
83333.329667058
83333.3296635533
83333.3296608652
83333.32965894
83333.3296576975
83333.3296570622
83333.3296569151
83333.3296568553
83333.3296566592
83333.3296847532
83333.3296781368
83333.3296725526
83333.3296679624
83333.3296643574
83333.3296616742
83333.3296598029
83333.3296586182
83333.3296580101
83333.3296578422
83333.3296577408
83333.3296575257
83333.3296944202
83333.3296860199
83333.3296789164
83333.3296730285
83333.3296683555
83333.3296648213
83333.3296622825
83333.3296605628
83333.3296594941
83333.3296589416
83333.3296587636
83333.3296586388
83333.3296584175
83333.3297058228
83333.3296951128
83333.3296861026
83333.3296786295
83333.3296727011
83333.3296682149
83333.3296649726
83333.3296627311
83333.3296612564
83333.3296603537
83333.3296598803
83333.3296597051
83333.3296595773
83333.3296593647
83333.3297196118
83333.3297056299
83333.329694064
83333.3296845685
83333.3296771297
83333.3296715866
83333.3296676322
83333.3296649116
83333.329663102
83333.3296619428
83333.3296612387
83333.3296608605
83333.3296607041
83333.3296605895
83333.3296604212
83333.3297373801
83333.3297181991
83333.3297028324
83333.3296905394
83333.3296811991
83333.3296744962
83333.3296698904
83333.3296668118
83333.3296647973
83333.3296635068
83333.3296626978
83333.3296622029
83333.3296619247
83333.3296617954
83333.3296617155
83333.3296616269
83333.3297624261
83333.3297346407
83333.3297126429
83333.3296957905
83333.3296838377
83333.3296759558
83333.329670977
83333.329667874
83333.3296659409
83333.3296647406
83333.3296640015
83333.3296635464
83333.3296632619
83333.3296630937
83333.3296630147
83333.3296630102
83333.3296630205
83333.3297226623
83333.3297874879
83333.3297551335
83333.3297251377
83333.329699637
83333.3296826369
83333.3296736371
83333.3296691394
83333.3296668767
83333.3296656898
83333.3296650381
83333.3296646739
83333.3296644725
83333.3296643626
83333.3296643053
83333.3296642989
83333.3296643543
83333.3296645204
83333.3296645952
83333.3296442043
83333.3296454595
83333.3296455066
83333.3296466674
83333.3296467715
83333.3296468143
83333.3296479539
83333.3296479547
83333.3296480705
83333.3296481086
83333.3296495418
83333.329649208
83333.3296491907
83333.3296493309
83333.3296493531
83333.3296515964
83333.3296508208
83333.329650397
83333.3296503896
83333.3296505355
83333.3296505302
83333.3296542758
83333.3296529569
83333.3296520277
83333.3296515557
83333.3296515431
83333.3296516748
83333.3296516326
83333.3296577324
83333.3296557566
83333.3296542296
83333.3296531969
83333.3296526755
83333.3296526431
83333.3296527435
83333.3296526599
83333.3296621294
83333.3296593618
83333.3296571187
83333.3296554357
83333.3296543136
83333.329653748
83333.3296536854
83333.3296537426
83333.329653618
83333.3296676405
83333.3296639119
83333.329660811
83333.3296583603
83333.3296565555
83333.3296553703
83333.3296547695
83333.3296546731
83333.3296546811
83333.3296545192
83333.3296744517
83333.3296695529
83333.3296654163
83333.3296620469
83333.3296594444
83333.3296575701
83333.3296563578
83333.3296557434
83333.3296556159
83333.3296555742
83333.3296553811
83333.329682754
83333.3296764248
83333.3296710298
83333.3296665527
83333.3296630023
83333.3296603369
83333.3296584658
83333.329657279
83333.3296566777
83333.3296565274
83333.3296564432
83333.3296562285
83333.3296927483
83333.3296846614
83333.329677727
83333.3296719031
83333.3296672186
83333.3296636306
83333.3296610257
83333.3296592488
83333.3296581448
83333.3296575851
83333.3296574237
83333.3296573119
83333.3296570885
83333.3297047122
83333.3296944155
83333.3296855648
83333.3296780809
83333.3296720274
83333.32966736
83333.3296639313
83333.3296615316
83333.3296599434
83333.3296589764
83333.3296584852
83333.3296583252
83333.329658206
83333.3296579878
83333.3297192215
83333.3297059647
83333.3296946198
83333.3296850265
83333.3296772889
83333.3296713551
83333.3296670123
83333.3296639639
83333.3296619108
83333.3296605929
83333.3296598053
83333.329659405
83333.3296592638
83333.3296591553
83333.329658973
83333.3297375816
83333.3297199954
83333.3297051175
83333.3296926675
83333.3296827713
83333.329675332
83333.3296699994
83333.3296663143
83333.3296638481
83333.3296622518
83333.3296612581
83333.3296606739
83333.329660379
83333.3296602717
83333.3296601954
83333.3296600853
83333.3297628623
83333.3297382473
83333.3297177803
83333.3297009879
83333.3296880842
83333.3296788073
83333.329672456
83333.3296682365
83333.3296654916
83333.3296637451
83333.3296626625
83333.32966201
83333.3296616321
83333.3296614457
83333.329661385
83333.3296613755
83333.3296613618
83333.3297974623
83333.3297650974
83333.3297354516
83333.3297103152
83333.3296922541
83333.3296806264
83333.3296734277
83333.329669034
83333.3296663546
83333.3296647272
83333.3296637554
83333.3296631907
83333.3296628699
83333.3296626942
83333.3296626258
83333.3296626418
83333.3296627574
83333.3296628349
83333.3297552089
83333.329727272
83333.3298231288
83333.3297937488
83333.3297582883
83333.3297223908
83333.3296940464
83333.3296781419
83333.329670715
83333.3296671604
83333.3296653913
83333.329664481
83333.3296640152
83333.329663797
83333.3296637184
83333.3296637156
83333.3296637595
83333.3296638661
83333.3296640575
83333.3296643611
83333.3296644417
83333.3296441431
83333.3296441808
83333.3296453119
83333.3296454158
83333.3296454563
83333.3296465779
83333.3296465915
83333.3296467005
83333.329646732
83333.3296481341
83333.3296478515
83333.3296478447
83333.3296479725
83333.3296479858
83333.3296501018
83333.3296494261
83333.3296490579
83333.3296490602
83333.3296491943
83333.3296491811
83333.3296526408
83333.3296514712
83333.329650646
83333.3296502286
83333.3296502269
83333.3296503509
83333.3296503035
83333.3296559138
83333.3296541379
83333.3296527596
83333.3296518244
83333.3296513569
83333.3296513384
83333.3296514369
83333.3296513508
83333.3296601005
83333.3296575822
83333.32965553
83333.3296539841
83333.3296529518
83333.3296524356
83333.3296523902
83333.3296524519
83333.3296523271
83333.3296653996
83333.3296619689
83333.3296590977
83333.3296568161
83333.3296551285
83333.3296540185
83333.32965346
83333.3296533831
83333.329653402
83333.3296532417
83333.3296720351
83333.3296674798
83333.3296636061
83333.3296604296
83333.3296579603
83333.3296561731
83333.3296550145
83333.329654432
83333.3296543249
83333.3296542992
83333.329654109
83333.3296802495
83333.3296743068
83333.3296691999
83333.3296649276
83333.3296615113
83333.3296589266
83333.3296571012
83333.3296559405
83333.3296553587
83333.329655228
83333.3296551611
83333.3296549496
83333.3296902943
83333.3296826464
83333.3296760205
83333.3296703987
83333.3296658273
83333.3296622884
83333.3296596948
83333.3296579132
83333.3296568047
83333.3296562508
83333.329656108
83333.329656009
83333.3296557876
83333.3297024584
83333.3296927094
83333.3296842037
83333.3296769091
83333.3296709199
83333.3296662328
83333.329662742
83333.3296602715
83333.3296586248
83333.3296576229
83333.3296571249
83333.3296569815
83333.329656871
83333.329656651
83333.3297172129
83333.329704789
83333.3296939042
83333.3296845019
83333.3296767522
83333.329670678
83333.3296661413
83333.3296629024
83333.3296606938
83333.3296592678
83333.3296584205
83333.3296580037
83333.3296578746
83333.3296577714
83333.3296575793
83333.329735543
83333.3297194825
83333.3297054012
83333.3296932279
83333.32968323
83333.3296754592
83333.3296697121
83333.329665635
83333.3296628518
83333.3296610276
83333.3296598896
83333.3296592312
83333.3296589165
83333.3296588204
83333.3296587435
83333.3296586136
83333.3297595664
83333.3297381532
83333.3297193995
83333.329703261
83333.3296902076
83333.3296802976
83333.3296731573
83333.3296682075
83333.3296648824
83333.3296627193
83333.3296613628
83333.3296605493
83333.3296600958
83333.3296598952
83333.3296598486
83333.3296598313
83333.3296597933
83333.3297934091
83333.3297643549
83333.3297380499
83333.329715286
83333.3296974856
83333.3296846989
83333.3296759738
83333.3296702066
83333.3296664751
83333.3296641126
83333.32966266
83333.3296617997
83333.3296613124
83333.3296610601
83333.3296609765
83333.3296609977
83333.3296610943
83333.3296611564
83333.3298305874
83333.3298014675
83333.3297672476
83333.3297325058
83333.3297048956
83333.3296874373
83333.3296770047
83333.3296707641
83333.3296670269
83333.3296647965
83333.3296634912
83333.3296627602
83333.3296623775
83333.3296621968
83333.3296621372
83333.3296621808
83333.329662319
83333.3296625877
83333.3296626864
83333.3297921562
83333.3297642788
83333.3297299526
83333.3298410825
83333.3298359673
83333.3297995551
83333.3297541494
83333.329713264
83333.3296863941
83333.329673618
83333.3296679403
83333.3296652321
83333.3296638991
83333.3296632549
83333.3296629844
83333.3296629248
83333.3296629794
83333.3296630921
83333.3296632494
83333.3296634963
83333.3296638899
83333.3296642294
83333.3296643302
83333.3296440151
83333.3296441033
83333.3296441335
83333.3296452135
83333.3296452413
83333.3296453487
83333.3296453773
83333.3296467154
83333.3296464817
83333.3296464862
83333.3296466058
83333.3296466136
83333.3296486028
83333.3296480234
83333.3296477085
83333.3296477189
83333.3296478406
83333.3296478202
83333.3296510023
83333.3296499814
83333.3296492587
83333.3296488954
83333.3296489027
83333.3296490162
83333.3296489629
83333.3296540805
83333.3296525081
83333.3296512815
83333.3296504483
83333.3296500347
83333.3296500277
83333.3296501208
83333.3296500315
83333.3296580256
83333.3296557693
83333.3296539204
83333.3296525212
83333.3296515855
83333.3296511215
83333.329651091
83333.3296511535
83333.3296510279
83333.3296630516
83333.3296599452
83333.3296573287
83333.3296552381
83333.3296536852
83333.3296526622
83333.3296521514
83333.3296520927
83333.3296521185
83333.3296519595
83333.3296694077
83333.3296652415
83333.3296616745
83333.3296587311
83333.329656429
83333.3296547551
83333.3296536676
83333.3296531251
83333.3296530383
83333.3296530252
83333.329652838
83333.3296773745
83333.3296718876
83333.3296671384
83333.3296631368
83333.3296599132
83333.3296574573
83333.3296557129
83333.329654601
83333.3296540487
83333.3296539388
83333.3296538879
83333.3296536804
83333.3296872494
83333.3296801294
83333.3296739118
83333.3296685928
83333.329664228
83333.329660818
83333.3296582977
83333.3296565552
83333.3296554684
83333.3296549322
83333.3296548087
83333.3296547253
83333.3296545083
83333.3296993421
83333.3296902265
83333.329682192
83333.32967523
83333.3296694471
83333.3296648663
83333.3296614149
83333.3296589477
83333.3296572914
83333.3296562824
83333.3296557894
83333.3296556635
83333.3296555631
83333.3296553471
83333.3297140445
83333.3297024798
83333.3296921908
83333.3296831706
83333.3296756159
83333.3296695943
83333.3296650234
83333.329661713
83333.3296594297
83333.329657945
83333.3296570635
83333.3296566398
83333.3296565248
83333.3296564282
83333.3296562316
83333.3297320516
83333.3297173785
83333.3297042008
83333.3296925466
83333.3296827455
83333.329674938
83333.3296690247
83333.329664741
83333.3296617663
83333.3296597923
83333.3296585532
83333.3296578399
83333.3296575091
83333.329657422
83333.3296573461
83333.329657201
83333.3297547681
83333.3297359245
83333.3297188174
83333.3297035906
83333.3296908248
83333.3296807565
83333.3296732318
83333.3296678466
83333.3296641345
83333.3296616717
83333.3296601068
83333.3296591649
83333.3296586464
83333.3296584273
83333.3296583857
83333.3296583591
83333.3296582994
83333.3297849532
83333.3297603243
83333.3297374839
83333.3297169318
83333.3296998848
83333.3296868075
83333.3296773279
83333.3296707329
83333.3296662892
83333.3296633871
83333.32966156
83333.3296604603
83333.3296598362
83333.3296595214
83333.3296594249
83333.3296594492
83333.3296595255
83333.3296595672
83333.3298238666
83333.3297958759
83333.3297649196
83333.3297348573
83333.3297102507
83333.3296926602
83333.3296807525
83333.3296729114
83333.3296678581