/*--------------------------------*- C++ -*----------------------------------*\
  =========                 |
  \\      /  F ield         | OpenFOAM: The Open Source CFD Toolbox
   \\    /   O peration     | Website:  https://openfoam.org
    \\  /    A nd           | Version:  12
     \\/     M anipulation  |
\*---------------------------------------------------------------------------*/
/*   Windows 32 and 64 bit porting by blueCAPE: http://www.bluecape.com.pt   *\
|  Based on Windows porting (2.0.x v4) by Symscape: http://www.symscape.com   |
\*---------------------------------------------------------------------------*/
FoamFile
{
    format      ascii;
    class       surfaceScalarField;
    location    "800";
    object      phi;
}
// * * * * * * * * * * * * * * * * * * * * * * * * * * * * * * * * * * * * * //

dimensions      [0 3 -1 0 0 0 0];

internalField   nonuniform List<scalar> 
28900
(
-2.27476078752108e-06
-4.24052861726235e-08
1.00076800666128e-08
-2.20203781519924e-06
-8.27326962564192e-08
1.00103787232173e-08
-3.02613079748735e-06
-1.14035802736675e-07
-8.483404970579e-09
-2.54518867457079e-06
-5.94009979908328e-08
1.89556072422717e-08
-2.10135337581876e-06
-1.09592493242452e-07
8.91776716277681e-09
-2.91954399171284e-06
-1.79677797398144e-07
-9.64127282248633e-09
-2.45065977102653e-06
-1.0507766002926e-07
2.05591178633375e-08
-2.62680742754484e-06
-1.77747620780112e-07
-1.42772605844295e-08
-3.49022172621943e-06
-1.56261400900851e-07
-1.77341766732965e-08
-3.10472228084093e-06
-7.00740522318278e-08
1.97867338463368e-08
-1.9785024351461e-06
-1.31252228365369e-07
8.39700078722167e-09
-2.79457898614736e-06
-2.25204256768901e-07
-9.35852722613232e-09
-2.32566631800305e-06
-1.37303950741082e-07
2.12338075067709e-08
-2.53586538300918e-06
-2.57832781639555e-07
-1.27910612016836e-08
-3.35517718213873e-06
-2.34487307824446e-07
-1.52669856558011e-08
-2.98688287841169e-06
-1.25039704851789e-07
2.77615513974315e-08
-2.1849779841293e-06
-2.42244609430432e-07
-1.30347165131872e-09
-3.13722728303029e-06
-2.37864050268203e-07
-2.395231564643e-08
-4.26408586356202e-06
-1.9946777489605e-07
-2.40182275728535e-08
-3.59661857124613e-06
-8.76587109284036e-08
2.40701672803284e-08
-1.83841179272059e-06
-1.48216487102686e-07
8.13071431868414e-09
-2.657505975251e-06
-2.58815761083063e-07
-9.51151752271046e-09
-2.17623492166168e-06
-1.62857262209211e-07
2.18183429083613e-08
-2.43355450501827e-06
-3.16740479685825e-07
-1.07754123261217e-08
-3.20071730356974e-06
-2.89849901050372e-07
-1.12660340664065e-08
-2.83405494286932e-06
-1.66521908029874e-07
3.49201155716369e-08
-2.11124143984016e-06
-3.32296005751483e-07
7.27548462729538e-10
-3.02764260328845e-06
-3.37901574795068e-07
-1.89600815839547e-08
-4.09425603151658e-06
-2.95998723715165e-07
-1.41499098534534e-08
-3.4590118017902e-06
-1.49101645446371e-07
3.92411804819715e-08
-1.8906518922207e-06
-3.10928405392886e-07
1.11449554309967e-08
-2.62110730312877e-06
-3.21643104875008e-07
7.21278023396317e-10
-3.89673473503626e-06
-3.13796407001057e-07
-2.81596835039333e-08
-4.92246683294403e-06
-2.44916014174661e-07
-2.34429208926531e-08
-3.94661801121927e-06
-9.89905847573896e-08
2.98574858458131e-08
-1.68664283056736e-06
-1.59718627689747e-07
7.9394085148249e-09
-2.51312320846433e-06
-2.82931984239517e-07
-9.66585291637189e-09
-2.007966080506e-06
-1.82654980041541e-07
2.25076078266e-08
-2.32324584424741e-06
-3.59809389893245e-07
-9.31215691861347e-09
-3.03352617959971e-06
-3.29970724942769e-07
-9.57689332037822e-09
-2.65330020211206e-06
-1.98356195810303e-07
3.94300839826134e-08
-2.02930379160315e-06
-4.01488853752293e-07
2.80962892672393e-09
-2.90354080283292e-06
-4.11142215546674e-07
-1.35810516402149e-08
-3.90220957320343e-06
-3.65104462054986e-07
-4.71607133102337e-09
-3.2825573500371e-06
-1.94577090264971e-07
5.30332553073063e-08
-1.82602811253452e-06
-4.10811072878436e-07
1.38904752628913e-08
-2.52887933277795e-06
-4.35895619724401e-07
6.49257049662118e-09
-3.75626686899492e-06
-4.38021892003312e-07
-1.74006364509918e-08
-4.72588626288571e-06
-3.54604014899737e-07
-5.20968598399945e-09
-3.7964043597412e-06
-1.62568023661378e-07
5.16019347624269e-08
-1.6700357410641e-06
-3.88280121825385e-07
2.28433262375162e-08
-2.24056995945487e-06
-4.09734323531721e-07
2.58062394013438e-08
-3.26311551899914e-06
-4.26296449512857e-07
5.4835977365147e-09
-4.55048677934838e-06
-3.8368109980735e-07
-2.90482782173959e-08
-5.39518351601653e-06
-2.68514585394263e-07
-2.504665688463e-08
-4.15248279209902e-06
-9.33837178463435e-08
2.80731652870107e-08
-1.52791983104662e-06
-1.66447535934301e-07
7.73288747593614e-09
-2.36464131681477e-06
-2.98375635191472e-07
-9.82169276152578e-09
-1.82669832690164e-06
-1.96245555999197e-07
2.29163945079145e-08
-2.20801142459081e-06
-3.8981612429202e-07
-8.35190937595465e-09
-2.85838420813396e-06
-3.58355089262745e-07
-9.10076759889156e-09
-2.4522855170516e-06
-2.209679899727e-07
4.24611620498738e-08
-1.94117298758217e-06
-4.52568968260626e-07
4.62898635850634e-09
-2.76929971776346e-06
-4.64043888963209e-07
-9.48130705580275e-09
-3.69684946583402e-06
-4.14519393365327e-07
1.2327847427338e-09
-3.07448836109396e-06
-2.31416946753034e-07
6.27828814780444e-08
-1.75499958121185e-06
-4.88966101486506e-07
1.64474017716235e-08
-2.4266866540498e-06
-5.22710444758117e-07
1.21868359517051e-08
-3.59888628132664e-06
-5.2878762547594e-07
-7.28258768202481e-09
-4.50327379586498e-06
-4.33281766021477e-07
1.13776003182368e-08
-3.60616415176955e-06
-2.08431773525201e-07
7.12228517635815e-08
-1.60927932644204e-06
-4.97544057379764e-07
2.59767020035311e-08
-2.1586171337858e-06
-5.36513267958728e-07
3.25545649050347e-08
-3.14303782969061e-06
-5.68752771097898e-07
1.7143977779782e-08
-4.38539974754241e-06
-5.26824796482712e-07
-1.02697981499296e-08
-5.18056177431595e-06
-3.84815589410473e-07
2.40100050815865e-09
-3.99684730308254e-06
-1.62558542979988e-07
5.85117311802647e-08
-1.48302654786997e-06
-4.777209960758e-07
3.49658015538091e-08
-1.96971600019931e-06
-5.07519968581672e-07
4.97123414286399e-08
-2.76440108585111e-06
-5.40932476841092e-07
4.27351153319713e-08
-3.82913147272682e-06
-5.18892905835022e-07
1.10173029162211e-08
-5.00253580097297e-06
-4.15422474949197e-07
-3.41710847024603e-08
-5.70440903754806e-06
-2.63343137920489e-07
-3.79574511781348e-08
-4.27085077740525e-06
-7.71212723891127e-08
1.3402802267314e-08
-1.36648132732648e-06
-1.68978081823886e-07
7.55186592278455e-09
-2.21488461661963e-06
-3.06059515112696e-07
-1.0142766577771e-08
-1.63763622455513e-06
-2.04144682118018e-07
2.28242115259771e-08
-2.0902437773697e-06
-4.08339322280386e-07
-7.80158789324512e-09
-2.67907070060189e-06
-3.76116605336813e-07
-9.26100972112872e-09
-2.23729741767187e-06
-2.3624255068193e-07
4.41938712193516e-08
-1.84887353992624e-06
-4.87973573705561e-07
5.85518979061706e-09
-2.62876810547181e-06
-5.00307675823195e-07
-6.9269696445968e-09
-3.48278055318931e-06
-4.48480885824986e-07
4.3614426137728e-09
-2.84478278881884e-06
-2.56267649053613e-07
6.90289438220151e-08
-1.67907333037527e-06
-5.47070041148638e-07
1.85750491768655e-08
-2.31702493143481e-06
-5.85897658945498e-07
1.68220874813866e-08
-3.429879140292e-06
-5.93749318025318e-07
7.41621275741143e-10
-4.26634294273495e-06
-4.89833396221799e-07
2.27229851933903e-08
-3.38129939031204e-06
-2.48900217993398e-07
8.68200289491294e-08
-1.54362846942709e-06
-5.83478853910615e-07
2.88615854344187e-08
-2.06937881342373e-06
-6.34367315561958e-07
3.88655785090005e-08
-3.01134130040404e-06
-6.76047274242749e-07
2.7752072177069e-08
-4.20079548890972e-06
-6.31028849081227e-07
5.8605189688194e-09
-4.93647957752629e-06
-4.6740604628732e-07
2.62706833238193e-08
-3.80193639199755e-06
-2.06337097757632e-07
8.26365371067822e-08
-1.42379617967707e-06
-5.9519182654208e-07
3.841771767574e-08
-1.89143283339969e-06
-6.45971710161842e-07
5.71539681179867e-08
-2.65734395090471e-06
-6.98381656826693e-07
5.51262533287247e-08
-3.68595018695788e-06
-6.83181339913116e-07
3.03143231183028e-08
-4.82257657364191e-06
-5.68992967633887e-07
-6.05006158040558e-09
-5.48067820683653e-06
-3.84162310160929e-07
2.71834617308795e-10
-4.11662761549881e-06
-1.49515238339858e-07
5.3812264451177e-08
-1.31554069371811e-06
-5.8309764213896e-07
4.90751698054485e-08
-1.76059867107682e-06
-6.21429583878366e-07
7.56671393440125e-08
-2.41767754066223e-06
-6.66356347261973e-07
8.00415977658033e-08
-3.23606976538022e-06
-6.54249897946666e-07
5.92721575527752e-08
-4.22101029295724e-06
-5.58932265122061e-07
1.16377867332849e-08
-5.29004379828416e-06
-4.06080334209133e-07
-4.97952287882698e-08
-5.92555515832989e-06
-2.39775337084001e-07
-6.73327997453034e-08
-4.35223199621861e-06
-5.90969314381244e-08
-1.3915336925692e-08
-1.20587142021358e-06
-1.67912081359761e-07
7.29741079625448e-09
-2.06628480674441e-06
-3.06935986060039e-07
-1.06359439737464e-08
-1.44575054925412e-06
-2.06681383197489e-07
2.23241224794983e-08
-1.97202244259573e-06
-4.16717620880897e-07
-7.56241569981539e-09
-2.49879121562616e-06
-3.84581909397851e-07
-9.97583767569222e-09
-2.01424781108242e-06
-2.44916004719865e-07
4.46920519943131e-08
-1.75422378755408e-06
-5.09521129417315e-07
6.53218986376489e-09
-2.48504784185297e-06
-5.22130286266895e-07
-5.5050973516334e-09
-3.26443713326704e-06
-4.69624169842893e-07
5.76931370994296e-09
-2.59984050691363e-06
-2.73651595992288e-07
7.28975381060377e-08
-1.59969398358933e-06
-5.87330244805138e-07
1.99761578274234e-08
-2.20255381943712e-06
-6.28846202537978e-07
1.99210043058728e-08
-3.25366334947286e-06
-6.37674093230482e-07
6.05547184935704e-09
-4.01988538618904e-06
-5.28264764268375e-07
2.99040573818774e-08
-3.13243194204584e-06
-2.77051376132419e-07
9.72058784548461e-08
-1.47435105052829e-06
-6.47571691438575e-07
3.12235159634501e-08
-1.9746640762543e-06
-7.05909341841491e-07
4.38718966391118e-08
-2.87119080788548e-06
-7.53267411480882e-07
3.61912683287822e-08
-4.00324725149429e-06
-7.05406156402398e-07
1.87620433336838e-08
-4.67779656132107e-06
-5.29311040519616e-07
4.44600231712783e-08
-3.57139679823169e-06
-2.47233168206714e-07
1.03527364790557e-07
-1.36123606768086e-06
-6.87539158511544e-07
4.1500254166431e-08
-1.80792123474408e-06
-7.52908091830323e-07
6.38898287415053e-08
-2.54211969361918e-06
-8.1849607152158e-07
6.60897228514884e-08
-3.52963968036541e-06
-8.06232608883941e-07
4.66504987930073e-08
-4.62047515925175e-06
-6.80383766859664e-07
1.67351565301436e-08
-5.22474357672182e-06
-4.66449402000426e-07
3.04386718018906e-08
-3.92149891321051e-06
-1.97684512448933e-07
8.51668511650793e-08
-1.25668610439507e-06
-7.06589195780182e-07
5.25430282174822e-08
-1.68180121559103e-06
-7.69924027236738e-07
8.35715390065078e-08
-2.31490667874619e-06
-8.37125985864469e-07
9.31266789242212e-08
-3.10769763654308e-06
-8.35057383481131e-07
7.86297063141467e-08
-4.06386192111223e-06
-7.35018701529225e-07
3.91896885659871e-08
-5.10344537764084e-06
-5.63952898710006e-07
-1.28715512486223e-08
-5.6933672422853e-06
-3.62145546006039e-07
-1.92878927242503e-08
-4.20396100640453e-06
-1.29008141537887e-07
3.45464661419024e-08
-1.15856440213725e-06
-7.09728063516744e-07
6.67955255311518e-08
-1.58380081706508e-06
-7.58776215505237e-07
1.07015164370052e-07
-2.16693135570676e-06
-8.12631058220098e-07
1.22365211951914e-07
-2.82760809393117e-06
-8.00967560125949e-07
1.10503095051951e-07
-3.5695054681376e-06
-7.01805835094096e-07
7.04806039660839e-08
-4.47440428158174e-06
-5.45673789534141e-07
2.29057171790429e-09
-5.49857280115166e-06
-3.72342841693896e-07
-7.86559139975226e-08
-6.11955346106354e-06
-2.111485424265e-07
-1.12245188579609e-07
-4.42053181569174e-06
-4.26717684001953e-08
-5.0809745193658e-08
-1.04901941368807e-06
-1.63827151142536e-07
6.98780709994976e-09
-1.92092650926852e-06
-3.0199201588748e-07
-1.12711508929392e-08
-1.25516801468537e-06
-2.0480145819729e-07
2.15174642750345e-08
-1.85511874536174e-06
-4.16210851992674e-07
-7.62834816603653e-09
-2.32031954990168e-06
-3.84681316562116e-07
-1.11106396767819e-08
-1.78847221298915e-06
-2.47719444249e-07
4.42692612319459e-08
-1.65891022033904e-06
-5.18785553846331e-07
6.7537116534835e-09
-2.34081002982844e-06
-5.31319902366342e-07
-5.06656542198053e-09
-3.04550225182661e-06
-4.79346114285784e-07
5.53628182250875e-09
-2.3461710078842e-06
-2.83489852166094e-07
7.45325841238686e-08
-1.51827290872887e-06
-6.11636134457228e-07
2.06934689992455e-08
-2.08564489525659e-06
-6.54148329509912e-07
2.16419959276719e-08
-3.07414709826719e-06
-6.63686837302724e-07
9.04299116716833e-09
-3.76902312349915e-06
-5.52237024171901e-07
3.34845964170294e-08
-2.86716156585543e-06
-2.96235174617903e-07
1.0383647649816e-07
-1.40247811253711e-06
-6.91952047327942e-07
3.27488013812651e-08
-1.87639015888078e-06
-7.54293044226119e-07
4.71473297237829e-08
-2.72588673514695e-06
-8.04948897709042e-07
4.18894273606573e-08
-3.79757037350935e-06
-7.55487011437807e-07
2.76008712600817e-08
-4.4093841177153e-06
-5.71285486991579e-07
5.57129259747435e-08
-3.31402097036702e-06
-2.79657586398447e-07
1.19476475854271e-07
-1.2963234537079e-06
-7.5645581514114e-07
4.39715396660745e-08
-1.72077177782646e-06
-8.3094401683015e-07
6.91076134417984e-08
-2.42103774145063e-06
-9.05081123962607e-07
7.46047544934444e-08
-3.36387466066641e-06
-8.94320917656471e-07
5.93411982600639e-08
-4.40485372910029e-06
-7.60550293765526e-07
3.43863321131828e-08
-4.9518334486322e-06
-5.30015661301592e-07
5.43410137798093e-08
-3.69181699125016e-06
-2.35796481903177e-07
1.09655254720352e-07
-1.1963840627213e-06
-8.03453625332539e-07
5.56125760288832e-08
-1.59992118700641e-06
-8.83800784532464e-07
9.05119146483424e-08
-2.2067213809924e-06
-9.67130177181907e-07
1.04335761679411e-07
-2.97047136742792e-06
-9.72117350694107e-07
9.47474643745627e-08
-3.89232447955164e-06
-8.66849998262911e-07
6.15828951608325e-08
-4.8922539523311e-06
-6.78445592962517e-07
1.75382041280521e-08
-5.43314344464076e-06
-4.4780339915357e-07
2.0331273498273e-08
-4.01309266968749e-06
-1.7960549276794e-07
7.38954974595866e-08
-1.0993990922187e-06
-8.35629665705837e-07
6.98750454853416e-08
-1.50162504648587e-06
-9.14518202633039e-07
1.14960785614236e-07
-2.0620614547643e-06
-9.94487848032907e-07
1.36061988407543e-07
-2.70390105591265e-06
-9.96028875191892e-07
1.30388617046426e-07
-3.42816553054844e-06
-8.95080500465699e-07
9.73534695696177e-08
-4.3106260101035e-06
-7.26323485849448e-07
3.77816949066199e-08
-5.30822184424634e-06
-5.31275080457702e-07
-3.41010638406531e-08
-5.88083546840062e-06
-3.31225047514032e-07
-5.57978431564816e-08
-4.27986581867803e-06
-1.10732690623698e-07
4.60246220787063e-09
-1.00032796360243e-06
-8.65396212480185e-07
9.01628638145283e-08
-1.42184445869262e-06
-9.29056126485569e-07
1.47328533732298e-07
-1.96579731937779e-06
-9.90909195670231e-07
1.74949382471978e-07
-2.5426019624822e-06
-9.7194462458787e-07
1.70813214737433e-07
-3.12507239539541e-06
-8.55814705119006e-07
1.35493815160393e-07
-3.7933340004028e-06
-6.8432235131286e-07
7.17877602362611e-08
-4.66815356005039e-06
-5.01617996004674e-07
-1.96232380368792e-08
-5.68771350826798e-06
-3.30158265846465e-07
-1.21751735966658e-07
-6.31224237178478e-06
-1.83841333364398e-07
-1.71828758157215e-07
-4.48187177132739e-06
-2.88594246811724e-08
-9.41219248107183e-08
-8.98313445214958e-07
-1.57350068515494e-07
6.64187668363202e-09
-1.78059631153191e-06
-2.92182913021216e-07
-1.19779641836009e-08
-1.06926527647635e-06
-1.99432433745878e-07
2.05122253313906e-08
-1.74108580701733e-06
-4.08092667881185e-07
-7.93296012397174e-09
-2.14604623984765e-06
-3.77769708370946e-07
-1.25818063642269e-08
-1.56445383705697e-06
-2.45555685077238e-07
4.30812519153373e-08
-1.56445215102012e-06
-5.17244462206038e-07
6.57551584071834e-09
-2.19819118439324e-06
-5.29534126509342e-07
-5.39578130469085e-09
-2.82913747792029e-06
-4.79125877206852e-07
3.94429951222779e-09
-2.08958439348447e-06
-2.86706013884124e-07
7.43729197798149e-08
-1.43621270294908e-06
-6.21669558950682e-07
2.082289656201e-08
-1.9683714572741e-06
-6.64021024177248e-07
2.21837709004879e-08
-2.89444466465734e-06
-6.7414468547111e-07
1.00321702089677e-08
-3.51770298065995e-06
-5.63270964816797e-07
3.39857187020263e-08
-2.59238237158175e-06
-3.07350942429921e-07
1.07085421176103e-07
-1.32907356234194e-06
-7.18521427535075e-07
3.34810525429678e-08
-1.77636684331926e-06
-7.82319212588595e-07
4.88401815562048e-08
-2.57835070543464e-06
-8.34651822395115e-07
4.50727013143499e-08
-3.58831675439783e-06
-7.85061771589948e-07
3.26144919591351e-08
-4.13617728072203e-06
-5.97785321546698e-07
6.18531660771803e-08
-3.03903367367083e-06
-3.00624741393341e-07
1.29486879742862e-07
-1.22967202156466e-06
-8.04134844380348e-07
4.55316470650272e-08
-1.63140783327925e-06
-8.83329821614809e-07
7.24216037883676e-08
-2.29654359147874e-06
-9.62486590850919e-07
8.01905398593381e-08
-3.19251435598704e-06
-9.52941259130547e-07
6.79824289815341e-08
-4.18051850672927e-06
-8.15072429464353e-07
4.70515775176669e-08
-4.67012917666296e-06
-5.76829434340709e-07
7.11765664076489e-08
-3.43434164555385e-06
-2.67782915296919e-07
1.2976263667624e-07
-1.13510467213779e-06
-8.75782815295875e-07
5.80478812597004e-08
-1.51633445542873e-06
-9.66318149711499e-07
9.57587734448065e-08
-2.09516859282729e-06
-1.06032083133596e-06
1.12796231978181e-07
-2.82692406741822e-06
-1.07021804127069e-06
1.06954444675589e-07
-3.71055550281e-06
-9.61549502941349e-07
7.85693794351465e-08
-4.66628253173758e-06
-7.61630437076909e-07
4.00242601170508e-08
-5.1536446449783e-06
-5.10415625574642e-07
4.94776826160336e-08
-3.78659344420768e-06
-2.22246477492204e-07
1.05404710594475e-07
-1.04132815616153e-06
-9.34159537471809e-07
7.26345164783677e-08
-1.41912507981153e-06
-1.03245730659463e-06
1.21769145819488e-07
-1.95470549139709e-06
-1.13133966316936e-06
1.47366448469561e-07
-2.57473199743739e-06
-1.14340784486496e-06
1.46457532778382e-07
-3.27738161531129e-06
-1.04172752040603e-06
1.18843393518601e-07
-4.13147488681417e-06
-8.62317136161727e-07
6.63052408562615e-08
-5.09348427385323e-06
-6.47933630808538e-07
2.92963385560936e-09
-5.61374137467082e-06
-4.17884019339943e-07
-8.46395785037668e-09
-4.09541959468115e-06
-1.61083365239081e-07
5.05334167308862e-08
-9.40449434742522e-07
-9.8769556128259e-07
9.21878851706485e-08
-1.33377080114941e-06
-1.08726068255957e-06
1.5454373263867e-07
-1.85401330349882e-06
-1.1801206333689e-06
1.88808645228871e-07
-2.41546622677165e-06
-1.17864190482923e-06
1.91538680461685e-07
-2.98866588785778e-06
-1.06391982763996e-06
1.62819832742552e-07
-3.64595482958241e-06
-8.82440425002419e-07
1.06088508422971e-07
-4.50120023182296e-06
-6.8360615951399e-07
2.31558888800692e-08
-5.49474090596279e-06
-4.88601735642651e-07
-6.97033804844823e-08
-6.06958885899273e-06
-3.02215664715924e-07
-1.06963619480539e-07
-4.34992281070421e-06
-9.49903328541328e-08
-3.23714941306506e-08
-8.23937942532848e-07
-1.06158288435687e-06
1.21867897364898e-07
-1.259667570154e-06
-1.14563522359873e-06
2.01127483950691e-07
-1.78613361164284e-06
-1.2149640470077e-06
2.43463631150741e-07
-2.32081608716573e-06
-1.18090269423768e-06
2.46909858732836e-07
-2.82133808769731e-06
-1.03449448813238e-06
2.13407960345525e-07
-3.33233539167751e-06
-8.32810263440697e-07
1.49747091393299e-07
-3.97318049197429e-06
-6.29476297255625e-07
6.04168707145285e-08
-4.8529462987014e-06
-4.4652298464129e-07
-5.50652192632193e-08
-5.88073195763206e-06
-2.89118979449444e-07
-1.7837669506043e-07
-6.51667253658794e-06
-1.62062271571793e-07
-2.42782123763034e-07
-4.53836185491507e-06
-1.89264114766493e-08
-1.39549097652318e-07
-7.55632370215863e-07
-1.49009323190259e-07
6.32915729962242e-09
-1.64670886835338e-06
-2.78562607878225e-07
-1.26826116088562e-08
-8.90765446444277e-07
-1.91266951202186e-07
1.9409376772938e-08
-1.63130962633458e-06
-3.93514779149744e-07
-8.44279014009565e-09
-1.97802341559966e-06
-3.65082982210735e-07
-1.43492240608837e-08
-1.34600112496973e-06
-2.39300248955421e-07
4.13225194820366e-08
-1.47222351030322e-06
-5.06377551786297e-07
6.05462032028999e-09
-2.05908829634654e-06
-5.18441853890523e-07
-6.36125936895044e-09
-2.61808311850879e-06
-4.70479673441093e-07
1.28294491157289e-09
-1.83500802845338e-06
-2.843191626566e-07
7.2815926400623e-08
-1.35484635488624e-06
-6.19041166269496e-07
2.0430572433644e-08
-1.85253184279843e-06
-6.6050385284524e-07
2.1706325596028e-08
-2.71710955766537e-06
-6.71208358185273e-07
9.35235345343714e-09
-3.26937553406525e-06
-5.63028261869911e-07
3.19441509556749e-08
-2.31421024353788e-06
-3.11372871374827e-07
1.0757134764377e-07
-1.25528754602961e-06
-7.28967842024478e-07
3.35128767595024e-08
-1.67625296927689e-06
-7.92465521617772e-07
4.91539088272039e-08
-2.43103600191978e-06
-8.45346600314391e-07
4.60692742167953e-08
-3.37899100048e-06
-7.96888468431443e-07
3.43249492570854e-08
-3.86237659746823e-06
-6.10638620418822e-07
6.34846811479556e-08
-2.75373842682592e-06
-3.13349312516859e-07
1.3512788044376e-07
-1.16198725444816e-06
-8.32424647974958e-07
4.62176876576078e-08
-1.54117440225427e-06
-9.13047473250163e-07
7.39765794707421e-08
-2.17082208156353e-06
-9.94609717655386e-07
8.30766200379495e-08
-3.01896106166873e-06
-9.86384973054889e-07
7.28407784400377e-08
-3.95215044739063e-06
-8.47928380392978e-07
5.4387663040921e-08
-4.38334223220666e-06
-6.06127437425663e-07
8.05731289961833e-08
-3.15690483478769e-06
-2.92857628216343e-07
1.44876867737126e-07
-1.07289172681255e-06
-9.25880733390963e-07
5.95334701373728e-08
-1.43197999689294e-06
-1.02110611462806e-06
9.89522737644243e-08
-1.98205828206158e-06
-1.12128889297281e-06
1.18113256783861e-07
-2.67994381184233e-06
-1.13469870712696e-06
1.14965546479391e-07
-3.52274417838639e-06
-1.02514571001247e-06
9.02488606555627e-08
-4.43188186595226e-06
-8.19966254022819e-07
5.57936707390572e-08
-4.86249463449145e-06
-5.58160972458432e-07
7.0425774846237e-08
-3.53154384522615e-06
-2.5512532695214e-07
1.29840632259749e-07
-9.83940698943771e-07
-1.00798514585012e-06
7.48141772799215e-08
-1.33721134919796e-06
-1.11695215533023e-06
1.26766715346236e-07
-1.84667702876707e-06
-1.22818462405042e-06
1.55593915111805e-07
-2.44230511952345e-06
-1.24807919191849e-06
1.58230452996099e-07
-3.11978602418789e-06
-1.1470040537848e-06
1.34816728857512e-07
-3.94122323111655e-06
-9.61053138233163e-07
8.77389257379188e-08
-4.86199877112329e-06
-7.33463372820133e-07
3.15856425650883e-08
-5.33010473037429e-06
-4.84994846814899e-07
2.86034295561717e-08
-3.87467367386562e-06
-2.03487355465627e-07
8.81565242271554e-08
-8.85418531610007e-07
-1.08333141585277e-06
9.41412425566488e-08
-1.24935197583079e-06
-1.20483954345154e-06
1.60597728562711e-07
-1.74361735320676e-06
-1.31972947790873e-06
1.99761255365127e-07
-2.28647148021042e-06
-1.3326579159054e-06
2.0762236925999e-07
-2.84658785931767e-06
-1.22138012287704e-06
1.84030082542248e-07
-3.48848015137547e-06
-1.03394434306299e-06
1.32996428068234e-07
-4.31815971842379e-06
-8.22102405040101e-07
5.74324516487354e-08
-5.2766666252874e-06
-6.06473860978773e-07
-2.65652547835167e-08
-5.79894982318721e-06
-3.88261598483487e-07
-5.19110564206321e-08
-4.17427799078349e-06
-1.44789683649415e-07
1.96548352630114e-08
-7.63275650939246e-07
-1.1700404931362e-06
1.21682340713364e-07
-1.16295979870234e-06
-1.29793820793337e-06
2.06157039324117e-07
-1.66299724262242e-06
-1.40506454659527e-06
2.56351255198085e-07
-2.18387267836863e-06
-1.39491445396104e-06
2.68138647453679e-07
-2.68084132102128e-06
-1.25486335378243e-06
2.41984888130994e-07
-3.19026914026215e-06
-1.04628701311906e-06
1.84599236266754e-07
-3.82318577254308e-06
-8.29200978503639e-07
1.01686782324739e-07
-4.68411017966385e-06
-6.28700312797484e-07
-5.58861410442936e-09
-5.68642451535146e-06
-4.46686967417743e-07
-1.1953943708643e-07
-6.27077747207035e-06
-2.77921994412564e-07
-1.69940126856548e-07
-4.41597583985169e-06
-8.22791374933324e-08
-7.24720296706973e-08
-6.04824063351382e-07
-1.31522661810439e-06
1.65509109735913e-07
-1.07847841206743e-06
-1.42810750032898e-06
2.74581598408899e-07
-1.60745865244462e-06
-1.50373537178096e-06
3.35392687630042e-07
-2.12571684714725e-06
-1.4441999359499e-06
3.46338035044584e-07
-2.58883668389412e-06
-1.25185245026717e-06
3.11958220417464e-07
-3.02114129150654e-06
-1.0035968270188e-06
2.43176867326659e-07
-3.50456718952518e-06
-7.65037481520938e-07
1.4995435185608e-07
-4.15026853638028e-06
-5.61033569110177e-07
3.52509602200392e-08
-5.04714594763496e-06
-3.92305332803949e-07
-1.03704301620033e-07
-6.08627058251389e-06
-2.55236479211964e-07
-2.46530995301846e-07
-6.74141867998969e-06
-1.48438164376446e-07
-3.21635897155136e-07
-4.59154142092498e-06
-1.27909936674156e-08
-1.82078595302846e-07
-6.2242750693895e-07
-1.39299780281271e-07
6.08349547142042e-09
-1.52039856309885e-06
-2.61974123241416e-07
-1.33409064433401e-08
-7.21842659113307e-07
-1.80947379453951e-07
1.83507420093027e-08
-1.52680991700093e-06
-3.74039186767303e-07
-9.02435284312305e-09
-1.81787467588912e-06
-3.47838421133778e-07
-1.62544966460957e-08
-1.13613379288873e-06
-2.29716177784072e-07
3.92530598063419e-08
-1.38334370114592e-06
-4.87678551882123e-07
5.28453446239144e-09
-1.92512416221314e-06
-4.99587203015799e-07
-7.89269841232547e-09
-2.41461511842956e-06
-4.54945491126121e-07
-2.17622847962767e-09
-1.58661271203341e-06
-2.77306987813544e-07
7.02335543526585e-08
-1.27541812379986e-06
-6.05387181606039e-07
1.95808833966938e-08
-1.73970240697109e-06
-6.45568800077228e-07
2.03514744676408e-08
-2.54439014467931e-06
-6.56884436361221e-07
7.32041326832976e-09
-3.0270766167974e-06
-5.53206442694923e-07
2.78878571806806e-08
-2.03792746134774e-06
-3.09400281092439e-07
1.05955351650731e-07
-1.18229062536474e-06
-7.24943984786807e-07
3.29066138353927e-08
-1.57755914855686e-06
-7.87019511482702e-07
4.82544281959803e-08
-2.28602983064445e-06
-8.39701792464406e-07
4.51921370459295e-08
-3.1724585381796e-06
-7.93469095725854e-07
3.32567272969359e-08
-3.591640135363e-06
-6.11557485044354e-07
6.1398966969159e-08
-2.46435265936339e-06
-3.1881595537715e-07
1.3702185457913e-07
-1.09416152639685e-06
-8.42903793977741e-07
4.61107678333967e-08
-1.45136824566672e-06
-9.22732773990453e-07
7.39738979812979e-08
-2.04577575106626e-06
-1.00483543607749e-06
8.35961865762417e-08
-2.84597812039775e-06
-9.98175981798553e-07
7.43759001265553e-08
-3.72349619635863e-06
-8.62061256035792e-07
5.70935305897469e-08
-4.09561398865686e-06
-6.21553079466211e-07
8.39570936604e-08
-2.86815353295986e-06
-3.07636973420759e-07
1.54015931836321e-07
-1.00998837411831e-06
-9.55421460921345e-07
6.00935987493183e-08
-1.34772237568271e-06
-1.05132554505446e-06
1.0023718024964e-07
-1.86895913258602e-06
-1.15426518217813e-06
1.20532399256677e-07
-2.53204777450142e-06
-1.17030749087089e-06
1.19101779497757e-07
-3.33251458077353e-06
-1.06223636223421e-06
9.69166800217645e-08
-4.19287345292754e-06
-8.56492214911634e-07
6.573565614557e-08
-4.566831727616e-06
-5.92360628633833e-07
8.44230011614939e-08
-3.25652271943885e-06
-2.78104913983513e-07
1.47962409959332e-07
-9.26394407911703e-07
-1.05949155120175e-06
7.60646992258422e-08
-1.25613977728201e-06
-1.1722456517158e-06
1.29601796216423e-07
-1.73916956203159e-06
-1.29028356963963e-06
1.60440480109594e-07
-2.30872338271354e-06
-1.3157139174138e-06
1.65546195367817e-07
-2.95850399011267e-06
-1.21677853459705e-06
1.45314030021871e-07
-3.74448358965363e-06
-1.02888181329112e-06
1.02421385270765e-07
-4.62094241982009e-06
-7.94836867422618e-07
5.14095729863771e-08
-5.03555986969267e-06
-5.34722647199558e-07
5.54713392157718e-08
-3.62430348400889e-06
-2.39109409235393e-07
1.18580589249096e-07
-8.33316765300986e-07
-1.15578711026899e-06
9.57002598606498e-08
-1.1685495331463e-06
-1.28777814325547e-06
1.64837707189563e-07
-1.63588173335093e-06
-1.41647995650934e-06
2.07325074677813e-07
-2.15756445030652e-06
-1.44026062785685e-06
2.18867208331589e-07
-2.7010712293145e-06
-1.33353098584011e-06
1.9923879193892e-07
-3.32353464397494e-06
-1.14403558412756e-06
1.52852961217821e-07
-4.1231417738738e-06
-9.24245873658051e-07
8.35064935686446e-08
-5.04214332515702e-06
-6.94926692004195e-07
6.99840050561468e-09
-5.50970299059369e-06
-4.55848981463954e-07
-8.30264139602791e-09
-3.96063947223327e-06
-1.88556843542765e-07
6.30790875598846e-08
-7.13341858806321e-07
-1.25522407009882e-06
1.21959208811116e-07
-1.07603910319413e-06
-1.40790093935017e-06
2.10281710873987e-07
-1.54693809847388e-06
-1.54110008794854e-06
2.65909667840413e-07
-2.04987255791989e-06
-1.5506298871536e-06
2.83732365633647e-07
-2.53859231603897e-06
-1.4192822484884e-06
2.63274120166193e-07
-3.04195835844832e-06
-1.20934242359437e-06
2.11118368825703e-07
-3.66228569462534e-06
-9.83855212049872e-07
1.33847366613087e-07
-4.49813537640055e-06
-7.6913115484905e-07
3.41134050568769e-08
-5.4658733767252e-06
-5.65127988500878e-07
-7.02522645070594e-08
-5.99621588525556e-06
-3.63526917051954e-07
-1.07736042255482e-07
-4.24978824934386e-06
-1.31765973363838e-07
-1.4777654066478e-08
-5.43839155664491e-07
-1.39222359737518e-06
1.61197640718011e-07
-9.69857118147231e-07
-1.55970074009904e-06
2.74823080970913e-07
-1.46799699401736e-06
-1.68333197623423e-06
3.44963652412647e-07
-1.97296605413803e-06
-1.65799274556433e-06
3.66676860289484e-07
-2.43702097698573e-06
-1.48024163308393e-06
3.4170129163787e-07
-2.87508892927762e-06
-1.23023636962224e-06
2.79882479297986e-07
-3.36045042023357e-06
-9.80665424518978e-07
1.91945486493465e-07
-3.99881002339406e-06
-7.61294732969728e-07
8.28161671644651e-08
-4.87697696441907e-06
-5.74131218583807e-07
-4.83156899251704e-08
-5.89084626721763e-06
-4.11457771328257e-07
-1.81441755461374e-07
-6.49155614056901e-06
-2.61645522845609e-07
-2.40429648467444e-07
-4.47938526595961e-06
-7.38645032258344e-08
-1.10752101278726e-07
-3.06084749682259e-07
-1.65157094112949e-06
2.2560827747319e-07
-8.51035017322391e-07
-1.80585790784112e-06
3.7612419132094e-07
-1.40722270330038e-06
-1.88487256293715e-06
4.61294886320557e-07
-1.93287617209105e-06
-1.78390299590882e-06
4.79459560160971e-07
-2.38643229143553e-06
-1.52406969255534e-06
4.40029624132069e-07
-2.78553842459872e-06
-1.20920342997823e-06
3.60505573814303e-07
-3.19058640648425e-06