/*--------------------------------*- C++ -*----------------------------------*\
  =========                 |
  \\      /  F ield         | OpenFOAM: The Open Source CFD Toolbox
   \\    /   O peration     | Website:  https://openfoam.org
    \\  /    A nd           | Version:  12
     \\/     M anipulation  |
\*---------------------------------------------------------------------------*/
/*   Windows 32 and 64 bit porting by blueCAPE: http://www.bluecape.com.pt   *\
|  Based on Windows porting (2.0.x v4) by Symscape: http://www.symscape.com   |
\*---------------------------------------------------------------------------*/
FoamFile
{
    format      ascii;
    class       volVectorField;
    location    "800";
    object      U;
}
// * * * * * * * * * * * * * * * * * * * * * * * * * * * * * * * * * * * * * //

dimensions      [0 1 -1 0 0 0 0];

internalField   nonuniform List<vector> 
10123
(
(-5.08729752859434e-06 0.00248045735320774 1.49117315291466e-05)
(-4.58779809663056e-06 0.00244334659381261 -1.74671335299033e-06)
(-5.69745331955906e-06 0.00252163085072605 -1.99833378906918e-05)
(-1.54360505218208e-05 0.00265697138537461 1.41499975701574e-05)
(-4.25004041841422e-06 0.00238342697716987 -1.32757613249511e-05)
(-5.07193962665319e-06 0.00243126926243371 -5.92719698459331e-05)
(-1.39158279310364e-05 0.00261109187106483 -3.82364467588224e-06)
(-3.57248426744392e-06 0.00182956401396686 -7.0801466468784e-05)
(-1.61806364779609e-05 0.00274544997215665 -2.61656100423175e-05)
(-3.31238729581724e-05 0.00281016811735049 1.56294859461614e-05)
(-3.84790946923334e-06 0.00230469231292647 -2.27334294862716e-05)
(-4.40549533717624e-06 0.0023315415578323 -8.6462991836277e-05)
(-1.23897332879199e-05 0.00254294320013159 -1.61168426324131e-05)
(-2.76909944998024e-06 0.00176494493950385 -0.000119659263300781)
(-1.42675594382045e-05 0.00264447831802799 -6.87601494522998e-05)
(-2.86166773674775e-05 0.00275833916005737 -4.45181423778224e-06)
(-4.88309857097159e-07 0.00141649179557451 -0.000114429357952532)
(-9.48927635704241e-06 0.00202920898113564 -8.29462389460295e-05)
(-3.30740008065508e-05 0.00291790576867701 -2.91004869589524e-05)
(-5.08707812047056e-05 0.00290343162961782 1.27916052681383e-05)
(-3.55892891227508e-06 0.00221267067212913 -3.10404607388504e-05)
(-3.98659735994269e-06 0.00222461915829074 -0.00010660947520589)
(-1.09918254907747e-05 0.00245583403792197 -2.69891259405637e-05)
(-2.03997086671638e-06 0.00169325663288876 -0.000154600244019784)
(-1.12343919795635e-05 0.0025345998101099 -0.000100149105049659)
(-2.45097237952313e-05 0.00268396593364366 -1.88655623383477e-05)
(1.03886489275985e-07 0.00136990243110834 -0.000168733726185874)
(-7.07522243571801e-06 0.0019564099038805 -0.000138991377835516)
(-2.67445098024725e-05 0.0028096645610809 -7.55615001763643e-05)
(-4.24698740001206e-05 0.00284914884997907 -8.24804331043084e-06)
(1.73885682853623e-06 0.00118947855439061 -0.000157259664856689)
(-6.05038387915675e-07 0.00157166531120776 -0.000133185952307022)
(-1.80142694487603e-05 0.00219510641165652 -9.71928825145634e-05)
(-4.85061840209896e-05 0.00302475893727997 -3.64023117108289e-05)
(-6.75633469892848e-05 0.00295377467770813 9.05209339123523e-06)
(-3.38094949267046e-06 0.00211094323317268 -3.72157868465293e-05)
(-3.68797478038206e-06 0.00211429725964868 -0.000121683230442497)
(-1.00552636180121e-05 0.00235532468576022 -3.63480602589764e-05)
(-1.51907206608024e-06 0.00161758412714866 -0.000179916405038912)
(-9.53901608315374e-06 0.00241755757677631 -0.000122578176043773)
(-2.10869682951935e-05 0.00259056928614837 -3.11523248131297e-05)
(7.0961601596432e-07 0.0013168862050301 -0.00020989822014841)
(-4.66683386081861e-06 0.00187518031660403 -0.000179012158223348)
(-2.04677046112109e-05 0.00269198596774092 -0.000111027713670556)
(-3.51765029144629e-05 0.0027712320696946 -2.14343742817307e-05)
(2.32594513440027e-06 0.00115060223520939 -0.000217530005194012)
(1.19051015859879e-06 0.00151710672870196 -0.000196118486966014)
(-1.26560491348402e-05 0.00211472611245341 -0.000158082998341178)
(-3.76548304375292e-05 0.00291465664238938 -8.36556486423748e-05)
(-5.47782692979722e-05 0.00289965911000019 -1.03966339291016e-05)
(3.66342498783619e-06 0.00104510686717829 -0.000202806783051833)
(6.40485012991579e-06 0.00131064177727828 -0.000182556715836181)
(-2.65492704285342e-06 0.00171046224781217 -0.000154801007494381)
(-2.71393492346864e-05 0.00231243179931105 -0.000109405426185818)
(-6.29902419081416e-05 0.00310382639618757 -4.12118071333847e-05)
(-8.58151982778543e-05 0.0029790893442673 1.07521620757028e-05)
(-3.30079124866123e-06 0.00200215222582647 -4.16618065524926e-05)
(-3.50289115841474e-06 0.00200204545998626 -0.000132169213434364)
(-9.49726720354133e-06 0.00224483030661473 -4.36113002386828e-05)
(-1.1600901557929e-06 0.00153955400081249 -0.000197816860924485)
(-8.4467488732946e-06 0.00229706987770984 -0.000139237740729812)
(-1.86655672641098e-05 0.00248380129584243 -4.02690776067858e-05)
(1.1919067524276e-06 0.00126084390279613 -0.000240108553895504)
(-2.86629665376905e-06 0.00178999602781366 -0.000207778435311603)
(-1.61188080604887e-05 0.00256794208602478 -0.000135996134477157)
(-2.93405735469798e-05 0.00267468456052495 -3.32202331814671e-05)
(2.93497609742025e-06 0.00110606290622967 -0.000264465533920208)
(3.12374604177948e-06 0.00145525046669254 -0.000243356565199909)
(-7.75085522430485e-06 0.00202560199345363 -0.000201526956433864)
(-2.83970059045536e-05 0.00279273210059783 -0.000120208896995003)
(-4.40823662234369e-05 0.00282132064745155 -2.25930119116313e-05)
(4.30168139553758e-06 0.00100888245836261 -0.000269071886057941)
(8.13977603027275e-06 0.0012642825480996 -0.000252131932238613)
(1.64451342991997e-06 0.0016483879592922 -0.000223545547640225)
(-1.82725809903319e-05 0.00222785786532831 -0.000173019842721674)
(-4.75002013893853e-05 0.00299527382201069 -8.78945944964837e-05)
(-6.80372771214902e-05 0.00292712168185482 -9.829363049974e-06)
(5.80571390363892e-06 0.000936250710588309 -0.000254336041345192)
(1.2798328203988e-05 0.00114837531914878 -0.000234439133659047)
(1.01369706799174e-05 0.00142445329861048 -0.000211202263016177)
(-5.76188334600625e-06 0.00181930612462415 -0.000171666096339875)
(-3.64608925766605e-05 0.00240189949690148 -0.000113339313462784)
(-8.01797443669917e-05 0.00317526596018961 -3.97720411328355e-05)
(-0.000107593858341536 0.00299540983619147 1.56771713373308e-05)
(-3.32060279168582e-06 0.00188926554132927 -4.45915538492665e-05)
(-3.42003409000587e-06 0.00188940945309834 -0.000138595754598697)
(-9.25664782438937e-06 0.00212707512683468 -4.88776898264254e-05)
(-9.43251391666479e-07 0.00146019335219645 -0.000209339273589684)
(-7.82742674255468e-06 0.00217448165394412 -0.000150843232701581)
(-1.7015341991493e-05 0.00236698046074476 -4.71375381884141e-05)
(1.51784440311188e-06 0.00120261862035476 -0.000261203356793308)
(-1.67314041302645e-06 0.00170239161066448 -0.000227928035646935)
(-1.33760030405834e-05 0.00244048067417228 -0.000153775101489884)
(-2.51877791439486e-05 0.00256487807210099 -4.26478821494921e-05)
(3.42555496504772e-06 0.00105921354981157 -0.000299281654416114)
(4.70216814060978e-06 0.00139055704253297 -0.000277617023556041)
(-3.94083883382781e-06 0.0019326396012064 -0.000232551756927483)
(-2.14086773297044e-05 0.00266516698507594 -0.000146616634670863)
(-3.57248378386905e-05 0.00272444448858971 -3.4380092962025e-05)
(4.94571836352755e-06 0.000967836545042684 -0.000321118660548385)
(9.98929110736226e-06 0.00121162283717784 -0.000305654277259118)
(5.71985839573689e-06 0.00157888711526635 -0.000274744762105444)
(-1.06418715408344e-05 0.0021339834581647 -0.000218248687862132)
(-3.47001729907551e-05 0.00287010612894552 -0.000122797110896778)
(-5.36868531497851e-05 0.00285093288803872 -2.14156023308251e-05)
(6.4836728514806e-06 0.000900402890138602 -0.000326041096857304)
(1.47156321047851e-05 0.00110450344389355 -0.000310546461796152)
(1.41806195191224e-05 0.00137095155559538 -0.000286792626960017)
(1.7356538726481e-06 0.00175223351538085 -0.000243663376181421)
(-2.37331791544944e-05 0.00231515843829148 -0.000178339670369443)
(-5.98617191265851e-05 0.00306662120078743 -8.78256633165382e-05)
(-8.48325683187809e-05 0.00294646772217927 -7.44039656740523e-06)
(8.40304475303463e-06 0.000842879425231403 -0.000314228841788086)
(1.99349041890502e-05 0.00103296151336378 -0.000293312185625886)
(2.23021460556489e-05 0.00124688561470553 -0.000269516734223914)
(1.31456830789871e-05 0.00151978402630969 -0.000232619145985232)
(-9.64444882769122e-06 0.00190583690692535 -0.000176596133509172)
(-4.8134345586699e-05 0.00247969051933755 -0.000108223840738189)
(-0.000102412754593686 0.00324798257214051 -3.37056237476443e-05)
(-0.000132342824694755 0.0030101448975074 2.21858736421968e-05)
(-3.4032435761043e-06 0.00177477666292996 -4.62061806473403e-05)
(-3.43382825498752e-06 0.00177793622141713 -0.000141453914888601)
(-9.25903860951777e-06 0.00200509487502399 -5.19766270113664e-05)
(-8.40978423309035e-07 0.00138067421966882 -0.000215266702569781)
(-7.59887759958234e-06 0.00205149540224371 -0.000157914088171836)
(-1.61340879118334e-05 0.00224303887107279 -5.20226469067717e-05)
(1.70351619770554e-06 0.00114291731143684 -0.00027438759421788)
(-9.81176899114276e-07 0.00161343642038485 -0.000240789570690604)
(-1.16823417925207e-05 0.0023108297565794 -0.000166140453307289)
(-2.24079925305052e-05 0.00244488922790374 -4.98595891539042e-05)
(3.74975605664666e-06 0.00101058596834441 -0.000323529471920782)
(5.76262361690265e-06 0.00132390116804733 -0.000301220211925005)
(-1.34805870484798e-06 0.00183737864551387 -0.00025407801390705)
(-1.67424989573839e-05 0.00253405860845479 -0.000165035201686875)
(-2.96867234280014e-05 0.00261404900491982 -4.40717814554317e-05)
(5.45679853726893e-06 0.000925179829291301 -0.000359909439202525)
(1.15099417256068e-05 0.00115698981566541 -0.000344802163503817)
(8.99778357948684e-06 0.00150672323157085 -0.000311508119025645)
(-4.65353973322164e-06 0.00203624407474398 -0.000250460707014485)
(-2.50742955257526e-05 0.00274056066849035 -0.000150600271288047)
(-4.24665774463311e-05 0.00275567488789062 -3.32843735006542e-05)
(7.15237716692923e-06 0.000860683470809978 -0.000382386388235342)
(1.66491880619495e-05 0.00105530474920245 -0.000369415763785913)
(1.79870522373375e-05 0.0013111127653438 -0.000344369511576112)
(8.26358920827371e-06 0.0016775739997487 -0.000297032682617658)
(-1.31454187434698e-05 0.00221843912357717 -0.000224284761554643)
(-4.33207947136535e-05 0.00294270982724601 -0.000119540611139161)
(-6.63965622687091e-05 0.00287356781725021 -1.9406497315026e-05)
(9.09940267662699e-06 0.000806289281456656 -0.000390272224081365)
(2.20575659147415e-05 0.000988398879799737 -0.000375370276225655)
(2.64814065353513e-05 0.00119580816055357 -0.000351654432383438)
(2.01969301442514e-05 0.00146121623314008 -0.000311459601892809)
(1.40138547633082e-06 0.00183586884323195 -0.000250143311878214)
(-3.14635981103902e-05 0.00239157410212956 -0.000173920947482673)
(-7.71650566486723e-05 0.00313690184809499 -8.21282197389519e-05)
(-0.00010566765458908 0.00296490422821162 -1.85818582285533e-06)
(1.1752872331439e-05 0.000754745035697294 -0.000385476957125014)
(2.86821185492857e-05 0.000940000376255756 -0.000363100298903743)
(3.58992967880529e-05 0.00112419815833744 -0.000335329070034438)
(3.17849684261647e-05 0.0013321756605568 -0.000294959536062241)
(1.5029190879246e-05 0.00159913180413397 -0.000238628664158249)
(-1.59887531869462e-05 0.0019810042259411 -0.000169541644908051)
(-6.38353567393764e-05 0.00255501611548446 -9.72951615019499e-05)
(-0.000129716603741465 0.00332317370372692 -2.76042741769174e-05)
(-0.000158495202451258 0.00302504948403113 2.75457580007775e-05)
(-3.54011845941832e-06 0.00166074725920042 -4.66980103191376e-05)
(-3.52591234558008e-06 0.00166894844923774 -0.000141247604912079)
(-9.48056891054999e-06 0.0018815964285332 -5.34069390124467e-05)
(-8.37937471891127e-07 0.00130206171243944 -0.000216326194673429)
(-7.69187691328677e-06 0.00192976416958037 -0.000161002800779401)
(-1.58215244803032e-05 0.00211506071333546 -5.51288778949902e-05)
(1.77192447756171e-06 0.00108269354186224 -0.000280636098189209)
(-6.87642952030528e-07 0.00152444255533292 -0.000247313675482854)
(-1.08684180005148e-05 0.00218084494977154 -0.00017366440545554)
(-2.08427523850266e-05 0.0023177690342151 -5.49266825164652e-05)
(3.92140963724351e-06 0.000960666981962391 -0.000338468453621009)
(6.35347739281197e-06 0.00125600589159814 -0.000315718614568047)
(2.28410419024901e-07 0.00174085284917376 -0.000267721673176591)
(-1.38066744558243e-05 0.00240059973270833 -0.000177850330837933)
(-2.5658930156161e-05 0.00249322017960468 -5.16020112241789e-05)
(5.7926216552562e-06 0.00088129053291094 -0.000386890902067075)
(1.25148996905577e-05 0.00110098847299024 -0.000371578026879502)
(1.12425705671016e-05 0.00143288731887237 -0.000336530083496733)
(-4.56356189241535e-07 0.0019362217990719 -0.000272769921851976)
(-1.83804562022037e-05 0.00260740266490587 -0.000169648499259819)
(-3.42705441964057e-05 0.00264642665820512 -4.29856265750814e-05)
(7.68095335592561e-06 0.000820152900952361 -0.000424406869540545)
(1.82058239175712e-05 0.00100499605525972 -0.000412520293113129)
(2.10229900820496e-05 0.00124959819003719 -0.000385982982384013)
(1.34128691117706e-05 0.00160027062871419 -0.000335181437609032)
(-4.90156013138079e-06 0.00211780059558025 -0.000257213375163251)
(-3.05316952528573e-05 0.00281022936223394 -0.000146153974914887)
(-5.20631648498738e-05 0.00278130434170529 -3.02872084363673e-05)
(9.77697140184571e-06 0.000767003770301244 -0.000449888815092086)
(2.40924454713749e-05 0.000939624673717434 -0.000438555218031868)
(3.02814882731299e-05 0.00113946508300122 -0.000414441253587875)
(2.62641431625094e-05 0.00139629441840525 -0.000371198250249309)
(1.05701945810797e-05 0.00175806736672948 -0.000304646107074761)
(-1.77786651104769e-05 0.00229320869148735 -0.000220301996232603)
(-5.66583256135962e-05 0.00301271086353594 -0.000115930988464869)
(-8.3331342667758e-05 0.00289569161849039 -1.69605626627862e-05)
(1.24092224509518e-05 0.000716717229984478 -0.000464050490002973)
(3.09230441415933e-05 0.000892644984477325 -0.000449915464922227)
(4.03270947824034e-05 0.00107170711380334 -0.000423330734653387)
(3.8943391127602e-05 0.00127592217018808 -0.000380198649259666)
(2.54687518674733e-05 0.00153759708808085 -0.000318933694330849)
(-1.37795384070673e-06 0.00190942501360864 -0.000243657783865694)
(-4.34047092036123e-05 0.00246578394684945 -0.000163119324426097)
(-0.000100200757786129 0.00321248812089267 -7.36561785660696e-05)
(-0.000128896169504253 0.00298322156256992 3.96210837867349e-06)
(1.61341216503488e-05 0.000663809979516171 -0.000472294935259676)
(3.99713591396096e-05 0.000856804182685673 -0.000448553185039924)
(5.26161046191769e-05 0.00102923801836852 -0.000413937085583006)
(5.28411680210559e-05 0.00120389296338701 -0.000364855251405841)
(4.00124902746435e-05 0.00140551472663592 -0.000301454059525707)
(1.40984251565284e-05 0.00166979654727679 -0.000229554179867971)
(-2.62945214937957e-05 0.00205349080451212 -0.00015499083622659)
(-8.44436925347827e-05 0.00263278337120423 -8.44212035179349e-05)
(-0.000161466275305823 0.00340325267368593 -2.24712702872316e-05)
(-0.000184466141702351 0.0030391241751472 3.22846472001919e-05)
(-3.70118416573556e-06 0.00154890510884108 -4.62323288796378e-05)
(-3.67250830476136e-06 0.00156355129747076 -0.000138437865368863)
(-9.86080475263929e-06 0.00175872983175063 -5.36178580623134e-05)
(-9.13443611988956e-07 0.00122527826663936 -0.000213241637617671)
(-8.05484954961975e-06 0.00181069670413318 -0.000160696756257469)
(-1.59820826600455e-05 0.00198566047456986 -5.67295521652931e-05)
(1.73829992781107e-06 0.00102284598387008 -0.000280825795611203)
(-7.27135742245238e-07 0.00143657785648668 -0.000248367513713253)
(-1.07693598443565e-05 0.00205222400160409 -0.000176947682482207)
(-2.02469031783306e-05 0.0021865383112659 -5.81493434580056e-05)
(3.97020693627607e-06 0.00091021383942047 -0.000345177775942788)
(6.55761614197809e-06 0.00118790446061792 -0.000322334175527423)
(9.69435563413863e-07 0.00164446373766365 -0.000274550654612676)
(-1.23197836116014e-05 0.00226673955858597 -0.000185688512720499)
(-2.33948505976539e-05 0.00236501962285246 -5.68708866714072e-05)
(5.96550651444844e-06 0.000836465275099141 -0.000403333744146942)
(1.30392734967484e-05 0.00104408470336304 -0.000387643673436042)
(1.25511233980842e-05 0.0013580790083233 -0.000351658094831191)
(2.16262729900217e-06 0.00183489888728362 -0.000286927786189757)
(-1.41724731497605e-05 0.0024716121323693 -0.000182915926404958)
(-2.88184136447259e-05 0.00252619872684516 -5.06746392114851e-05)
(8.02593117398335e-06 0.000778994374052638 -0.000453563146599851)
(1.92187018943646e-05 0.000954055075245067 -0.000441795378196299)
(2.30594890715064e-05 0.00118714210536152 -0.000413995767890925)
(1.69991469143134e-05 0.00152144401863238 -0.000361036186402768)
(9.67622430918998e-07 0.00201485594115522 -0.000280211351297523)
(-2.16189720625413e-05 0.00267571188510981 -0.000167488499088853)
(-4.12780403720675e-05 0.00267436121279712 -4.03122243301539e-05)
(1.03170734295317e-05 0.000727902255108381 -0.000494311261620802)
(2.56955640273031e-05 0.000890793968982275 -0.00048456732966991)
(3.32484434786966e-05 0.00108246139742693 -0.000459745623989446)
(3.09756505278705e-05 0.00132982636421744 -0.00041412999214795)
(1.76662225009698e-05 0.00167755029760741 -0.000343708319342491)
(-7.21797308782604e-06 0.00219058542984945 -0.000253633155128828)
(-4.08480318131438e-05 0.0028825440905213 -0.000139606170157478)
(-6.5627332216963e-05 0.00280689012313602 -2.77552047799218e-05)
(1.3053469802787e-05 0.000677611405368378 -0.000525476739070501)
(3.30041093224699e-05 0.000842532608358178 -0.000516086209830366)
(4.41851976824093e-05 0.00101523685762611 -0.00049007156912495)
(4.49215524121069e-05 0.00121447488114113 -0.000444965141042648)
(3.39834515435336e-05 0.00146954199504863 -0.000379843737976533)
(1.04626934394105e-05 0.00182973499751919 -0.000298866687467969)
(-2.66556623618216e-05 0.00236617587339091 -0.000210033037065211)
(-7.59425637502828e-05 0.00308670956215654 -0.000107485726400356)
(-0.000103501708156923 0.00291826633934393 -1.29236345293166e-05)
(1.66502557381334e-05 0.0006237671826231 -0.000550434010759311)
(4.21320172951114e-05 0.000804799709691178 -0.000537997289927716)
(5.71810625760855e-05 0.000972474548279421 -0.000506414043524619)
(6.03199638554134e-05 0.00114576689619119 -0.000455728609642902)
(5.05849929243781e-05 0.00134630791242421 -0.000388038568510615)
(2.79769077753929e-05 0.00160676152703787 -0.000310385187116439)
(-8.30503634674744e-06 0.00198097345099948 -0.000229085117115241)
(-6.0458556392488e-05 0.00254295503679129 -0.000149909916070523)
(-0.000128098524812557 0.00329266123645055 -6.71882060201131e-05)
(-0.000152403190651322 0.00300087440170949 9.4115943727458e-06)
(2.20513613480322e-05 0.000560443177504943 -0.000580699469355596)
(5.50318379249402e-05 0.000774177288370361 -0.000556044541864608)
(7.42467114817701e-05 0.000947329252032755 -0.000511339534922071)
(7.88424655812624e-05 0.0011066975663961 -0.000448224834293284)
(6.86020625039558e-05 0.00127358015237775 -0.000371230994803213)
(4.49739649595153e-05 0.00147256178501113 -0.000289670202317057)
(8.86966053058202e-06 0.00173896414534896 -0.000210955735063228)
(-4.14837257988317e-05 0.00212863853433822 -0.000137806961454798)
(-0.000110133631295854 0.00271580594638657 -7.26251394650399e-05)
(-0.000196264313352629 0.00348982744582667 -1.97642085597068e-05)
(-0.000208106882960436 0.00305214570999801 3.53072211987695e-05)
(-3.87051699206487e-06 0.0014406674589978 -4.49904321757965e-05)
(-3.85227836588298e-06 0.00146266667343757 -0.000133552113100843)
(-1.03415152248658e-05 0.00163832724929201 -5.28045097054494e-05)
(-1.05991405897753e-06 0.00115115191830428 -0.000206706199301641)
(-8.61771309726003e-06 0.00169547299766604 -0.000157546900823569)
(-1.64905548117609e-05 0.00185701519382632 -5.7034982482779e-05)
(1.62081990860733e-06 0.000964187860039453 -0.000275815945893746)
(-1.03702547241744e-06 0.0013508349267397 -0.000244791881404532)
(-1.12491433912005e-05 0.00192639862592303 -0.000176603449073246)
(-2.04263872059823e-05 0.00205383641416041 -5.98080337139895e-05)
(3.90807764399947e-06 0.000859984036077779 -0.000344649570480534)
(6.43322242115929e-06 0.00112054623477242 -0.000322152462288459)
(1.0262211015576e-06 0.00154943540301029 -0.000275516586588542)
(-1.20262972535131e-05 0.00213418709804756 -0.000189124473867908)
(-2.2582951978746e-05 0.0022324640966237 -6.01787840567811e-05)
(6.00197195739002e-06 0.000791285203594809 -0.000410348622377866)
(1.31605478198546e-05 0.000987071911242744 -0.00039439892244606)
(1.30768340303156e-05 0.00128336888628215 -0.000358300835860782)
(3.45015143284344e-06 0.00173372625731272 -0.00029404031573916)
(-1.20385040863482e-05 0.00233519166617818 -0.000191198255483545)
(-2.56588289570919e-05 0.00239826316197174 -5.62525490926501e-05)
(8.19752606155603e-06 0.00073727312838003 -0.000471123023905425)
(1.97149901185688e-05 0.000902740841846735 -0.000458984379186132)
(2.41687342218552e-05 0.00112416660408617 -0.000430395097180068)
(1.91557468752978e-05 0.00144174829143871 -0.000376617012822328)
(4.65819506961442e-06 0.0019104696308267 -0.000295037181680416)
(-1.59449742520512e-05 0.00253818978579301 -0.000181481013626432)
(-3.40045441130572e-05 0.00255583620862062 -4.80908768704222e-05)
(1.06668889833178e-05 0.00068883712860181 -0.000525073814433323)
(2.67146572851612e-05 0.000842220219284296 -0.000515485689460837)
(3.51788191173858e-05 0.00102540947264507 -0.000489884638409263)
(3.41682127378313e-05 0.00126265244636061 -0.000442842194453264)
(2.26387193332937e-05 0.00159550368783058 -0.000370385283479404)
(3.55480302688323e-07 0.00208560683961199 -0.000277527810175184)
(-2.92756133294261e-05 0.0027451969029493 -0.000159429764279739)
(-5.19955443121413e-05 0.0027031106510726 -3.72279269810326e-05)
(1.35705645536035e-05 0.000640029846789945 -0.000571260789605587)
(3.46121066497076e-05 0.000793777733548582 -0.000563782756767669)
(4.711043597689e-05 0.000959373981067438 -0.000537762331812254)
(4.94370351023191e-05 0.00115262072124037 -0.000491351951927429)
(4.04578900193138e-05 0.0013999220637376 -0.000423733604345257)
(1.95370509862925e-05 0.00174717625305708 -0.000338792097259782)
(-1.36891108138766e-05 0.00226234130566467 -0.000244044677019015)
(-5.68499171936228e-05 0.00295502395197327 -0.0001342719130579)
(-8.28275648185092e-05 0.00283309035347729 -2.49997954023623e-05)
(1.71929539550527e-05 0.000585074284972369 -0.000611402405127147)
(4.41067868099537e-05 0.000752160767613688 -0.000605140821743201)
(6.10045129671363e-05 0.000913491067630099 -0.000575464996460195)
(6.63251210073849e-05 0.00108385982191703 -0.000524120734408256)
(5.89582197666786e-05 0.00128178010629065 -0.000453934803883048)
(3.89816004307282e-05 0.00153691968147729 -0.000372127746149532)
(6.12696191016788e-06 0.00189999546605663 -0.000284850833760285)
(-4.0815580530656e-05 0.00244215858268875 -0.00019704979768453)
(-0.000100184254316195 0.00316755405783466 -9.99717465497038e-05)
(-0.000124621113360545 0.00294021903609752 -8.27283651542034e-06)
(2.22295157364509e-05 0.000517773792314424 -0.00065343211625103)
(5.67164145644248e-05 0.000715433928006616 -0.000644415728769787)
(7.85988343027831e-05 0.000883592610251699 -0.000605800248027165)
(8.6539134138042e-05 0.00104338441171441 -0.000543270540015828)
(7.96333023260799e-05 0.00121238314363516 -0.000463390120428637)
(5.90438914509561e-05 0.00141204273735246 -0.000376792164732711)
(2.60055353784381e-05 0.00167522247559339 -0.000291838674515032)
(-2.03457159009721e-05 0.00205555559537029 -0.000211505048400177)
(-8.27513425290226e-05 0.0026257279555624 -0.000137490644638645)
(-0.000159473945178358 0.00338025236537983 -6.25821293906786e-05)
(-0.000173899719778181 0.00301804644886782 1.44557090028877e-05)
(3.01931248669871e-05 0.000430416178839767 -0.000719388182285936)
(7.56222379755672e-05 0.000681997851128698 -0.000694616071972152)
(0.00010327439219155 0.000868146057457364 -0.00063535365468638)
(0.000112670933394198 0.00102483026744734 -0.000551642510772898)
(0.000104038506381928 0.00117477831097544 -0.000453924819873682)
(8.03901971859946e-05 0.00133843993736247 -0.000355665591278678)
(4.49375363866195e-05 0.00153929481092579 -0.000266304829899039)
(-1.52613402948052e-06 0.00181135271549953 -0.000188748054263371)
(-6.17941675794404e-05 0.00220938390171225 -0.000121649719053402)
(-0.000140312698920633 0.00280615213301353 -6.4040501156881e-05)
(-0.000232378552994375 0.00358595648698774 -2.0039572908945e-05)
(-0.000227479452254292 0.00306476615300197 3.5863325972567e-05)
(-4.00424382446866e-06 0.00133719150925405 -4.31267689434679e-05)
(-4.05152262054663e-06 0.0013670256980483 -0.000127022238760076)
(-1.0824963794018e-05 0.00152184771067981 -5.11735218905704e-05)
(-1.24744331125312e-06 0.0010803805297351 -0.000197396405525772)
(-9.31049832164499e-06 0.00158508675767049 -0.000152104146983553)
(-1.72210881079427e-05 0.00173097090642105 -5.62344057351922e-05)
(1.43544711019742e-06 0.000907442731110392 -0.000266467494001013)
(-1.57509659444331e-06 0.00126809237554005 -0.000237390141502258)
(-1.21716185010367e-05 0.00180458455083542 -0.000173226478906466)
(-2.1184519419695e-05 0.00192185816378356 -6.01224261250762e-05)
(3.74932976788648e-06 0.000810708659565681 -0.000337862472339288)
(6.03184000598304e-06 0.00105476884328465 -0.000316204526242019)
(5.26158952288713e-07 0.00145678752185817 -0.000271538425384638)
(-1.26824491125521e-05 0.00200439892092961 -0.00018880056442066)
(-2.28617452896928e-05 0.00209820256738272 -6.18792458657534e-05)
(5.91448706851384e-06 0.000746388191977649 -0.000408993339405606)
(1.29305955721199e-05 0.000930727707273166 -0.000393099637878039)
(1.29427636923481e-05 0.00120973117910842 -0.000357682052423975)
(3.63573141182914e-06 0.00163396732843235 -0.000295094405756563)
(-1.16038125133323e-05 0.00219989812600914 -0.000195059916317678)
(-2.43983217008005e-05 0.00226561769913034 -5.98585591584806e-05)
(8.21362856235174e-06 0.000695390390243327 -0.000478177113846381)
(1.9766581055678e-05 0.000851628237484169 -0.00046559971653426)
(2.44804099896206e-05 0.00106146644046113 -0.000436823452949471)
(2.00841190849889e-05 0.00136228149351504 -0.000383431870127916)
(6.49028432368915e-06 0.00180609454359322 -0.000302808144738508)
(-1.29624036485543e-05 0.00239971536972289 -0.000190468941485923)
(-2.9670195430709e-05 0.00242878729707431 -5.38539332594393e-05)
(1.08314049689286e-05 0.000649544235888926 -0.000543394049088364)
(2.71747142276276e-05 0.0007939052155088 -0.000533159460995423)
(3.61357064922359e-05 0.000968502288345838 -0.000506976139741443)
(3.59558221769571e-05 0.00119516002723522 -0.000459516751708841)
(2.56612109599113e-05 0.00151253362758496 -0.000386755040786408)
(5.21864571201506e-06 0.0019790165912895 -0.000293370091687254)
(-2.14645367489403e-05 0.00260631270429329 -0.000175781304492957)
(-4.24676778590108e-05 0.00258714872134459 -4.47669945007811e-05)
(1.39018468152651e-05 0.000603260003166885 -0.000603015541588618)
(3.55935991436703e-05 0.000746388417743729 -0.000595372677159308)
(4.89296847697198e-05 0.000904574097625297 -0.000568946258781153)
(5.23669788532849e-05 0.00109106723801694 -0.000521926639946957)
(4.48485876264539e-05 0.00132964033784566 -0.000453305287658254)
(2.59195442702248e-05 0.00166295039646088 -0.000366582990534797)
(-4.30443725123889e-06 0.00215564550153627 -0.00026872817928968)
(-4.24851678612655e-05 0.00281925271810532 -0.000153943859258886)
(-6.63905614697847e-05 0.00273266233312003 -3.51080820501045e-05)
(1.76357608867909e-05 0.000549816115349341 -0.000657069948991838)
(4.55959836574055e-05 0.000702897748303209 -0.000652851479510277)
(6.3789099155467e-05 0.00085687474664581 -0.000623961030235032)
(7.06868643516573e-05 0.00102296829408046 -0.00057250805139825)
(6.51201485443259e-05 0.00121687195724065 -0.000501268234242664)
(4.72337275688737e-05 0.0014653503555573 -0.000417094576027612)
(1.71884461758153e-05 0.0018159650703829 -0.000325756963765073)
(-2.54304549402667e-05 0.0023370980268171 -0.000231922547547547)
(-7.81898617310025e-05 0.00303564750365662 -0.000126025614665776)
(-0.000101515792342576 0.00285943514584253 -2.1637501197837e-05)
(2.25185099828047e-05 0.000480329856702068 -0.000710256841798859)
(5.82728744729199e-05 0.000659398539787016 -0.000709298320029706)
(8.20820731503358e-05 0.000820259005785769 -0.000674675753912693)
(9.2423256700887e-05 0.000978251731970397 -0.000613490757389747)
(8.80349637462057e-05 0.00114731130370076 -0.000532869621671094)
(6.98801158284321e-05 0.00134588845511903 -0.000443665221166312)
(3.94315216783377e-05 0.00160428869458502 -0.000354320506963813)
(-3.42833393549188e-06 0.00197354990245078 -0.000267614257136432)
(-6.02701745639213e-05 0.00252414440407208 -0.000184546892498364)
(-0.000128362830070402 0.00325564705691469 -9.45422714360128e-05)
(-0.00014425747563947 0.00296163540991953 -3.16428987407996e-06)
(2.96856182918957e-05 0.000384428258328283 -0.000778251722034671)
(7.61054419495212e-05 0.000613839649004239 -0.000775472383570843)
(0.000106644819801996 0.000794319796083121 -0.000727449012339077)
(0.000120065791766203 0.000953095605534873 -0.000648237483813844)
(0.00011545962438499 0.00110807002536135 -0.000550296697826515)
(9.51332622140308e-05 0.00127611575572266 -0.000448507830460735)
(6.23516108254473e-05 0.00147838240630446 -0.000353593119461329)
(1.85898806625653e-05 0.00174725416984374 -0.000269382761927826)
(-3.77834128955024e-05 0.00213590847219799 -0.00019473499176571)
(-0.000109837647978209 0.00271599302130487 -0.000127958960357635)
(-0.000192643564120805 0.0034773684612117 -6.10118790756456e-05)
(-0.000191327894667938 0.0030353991634968 1.74767482786823e-05)
(4.1452409847873e-05 0.000251585713062017 -0.000901276208390209)
(0.000104149975095657 0.000565878237930625 -0.000877659694963585)