/*--------------------------------*- C++ -*----------------------------------*\
  =========                 |
  \\      /  F ield         | OpenFOAM: The Open Source CFD Toolbox
   \\    /   O peration     | Website:  https://openfoam.org
    \\  /    A nd           | Version:  12
     \\/     M anipulation  |
\*---------------------------------------------------------------------------*/
/*   Windows 32 and 64 bit porting by blueCAPE: http://www.bluecape.com.pt   *\
|  Based on Windows porting (2.0.x v4) by Symscape: http://www.symscape.com   |
\*---------------------------------------------------------------------------*/
FoamFile
{
    format      ascii;
    class       surfaceScalarField;
    location    "0";
    object      phi;
}
// * * * * * * * * * * * * * * * * * * * * * * * * * * * * * * * * * * * * * //

dimensions      [0 3 -1 0 0 0 0];

internalField   nonuniform List<scalar> 
28770
(
1.54269569409032e-06
7.62332139018883e-08
3.38330899141561e-09
1.46577350313672e-06
7.4083880236007e-08
2.83769711391564e-09
1.55758708557319e-06
1.52216345291354e-07
4.60189062764835e-09
1.65535702507125e-06
8.17737573334829e-08
7.00449151102981e-09
1.39155230940387e-06
7.1845590341097e-08
2.37505741484711e-09
1.47976511169382e-06
1.47940982805172e-07
3.96434045893987e-09
1.57284915574009e-06
7.94457626634545e-08
5.89918653735567e-09
1.5950944510768e-06
2.29967586350841e-07
5.21639570222188e-09
1.7186931232064e-06
1.64158853377762e-07
1.10997749149889e-08
1.83145374552949e-06
9.08830005043101e-08
1.05205920723369e-08
1.32004817487389e-06
6.95622016297898e-08
1.94146157208312e-09
1.40470732137477e-06
1.43485953427095e-07
3.41696552598478e-09
1.49325629291733e-06
7.70245113402269e-08
4.94285726910688e-09
1.51503653113648e-06
2.23363180938404e-07
4.635281337387e-09
1.6328489072727e-06
1.59447807177485e-07
9.80598948750142e-09
1.74023425412741e-06
8.82742517657733e-08
8.84383675455734e-09
1.62913072116465e-06
3.0764582735041e-07
7.791142343629e-09
1.78599911863053e-06
2.51865065837222e-07
1.03569985798806e-08
1.94150976427349e-06
1.87002225195482e-07
1.5310116931497e-08
2.01192073625819e-06
1.00026187151098e-07
1.40510388904571e-08
1.251231049393e-06
6.72486546295129e-08
1.56806473021706e-09
1.3324030634327e-06
1.38914872619112e-07
2.95119958492134e-09
1.41655563624028e-06
7.45331273038112e-08
4.10851754004247e-09
1.43786533941487e-06
2.16483444049837e-07
4.17332480640169e-09
1.55005200852548e-06
1.54586525793588e-07
8.65140141473376e-09
1.65222209386909e-06
8.55535987960054e-08
7.40089657260519e-09
1.54674576757538e-06
2.98574546294162e-07
7.17312710886223e-09
1.69641981057025e-06
2.44689157389682e-07
8.97278014562923e-09
1.84458929442694e-06
1.81596943555405e-07
1.34032920265715e-08
1.91183257440206e-06
9.71194455507908e-08
1.18119919902384e-08
1.63993621070456e-06
3.85657746225375e-07
9.0357029204464e-09
1.81751080191971e-06
3.42475020297155e-07
1.24867998629181e-08
2.04744660076566e-06
2.8777772148865e-07
1.59556717166257e-08
2.14235804771838e-06
2.08018611631352e-07
1.78811830539051e-08
2.14422184470494e-06
1.06555937531761e-07
1.76393342818577e-08
1.18506779194445e-06
6.49249148219666e-08
1.2379844209507e-09
1.26283138646484e-06
1.34267939124706e-07
2.55206223395753e-09
1.34271739092528e-06
7.20072461621521e-08
3.39865404344596e-09
1.36356631350078e-06
2.09426986438091e-07
3.78658871707671e-09
1.47029119905364e-06
1.49617517997533e-07
7.62724094089808e-09
1.56741163350867e-06
8.27590464309425e-08
6.15948655089697e-09
1.46742464007765e-06
2.89177625030688e-07
6.62651698621503e-09
1.61005515588997e-06
2.37177701165568e-07
7.94640471317593e-09
1.75110622266619e-06
1.75945644501423e-07
1.17420243419455e-08
1.81524372520031e-06
9.40976679764378e-08
9.89157814282739e-09
1.55616234862891e-06
3.73985528290709e-07
8.36233512482725e-09
1.72562617586596e-06
3.32390942273923e-07
1.13554961454493e-08
1.94472068867973e-06
2.79433253335536e-07
1.38619701369841e-08
2.03553689495905e-06
2.01909224067591e-07
1.543426764734e-08
2.03773499395944e-06
1.03431693172711e-07
1.48665792024216e-08
1.62531194995523e-06
4.65417177848196e-07
7.7615054094393e-09
1.81302728931483e-06
4.34083951721797e-07
1.36253295844503e-08
2.08335987646203e-06
3.94167572087225e-07
1.51825873198031e-08
2.26604134208556e-06
3.22385897255539e-07
1.91953784253427e-08
2.27192367137978e-06
2.2128524060001e-07
2.01653143647899e-08
2.2148815093419e-06
1.10026502671037e-07
2.10872228775659e-08
1.12151122046504e-06
6.26070047335605e-08
9.49245314131543e-10
1.19595913743996e-06
1.29587576352662e-07
2.2093025858833e-09
1.27172628614471e-06
6.94856625702005e-08
2.74306792002639e-09
1.29212004283017e-06
2.02278049239609e-07
3.43587967856481e-09
1.39354058600422e-06
1.44577365021268e-07
6.73223786627112e-09
1.48578977487732e-06
7.99256118977605e-08
5.09452039279628e-09
1.39113647021368e-06
2.7957856533305e-07
6.1361862339659e-09
1.52688931295534e-06
2.29452729904161e-07
7.11687082236711e-09
1.66105320805943e-06
1.70142965556112e-07
1.02960007477003e-08
1.72215419522831e-06
9.10027244837372e-08
8.24585933363917e-09
1.47562474961612e-06
3.61957297969989e-07
7.75738640745576e-09
1.63715346904303e-06
3.21937038326375e-07
1.03394430737588e-08
1.84572399798705e-06
2.70813869440024e-07
1.20745133151208e-08
1.93248565894384e-06
1.95568883724556e-07
1.33217039534542e-08
1.93494244287855e-06
1.00192872832539e-07
1.24907255939325e-08
1.54124759739945e-06
4.50946888394952e-07
7.10237702664186e-09
1.72043442969984e-06
4.20952664412793e-07
1.23928366550397e-08
1.9781004792712e-06
3.82492280729007e-07
1.35552894878706e-08
2.15250534077172e-06
3.1269035916283e-07
1.66163883952484e-08
2.1588380955062e-06
2.14751461824874e-07
1.71996850984968e-08
2.10513117808944e-06
1.06780980939169e-07
1.78353536881133e-08
1.59456392153396e-06
5.47448192002901e-07
5.2835055933901e-09
1.78973132940118e-06
5.25839088134338e-07
1.23399879762433e-08
2.0646006952432e-06
5.00913915195229e-07
1.63197984052747e-08
2.29824087742016e-06
4.39252522111468e-07
1.86777349748e-08
2.39138270324581e-06
3.42623208872481e-07
2.17168664822669e-08
2.33302649714716e-06
2.27229655314183e-07
2.28012205546516e-08
2.24164111205955e-06
1.11503311847099e-07
2.40640486501126e-08
1.06049336195846e-06
6.03059736636806e-08
7.11587781992615e-10
1.13173153634452e-06
1.24919900970539e-07
1.91445213593729e-09
1.20353208624645e-06
6.69812280586994e-08
2.16189441793959e-09
1.22347842802045e-06
1.95104693324546e-07
3.12425027433802e-09
1.31976148914562e-06
1.39512311808648e-07
5.96147647870909e-09
1.40729405485085e-06
7.70684973636501e-08
4.16996185489286e-09
1.31783939506467e-06
2.69883456740928e-07
5.6912852233801e-09
1.44690534770304e-06
2.21621290968555e-07
6.37561251696331e-09
1.5743985848909e-06
1.64274587255223e-07
9.03761029797529e-09
1.63254142376361e-06
8.78702926509702e-08
6.83663164423656e-09
1.3982712536688e-06
3.49722414071787e-07
7.20911509919514e-09
1.552062838349e-06
3.11255498701582e-07
9.42362950910864e-09
1.75043991032518e-06
2.62001516619174e-07
1.05421012942164e-08
1.83319911893891e-06
1.89086750547533e-07
1.14982413421246e-08
1.83584887892966e-06
9.68822634273299e-08
1.04566896909617e-08
1.46057523982544e-06
4.36111492996746e-07
6.5175421991742e-09
1.63141530628473e-06
4.0741935482952e-07
1.12935609820201e-08
1.87673841002363e-06
3.70412802974755e-07
1.21020197112232e-08
2.04305921158575e-06
3.02692157559703e-07
1.43969631722093e-08
2.04971291601864e-06
2.07987000996754e-07
1.46524166720351e-08
1.99914962489519e-06
1.03423022169863e-07
1.50487131040175e-08
1.51088996711901e-06
5.29942494538409e-07
4.67773434658442e-09
1.69719242419661e-06
5.09489467782892e-07
1.11039313785995e-08
1.95923973950021e-06
4.85709752694671e-07
1.45356425538334e-08
2.18225677000223e-06
4.2602910692114e-07
1.61998675249603e-08
2.27177736854735e-06
3.32381180270197e-07
1.85914605270453e-08
2.21716254778658e-06
2.20491696079417e-07
1.93525526069247e-08
2.13086367048144e-06
1.08198979188351e-07
2.04132177491208e-08
1.55826856114728e-06
6.31057974983062e-07
3.33753357801831e-09
1.75899414851169e-06
6.17549688138761e-07
9.83634469734181e-09
2.03021719368351e-06
6.06965503011533e-07
1.54530644835803e-08
2.26589738927527e-06
5.56891970094393e-07
1.86311954298027e-08
2.41277243716891e-06
4.65514071033693e-07
2.18473348707498e-08
2.44089207408626e-06
3.5059774788911e-07
2.44273833382246e-08
2.35380738556525e-06
2.2931933213567e-07
2.55020865351252e-08
2.24677537843342e-06
1.12086641652188e-07
2.63045789466838e-08
1.00194548165119e-06
5.80380452569205e-08
5.09554106194487e-10
1.07008255660475e-06
1.20293825445175e-07
1.66089948879643e-09
1.13806200742979e-06
6.45008267952056e-08
1.68054462977882e-09
1.15758128226384e-06
1.87964341792825e-07
2.85248282696013e-09
1.24889705710876e-06
1.34462021275404e-07
5.29785177258069e-09
1.33186333614896e-06
7.42187202285749e-08
3.37360221132819e-09
1.2474776645242e-06
2.60179152451998e-07
5.28690787367308e-09
1.37005571658893e-06
2.13763007144109e-07
5.72291225300094e-09
1.49109007884143e-06
1.58395761949297e-07
7.94248673748142e-09
1.54635558756053e-06
8.47274180070108e-08
5.62806062930055e-09
1.32404320574932e-06
3.37401483148971e-07
6.70949801468089e-09
1.47030635383006e-06
3.00465374537928e-07
8.6032910080046e-09
1.65880475829253e-06
2.53073090664036e-07
9.21199682681172e-09
1.73764508645133e-06
1.82538263318819e-07
9.92345319751748e-09
1.74043243963356e-06
9.35361431545719e-08
8.71651211801452e-09
1.38322145813886e-06
4.21081762112944e-07
5.99381341292341e-09
1.54591690768822e-06
3.93651048703887e-07
1.03113387042468e-08
1.77925171955914e-06
3.58089257580097e-07
1.08220459965509e-08
1.93768319303987e-06
2.92519836639755e-07
1.24846716525507e-08
1.94454675928598e-06
2.01081016206841e-07
1.24653516371913e-08
1.89694774883016e-06
9.99955727437669e-08
1.26624828516069e-08
1.43075844358055e-06
5.12086214575579e-07
4.1561830522277e-09
1.6083847337209e-06
4.92731147888471e-07
1.00128931716929e-08
1.85793328666565e-06
4.70054912336484e-07
1.29572341189923e-08
2.07057522095868e-06
4.12407282279293e-07
1.40676818758325e-08
2.15644441277938e-06
3.21807207660126e-07
1.59092051045553e-08
2.10531413027078e-06
2.13527168907446e-07
1.63963555713752e-08
2.02384325312346e-06
1.04785314839495e-07
1.7283229820317e-08
1.47516066952444e-06
6.10287897077133e-07
2.76192259743906e-09
1.66673340881016e-06
5.9778808422709e-07
8.63916473978011e-09
1.92533691703958e-06
5.8804278219855e-07
1.36506121726688e-08
2.15042916690842e-06
5.39876677049556e-07
1.61554140871371e-08
2.29120157453348e-06
4.51448648580946e-07
1.87022120523724e-08
2.31909109425842e-06
3.40099451220291e-07
2.0784139031628e-08
2.23722963859942e-06
2.22489438573061e-07
2.16394502668374e-08
2.13608397366342e-06
1.08747949736818e-07
2.2356069510921e-08
1.52258704055217e-06
7.15297524156043e-07
2.48712591772065e-09
1.72546708035382e-06
7.09347282144578e-07
7.74986096795043e-09
1.99655067036935e-06
7.12273760539091e-07
1.36521825625798e-08
2.22337080425001e-06
6.73238265894163e-07
1.84629035938363e-08
2.37004194622172e-06
5.87459736089496e-07
2.19198443840687e-08
2.4517266434971e-06
4.75154631233729e-07
2.50237668919084e-08
2.45325702261032e-06
3.52918127132549e-07
2.71290215112352e-08
2.3575118857676e-06
2.30108487617815e-07
2.77453500938776e-08
2.24396010095828e-06
1.12346629480032e-07
2.76912577334157e-08
9.45802180898964e-07
5.58138384520822e-08
3.29185440092563e-10
1.01093627833355e-06
1.15743188933708e-07
1.4409192378868e-09
1.07523942257977e-06
6.20591814861381e-08
1.27267635007806e-09
1.09435342677912e-06
1.8090618458281e-07
2.61529298616305e-09
1.18087420439424e-06
1.29461472638027e-07
4.72289089640946e-09
1.25943921750904e-06
7.1405451963721e-08
2.69894772660382e-09
1.17997986749109e-06
2.50539184913369e-07
4.92260697261502e-09
1.2962758057636e-06
2.05942112184081e-07
5.15205620592433e-09
1.41106276459292e-06
1.52553039076317e-07
6.99065329047549e-09
1.46353477058338e-06
8.16006998478633e-08
4.59344102480789e-09
1.25286698447395e-06
3.2510047813099e-07
6.25438292774654e-09
1.39181908768733e-06
2.89665224503572e-07
7.87158164009103e-09
1.57075450984093e-06
2.44111735909171e-07
8.05695832166642e-09
1.64576933704972e-06
1.75983298778922e-07
8.56218681478386e-09
1.64864788074387e-06
9.01842877267035e-08
7.22796782441395e-09
1.30910337193947e-06
4.05997408849989e-07
5.52154524022857e-09
1.46386989079357e-06
3.7978747287878e-07
9.43380254048545e-09
1.68558149519945e-06
3.45649749137063e-07
9.69634640932772e-09
1.83632733124775e-06
2.82273749109591e-07
1.08320575175478e-08
1.84331030986189e-06
1.94108149893359e-07
1.05876687184913e-08
1.79850840937286e-06
9.65346808704232e-08
1.0620720869307e-08
1.35406754659155e-06
4.94071118079998e-07
3.70092402984796e-09
1.52322829372657e-06
4.75752746036864e-07
9.04801355270833e-09
1.76062591860808e-06
4.54138509322172e-07
1.15687951250217e-08
1.96314629296237e-06
3.98543739233908e-07
1.22263304950359e-08
2.04536748705279e-06
3.11035570856159e-07
1.36065849119364e-08
1.99748690556563e-06
2.0642417668686e-07
1.38637004473371e-08
1.92059790650379e-06
1.01305321768679e-07
1.46019524159899e-08
1.39575325721494e-06
5.89205836707559e-07
2.28722258542439e-09
1.57837185482545e-06
5.77642260001465e-07
7.60592641052707e-09
1.82467103404562e-06
5.68669572500497e-07
1.20635402298415e-08
2.03939307059339e-06
5.22381224369004e-07
1.40185086050506e-08
2.17410312784714e-06
4.36964010617304e-07
1.6008281071117e-08
2.20159434915586e-06
3.29269666145988e-07
1.76629423965814e-08
2.12464113232968e-06
2.15440348150785e-07
1.83294824882954e-08
2.0290929135823e-06
1.0530417213028e-07
1.89695170391073e-08
1.439915001897e-06
6.91028572164198e-07
1.93087611169399e-09
1.63350077311212e-06
6.86001422034529e-07
6.51442643554248e-09
1.89194673819817e-06
6.8935309178358e-07
1.19321239790193e-08
2.1086888635024e-06
6.52252840830915e-07
1.59557690048202e-08
2.249448095418e-06
5.69429471394071e-07
1.87673560982108e-08
2.32847659134681e-06
4.60744238339403e-07
2.13063640458442e-08
2.3311780791992e-06
3.42307359208925e-07
2.30446146720067e-08
2.24111120611885e-06
2.23218783311137e-07
2.35688940628151e-08
2.13377574701179e-06
1.08979015687469e-07
2.35608212790292e-08
1.48887718609119e-06
7.99593250793662e-07
2.4030925295868e-09
1.69136998827197e-06
8.01375925360555e-07
6.73040328868206e-09
1.9634847410216e-06
8.17043733518397e-07
1.22820696206829e-08
2.18871161488661e-06
7.88298889959433e-07
1.80529168231446e-08
2.32373526050015e-06
7.08275869503173e-07
2.21571941830477e-08
2.40298117138332e-06
5.98419579859828e-07
2.52775936106195e-08
2.45783446612682e-06
4.77670734624915e-07
2.78906411278975e-08
2.45331691214429e-06
3.53711614112338e-07
2.93586636132629e-08
2.35513330108203e-06
2.30546622332113e-07
2.92107790620683e-08
2.23936048232786e-06
1.12503571377188e-07
2.82153068373976e-08
8.91983098533438e-07
5.36420881840123e-08
1.76714620346894e-10
9.54229594572834e-07
1.11287906979978e-07
1.23240588125385e-09
1.01499411634508e-06
5.96574125829805e-08
9.16804963012241e-10
1.03372237080542e-06
1.73970441044567e-07
2.40361143495039e-09
1.11560461447839e-06
1.24543556700046e-07
4.22593342922923e-09
1.18992802074859e-06
6.86470687300758e-08
2.1365564205757e-09
1.11526295828892e-06
2.4102879308506e-07
4.59396460283323e-09
1.22548783730392e-06
1.98211834476442e-07
4.65267062314013e-09
1.3342398383852e-06
1.46786195286527e-07
6.16490229046465e-09
1.38400978884649e-06
7.85130770872165e-08
3.7105983205658e-09
1.18465432570322e-06
3.12908266585575e-07
5.84307229642648e-09
1.31652322596457e-06
2.78938271627196e-07
7.22195134883454e-09
1.48621312609442e-06
2.35191285976516e-07
7.05499101484639e-09
1.55750301869078e-06
1.69472701566614e-07
7.38483391338876e-09
1.56043328428818e-06
8.68525269584104e-08
5.95518115979997e-09
1.23812859753934e-06
3.90976456209309e-07
5.09818752011649e-09
1.3851917805442e-06
3.65945426115557e-07
8.65168803362364e-09
1.59565215193261e-06
3.33205446417156e-07
8.70672759691728e-09
1.73892489772503e-06
2.72041520075727e-07
9.40088770076043e-09
1.74595125844881e-06
1.87130055978668e-07
8.97527427807084e-09
1.70379097979012e-06
9.3070502981133e-08
8.87447380115499e-09
1.28071377971337e-06
4.76049269028749e-07
3.30129545816816e-09
1.4416299492086e-06
4.58713025097751e-07
8.19380255583807e-09
1.66724077828957e-06
4.38118730019654e-07
1.03493155589151e-08
1.85990567400042e-06
3.84577405565401e-07
1.0632602926692e-08
1.93850221234858e-06
3.0017654701397e-07
1.16285242685771e-08
1.89365717140429e-06
1.99256780747912e-07
1.16950722273001e-08
1.82111722414989e-06
9.7794005268678e-08
1.23068810626217e-08
1.31991916454316e-06
5.68018468440536e-07
1.88617990787313e-09
1.49380071440374e-06
5.57317153175208e-07
6.70696271303198e-09
1.72813288801538e-06
5.49050965384268e-07
1.06731338914197e-08
1.93272100810848e-06
5.04611174591925e-07
1.21725579653186e-08
2.06143515937721e-06
4.22231232268212e-07
1.36976307324267e-08
2.08839329711437e-06
3.18241526812195e-07
1.49898222647566e-08
2.01605628066785e-06
2.08258450921907e-07
1.54951130904525e-08
1.92582858197776e-06
1.01798031005122e-07
1.60676683263511e-08
1.36112623060906e-06
6.66527782607205e-07
1.46634518305503e-09
1.54561463487807e-06
6.62292925792385e-07
5.52223606578388e-09
1.79173771718585e-06
6.66081642062637e-07
1.04022202821681e-08
1.99860068855004e-06
6.30735671400417e-07
1.37966491679582e-08
2.13345291197242e-06
5.50909196078035e-07
1.60674346302997e-08
2.20971089417305e-06
4.45916489374715e-07
1.81260613116833e-08
2.21335795167148e-06
3.31375711073521e-07
1.95471935900317e-08
2.12863585296882e-06
2.16119358803007e-07
1.99892796169799e-08
2.02721614367779e-06
1.05511711974032e-07
2.00168148788146e-08
1.4064597875125e-06
7.7158708794469e-07
1.85844386388853e-09
1.59958427830238e-06
7.74199193902823e-07
5.518217782052e-09
1.85903800279693e-06
7.90134173930996e-07
1.01796094872053e-08
2.07418463427172e-06
7.63225496972782e-07
1.54856981467509e-08
2.20406537182153e-06
6.86102778249576e-07
1.89515884160471e-08
2.28099269407576e-06
5.79968403909607e-07
2.15305491884709e-08
2.33462588752987e-06
4.63115944572062e-07
2.37052637323371e-08
2.33161846976392e-06
3.43019704445181e-07
2.49415798788653e-08
2.23924062051146e-06
2.23599820620466e-07
2.48403711740684e-08
2.12978256909253e-06
1.09107007674646e-07
2.40311590744186e-08
1.45581624586087e-06
8.83560638826983e-07
2.83327301820605e-09
1.65717244570104e-06
8.93873520551874e-07
6.28181815457812e-09
1.92957548047646e-06
9.21275299217481e-07
1.22041041922434e-08
2.1571805231218e-06
9.02842310423439e-07
1.77333930621544e-08
2.29004728517431e-06
8.28690837994994e-07
2.23648065377461e-08
2.35544991721304e-06
7.20770833450998e-07
2.56529822649637e-08
2.40643781177054e-06
6.01138470587146e-07
2.81767378700712e-08
2.45519336296779e-06
4.78484365280371e-07
3.01122721468925e-08
2.44991910110636e-06
3.542404279622e-07
3.08135711696309e-08
2.35091124941178e-06
2.30867907217341e-07
2.97961137962934e-08
2.23515201419973e-06
1.12630940227789e-07
2.79190216389332e-08
8.4041496510162e-07
5.15303406324676e-08
3.75017181320109e-11
8.99879404856165e-07
1.06945512991645e-07
1.04655125508843e-09
9.57239662752544e-07
5.73139885942182e-08
6.16899627152627e-10
9.75611034130253e-07
1.67190149061136e-07
2.20890694871472e-09
1.05303260582459e-06
1.1974530172243e-07
3.71632954197852e-09
1.12326744765958e-06
6.59629672277052e-08
1.61416806184054e-09
1.05324269199565e-06
2.31695816144816e-07
4.29456313043117e-09
1.15760448185293e-06
1.90616017109064e-07
4.21429047590803e-09
1.26052885673391e-06
1.41128226084775e-07
5.45560351828604e-09
1.30770634986968e-06
7.54830658186135e-08
2.9566940221002e-09
1.11931305678792e-06
3.00898142146784e-07
5.4714222444387e-09
1.24433025055871e-06
2.68353370948172e-07
6.64505751666077e-09
1.40509291847412e-06
2.26372913318042e-07
6.18597899991346e-09
1.4727664947485e-06
1.63048358025277e-07
6.36603923230988e-09
1.47571347350837e-06
8.35628082580277e-08
4.86730245699794e-09
1.17019433517545e-06
3.76121213623088e-07
4.72071215702018e-09
1.30978886019781e-06
3.52223969044135e-07
7.95970132394541e-09
1.5093725397503e-06
3.20853540302207e-07
7.8388371200002e-09
1.64539323036857e-06
2.61901183118056e-07
8.15792743477224e-09
1.65240009948017e-06
1.80198136090801e-07
7.5902421879104e-09
1.61273576685399e-06
8.96288150078644e-08
7.38121137265455e-09
1.21057928088529e-06
4.5815768357731e-07
2.95266635736825e-09
1.36348760416395e-06
4.4174642847078e-07
7.43900304064808e-09
1.57768777019562e-06
4.22128861408759e-07
9.280646628734e-09
1.7607751116196e-06
3.7063130933357e-07
9.24680967706257e-09
1.83578273777777e-06
2.89321868968585e-07
9.92817498136338e-09
1.79377720135523e-06
1.92086940700852e-07
9.83862912615721e-09
1.72536672001155e-06
9.42813079634487e-08
1.03431899787253e-08
1.24752238610381e-06
5.4689989605626e-07
1.54559653086177e-09
1.41290160068931e-06
5.36989522886932e-07
5.92322374064346e-09
1.63562032456035e-06
5.2936719693994e-07
9.45733901435252e-09
1.83033236288756e-06
4.8674042094295e-07
1.05740992982927e-08
1.95313301191851e-06
4.07396268491737e-07
1.1714045154017e-08
1.97945062176369e-06
3.07126747132152e-07
1.27008138126855e-08
1.91145884612364e-06
2.01016579597494e-07
1.30696743362698e-08
1.82628856948049e-06
9.82632477415244e-08
1.35830920219122e-08
1.28605388190421e-06
6.42014656852448e-07
1.07569075550099e-09
1.46167359188831e-06
6.38465495538684e-07
4.67843033601692e-09
1.69581236366284e-06
6.42619687419708e-07
9.0629442611547e-09
1.89300657846582e-06
6.0894174027569e-07
1.19360720453088e-08
2.02198887386951e-06
5.32113358280467e-07
1.3753423065249e-08
2.09539825185384e-06
4.30845669366604e-07
1.54050610693889e-08
2.09979788102893e-06
3.20253641700557e-07
1.6554229518863e-08
2.02011022460398e-06
2.08894616054076e-07
1.69238221085e-08
1.92431718212376e-06
1.01986518834566e-07
1.69795246557796e-08
1.32811906131107e-06
7.43467165335911e-07
1.40091619544989e-09
1.51210188942379e-06
7.46757073571476e-07
4.48399491206985e-09
1.75912766408828e-06
7.62733789008079e-07
8.77995016981008e-09
1.96448168403299e-06
7.3754533673264e-07
1.32947527695312e-08
2.08915806998043e-06
6.63400809514705e-07
1.62115767146179e-08
2.16360830494242e-06
5.6103841551663e-07
1.83287910502074e-08
2.21584217602912e-06
4.48158524359794e-07
2.01258725250695e-08
2.21410360470246e-06
3.32021656317638e-07
2.11592362874056e-08
2.12719351688674e-06
2.16454421445422e-07
2.10933068357882e-08
2.02375345863211e-06
1.05616816376663e-07
2.04285317899856e-08
1.3735519302286e-06
8.51651813177539e-07
2.199210080152e-09
1.56548463601115e-06
8.62578449362087e-07
5.16666837273886e-09
1.8249933071292e-06
8.90123359165341e-07
1.01106281848868e-08
2.04237330472367e-06
8.73221521237626e-07
1.49903223253681e-08
2.17043283385465e-06
8.02145027952128e-07
1.90570387419148e-08
2.23443726327441e-06
6.98095141423726e-07
2.18367027584287e-08
2.28462673525923e-06
5.82508142449709e-07
2.39483358927062e-08
2.33251312097247e-06
4.63823038250093e-07
2.55810862845308e-08
2.32880480244924e-06
3.43464276865508e-07
2.61908675845192e-08
2.23563597219298e-06
2.23861936735069e-07
2.53603346613573e-08
2.1261858895834e-06
1.09204657558875e-07
2.37920747514695e-08
1.42154886062121e-06
9.66754960556412e-07
3.77678188765368e-09
1.62194083733978e-06
9.85947499617808e-07
7.4831189943072e-09
1.89403257919536e-06
1.02545866052395e-06
1.23241372417456e-08
2.12388732074935e-06
1.01781268795059e-06
1.78067388306225e-08
2.26012723152534e-06
9.49263399746356e-07
2.25574356848673e-08
2.32279135999359e-06
8.43140855348851e-07
2.61144703070821e-08
2.35855839115852e-06
7.2378878065438e-07
2.85630724997181e-08
2.40282530633734e-06
6.01988215335642e-07
3.03511274789767e-08
2.45088292456694e-06
4.7909631579742e-07
3.14990889041158e-08
2.44545485326036e-06
3.54700087128883e-07
3.13680872264326e-08
2.34646848549563e-06
2.31129723355177e-07
2.95126811239031e-08
2.23147541655569e-06
1.12715559606564e-07
2.68802037486241e-08
7.9099551293241e-07
4.94757489920855e-08
-5.65982615032201e-11
8.47801363373655e-07
1.02729366291563e-07
8.78794718875823e-10
9.01879951611439e-07
5.50401103399354e-08
3.56814606383817e-10
9.19931713975005e-07
1.60590227793791e-07
2.03441516336381e-09
9.93058482063893e-07
1.15072303440943e-07
3.26216187360083e-09
1.05936333768811e-06
6.33566948474637e-08
1.16406795155355e-09
9.93830653271773e-07
2.22581237555019e-07
4.02062340533188e-09
1.09253733511313e-06
1.83191431588185e-07
3.82971053116656e-09
1.18984921923274e-06
1.3561188715777e-07
4.74689516519725e-09
1.23449742202651e-06
7.2525821130709e-08
2.29704160394691e-09
1.05674707353047e-06
2.89129264964179e-07
5.13203890903171e-09
1.1751442844616e-06
2.5796595618381e-07
6.13025185849127e-09
1.32729636677868e-06
2.17705841597275e-07
5.43305598345431e-09
1.39148175930101e-06
1.56741574969257e-07
5.48173436241683e-09
1.39440224747068e-06
8.03328090344309e-08
3.93482480861684e-09
1.10519250725189e-06
3.61515965101752e-07
4.38340523337179e-09
1.23755843045083e-06
3.38706565594807e-07
7.34806927990419e-09
1.42664066300268e-06
3.08672418585575e-07
7.07697179665143e-09
1.55563773828499e-06
2.51913699535398e-07
7.07589486336066e-09
1.56257365543197e-06
1.73355666030744e-07
6.39949019079604e-09
1.52526814213382e-06
8.62312477681469e-08
6.10331800599194e-09
1.14354472245724e-06
4.40504867923278e-07
2.65030416262849e-09
1.28869137143666e-06
4.24965211771232e-07
6.77518208020357e-09
1.49185573175271e-06
4.06279630487096e-07
8.36502569004023e-09
1.66565233893519e-06
3.56836176514796e-07
8.02595408573119e-09
1.73712726821123e-06
2.78545659833605e-07
8.4655318324736e-09
1.69778018705292e-06
1.84966565758949e-07
8.24935321563124e-09
1.63329181083626e-06
9.07926376685236e-08
8.66303637974444e-09
1.17842469331701e-06
5.2599529515262e-07
1.25953348741744e-09
1.33554882673399e-06
5.16809868822657e-07
5.24131963998159e-09
1.54702060515869e-06
5.09771905119484e-07
8.39512864620501e-09
1.73215733668787e-06
4.68912810686704e-07
9.17334096341266e-09
1.84911118902257e-06
3.92579334372642e-07
1.00102230799577e-08
1.87470578050141e-06
2.96018697732402e-07
1.07408805667134e-08
1.81080752938258e-06
1.93776055538725e-07
1.0994969962434e-08
1.73044560439118e-06
9.47290845774377e-08
1.14565439298272e-08
1.21454022745598e-06
6.17661410364793e-07
7.51680699895151e-10
1.38153238035799e-06
6.14719355486769e-07
3.95653468343312e-09
1.60404173932597e-06
6.19163470344204e-07
7.89693405740986e-09
1.79179580986149e-06
5.87077823841211e-07
1.03301145047855e-08
1.91496518768079e-06
5.13224065469593e-07
1.17689713458351e-08
1.9854815468066e-06
4.15679430037383e-07
1.30770506159943e-08
1.99046920919226e-06
3.09051515888056e-07
1.39941269214855e-08
1.91552667910745e-06
2.01615741810764e-07
1.43004287194278e-08
1.82508491834715e-06
9.84360696198104e-08
1.43787224727742e-08
1.25366235096192e-06
7.15456517015941e-07
1.01443593064957e-09
1.42874560536482e-06
7.19292212203775e-07
3.60467819277204e-09
1.66367941930719e-06
7.35204613266767e-07
7.54128126771101e-09
1.85945491259066e-06
7.11613818866552e-07
1.14168964776492e-08
1.97891379220256e-06
6.40425222474466e-07
1.38677478172491e-08
2.05076944734398e-06
5.4184412568083e-07
1.55927557723868e-08
2.10146331121805e-06
4.32970508528026e-07
1.70660138632463e-08
2.1007844007438e-06
3.20844714923866e-07
1.7922849092509e-08
2.01902709010329e-06
2.09192560868069e-07
1.78838661506888e-08
1.9213128543864e-06
1.02073407949648e-07
1.7346144920673e-08
1.29557091805453e-06
8.19744787550627e-07
1.70302663783229e-09
1.4783274448162e-06
8.3112180867229e-07
4.19306140729213e-09
1.72529735955192e-06
8.58624720981466e-07
8.28845103630866e-09
1.93273403923083e-06
8.4322634717293e-07
1.27377301749545e-08
2.05581414634631e-06
7.7506981759408e-07
1.62435844133292e-08
2.1181912931049e-06
6.74912876394763e-07
1.85822975599407e-08
2.16735438987647e-06
5.63420773587078e-07
2.03378104562152e-08
2.21417412601865e-06
4.48779235785972e-07
2.17062105217581e-08
2.21178699273912e-06
3.32399048711851e-07
2.22318928157237e-08
2.12412003907843e-06
2.16669530726175e-07
2.15561683172364e-08
2.02067253479858e-06
1.05691022357728e-07
2.02503020067106e-08
1.33941392561281e-06
9.30753508285859e-07
3.03288884600851e-09
1.53029977009812e-06
9.5042942471752e-07
5.98878860426847e-09
1.78933236329717e-06
9.89775905788177e-07
1.02139881586645e-08
2.00889516198502e-06
9.83378472646142e-07
1.49451594529635e-08
2.14015657178059e-06
9.18003677803485e-07
1.91017427441342e-08
2.20177954371458e-06
8.15986590938826e-07
2.21765190465589e-08
2.23774989491983e-06
7.00897524782482e-07
2.42550330680506e-08
2.28160062499972e-06
5.83224689866625e-07
2.57702909041758e-08
2.32884788083962e-06
4.64323141050846e-07
2.67561828795922e-08
2.3249968721181e-06
3.43834588658292e-07
2.66756466237159e-08
2.23182803365913e-06
2.24063220359078e-07
2.51418497949879e-08
2.12306954343912e-06
1.09260175081653e-07
2.29372306421431e-08
1.38457495905656e-06
1.04959621254338e-06
4.15574761119059e-09
1.58448140958726e-06
1.0782850585151e-06
8.34074681729575e-09
1.85591652413347e-06
1.13051486879839e-06
1.29861248583541e-08
2.08733210654823e-06
1.13321448006147e-06
1.81058109532347e-08
2.22747674493228e-06
1.07032376463405e-06
2.28684569134953e-08
2.29390820671252e-06
9.65950581068159e-07
2.6593524478174e-08
2.32624462018035e-06
8.46593931228366e-07
2.91382263219424e-08
2.35481531485796e-06
7.24676793756138e-07
3.07192538160013e-08
2.39819623014828e-06
6.02674952445434e-07
3.166675315848e-08
2.44615345271098e-06
4.79682207613468e-07
3.19620352598915e-08
2.44075954483127e-06
3.5510584666913e-07
3.09972859083782e-08
2.34193779962775e-06
2.31310298589178e-07
2.84034449211818e-08
2.22638970719743e-06
1.12656459614537e-07
2.51956712149626e-08
7.43632287587972e-07
4.74946513141766e-08
-1.31737576354221e-10
7.97907772984867e-07
9.86478172431249e-08
7.21289072038834e-10
8.48840083104609e-07
5.28482922632764e-08
1.34676181509532e-10
8.66592122861231e-07
1.54190912604374e-07
1.87784854440927e-09
9.35583947547997e-07
1.10536404652956e-07
2.85682740296276e-09
9.98108425972675e-07
6.08285836749204e-08
7.82885863072776e-10
9.36932987790657e-07
2.13716867044986e-07
3.77069872323012e-09
1.03018833005003e-06
1.75965191690197e-07
3.49031865262372e-09
1.12209304805998e-06
1.30250775984386e-07
4.12410010442436e-09