/*--------------------------------*- C++ -*----------------------------------*\
  =========                 |
  \\      /  F ield         | OpenFOAM: The Open Source CFD Toolbox
   \\    /   O peration     | Website:  https://openfoam.org
    \\  /    A nd           | Version:  12
     \\/     M anipulation  |
\*---------------------------------------------------------------------------*/
/*   Windows 32 and 64 bit porting by blueCAPE: http://www.bluecape.com.pt   *\
|  Based on Windows porting (2.0.x v4) by Symscape: http://www.symscape.com   |
\*---------------------------------------------------------------------------*/
FoamFile
{
    format      ascii;
    class       volScalarField;
    location    "200";
    object      k;
}
// * * * * * * * * * * * * * * * * * * * * * * * * * * * * * * * * * * * * * //

dimensions      [0 2 -2 0 0 0 0];

internalField   nonuniform List<scalar> 
10116
(
0.000215522733835343
0.000219862019127596
0.000216204934817625
0.000608961625008986
0.00022360257449988
0.000220540799863377
0.000621201062881473
0.000217079739270368
0.000609248677983064
0.000892613269530798
0.000226836874453009
0.00022428139141303
0.000631744898492239
0.000221420506918628
0.000621436120683204
0.000910310327731484
0.000215673209550121
0.000608216167876873
0.000892109821084992
0.00112110125206027
0.000229630847876818
0.000227521737823019
0.000640853094913696
0.000225167525132286
0.000631962451177509
0.000925569905140077
0.000219976206549138
0.000620326867197307
0.000909707110114569
0.00114301710954528
0.00021127681647069
0.000602818452657209
0.000887762026602918
0.00111997420880599
0.00131878720357515
0.000232041143878185
0.000230323603154744
0.00064871239954129
0.000228417652894999
0.000641065019415379
0.000938756352628585
0.000223694482656356
0.00063081384070682
0.000924925595292707
0.00116194629174446
0.000215485008538607
0.000614780915455047
0.000905183543252751
0.00114175143125559
0.00134419526076566
0.000204702100450432
0.000591288668703873
0.000877613143650809
0.00111300058597502
0.00131678796817616
0.00149564973775949
0.000234117760806278
0.000232741734305877
0.000655480413101893
0.000231234080371133
0.000648923143445983
0.000950134037901649
0.000226923572429896
0.000639897385143618
0.000938090655768689
0.00117831839259169
0.000219123057585478
0.000625158301671211
0.000920296061154992
0.00116061866358062
0.00136617477115246
0.000208764025457761
0.000602993177786932
0.000894772367941402
0.00113452589472152
0.00134201888138281
0.00152404519593161
0.000196982877060328
0.000574263405255332
0.000860369141212032
0.00109869484611063
0.0013074212294206
0.00149257397193222
0.00165659580081929
0.000235906301460149
0.000234825919181229
0.000661297621698826
0.000233666333127725
0.000655691729293873
0.000959927323894544
0.000229726037257295
0.000647747479229295
0.000949455278703853
0.0011924500529444
0.000222286724737711
0.00063416109410868
0.000933391769534236
0.00117695479498543
0.00138520416870662
0.000212279051574675
0.000613158747481418
0.00090968743737203
0.00115323451510558
0.00136391361648662
0.00154863927926031
0.000200819126251297
0.000585593889667383
0.000877153355629584
0.0011198639109452
0.00133233476781696
0.00152075465943904
0.00168759103785712
0.000189041116345614
0.000553294321175955
0.000836422784673093
0.00107638828501581
0.00128938201294722
0.00148087298530001
0.00165259270043063
0.00180451205598893
0.000237447772913561
0.000236621505330835
0.000666291358644363
0.000235763955603207
0.000661510479495307
0.000968336956701322
0.000232149112427809
0.000654513927283322
0.000959239795816206
0.00120461354608669
0.000225034621825957
0.00064195125089228
0.000944708301525081
0.00119106194327534
0.00140163875179688
0.000215339855007781
0.000621989056349419
0.000922632938577565
0.00116946124424611
0.00138289023115533
0.0015699516504211
0.000204165019982765
0.000595447094911686
0.000891758750935825
0.00113830163454124
0.00135402448477906
0.0015452406339034
0.00171446287763261
0.000192212754737169
0.000564133267945712
0.000852710312949753
0.00109708563088624
0.00131385991026818
0.00150867786563201
0.00168334183442859
0.0018377944099908
0.000184994231492177
0.000529460689778595
0.000806911890867146
0.00104662156227548
0.00126247762657163
0.00145944128264713
0.0016388866304049
0.0017998896750246
0.0019413451602401
0.000238779308077527
0.000238169398653077
0.000670577219285585
0.000237572084861613
0.000666506319540014
0.000975545604923559
0.000234240544968224
0.000660333713044579
0.000967643090930261
0.00121505459993269
0.000227413701489051
0.000648672699625298
0.000954458376059427
0.00120320724160842
0.00141578727081713
0.000218001645944357
0.000629638838091601
0.000933833744312891
0.00118348836539303
0.00139928677228972
0.00158836866752962
0.000207092641425347
0.000604016547245856
0.000904450990520077
0.00115431974377813
0.00137285626565285
0.00156648260150862
0.00173776706938018
0.000195264583023307
0.00057358015099752
0.000866894209013259
0.00111513178704278
0.00133521515236789
0.00153291722640814
0.00171008687917666
0.00186667128082373
0.000183945862345791
0.000539667701930395
0.000822591643388022
0.0010667253484243
0.00128640111219178
0.00148674281207416
0.00166921239323137
0.00183290232567723
0.00197665544378924
0.000183955584503653
0.000503169301941207
0.000772629675227111
0.00101033588915207
0.00122750651682019
0.00142842827296152
0.00161457442961288
0.00178465808030187
0.00193634424343538
0.00206840084499158
0.00023993425009027
0.000239507210410888
0.000674259933710065
0.00023913151867495
0.000670794482071317
0.000981719982933232
0.000236044044712242
0.000665332727735506
0.000974846922765384
0.00122399784662619
0.000229468614043433
0.000654458318576272
0.000962836830942205
0.001213634158062
0.00142793068479035
0.000220309016117779
0.000636246218796908
0.000943493615490883
0.00119557323181132
0.00141340584163921
0.00160422843408178
0.0002096425436235
0.000611448765582279
0.00091544503540503
0.0011681836382222
0.00138914455055978
0.00158484726375366
0.00175791635378367
0.000197989556273912
0.000581811323342103
0.000879231722132553
0.0011308288146698
0.00135378722817033
0.00155398244940761
0.00173330697811158
0.00189173103720263
0.000186080478963949
0.000548584343130801
0.000836253595394088
0.00108426386288223
0.0013072940770097
0.00151059385098054
0.00169567788004223
0.00186163991938975
0.00200731143562253
0.000183760096325519
0.000512745692181183
0.000787620195385568
0.00102973124168815
0.00125075178565486
0.00145510503460965
0.00164434302260147
0.00181721179136487
0.00197136719799301
0.00210551885725544
0.000170173299858272
0.000475159724502339
0.000733812538349975
0.000968155977727845
0.00118537874046712
0.00138883612832155
0.00158003151328199
0.00175803119118459
0.00191997996209065
0.0020631474784931
0.002186482645968
0.000240943489277606
0.000240668070179199
0.000677433281036256
0.000240479850606526
0.000674479911396049
0.000987011629523534
0.000237600377680139
0.000669625438044119
0.000981017639399459
0.00123164886122467
0.000231242118259478
0.000659430901832815
0.000970022556076329
0.00122256613064856
0.00143832723425652
0.000222304866049587
0.000641938868200492
0.000951801353682569
0.00120595380125602
0.00142552561841333
0.00161784055568821
0.000211856754518276
0.000617874922819791
0.000924936377027563
0.00118013941444736
0.00140318022227487
0.00160066559862336
0.0017752730625074
0.000200399959137854
0.000588961932709298
0.000889928968710148
0.0011444303160323
0.00136987095606916
0.00157221334765512
0.00175339282496987
0.00191340840771355
0.000188293934045153
0.000556393082951767
0.000848146513370529
0.00109953202910809
0.00132548581902031
0.00153135625182162
0.00171869645315067
0.00188660684113898
0.00203392968669544
0.00018083184178373
0.000520883067502797
0.000800665622945319
0.0010466572862112
0.00127106339842775
0.00147843425596574
0.00167037815121113
0.00184564658230667
0.00200187558271594
0.00213776129739641
0.000174551899089194
0.000484017381045391
0.000748133838454289
0.000986740761970377
0.00120782500955222
0.00141476279848132
0.00160911934340215
0.00178998748514612
0.00195451777882744
0.00209996414998664
0.00222521593911671
0.000149532269355674
0.000441703244590663
0.000690851710202115
0.000920361658997083
0.00113664102819487
0.00134159189757025
0.00153640126144707
0.00172051972127817
0.00189148964480812
0.00204589365332181
0.00218102775141075
0.00229604073766504
0.000241834259996977
0.000241682543858892
0.00068018312651687
0.000241651086751405
0.000677657119800715
0.000991557504177488
0.000238947254324906
0.00067331628665058
0.000986306510991977
0.00123819498685124
0.000232773795123277
0.000663703357873571
0.000976180040875008
0.00123020800410288
0.00144721406176157
0.000224029037886736
0.000646835413613906
0.000958931698901214
0.00121484996108045
0.00143590282968522
0.00162949102485494
0.000213776715697533
0.000623417023203477
0.000933106541912666
0.00119041724686393
0.00141523477055489
0.00161424394606201
0.00179017073894749
0.000202476501166033
0.00059514965786742
0.000899172345908594
0.00115617130870042
0.00138374382087035
0.00158792749275614
0.00177069894602413
0.00193208667091436
0.000190732240625058
0.000563210606843523
0.000858468546580743
0.0011127740181301
0.00134125779414132
0.00154934767611127
0.00173862895313487
0.0019082141754097
0.00205696461950681
0.000179755218630862
0.000528176321690706
0.000812034059433149
0.00106140049310113
0.00128876286762617
0.00149876677511876
0.00169306068967532
0.00187039519782292
0.0020283959638266
0.00216576983633209
0.000178218328139049
0.000490693561423121
0.000760460818929023
0.00100295735835729
0.00122744508136806
0.00143744788621646
0.00163458561991582
0.00181796126602993
0.00198470737991834
0.00213205305717394
0.00225887593833806
0.000154127835362688
0.000450462050258052
0.000704256276331384
0.000938049345836621
0.00115817169248429
0.00136664364684229
0.0015646806754393
0.0017517524565501
0.00192540014160111
0.00208220504222041
0.00221944782931924
0.00233621645004144
0.000126291839895053
0.000403211952443095
0.000643033291631431
0.000867167252806201
0.00108156844734341
0.00128721161158401
0.00148465770905477
0.00167337873393344
0.00185145958211302
0.00201584502653057
0.0021630191893498
0.00229040199762449
0.00239731974665909
0.000242630479996909
0.000242578925796182
0.000682585685519217
0.000242675911857366
0.000680411532819133
0.00099548038354404
0.000240118099009905
0.000676499772335474
0.000990850269658074
0.00124380567508853
0.000234099722500848
0.000667379062212242
0.000981459273925756
0.00123674658591934
0.00145480781147989
0.000225518528267451
0.000651045296755827
0.000965045487051997
0.00122246402144619
0.00144477366137741
0.0016394431951598
0.000215438557704952
0.000628188363818481
0.000940124509484448
0.0011992313310678
0.00142556057069005
0.00162586643007332
0.00180291870593836
0.000204296491719818
0.000600493217216811
0.000907135990046388
0.00116627320850121
0.00139566798372791
0.00160142350625722
0.00178555518196623
0.00194811971795961
0.000192262048335066
0.000569087130116134
0.000867394329405928
0.00112421488624472
0.00135487514433078
0.00156487054204875
0.00175581506907342
0.00192683651799813
0.00207681742170357
0.00018904695765883
0.000534688753762054
0.000821915169432966
0.00107419664803686
0.0013041213492775
0.00151640543394993
0.00171272712861415
0.00189183642921019
0.00205135726439393
0.00219001606563114
0.000180368191027272
0.000497479919854159
0.000771244773784876
0.00101708944751581
0.00124455140096482
0.00145723453370096
0.00165679944277851
0.00184235020053
0.00201099869681292
0.00215996045512642
0.0022881266892878
0.000158039658524345
0.000457940339207527
0.000715660717516809
0.000953462241997973
0.00117699541207584
0.00138857054828724
0.00158945219680196
0.00177912182326659
0.00195510669478202
0.00211396367386136
0.00225294952964157
0.00237114190686461
0.000130400466160672
0.00041162482246436
0.000655528900782328
0.000883816108979809
0.00110206817293244
0.00131126378077262
0.00151200018840909
0.00170375732570213
0.00188461402694631
0.0020515062990797
0.00220091765967819
0.0023302542368085
0.00243877977743332
0.000102264667840505
0.000360364541388873
0.000590364594957289
0.000808571102693213
0.00102035775847344
0.00122595956344936
0.00142532315345052
0.00161765541335118
0.00180124369097676
0.00197362806902404
0.00213161196026304
0.00227171796419752
0.00239150560083852
0.00249047360897615
0.000243352327194105
0.000243380867166738
0.000684707129430241
0.000243581933951895
0.000682819211725627
0.000998889226090948
0.000241143352558079
0.000679260976909798
0.000994771541674763
0.00124863285546816
0.000235253462066718
0.000670551209045178
0.000985996041830404
0.00124235095718331
0.0014613048177275
0.000226808601854758
0.000654668829310342
0.000970289708858995
0.00122898084538272
0.00145235402376891
0.00164793856041278
0.000216876204166749
0.000632293566473115
0.000946146398624831
0.00120677955424426
0.00143439067981566
0.00163579533298364
0.00181380294138863
0.000205883657628024
0.000605099742599742
0.000913982164350344
0.00117494303244805
0.00140588895958787
0.00161298046411021
0.00179826874631207
0.00196183687301306
0.000193886974716763
0.000574181588386078
0.000875090700821428
0.0011340665346807
0.00136658977941873
0.00157821287798934
0.00177057609942665
0.00194282374907273
0.00209385960643368
0.000182284775612413
0.00054005704366658
0.000830457053532534
0.00108526023167029
0.00131739290608738
0.00153163892843586
0.00172970047222786
0.00191032877209989
0.00207115140929492
0.00221091689608781
0.000177835808416936
0.000504278000816979
0.000780646311176153
0.00102936394081535
0.00125940505560761
0.00147441443041736
0.00167608120606862
0.00186350686107241
0.00203378616691119
0.00218413093330547
0.00231345500534709
0.00016121295730453
0.000464243819052396
0.000725868045673402
0.000966905849235377
0.00119341437938956
0.00140770608923493
0.00161107700533363
0.00180301290761228
0.00198102187343386
0.00214163478929392
0.00228209664874788
0.00240150105147988
0.000133955293556379
0.000418868835755222
0.000666361609794447
0.000898312749752587
0.00111999259640948
0.00133232179847198
0.0015359589406338
0.00173039230970785
0.00191368942211814
0.00208276558914589
0.00223408020566862
0.00236501731430548
0.0024748311549393
0.000105708929996679
0.000368095214939452
0.000601967050303144
0.000824097940635241
0.00103970365202675
0.00124888744859794
0.00145159950320628
0.00164704773982666
0.00183350852115082
0.00200850837038668
0.00216884233988637
0.00231103496447507
0.00243263323841834
0.00253307168744981
7.83934555457862e-05
0.000313859128614019
0.000532796255985942
0.000744630337468459
0.000953156578229518
0.00115803437611475
0.00135866242107992
0.00155390763850895
0.00174197320413286
0.00192068397427906
0.00208745394648424
0.00223909254571346
0.00237220428323221
0.00248449250958276
0.00257563651663822
0.000244018504650333
0.000244107441358968
0.000686603783570281
0.000244392894743619
0.000684946083916103
0.00100187943036951
0.000242050172078169
0.000681675532886546
0.000998179136478015
0.00125281132198678
0.000236264370429689
0.000673303810479807
0.000989912153980965
0.00124717276080367
0.00146688123351133
0.000227931287460459
0.000657797896562482
0.00097479817807904
0.00123456797027627
0.00145883970102825
0.00165519638425969
0.000218120898036783
0.00063582886297484
0.000951315223280721
0.00121324322759235
0.00144193858157441
0.00164427114929453
0.00182308599722757
0.000207265581338853
0.000609066619890027
0.000919860874323882
0.00118237270325203
0.00141463448254035
0.00162285701103126
0.00180912420266033
0.00197354342011424
0.000195386796588837
0.00057858673179429
0.000881712353519457
0.00114252773527201
0.00137663878188672
0.00158964592294615
0.00178321363259759
0.00195650287797728
0.00210843783624187
0.000183098044687614
0.000544812588861567
0.000837830373540382
0.00109479396017114
0.00132881908067608
0.0015447438558904
0.00174429037555214
0.00192621287686789
0.00208814563019301
0.00222885926315442
0.000178754722173626
0.000508384818123587
0.000788727673909276
0.00103998034104145
0.00127224895158697
0.00148926418742006
0.00169273902552493
0.00188177178244538
0.002053444573487
0.00220497160546995
0.00233529170632509
0.000163384430158967
0.000469683758622172
0.00073481893926906
0.000978593897589317
0.00120767922622682
0.00142433127926875
0.00162986373099149
0.00182376120167571
0.00200351228186988
0.0021656266090038
0.00230734768308452
0.00242779427338966
0.000137022596316294
0.000425031237262756
0.000675813536370745
0.000911000391983948
0.00113563427443499
0.00135070670980646
0.00155688530637885
0.00175366070914672
0.00193908513080463
0.00211004880370109
0.00226298577195141
0.0023952707127534
0.00250617554059279
0.000108712006257055
0.000374793161033673
0.000612050984024881
0.000837650005708211
0.0010566233188034
0.00126896634082827
0.00147463022115045
0.00167282641357527
0.00186181877745565
0.00203911616689866
0.0022014930248753
0.00234545169987485
0.00246851868871689
0.0025701196580194
8.11128968103921e-05
0.000320719140162266
0.000543385428352445
0.000758974839564509
0.000971239957617393
0.0011797128918281
0.00138374226977664
0.00158218057950031
0.00177321304061847
0.00195464714883281
0.00212388395362391
0.00227772696390153
0.0024127852220345
0.00252675051368665
0.00261923670309262
5.52744429740427e-05
0.000264097608766593
0.00047043869385198
0.000675301372359095
0.000880078408037889
0.00108361708538924
0.00128487752257291
0.00148241298441493
0.00167425392703507
0.001858225150639
0.00203206024544941
0.00219318629924556
0.00233847348938286
0.00246462695948132
0.00256949900181319
0.00265295905391143
0.000244644972270505
0.000244775466192665
0.000688324932897796
0.000245128332136482
0.000686846789766959
0.00100453335419691
0.000242862154212389
0.000683809312497425
0.0010011682984681
0.00125645916806368
0.000237158889493621
0.000675711627908274
0.000993315688712301
0.00125134654327139
0.00147169339205661
0.000228915245395823
0.000660514359829612
0.000978691011880772
0.0012393757673685
0.00146440641304211
0.00166141337876297
0.00021920334378166
0.00063888252733418
0.000955760710508872
0.00121878698848583
0.00144839804718174
0.00165151232343375
0.00183100651019835
0.000208457429010985
0.000612483635465385
0.000924909941830486
0.00118873849991234
0.0014221137671311
0.00163129072378541
0.00181838302682856
0.00198352017373248
0.000196719905918116
0.000582386636962657
0.000887402253472926
0.00114978334551827
0.00138524286614309
0.00159942225529395
0.00179400811641125
0.00196817764888301
0.00212087416096927
0.000184350167337404
0.000548959868884548
0.000844180305034283
0.00110298784833731
0.00133862772233832
0.00155598201410823
0.00175678983810333
0.0019398096759327
0.00210268411901824
0.00224420501400394
0.000180268060891282
0.000512619360952054
0.000795717368193227
0.00104913425036365
0.00128331429285563
0.00150204901801137
0.00170707010247972
0.00189747311284674
0.00207033135062104
0.00222286489532098
0.002354037330163
0.000165681735848981
0.00047422496917732
0.0007423397292196
0.00098869811588836
0.00122002035376323
0.0014387111548478
0.00164610753535183
0.00184169138685981
0.00202293368243284
0.00218632820885102
0.00232912318556584
0.00245046477380155
0.000139644122674883
0.000430187632137612
0.000684146722443397
0.000922047173301493
0.00114923118825528
0.00136668766579979
0.00157507674884383
0.00177388567742231
0.00196114982112682
0.00213373494541603
0.00228805484137305
0.00242148535858386
0.00253332546894255
0.00011133973935706
0.000380577527736244
0.00062080420363843
0.000849484019619427
0.00107139953899357
0.00128650301642326
0.00149475398717528
0.00169535855305352
0.0018865657226103
0.00206586368131923
0.00223000193107635
0.00237545944482772
0.00249975547847173
0.00260233483041939
8.34939667864268e-05
0.000326689219502719
0.000552604952327094
0.00077150082087775
0.000987063526408151
0.0011987031359842
0.00140573006087266
0.00160698367106437
0.001800632583237
0.00198446594239766
0.00215586744272848
0.0023116219674443
0.00244831844109879
0.00256362950002743
0.00265716097864528
5.7255921837218e-05
0.000269967129504501
0.000479886373208261
0.000688373433894328
0.000896803189606846
0.00110392651323409
0.00130863118486547
0.00150943229170959
0.00170433208552602
0.00189113290587612
0.00206755168986759
0.00223100508477575
0.00237836010441949
0.00250632873798344
0.00261275259885473
0.00269743526045249
3.38100851783685e-05
0.000211308617725153
0.000403405261871727
0.000600548456925558
0.000801145220480369
0.00100284840403447
0.00120415718648912
0.00140337849015635
0.00159838297679222
0.00178690458412526
0.00196671413980254
0.00213557518719569
0.00229098226307306
0.00242989265579911
0.00254912211955257
0.00264667743298115
0.00272262163832846
0.000245242808735815
0.000245396337273862
0.00068991289237412
0.000245803613575082
0.000688570135548291
0.00100692135092695
0.000243599107951725
0.000685717310877397
0.00100382121436305
0.00125967836057675
0.000237960110842362
0.000677840106518006
0.00099630127463235
0.00125499019188044
0.00147587824313921
0.000229786587193972
0.000662891235776937
0.000982074801188145
0.00124353769918855
0.00146921012281366
0.00166676446218643
0.000220151457254437
0.000641534520031447
0.000959600256803731
0.00122355876772017
0.00145394316377092
0.00165771510808732
0.00183777946717914
0.000209489073130372
0.000615435851391471
0.000929254957882645
0.00119420077817437
0.00142851704785862
0.00163849765438707
0.0018262831184766
0.00199202314782891
0.000197851561171562
0.000585660726098622
0.0008922915526975
0.00115600347038918
0.00139260533308597
0.00160777452196847
0.00180321777866692
0.00197812775218065
0.00213146560425325
0.000185646340331513
0.000552567577932163
0.000849640274662877
0.00111001826035637
0.00134703142072815
0.00156559809184391
0.00176747262059072
0.00195141846346924
0.00211508732058164
0.00225729098101719
0.000177116058196031
0.00051633925619523
0.000801742449442617
0.00105700647695846
0.00129281920088671
0.0015130205818584
0.00171935716866317
0.00191092258177038
0.00208478425830874
0.00223817005357921
0.0023700670753957
0.000167757750897272
0.000478254665407219
0.000748877074678707
0.000997413607680046
0.00123065824599391
0.00145109957430024
0.00166009339948417
0.00185711833793354
0.0020396303031197
0.00220411173990446
0.00234781898676334
0.0024699252073367
0.000141967897119488
0.000434751726373997
0.000691227419355599
0.000931576111289743
0.0011609979507397
0.0013805175356252
0.0015908163538685
0.0017913783286034
0.00198022260287445
0.00215419317014875
0.00230968915225254
0.00244409378046861
0.00255673520889177
0.000113635798803157
0.000385549798631129
0.000628391007132929
0.000859801844733082
0.00108425203017847
0.00130175351423469
0.00151225610939986
0.00171495585668551
0.00190808528386247
0.00208911126569678
0.00225475912847713
0.00240148967700909
0.00252682568749086
0.00263024060540369
8.55853360757653e-05
0.000331880537112737
0.000560621297366428
0.000782424424930445
0.00100088406430976
0.00121529545913255
0.00142494900782971
0.00162867135264891
0.00182461330093371
0.0020105445037136
0.00218382827614329
0.00234122634136106
0.00247930632956692
0.00259573547341914
0.00269014018871634
5.90018215527839e-05
0.000275091394244588
0.000488127978070122
0.000699795065903287
0.000911441828154214
0.00112172287035921
0.00132946150102522
0.00153314088811127
0.00173073810637354
0.00192003388439267
0.00209872758752504
0.00226422065019542
0.00241336376650966
0.00254285072759967
0.00265050529277944
0.00273612423563666
3.50862454891377e-05
0.000216105394127024
0.000411595461927767
0.000612243461600579
0.00081641325969016
0.00102167610874115
0.00122645776662295
0.00142900948254645
0.00162716128626881
0.0018186170025198
0.00200112624708208
0.0021724386535298
0.0023300412356945
0.00247089070206945
0.00259181173186046
0.0026908015980054
0.00276785832530813
1.58666756018572e-05
0.000156051389384558
0.00033193790100468
0.000520324216045249
0.000716286612389307
0.000915774617450841
0.00111664543000199
0.00131699166904739
0.00151457172437025
0.00170703834304165
0.00189210894694269
0.00206760113282955
0.0022313563375411
0.00238096403470025
0.00251348188109534
0.00262584243244282
0.0027162095006714
0.00278483373250115
0.000245998114638643
0.000691405307863213
0.000246423229386507
0.000690157499532414
0.00100910466743533
0.00024427446102514
0.000687445297289464
0.0010062077871978
0.00126255571844533
0.000238687957404283
0.000679744825536117
0.00099895043752714
0.00125820540283582
0.0014795539722229
0.00023056752556869
0.000664992729906569
0.000985042897014081
0.0012471706998541
0.00147338744722143
0.00167140268466645
0.00022099087409676
0.000643855829936569
0.000962938106448679
0.00122768994036537
0.00145872851394726
0.00166305385089728
0.00184359576771538
0.000210390348520381
0.000617999974846539
0.000933008860186845
0.00119890383548694
0.00143401539844766
0.00164467212731751
0.00183303863396814
0.00199928279517823
0.000198810995513801
0.000588487585464446
0.000896501015237722
0.00116134309937742
0.00139891143356932
0.00161491467316617
0.00181107788260445
0.0019866081490318
0.00214048274935466
0.000186862324135474
0.000555693789705394
0.000854334365052457
0.00111604822921922
0.00135422636113363
0.00157381810015875
0.00177659151537828
0.0019613154282059
0.00212565088766887
0.00226842783294161
0.000178308889088138
0.000519745113352767
0.000806934685458391
0.00106376478520992
0.00130096735122927
0.00152241458649291
0.00172986542764456
0.00192241231812745
0.00209711904419568
0.00225122217825714
0.00238373074151615
0.000169609159804415
0.000480908842799728
0.00075449780908758
0.00100491087264627
0.00123980072228196
0.0014617375578611
0.0016720931005268
0.00187034285310178
0.00205393020821133
0.00221932972933717
0.00236380760203868
0.00248656242182268
0.00014399379898159
0.000438755787314402
0.000697320188442931
0.000939795706365804
0.00117114495680326
0.00139243846581437
0.0016043769738401
0.00180644064439309
0.00199663377067722
0.00217178183754435
0.00232827386209697
0.00246350372478867
0.00257682818514395
0.000115644383653249
0.000389884048363158
0.000634959341856455
0.000868707722874691
0.00109537509379668
0.00131495671047118
0.00152740715275489
0.00173191684374187
0.00192670248499339
0.0021092107587096
0.00227614566484855
0.00242395543618922
0.00255017257172265
0.00265430121711353
8.74190660440166e-05
0.000336383054641282
0.000567573058517583
0.000791922548915037
0.00101291018153208
0.00122973050499785
0.00144167072538817
0.00164754300125126
0.00184547951091208
0.00203323015457948
0.00220813727703487
0.0023669401166671
0.00250619027371593
0.002623560530105
0.00271870743130587
6.05366689087617e-05
0.000279559964030762
0.000495309238220656
0.000709757643096007
0.000924227069025434
0.00113727667837714
0.00134767440668548
0.00155387783038124
0.00175384078678771
0.00194532256437575
0.00212600379071776
0.00229326743720442
0.00244394311922786
0.00257470527113055
0.00268337393263669
0.0027697679767286
3.62211608834825e-05
0.000220305965930942
0.000418754127812961
0.000622472238545268
0.00082978254682949
0.00103817893403483
0.00124601891933894
0.00145150491634042
0.0016524311150747
0.0018464741213954
0.00203136296789071
0.00220483211717068
0.00236435592337777
0.00250687701284637
0.00262920365627968
0.00272931677638606
0.00280720944157854
1.65300440478686e-05
0.000159727415928657
0.000338773554349277
0.000530533135438877
0.000729993049722083
0.00093301012157164
0.00113736969461439
0.00134110123020546
0.00154191125360134
0.00173741361481057
0.00192529888711559
0.00210336642897142
0.00226944691245287
0.00242112509050497
0.00255546039534814
0.00266939643060856
0.0027610896028286
0.00283072942026684
4.00900748873756e-06
9.95179232981779e-05
0.000256777294820434
0.000434718687214419
0.000625306793594995
0.000822278039629098
0.00102237213489182
0.00122338216391851
0.00142300072987576
0.00161884027595709
0.00180857567244083
0.00198998948883412
0.00216098519291519
0.00231950753590363
0.00246325471018155
0.00258939130902263
0.00269496943165959
0.00277830624736506
0.00283981622094133
0.000247032162643916
0.00069164787828611
0.00101113301156727
0.000244890193663022
0.000689032655939748
0.00100838847740296
0.00126516674126011
0.000239355163024961
0.0006814689866649
0.00100133227807574
0.00126107861420176
0.00148282089345423
0.00023127737901922
0.000666874078404928
0.000987675623504086
0.0012503756056879
0.00147705620221742
0.0016754602869698
0.0002217452037937
0.000645908525149834
0.000965865586445387
0.00123129562044321
0.00146288951395998
0.00166768127331529
0.0018486230475929
0.000211191614040521
0.00062024479347319
0.000936272410317805
0.00120297592595431
0.00143876085031888
0.00164998682691297
0.00183883993604346
0.00200550419955403
0.000199621028053356
0.000590941065723958
0.000900139412290978
0.00116594187250993
0.00140432796985344
0.00162103358264901
0.00181780034963851
0.00199384858194315
0.00214817015110736
0.000187715658964611
0.000558369064938493
0.000858376760931419
0.00112122658687576
0.0013603915977867
0.00158084835031475
0.00178437726578129
0.00196975264100788
0.00213464463867698
0.00227789992091578
0.000184490577010267
0.000522849170581059
0.000811409108061421
0.00106956413943823
0.00130794690773416
0.00153044916452676
0.00173884045336972
0.00193221269305567
0.00210762764226769
0.00226233082891906
0.00239535148044031
0.000171282411256972
0.000484115625258737
0.000759391418356825
0.00101135191412252
0.0012476420269575
0.001470851150508
0.00168236217397326
0.00188164796376436
0.00206614161190763
0.00223231238134457
0.00237743705275322
0.00250073794485142
0.000145774566324026
0.00044219901995187
0.000702400973760328
0.000946862657079736
0.00117986903493179
0.00140268031407529
0.00161601902034389
0.00181936183200078
0.00201069992829443
0.00218684337847348
0.00234417453124179
0.00248009942722245
0.00259400194850498
0.0001173906068141
0.000393646291403044
0.000640641281501742
0.000876384636187307
0.00110496923334986
0.00132634226202769
0.00154046765487532
0.00174653086356104
0.00194273419473655
0.00212650604707415
0.00229453241421406
0.0024432534489792
0.00257021452485998
0.00267494979556161
8.90215558597401e-05
0.000340290745167072