/*--------------------------------*- C++ -*----------------------------------*\
  =========                 |
  \\      /  F ield         | OpenFOAM: The Open Source CFD Toolbox
   \\    /   O peration     | Website:  https://openfoam.org
    \\  /    A nd           | Version:  12
     \\/     M anipulation  |
\*---------------------------------------------------------------------------*/
/*   Windows 32 and 64 bit porting by blueCAPE: http://www.bluecape.com.pt   *\
|  Based on Windows porting (2.0.x v4) by Symscape: http://www.symscape.com   |
\*---------------------------------------------------------------------------*/
FoamFile
{
    format      ascii;
    class       volScalarField;
    location    "200";
    object      omega;
}
// * * * * * * * * * * * * * * * * * * * * * * * * * * * * * * * * * * * * * //

dimensions      [0 0 -1 0 0 0 0];

internalField   nonuniform List<scalar> 
10116
(
2.97458351828476
3.00399122851293
2.92754689431211
1.01895314166066
3.02907651225675
2.95632876340409
1.02870857750028
2.87460993128414
1.00434984189281
0.624873724478884
3.05056337135441
2.9809589994032
1.03697513012213
2.90274613539379
1.01389216440787
0.630651540024479
2.82066697366721
0.984380407396191
0.619422503098156
0.476842503562
3.06896907191618
3.00207999363878
1.04404398579872
2.92688751116016
1.022018245203
0.635570470189077
2.84818322964471
0.993663488515426
0.625088840406388
0.481025637889031
2.77371571516116
0.965198447195848
0.610686285187248
0.474582684512994
0.404771655191992
3.08471990808042
3.02018192006147
1.05009313855093
2.9476294581172
1.02897726313363
0.639783489631011
2.87183247841971
1.00160724075529
0.62994609518724
0.484610053051045
2.80069799509187
0.974260967656054
0.616219283840996
0.478699795113417
0.40810737819928
2.72974552851707
0.949281171616252
0.60111127331927
0.470300420593641
0.403814764111313
0.364801305558478
3.09818696409995
3.035676049143
1.05526268286226
2.96541953484918
1.03493651922452
0.643391749600694
2.8921880222923
1.00842418471639
0.634114288260603
0.487692770985245
2.82391939768306
0.982034961850468
0.620988884238886
0.482251924854326
0.410980768814687
2.75619801701904
0.958175687680405
0.606524886957111
0.474334249183094
0.407102669326317
0.367606345401659
2.68114483688144
0.934867509369237
0.592019120705645
0.46485371732775
0.401486018598157
0.364386451015158
0.340945577162944
3.1096990599813
3.04892657247069
1.05967289599036
2.98066011201012
1.04003112597592
0.646476476673791
2.90967000133635
1.01426834249699
0.637686819441021
0.490340362172401
2.84393248213148
0.988718515535834
0.625092724645265
0.485313664149732
0.413463864963454
2.77899963554573
0.965813556966615
0.611206863819312
0.477837303244271
0.409956254048967
0.370035242393526
2.7068081468251
0.943657066678663
0.597342986487434
0.468813532043043
0.404715516664581
0.367152666906489
0.343382435448847
2.6271312438185
0.919004393288421
0.583110227553449
0.458913539011189
0.398065152993316
0.362949868645185
0.340727607067021
0.326107825712404
3.11954769376809
3.06025607885031
1.06343002823865
2.99370073840453
1.0443783421824
0.649107978507212
2.92466223126798
1.01926835155171
0.640742078443356
0.492608203550367
2.86114616505643
0.99445600739174
0.628615071869302
0.487945604155047
0.41560469241471
2.7986775076082
0.972388488983695
0.615244469647977
0.480866320467689
0.412428221662897
0.372144724507824
2.7290656797942
0.951188756233983
0.601952060709978
0.472264566176033
0.407538234392911
0.369567660821294
0.345503263260071
2.64926527642842
0.927805919257817
0.588383027890155
0.462817359950015
0.401244670219208
0.365670370125707
0.343130005698861
0.32827037198666
2.62925100833203
0.899817820739654
0.573399253659882
0.45260781951334
0.393899637898919
0.360569405579088
0.339682755805884
0.325949228081452
0.31671148858564
3.12799570054513
3.06995067444053
1.06662906505066
3.00485478934892
1.04808228820302
0.65134845907763
2.93750074438074
1.02353738357957
0.643349220154923
0.494545225325222
2.87592274698055
0.999369895464005
0.631629974203705
0.49020103248424
0.417444017233903
2.81562270195696
0.978040105383278
0.618715335023387
0.483474546135959
0.414561559240738
0.373971294426067
2.7483343805987
0.957671747572331
0.605931894315329
0.475256318931287
0.409991953764335
0.371670563043623
0.347354529452708
2.67051432019861
0.935240696497789
0.592940092117953
0.466223536310826
0.404034121730578
0.36806360756799
0.345239675660704
0.330161939632694
2.58877042314332
0.908677063433422
0.578691770292185
0.456475512285157
0.397041754497294
0.363253166719313
0.342046013447921
0.328079408457257
0.318659420052241
2.19479106206845
0.877546661110495
0.56202304971597
0.445723770583128
0.389212238188287
0.357458576180086
0.337842121141705
0.325075113528635
0.316572745720181
0.310789315620087
3.13532500527278
3.07826603978044
1.06935606426379
3.01440300014162
1.05123617010845
0.653253496110651
2.94849050082006
1.02717637398461
0.645569615061812
0.496195474947052
2.88858915821653
1.00356895916468
0.634203859911479
0.492127955281578
0.419018711332942
2.83018714596874
0.982885493246227
0.621689492209081
0.485711935225566
0.416395347598664
0.375546357361716
2.76493988095631
0.963248209621398
0.609357621400326
0.47783722392962
0.412113482738826
0.373493371191837
0.348964768436417
2.68924172632413
0.941654662034194
0.596873270833191
0.469180403043512
0.406465859463628
0.370155407728021
0.347086422007377
0.331821473192965
2.60679649710527
0.916279195252633
0.583221333570299
0.459848438695505
0.399802000223476
0.365623459206558
0.3441386197686
0.329961048275153
0.320371702277759
2.1947964491521
0.884120786003127
0.567441872348447
0.449580111521786
0.392329181126409
0.360116710141122
0.340176215894544
0.327169728257752
0.318489407171425
0.312563943004098
2.19479622405428
0.825123149348928
0.548488055514734
0.438022219089549
0.384077747568501
0.353852271212673
0.335380215678489
0.32353196592081
0.315787481136856
0.310665493000827
0.307178792551289
3.14171242774253
3.08543230234713
1.07169385013858
3.02259541756404
1.05392350329035
0.65487330692781
2.95790293109291
1.03027616424114
0.647457844708706
0.497598817125094
2.89944239729852
1.00715114529371
0.636397052316792
0.493769908053367
0.420362664426569
2.842685932951
0.98702984172602
0.624230555972423
0.487624746960398
0.417965742251026
0.376898944262456
2.7792403249506
0.968032969183368
0.612296047832465
0.480054089391535
0.413939177281389
0.37506601157018
0.350358819858844
2.70519703352594
0.947163523066976
0.600260714581116
0.47173443968419
0.408572588383442
0.371972237008021
0.348694580144138
0.33327164292583
2.62395609864705
0.92274406053548
0.587127887277972
0.462776548750379
0.402212162870802
0.367701635823722
0.345977914124015
0.331616993864361
0.321881570072718
2.60058412801328
0.893593917450246
0.572054004413439
0.452933244944745
0.395067016583952
0.362467686589778
0.342251874485468
0.329036835850058
0.320192396778394
0.314131352242228
2.19480165421141
0.835728761264331
0.553974170998153
0.441894664409512
0.387180099231633
0.356494438535784
0.337696638216667
0.325602151326242
0.317670766245288
0.312409540263404
0.308810875083536
2.19511835084351
0.802763725165297
0.531589497177222
0.429408711504448
0.378524340225037
0.349926234904193
0.332527779147343
0.32149633380298
0.314434037109817
0.309943899628705
0.307072260946181
0.305146628486312
3.14732872044813
3.09164989041414
1.07370519804364
3.02965575808355
1.05622022203795
0.656253448611554
2.96598406714927
1.03291772799696
0.649063257606629
0.498791385717691
2.90874792221143
1.01020440738359
0.638263054071889
0.495166366681196
0.421507062467048
2.85340560014031
0.990568307399972
0.626396575034069
0.489255553843995
0.419306268549329
0.378056306697947
2.79152862639183
0.972128586854714
0.6148086950574
0.481951184257166
0.415503845739297
0.376416917298471
0.351560129859097
2.71908121543026
0.951885080585119
0.603167991623666
0.473930831387331
0.410388134863174
0.373541612990005
0.350087599921326
0.334532298182718
2.63685785739839
0.92796787252412
0.5904910582191
0.465307142559541
0.404303279428397
0.369510525920606
0.347583047634226
0.333065820696896
0.323207064757058
2.58331591415377
0.900155652315118
0.576002540951829
0.455842517410486
0.397458796283457
0.364532634502213
0.344082398080378
0.330687287798141
0.321699140871245
0.31552031140068
2.19480411277543
0.866353758559063
0.558959911562671
0.445255916490241
0.389902914713076
0.358831606680116
0.339759688142474
0.327456095024275
0.319360785545891
0.313968073022132
0.310258824905927
2.19512371954644
0.808638179540652
0.537194583870049
0.433300660027303
0.381618076105617
0.352559769942846
0.334836320025561
0.323554720560165
0.316296207046131
0.311656116922032
0.308674274742002
0.306660427126241
2.1948478584119
0.784529060598517
0.517221513444357
0.420149829890513
0.372646324171232
0.345819111382212
0.329489824834585
0.319195883040373
0.312705141512589
0.308732781373035
0.306406784891384
0.30505895925186
0.30420342484818
3.15233728581448
3.0970969129515
1.07544658549073
3.03578198968852
1.05819096892134
0.657433077938248
2.97295131803596
1.03517357881244
0.650430321654383
0.499805770955686
2.91674301118344
1.01280754912704
0.639850079120324
0.496353138619005
0.422480464980315
2.86260536345557
0.993586777745349
0.628240343984507
0.490643161022069
0.42044789270993
0.37904402439641
2.80208264809162
0.975627779341496
0.61695182998322
0.483569768452526
0.416840265260761
0.377573060810978
0.352591214190105
2.73105549500598
0.955925465789695
0.605655276660915
0.475812256949781
0.411945778406992
0.374890816263187
0.351288390215036
0.33562265600722
2.64971763324043
0.932778279982627
0.593373308956077
0.467484374598022
0.40610764023274
0.371075426250996
0.348975223422179
0.334326057195746
0.324364125532188
2.19480015470226
0.90326487825723
0.579318427467457
0.458357087667586
0.399535560119048
0.366332925737186
0.345683572670298
0.332134659967762
0.323023670359977
0.316745181920374
2.19480992350875
0.871736058280123
0.562993617402475
0.448168583279196
0.392281180874929
0.36088587066864
0.341582620375905
0.329100840332501
0.320863243159188
0.315354227425873
0.311547945386627
2.19512596666166
0.815574306062757
0.543493714675834
0.436705462194694
0.384333345244543
0.354888565566294
0.33689263801888
0.325401003504323
0.31797574870941
0.313202818010961
0.310113690565134
0.308008797254856
2.19485291589123
0.789044358766507
0.521646493698452
0.423924207472724
0.375725077104064
0.348448216759373
0.33179817401913
0.321253431348677
0.314560160609054
0.310426448507238
0.307978177358538
0.306543095376166
0.305618833557517
2.19192765331609
0.765439805772717
0.504216976751438
0.411226752516405
0.366722237211238
0.341710111569257
0.326450787144684
0.316841341788132
0.310829835692183
0.307243466380961
0.3053141345839
0.304445405046813
0.304134351800979
0.304008221991727
3.15688803552536
3.10193697257089
1.07697064828776
3.04114940785877
1.05989264408856
0.658446781433932
2.97899989173208
1.03710743561565
0.65159799723968
0.500670936491877
2.92364019235166
1.01503098070753
0.641201319051907
0.497362522473525
0.4233088527791
2.87051730329883
0.996162309109906
0.629809649152412
0.491822835147641
0.421419016385988
0.379885810228247
2.81114731059489
0.978614904012941
0.618776810024073
0.484947856968589
0.417978930359406
0.378559842591481
0.353473593044359
2.74139134640181
0.959376703632696
0.607777666371985
0.477418790754559
0.41327733339445
0.376046209246203
0.352319220954294
0.336561627069519
2.66115849960005
0.936798845837524
0.595836617306766
0.469350477397685
0.407657335499649
0.372422317572941
0.350176305570204
0.335416406663047
0.325368626870635
2.57539809304955
0.909810502473806
0.582227267083345
0.460519269485267
0.401328881234259
0.367892488621855
0.347074547381528
0.333395330853704
0.324180627398377
0.317818759579149
2.19480540488336
0.853891132101838
0.566085794723322
0.450672035246834
0.394346761247927
0.362678462173933
0.343179914621578
0.330546759848236
0.322187287782176
0.316578396735303
0.312689670100878
2.19513163075226
0.820455686698005
0.547536024494394
0.439631442279494
0.38670521681352
0.3569356574823
0.338710998300979
0.327042289532682
0.31947468619528
0.314585584172668
0.311400282189557
0.309214421356833
2.19485255486382
0.793154259060533
0.525856555573479
0.427358682257468
0.378434458388735
0.350772878682447
0.333853527182236
0.32309898984264
0.316235958438728
0.31196478530595
0.309406695913384
0.307883235232831
0.306883827699162
2.19193032253663
0.769640732713715
0.508068479975944
0.414697226013456
0.36974568437471
0.344333734854979
0.328764822627788
0.318907156729234
0.312690115527202
0.308933821797586
0.306869075600486
0.305899906755629
0.305520426244775
0.305341915271476
2.18619316583205
0.744098643511401
0.491814068101503
0.403194765288097
0.361262589586254
0.337898488766179
0.323635405041114
0.314636498885357
0.309019676595242
0.305709705432099
0.304022303724266
0.303455579322766
0.303568200295096
0.303956325275825
0.304316610158157
3.16110952052124
3.10640314283573
1.07832752570176
3.04591555809243
1.06137822087396
0.659325618066945
2.98430096063547
1.03877527585896
0.652600699586669
0.50141260000711
2.92963136261202
1.0169369339502
0.642355082429597
0.498223315895673
0.424015645345808
2.87734968214548
0.99836336069142
0.631146428276057
0.492826380349965
0.422245501650197
0.380603489740232
2.81894484679677
0.981165880644586
0.620330295098037
0.486120146559644
0.418947922314867
0.379400903361525
0.35422757873998
2.75027763814142
0.96232489802881
0.609585758241611
0.478787552511476
0.414412664329528
0.377032824627934
0.353201488136734
0.33736766891345
2.67115504359272
0.940170130062081
0.597936726472608
0.470944968346355
0.408983311948567
0.373576770639693
0.351208029131963
0.336355551824991
0.326236624938484
2.5853681723786
0.914059578401777
0.584687115270185
0.462371353826793
0.402870242439704
0.369236301066887
0.34827601096259
0.334487016786969
0.325185385007284
0.318754217780614
2.19480323613488
0.879593558215193
0.569294550948952
0.452833398217554
0.39613067149887
0.364232739903048
0.344569486939199
0.331808285563126
0.323345468870881
0.317652093742078
0.313694259222096
2.19512717403219
0.824590272836523
0.549395963943609
0.442118320006195
0.388763442644519
0.358722640955827
0.340305809954754
0.328487773101644
0.320799070393958
0.315809998977738
0.312541539003093
0.310286439781285
2.19485558276338
0.796804316136103
0.529538682857788
0.430269633589013
0.380801239031158
0.352816426007221
0.33567113924383
0.324740803678291
0.317734711580632
0.313345771921482
0.310690658363022
0.309086585671839
0.308019180989142
2.19193053319912
0.773286527967096
0.51152513885485
0.417817408423137
0.372426729569419
0.346655308403166
0.330824220999498
0.320758882876828
0.314370351500179
0.310471669402812
0.308290993656775
0.307229951931711
0.306777458004953
0.306537081536258
2.18619326213848
0.748179508391689
0.495429953154843
0.40644815712733
0.364193688820798
0.340508367613603
0.325959394778204
0.31671866770125
0.310895939936422
0.307410565718171
0.305577157149254
0.304895378431258
0.30492545222613
0.305260948397979
0.305582689521124
2.1872225768608
0.720701237290338
0.480109553820698
0.3965513081459
0.356929730331102
0.33486101036738
0.321375052450617
0.312833345034198
0.307488157242244
0.304344333524171
0.30277110092742
0.302331154382836
0.302668391285579
0.303432511926796
0.304280010067042
0.304950437566094
3.16507910607465
3.11058557290513
1.07955503081521
3.05027142345037
1.06270775694956
0.660097681759307
2.98900513753473
1.04022829889983
0.653469379311103
0.502053605242849
2.93488399795778
1.01858006135319
0.643345263158573
0.498961107519642
0.424621797923371
2.88328896150905
1.0002509565516
0.632288038868138
0.493682239310948
0.422950678694163
0.381217004600181
2.82568647418562
0.983348023399702
0.621654747332917
0.487117893636647
0.419772843426725
0.380118025770306
0.354872138122222
2.75790011940298
0.964846924349245
0.611125477166155
0.479952567165761
0.415379417455053
0.377874079358635
0.353955445945065
0.338058508024749
2.67977749544341
0.943060756469819
0.599726153277276
0.472304358827069
0.410114788797699
0.374563315527695
0.35209148869677
0.337161838727775
0.326984150171991
2.59541245645412
0.917527910006128
0.586757413284089
0.463953135755679
0.40419007681697
0.370389225293615
0.349309010795319
0.335427907566309
0.326053779430967
0.319565296219792
2.19479727009853
0.885822889640165
0.571813378397031
0.454678615722561
0.397664143281183
0.365573132196113
0.345771133343219
0.332902036860175
0.324352207240058
0.318587997615689
0.31457268754528
2.19512508842636
0.830666370151656
0.553933068753251
0.444320928555919
0.390541829262375
0.36027268006632
0.341694530908954
0.329750758965792
0.321959578203848
0.316885519340928
0.313546446661889
0.311233085840405
2.1948532106827
0.800365355853287
0.53287778970011
0.432679375664089
0.382854233332055
0.354600298693158
0.337265826894879
0.326188101035311
0.319061389058202
0.31457196425621
0.311832788524384
0.310158355622121
0.309032284264344
2.19192744641621
0.77648542492036
0.51464162620291
0.420591810447998
0.374775423566945
0.348696781572414
0.332644978730666
0.322405979736438
0.315873987549121
0.311855207897153
0.30957465218924
0.3084313443583
0.307910769855881
0.307613169939203
2.18619471361911
0.751692594465186
0.498604302170199
0.409337925091558
0.366794747402769
0.342821192568211
0.328026723845294
0.31858314346989
0.312588817336718
0.308957306331991
0.30700134962485
0.306220326034664
0.306173079975304
0.306448381923435
0.306719507613101
2.18721940471083
0.724693995740361
0.483618310146282
0.399683987442021
0.359784420906613
0.337452273767385
0.323712315425101
0.314939750067048
0.309390493020694
0.30606792915627
0.304340928779045
0.303773573020267
0.304012393319722
0.304708975182638
0.305517230929771
0.3061608579868
2.2161134346418
0.698166616683974
0.470693476297353
0.392400039700061
0.354645588725479
0.333314863894632
0.320174030523152
0.311792228951025
0.306505076171077
0.303367258857016
0.30177560827593
0.301317877813634
0.301687513772626
0.302611252534107
0.303793396192889
0.304927201361203
0.305778702449474
3.16869065446826
3.11451580020602
1.08068085718509
3.05441516650828
1.06391679513955
0.660786236488229
2.99325564133427
1.04152137231595
0.654232779487097
0.502614175250113
2.93954519879435
1.02000877875225
0.644202229319636
0.499598639557919
0.425145950646986
2.88849825363834
1.00187835253454
0.633267596800773
0.494415713477162
0.423555430873417
0.381744305657615
2.83155613048678
0.985221010096212
0.622786584403069
0.48796906677116
0.420476821059581
0.380731079693735
0.355424710477796
2.76449991458234
0.967006860874918
0.612437950549936
0.480944723135558
0.416202856755596
0.378591597867584
0.354600008857513
0.338650894393338
2.6871958640835
0.945568507280504
0.601252009402812
0.473462102906145
0.411078922019205
0.375405034542756
0.352846759944533
0.337852940884529
0.32762685707274
2.60375167156465
0.920454025907719
0.58852260759608
0.46530227814525
0.405317149134495
0.371375279985985
0.350194220831212
0.336236081976426
0.326801734512517
0.320266044552438
2.57923453816995
0.891281990368934
0.573897384257477
0.45624706919225
0.398977538527366
0.366724054749548
0.346805292061579
0.33384557940574
0.325222871658915
0.319399633123406
0.315336795483031
2.19511913237263
0.835788771594439
0.556764810700466
0.44617103506218
0.392069362713469
0.361610009785583
0.342896495832063
0.330847058889722
0.322969587919377
0.317823895683769
0.314425490356931
0.312063551226005
2.19485171209349
0.803441094987076
0.536063191136094
0.434983772726593
0.384634107075026
0.356147892043842
0.33865507482833
0.327453845028122
0.320225623526155
0.315650998873646
0.312840040421143
0.311105508890551
0.30992978108415
2.19192862319553
0.779350166264415
0.517504210207817
0.423057580598106
0.37681477852006
0.350479194321249
0.334242349242586
0.323858242841792
0.317206135872791
0.313085983034835
0.31071979265757
0.309504552344301
0.308923827048038
0.308576282497526
2.18619094240793
0.75474210833593
0.50140661672298
0.411906354448627
0.369091624598446
0.344857462902697
0.329853921190098
0.3202405671979
0.314103179276567
0.310349493440356
0.308289905148965
0.307422693875264
0.307305026253543
0.307522632786846
0.307745636043215
2.18721884687694
0.728131294574861
0.486674768565052
0.402441722920527
0.362309591205403
0.339748605858457
0.325790388372307
0.31682350868265
0.311104174439133
0.307633016192443
0.305777847956979
0.305103150594555
0.305256201964119
0.305887589641298
0.306646506844316
0.307249123485413
2.21610968677025
0.702089038547885
0.474158419077188
0.395484260021158
0.357462499624261
0.335898605559889
0.32253087310378
0.313931692899204
0.308443988375779
0.305125380729123
0.303373957279354
0.302779039065439
0.30303638664476
0.30387565713759
0.305002991754346
0.30610893236318
0.306943675358378
2.2869972684867
0.684517807036231
0.468358295156968
0.393422741291019
0.35606893778795
0.334384775265499
0.320808293329316
0.312051279296697
0.306453894313661
0.303060977619883
0.301260854341035
0.300633440177177
0.300876423839742
0.301753832277035
0.303040305186441
0.304472956033339
0.305767051007107
0.306704545739967
3.11800914776584
1.0817196533451
3.05830755853924
1.06502805333343
0.661411264843915
2.99729222710901
1.0427040898092
0.654914156127617
0.50311172798
2.94374555619982
1.02126957539341
0.644954129054127
0.500156099968682
0.42560455674749
2.89312061156431
1.00329191445342
0.634114498051523
0.495049280652425
0.424078335959803
0.382201490858918
2.83670649513513
0.98683626006347
0.623758059889061
0.488698563853739
0.421080574658506
0.381257990836185
0.355901195462035
2.77026043687714
0.96886262716552
0.613560320554613
0.481791546823722
0.416905823457119
0.379205119704755
0.355152601620441
0.339160451265006
2.69358690546618
0.947708880908868
0.602553682189353
0.47444851062433
0.411900622576236
0.376123311195387
0.35349263624196
0.338445588620755
0.328179791990198
2.61031872769322
0.922777782516388
0.590041851231804
0.466452379652502
0.406278193603016
0.372217176197828
0.350951447254122
0.336929061571976
0.327444869548771
0.320870455998334
2.58650440643445
0.894091430030466
0.575671297788382
0.457584191130553
0.400099724299541
0.367709150020099
0.347692219769655
0.334656623878319
0.325973139003708
0.320100950096214
0.315998999355883
2.1951233616461
0.861205049298767
0.559145050114446
0.447732975507418
0.393376287454446
0.362758883846944
0.343931764388405
0.331793703594906
0.323843888087759
0.318638203038655
0.31519029894748
0.312788121998503
2.19484823000087
0.806088032797654
0.538702706167227
0.436862844808294
0.386157684471966
0.357483148415002
0.339858112423629
0.328553476626248
0.321240054659168
0.316593623806679
0.313721987113118
0.311936751056096
0.310719436988368
2.1919282280851
0.781797188444789
0.51995662288769
0.42521071800207
0.378595918604359
0.352026213107404
0.335634069009037
0.325128811693621
0.318376186654113
0.314170651346357
0.311731585113341
0.3104545233561
0.309822006104104
0.30943185030954
2.18619182441514
0.757398876989692
0.503887635875813
0.414183415549863
0.371106677238176
0.346636995455777
0.33145669039266
0.321701521333719
0.315444864476064
0.311588906709919
0.309441604864286
0.308499994236288
0.308320027571462
0.308485879173199
0.30866626755705
2.18721766922195
0.731114247242279
0.489341685268134
0.404867673586396
0.364536157271844
0.341772846469289
0.327626572848577
0.318496518498179
0.312635561737437
0.309040741766296
0.307078315731718
0.3063124385509
0.306390231331623
0.306960987570479
0.307670969834704
0.308233218485776
2.21610871984906
0.705479313148955
0.477173231386422
0.398185997059392
0.359944170988551
0.338184171201223
0.324623934422583
0.315841906384682
0.310187092295949
0.306718370591186
0.304834165575319
0.30412461965886
0.304286820446774
0.305051526563961
0.306123932471699
0.307189806233263
0.307991826885709
2.28698419106163
0.68842161574736
0.471837409697101
0.396523889723226
0.358897099746766
0.336987566533887
0.323199098357298
0.314235604210452
0.308441423218685
0.304866127694114
0.302900940284465
0.30212800763667
0.302247175487195
0.303024953528661
0.304238803674107
0.305627486393313
0.306903463352959
0.307833165358599
2.38167969099607
0.707834414094571
0.486593031979992
0.406094462670985
0.364600132622638
0.340048692295221
0.32452723914022
0.314438232830675
0.307902165083861
0.303826781936365
0.301518973767446
0.300507175308347
0.30045523257022
0.301115204070766
0.302288988223566
0.303778755847336
0.305340868062321
0.30670300475079
0.307655534918184
3.06171184766459
1.06604462832142
0.661992857789648
3.00112301507368
1.0437956069737
0.655532791498474
0.503561639763586
2.94762850628697
1.02241883819059
0.645625485815592
0.500650839280153
0.426011872430468
2.89728188955486
1.00453291558866
0.634855560704329
0.495602933412529
0.424535796916213
0.382602744385543
2.84127534925436
0.988238361005923
0.624597510625591
0.489328460239159
0.421602538729579
0.381714799937897
0.356315882500654
2.77531198041098
0.970461727327012
0.614524480645154
0.482517531750116
0.417508803050155
0.379732473294526
0.355629094664258
0.339601538037294
2.69915228959483
0.94953799960422
0.603666554117033
0.475290893030618
0.412602434503281
0.376737697096618
0.354046459373318
0.338955378087538
0.328657107829459
2.6164093885926
0.924829862036427
0.591337484225168
0.467433150780877
0.407097738689593
0.372936023122431
0.35159929998152
0.337523483219633
0.327998191391016
0.321392129000843
2.1948049626262
0.894320016768411
0.57714804072822
0.45872782846402
0.401057314146847
0.368550806338032
0.348451432841845
0.335352466654137
0.32661849604647
0.320705895103752
0.316571891009674
2.1951248445159
0.863517710657215
0.560875129695941
0.449065019029719
0.394493075988954
0.363742824919303
0.34482029338919
0.332608054077566
0.324597824628534
0.319342159205027
0.315853191487562
0.313417850601133
2.19485011945575
0.81013739386179
0.542293353293792
0.438449140268882
0.387458555853842
0.358630295794202
0.340894872832493
0.329503723799578
0.322118995631091
0.317412367125983
0.314489820974699
0.312662156220748
0.311410268238706
2.19192921889522
0.783885317550829
0.522029678265322
0.427028402172983
0.380115087473819
0.353360221436507
0.336839477107708
0.32623313667445
0.319396492499073
0.315119277723186
0.31261863015586
0.311289062785377
0.310612588005894
0.310186522362523
2.18619271536672
0.75968657556055
0.506017704892202
0.416144758935081
0.372851647682831
0.348182702017776
0.332853040649352
0.322979619798617
0.316623570588014
0.312682041865404
0.310460686388232
0.309455414787693
0.309221452962929
0.309342285976074
0.309485947272169
2.18721426789469
0.733703622700306
0.491666144135656
0.40699274529316
0.366487031519089
0.3435446079883
0.329236971228163
0.319970329360633
0.313991530460523
0.31029373905899
0.308241413166144
0.307398019035081
0.307410273855798
0.30792662215871
0.308591888980968
0.309117733961456
2.21610684513456
0.708436948447595
0.479796809196359
0.40054773432262
0.362123342687841
0.340196628328168
0.326472227935847
0.317536375131351
0.311742431183019
0.308149080429239
0.306154372473786
0.305348637623856
0.305429507466229
0.306127954409034
0.307147973691577
0.308172373003673
0.308940661079616
2.28700717368183
0.691848272156882
0.474878963936371
0.399236067972684
0.361380711538099
0.339283889973451
0.325318020736492
0.316181777317971
0.310223820380651
0.306497280552938
0.304395184441728
0.303501107344342
0.303516385406161
0.304209118373736
0.305357885147872
0.306700409647557
0.307944324700561
0.308848660251425
2.38166628498341
0.711920087405492
0.49021321707685
0.409295369273809
0.367503064102731
0.342712120945277
0.326977543233319
0.31668519185498
0.309953450814881
0.305693249275841
0.303214877220471
0.302049554062364
0.301863460679724
0.302410777656991
0.303495693580685
0.304922951408172
0.306450401593569
0.307803124366678
0.308757235822461
3.68516441843931
0.971516209110769
0.572217340631968
0.447317126230819
0.387814808735175
0.354161539665662
0.333506941273775
0.320288320568547
0.311719240133611
0.306255859771529
0.302965069275317
0.301238784687457
0.300656843589985
0.300917447090391
0.30179755676022
0.303118442417528
0.304697417415934
0.306301277271684
0.307663253215533
0.308571856613845
3.00444728164068
1.04478583997591
0.656106150033329
0.503979856406624
2.95140883035422
1.02348854102897
0.646235416338895
0.501098044474628
0.426380364384494
2.90109527433045
1.00564660196559
0.635516025238488
0.496093988127001
0.424942002930963
0.382960362225532
2.84538511213022
0.989465589790707
0.625330297253197
0.489878368248906
0.422058990629966
0.382115685593338
0.35668150047073
2.77979553281377
0.9718482736261
0.615357621524125
0.483144298222924
0.418030020584951
0.38018960757735
0.35604377314625
0.339987158973673
2.70396150377294
0.951083364870598
0.604621460161408
0.476013423537476
0.413204587284337
0.377265871837684
0.354524033084688
0.339396646563404
0.329071955731865
2.62165358041193
0.926765104685544
0.592441465856373
0.468271155919971
0.407798073757999
0.373551158932713
0.352154988473633
0.338034876992313
0.328475845162204
0.321844047472691
2.19480280664187
0.896273580487032
0.57841808427435
0.459704377582369
0.401874520056829
0.36926986488541
0.349101334323967
0.335949599910932
0.327173866290873
0.321228053402553
0.317067889605519
2.1951262419407
0.841791341359484
0.5620168489948
0.450197087254192
0.395447316519075
0.364584038914174
0.345581362020813
0.333307176633218
0.325246691105097
0.319949587501552
0.316426720346731
0.313964162810176
2.19484918081457
0.81171545460936
0.543861268442017
0.439762031835014
0.388570605522405
0.359613135223926
0.341785186732174
0.33032172047045
0.322877495526679
0.318120643942284
0.315155641081852
0.31329268897143
0.312012208134457
2.19192707562473
0.785812414286879
0.524011511179823
0.428659426153097
0.381411441543036
0.354505940792321
0.33787856085068
0.327187898083867
0.320281136419119
0.31594396332118
0.313391599053961
0.312017817954597
0.311304380703592
0.310848299697111
2.18619628736204
0.761648879563368
0.507835464119332
0.417817019586751
0.374346161810978
0.349514887352291
0.33406234802485
0.324090597305399