/*--------------------------------*- C++ -*----------------------------------*\
  =========                 |
  \\      /  F ield         | OpenFOAM: The Open Source CFD Toolbox
   \\    /   O peration     | Website:  https://openfoam.org
    \\  /    A nd           | Version:  12
     \\/     M anipulation  |
\*---------------------------------------------------------------------------*/
/*   Windows 32 and 64 bit porting by blueCAPE: http://www.bluecape.com.pt   *\
|  Based on Windows porting (2.0.x v4) by Symscape: http://www.symscape.com   |
\*---------------------------------------------------------------------------*/
FoamFile
{
    format      ascii;
    class       surfaceScalarField;
    location    "200";
    object      phi;
}
// * * * * * * * * * * * * * * * * * * * * * * * * * * * * * * * * * * * * * //

dimensions      [0 3 -1 0 0 0 0];

internalField   nonuniform List<scalar> 
28903
(
1.605920234292e-06
-3.41108856535343e-08
-3.18225363209811e-08
1.67297060658592e-06
-3.4112279247819e-08
-3.29368781707107e-08
2.07851319091674e-06
-7.39380079931367e-08
-4.06887333997161e-08
2.50677679002717e-07
-2.8206202700539e-09
-4.3177273402135e-08
1.7409608875551e-06
-3.36836560466777e-08
-3.43041614884856e-08
2.1606743824256e-06
-7.42525760236864e-08
-4.20111107384068e-08
2.65357483856391e-07
-2.10833554491161e-09
-4.55045566490141e-08
2.35391475206829e-06
-1.14704387966349e-07
-4.772356056142e-08
3.36891962319765e-07
-4.79664532442632e-09
-5.54153243112104e-08
1.22458546293345e-07
4.45332137149986e-10
-5.29536576066221e-08
1.81091069209596e-06
-3.41762423678006e-08
-3.57689281589664e-08
2.24440870008095e-06
-7.47654239708931e-08
-4.26460214332023e-08
2.80698275194336e-07
-1.53428057131966e-09
-4.81085524163955e-08
2.44545411468001e-06
-1.1565373374708e-07
-5.01288292404803e-08
3.54153510667564e-07
-3.34061506958688e-09
-5.80387124997435e-08
1.3248769177357e-07
7.80950607112262e-10
-5.63145244374582e-08
2.68375137514204e-06
-1.58407903119486e-07
-5.46342602376039e-08
3.88759763674293e-07
-5.25656011419203e-09
-6.55446957875115e-08
1.73950442798949e-07
1.05161733693573e-09
-6.72465072147775e-08
9.24699544090875e-08
1.18362553670511e-09
-6.24448088978034e-08
1.88365877308284e-06
-3.52430043789056e-08
-3.74993768722744e-08
2.33064683744081e-06
-7.64689767767708e-08
-4.39402574325855e-08
2.97033172428558e-07
-1.17322167081818e-09
-5.09282246169205e-08
2.53879035277987e-06
-1.17930858376295e-07
-5.01612994909183e-08
3.72926874339084e-07
-2.25278090919637e-09
-6.06972366922895e-08
1.43225209904127e-07
1.18464812048794e-09
-6.0030210014308e-08
2.78628181642942e-06
-1.60435284763736e-07
-5.77382106492241e-08
4.07649985066905e-07
-3.20973284919219e-09
-6.91486147297054e-08
1.85818118764232e-07
1.96231307267875e-09
-7.1086473630232e-08
1.01611172148824e-07
1.40370717996856e-09
-6.68590374290899e-08
2.94890112337161e-06
-2.05084841019401e-07
-5.89305668413877e-08
4.53958036925203e-07
-5.31265553209411e-09
-7.51561559392111e-08
2.07329325677056e-07
2.98050228212357e-09
-8.02752322225054e-08
1.30901729352745e-07
2.72158014834519e-09
-7.87818529056757e-08
8.68187137682041e-08
1.09992023574693e-09
-7.17939281595793e-08
1.95978915586136e-06
-3.66484767229683e-08
-3.94806993573455e-08
2.42025075534076e-06
-7.90370790004495e-08
-4.58046918244258e-08
3.14527319405136e-07
-9.50734734997568e-10
-5.4039871882657e-08
2.63501655249812e-06
-1.21560465246527e-07
-5.11345573809629e-08
3.93310152417714e-07
-1.63075775695215e-09
-6.38623236675404e-08
1.54865668718989e-07
1.51535930253244e-09
-6.40836166667198e-08
2.89075547693503e-06
-1.64862315473325e-07
-5.75312399920043e-08
4.28673071759863e-07
-1.78313706176938e-09
-7.16503789633377e-08
1.98951570142601e-07
2.64246344430504e-09
-7.52874317449004e-08
1.11590807836696e-07
1.67244735218912e-09
-7.16818678177524e-08
3.05931488330207e-06
-2.08115718976262e-07
-6.27209044683532e-08
4.75105570459736e-07
-2.75688810605439e-09
-7.93331023446343e-08
2.20555997207981e-07
4.37438210696106e-09
-8.4786646783456e-08
1.41799109351549e-07
3.20448745902613e-09
-8.37844386748087e-08
9.59655249679608e-08
1.2317277419208e-09
-7.72372383888867e-08
3.11143462543946e-06
-2.52179139489977e-07
-6.10751677699372e-08
4.99520932309879e-07
-6.23711780862415e-09
-8.0055712010508e-08
2.42327736103369e-07
5.31545693742517e-09
-9.19407032351463e-08
1.56424341766266e-07
4.74002549232161e-09
-9.38133941141421e-08
1.16763308499826e-07
2.73896992341596e-09
-9.00791706551185e-08
8.87994429941717e-08
9.38718254966712e-10
-8.11517370937975e-08
2.03973352620701e-06
-3.8236272585192e-08
-4.17042243752641e-08
2.51383430080245e-06
-8.21664587903913e-08
-4.80574012136235e-08
3.33323500273341e-07
-7.82216174106396e-10
-5.74923658387679e-08
2.73519260990705e-06
-1.26131830747819e-07
-5.30645084657527e-08
4.15270670645135e-07
-1.20986834993022e-09
-6.75016713106931e-08
1.67537303102769e-07
1.78570195571832e-09
-6.8496598422227e-08
2.99852639528721e-06
-1.70948415582449e-07
-5.83721445895914e-08
4.51884692358819e-07
-9.04545437901361e-10
-7.50672899451779e-08
2.13415915043417e-07
3.21454091139278e-09
-8.00253626377651e-08
1.22505640424457e-07
1.93120359664215e-09
-7.69292317047337e-08
3.17196679961396e-06
-2.15060217704933e-07
-6.24452364479936e-08
4.98863737484117e-07
-1.14000875339216e-09
-8.19320673898325e-08
2.35646067622333e-07
5.44494414938283e-09
-8.95416540094786e-08
1.53843745533512e-07
3.71850963999931e-09
-8.93766757429796e-08
1.0601812684365e-07
1.42825239035859e-09
-8.31625200104792e-08
3.22472643288671e-06
-2.55996389386711e-07
-6.54027877739841e-08
5.22115641032394e-07
-3.17166619347294e-09
-8.48913500157276e-08
2.5705571194753e-07
7.25602119832443e-09
-9.69403907128739e-08
1.68861310980118e-07
5.57332116243545e-09
-9.95911182981281e-08
1.27448340294497e-07
3.00458462870687e-09
-9.62417098022761e-08
9.81406405557644e-08
1.03207510748372e-09
-8.76104292217689e-08
3.19301689320934e-06
-2.9238124108562e-07
-6.30634208037091e-08
5.2382442058088e-07
-8.43452891281299e-09
-8.13600472579292e-08
2.61321970293079e-07
7.03317272240742e-09
-9.71590993580799e-08
1.80255362683367e-07
6.61870231079896e-09
-1.06719240019147e-07
1.36957832055602e-07
4.2440965183903e-09
-1.06443280529617e-07
1.13615387656118e-07
1.91732104921729e-09
-1.0072933545465e-07
9.28152006886402e-08
6.88731650509863e-10
-9.04367475093354e-08
2.12383496938668e-06
-3.98964654462506e-08
-4.42050967679393e-08
2.61185517576124e-06
-8.56339534644507e-08
-5.06130376041724e-08
3.53564786911555e-07
-6.19581768473146e-10
-6.1324174930686e-08
2.83992326530836e-06
-1.31349616627352e-07
-5.55457294869058e-08
4.38868344397665e-07
-8.49190789209916e-10
-7.15859806752509e-08
1.81353600477205e-07
2.02857094655416e-09
-7.33366263270249e-08
3.1109405313125e-06
-1.78068944621327e-07
-6.04628978253762e-08
4.77078856494806e-07
-2.09064585784401e-10
-7.92557209707574e-08
2.29213594965681e-07
3.74773672096817e-09
-8.52603005747011e-08
1.34469727192579e-07
2.17850041601591e-09
-8.2638808696498e-08
3.28832780144014e-06
-2.24087927973178e-07
-6.32089983776831e-08
5.25346088219313e-07
-1.14328229709772e-10
-8.56417006373571e-08
2.52507435444132e-07
6.34788656258455e-09
-9.50598118069738e-08
1.67102954301252e-07
4.22259760364094e-09
-9.55749421042371e-08
1.17059780995718e-07
1.62574017997788e-09
-8.95964132514104e-08
3.34128763190386e-06
-2.66593225473584e-07
-6.50166684919422e-08
5.47671915660332e-07
-1.54387140904591e-09
-8.75965410860782e-08
2.74064972632259e-07
8.72295780493343e-09
-1.02218248743344e-07
1.8278026204384e-07
6.34541976840693e-09
-1.06086611312221e-07
1.3925333488448e-07
3.37675540764629e-09
-1.03129827556723e-07
1.08429650648428e-07
1.17249058553076e-09
-9.46238884524996e-08
3.30391290644141e-06
-2.99398436461795e-07
-6.74888804443466e-08
5.46768101826293e-07
-4.80339904788474e-09
-8.6707071802163e-08
2.7684236474638e-07
9.50055741249283e-09
-1.02655790487187e-07
1.9416817604102e-07
7.89709808257469e-09
-1.13176135011775e-07
1.49127115862564e-07
4.79281330544184e-09
-1.13547863710538e-07
1.24317868484391e-07
2.1526678891007e-09
-1.08064347908068e-07
1.02344685585711e-07
7.26311260285901e-10
-9.78661568609764e-08
3.20972952980787e-06
-3.23930729034139e-07
-6.84774968138209e-08
5.35417570989784e-07
-1.20350393759334e-08
-8.11881606938865e-08
2.66535569218946e-07
7.37317832750863e-09
-9.73640088732743e-08
1.90603510241653e-07
7.93918934475529e-09
-1.1209857492612e-07
1.54560168214722e-07
5.43754827703372e-09
-1.20241759162489e-07
1.31090374001595e-07
2.83857164954375e-09
-1.18388815255434e-07
1.14774813439171e-07
1.10333106783616e-09
-1.10919116223942e-07
9.70495811099564e-08
3.26310857555939e-10
-9.949865769903e-08
2.21244295424205e-06
-4.1607103850618e-08
-4.69982668220845e-08
2.71467048387505e-06
-8.92283714493336e-08
-5.34735545820574e-08
3.75393235643109e-07
-4.37543287642e-10
-6.55936226305625e-08
2.94968103182784e-06
-1.36910676957914e-07
-5.84690818501942e-08
4.64233204761297e-07
-4.67428150677074e-10
-7.61263572007654e-08
1.9643571844618e-07
2.26784687475352e-09
-7.86740497489859e-08
3.22865469530531e-06
-1.85800783924736e-07
-6.3259669947512e-08
5.04235337506615e-07
4.6449772001851e-10
-8.40144822701356e-08
2.46414801115208e-07
4.27196573118812e-09
-9.1029106090481e-08
1.47601090142024e-07
2.41924091717821e-09
-8.88870846336753e-08
3.41003936768841e-06
-2.34315338620763e-07
-6.54633801217766e-08
5.54233164722412e-07
7.86918537817494e-10
-9.03466818953269e-08
2.71006616626943e-07
7.22811435007169e-09
-1.01233831020642e-07
1.8165323247951e-07
4.71904043231244e-09
-1.02350524413765e-07
1.2920029538332e-07
1.81461046710587e-09
-9.6593862692587e-08
3.46202336820096e-06
-2.79212290191905e-07
-6.56058907360141e-08
5.76385802376132e-07
-5.92135242291415e-10
-9.14431882574488e-08
2.93226132007736e-07
9.96868260206028e-09
-1.08422579355753e-07
1.98226092214587e-07
7.09942422650379e-09
-1.1338167585962e-07
1.52257204318413e-07
3.76495149521001e-09
-1.10717428917302e-07
1.19749648405545e-07
1.31200751504776e-09
-1.022281891795e-07
3.42155245620543e-06
-3.17868141646247e-07
-6.63496116193894e-08
5.73085932995532e-07
-3.51754833577633e-09
-8.93556297644473e-08
2.94886413106747e-07
1.13220842393714e-08
-1.08238738714574e-07
2.09776795115943e-07
8.98130719662082e-09
-1.20461283958252e-07
1.62639963378849e-07
5.34012577468064e-09
-1.21561971873228e-07
1.36154534239415e-07
2.39988045504141e-09
-1.16193275446837e-07
1.12839979922181e-07
8.10339581354608e-10
-1.0592940006928e-07
3.33250649202638e-06
-3.48537693576182e-07
-7.36277622794364e-08
5.57652496016758e-07
-7.63238184371789e-09
-8.68859331562018e-08
2.8216989592803e-07
1.03505479638727e-08
-1.03189698773177e-07
2.05219096674903e-07
9.61258991747391e-09
-1.18986110688158e-07
1.68049740590944e-07
6.26037128471769e-09
-1.28132878157402e-07
1.43237732569445e-07
3.18196904765036e-09
-1.2672446140198e-07
1.25602639273832e-07
1.14863281620775e-09
-1.19314088151932e-07
1.06717315640468e-07
3.27091853716825e-10
-1.07860805567984e-07
3.07879020870815e-06
-4.33203165825868e-07
-7.78489532618826e-08
5.40878178272374e-07
-1.9040202879132e-08
-8.10061721285954e-08
2.65171337913401e-07
5.86546767566282e-09
-9.52353212935308e-08
1.90354930335576e-07
8.29313116970936e-09
-1.11526343013498e-07
1.60767446957962e-07
6.16130360043471e-09
-1.25732691305154e-07
1.45724583067923e-07
3.37810218679157e-09
-1.32922560156035e-07
1.31494232752327e-07
1.30056771635337e-09
-1.2969044431059e-07
1.17499787876572e-07
1.66481711312652e-10
-1.20659490669608e-07
1.00963996500781e-07
-6.31060973520251e-11
-1.08269522128229e-07
2.3059414596443e-06
-4.33974888781539e-08
-5.00967897879954e-08
2.82266062676714e-06
-9.29199402420221e-08
-5.66662606478954e-08
3.9897530308155e-07
-2.40863267805085e-10
-7.03385115890555e-08
3.06476566400696e-06
-1.42576344310306e-07
-6.17353759625655e-08
4.91529971308081e-07
-4.23552987945832e-11
-8.11615665524086e-08
2.12916081181973e-07
2.50835495749539e-09
-8.45818122301718e-08
3.35208247815588e-06
-1.93772880250811e-07
-6.65605559417892e-08
5.33441675287035e-07
1.18706401969406e-09
-8.93269729688072e-08
2.65137614510218e-07
4.81366551093134e-09
-9.73939936406006e-08
1.62024574274507e-07
2.66080832443884e-09
-9.57581529001139e-08
3.53778283118437e-06
-2.45099661429239e-07
-6.84428277441728e-08
5.85434967462487e-07
1.73813058574163e-09
-9.57322026751463e-08
2.91178571109224e-07
8.13954691789956e-09
-1.0805255965374e-07
1.97599438894228e-07
5.21625617145732e-09
-1.09771425747119e-07
1.42559739639889e-07
1.99645118677685e-09
-1.04242700610563e-07
3.58886242095027e-06
-2.93297568656981e-07
-6.78486760344303e-08
6.07839737940104e-07
3.12708957500917e-10
-9.64356794606981e-08
3.14315291890255e-07
1.12112197249937e-08
-1.15418135144976e-07
2.15224823765875e-07
7.87395236146654e-09
-1.21387196461608e-07
1.66559952609244e-07
4.14913707898638e-09
-1.18987188106209e-07
1.32207120841406e-07
1.44452555868446e-09
-1.10495753466511e-07
3.54332837684839e-06
-3.34484853939751e-07
-6.64923883994312e-08
6.0294896616966e-07
-2.89720637308895e-09
-9.31591115302341e-08
3.15357232073497e-07
1.28540123422659e-08
-1.14798077918297e-07
2.27149387829573e-07
1.00066399965297e-08
-1.28702329747237e-07
1.77593895317093e-07
5.89685071685243e-09
-1.30466810707344e-07
1.49204209639003e-07
2.6502898220902e-09
-1.2510497553331e-07
1.24385582319197e-07
8.93373772901256e-10
-1.14667056613515e-07
3.4539219818389e-06
-3.70286570563864e-07
-6.89934111182517e-08
5.84163528527641e-07
-7.16154538784683e-09
-8.92147086161903e-08
3.00509574790877e-07
1.24580617667738e-08
-1.08829752625691e-07
2.21663149198989e-07
1.09986403543269e-08
-1.26699248443989e-07
1.83034417462791e-07
6.99980761997828e-09
-1.37104695648681e-07
1.56688111511905e-07
3.5192526108196e-09
-1.36131290239575e-07
1.37557963141319e-07
1.26820283049373e-09
-1.28606104669969e-07
1.17353360911897e-07
3.61083888044889e-10
-1.16926391609924e-07
3.30297772028624e-06
-4.88047024997218e-07
-8.46669102977979e-08
5.62075625464385e-07
-1.50942883126845e-08
-8.73569163749568e-08
2.80497752773853e-07
9.44300732006146e-09
-1.01303406765985e-07
2.05067071497876e-07
1.03284913023184e-08
-1.18616520723169e-07
1.74873768908002e-07
7.23327002057785e-09
-1.34064399179386e-07
1.59086662253507e-07
3.8620195497083e-09
-1.42174425631829e-07
1.43733404305658e-07
1.43412203338185e-09
-1.39248640877542e-07
1.2844111621905e-07
1.36833350078574e-10
-1.30065007903933e-07
1.10729785715688e-07
-1.22693155076664e-10
-1.17503762715701e-07
3.09992545647412e-06
-5.34294231111413e-07
-7.42301213720422e-08
5.36142069087259e-07
-3.91705681520884e-08
-8.06447145056059e-08
2.61874480330838e-07
2.03616171000274e-09
-9.22487056101786e-08
1.85439477843402e-07
7.43584317538239e-09
-1.08154133682965e-07
1.58366325414599e-07
6.27726243321603e-09
-1.2466363100192e-07
1.50239905398831e-07
3.565579535753e-09
-1.38584747902663e-07
1.45113050142132e-07
1.23910291079398e-09
-1.45060031600499e-07
1.3435957582076e-07
-1.53406650174741e-10
-1.40597806029302e-07
1.20574157557905e-07
-6.52031435595979e-10
-1.30060462766531e-07
1.04354368180608e-07
-5.05315243802808e-10
-1.1666500503452e-07
2.40468154100336e-06
-4.5170021760515e-08
-5.35650831486236e-08
2.93629242619912e-06
-9.67688706694905e-08
-6.02503896693858e-08
4.24529135779789e-07
-4.59256592115523e-11
-7.56013868921024e-08
3.18555002927685e-06
-1.48348829712911e-07
-6.53533538962758e-08
5.20958500832208e-07
4.14047645093925e-10
-8.67443409746284e-08
2.30955579068324e-07
2.75190799954914e-09
-9.11294101274878e-08
3.48142284961768e-06
-2.01659549888756e-07
-7.02481556859629e-08
5.64864626232797e-07
2.00593974178678e-09
-9.52014189641117e-08
2.85534352941395e-07
5.37627884144623e-09
-1.04424326822204e-07
1.7787963336921e-07
2.90397658248082e-09
-1.03340521264626e-07
3.67186915139097e-06
-2.56004302605875e-07
-7.18445716975693e-08
6.19020532340917e-07
2.79572116419657e-09
-1.01750793706544e-07
3.13133524391247e-07
9.10697744262643e-09
-1.15574213175238e-07
2.15070639435545e-07
5.72565147149942e-09
-1.17929122089631e-07
1.57266661178523e-07
2.17559477189997e-09
-1.12640525619149e-07
3.72241580518141e-06
-3.07786365855178e-07
-7.08596098207025e-08
6.41886585519054e-07
1.41775357050232e-09
-1.02163625066931e-07
3.3733419771658e-07
1.25465952842296e-08
-1.23157391511502e-07
2.33868913795788e-07
8.67963916048935e-09
-1.30159482569454e-07
1.82279811138104e-07
4.53163335766922e-09
-1.28025931617754e-07
1.45921407925215e-07
1.56894619536168e-09
-1.19525838385153e-07
3.67237128842241e-06
-3.53961162743001e-07
-6.83716353697576e-08
6.35874559274552e-07
-2.22806782710823e-09
-9.82275955120997e-08
3.37950075241079e-07
1.44118441226257e-08
-1.22227030089948e-07
2.4629697579203e-07
1.10742586212025e-08
-1.37764645896336e-07
1.94076129272084e-07
6.47324626012934e-09
-1.40193198141305e-07
1.63565025049027e-07
2.9077151336485e-09
-1.34810697442928e-07
1.37087935400749e-07
9.66882182748745e-10
-1.24164854371865e-07
3.57422815729985e-06
-3.87403379313256e-07
-6.73763505491478e-08
6.14503327183877e-07
-6.96367305610216e-09
-9.27620617337855e-08
3.21470130582168e-07
1.42069061126584e-08
-1.15471368533229e-07
2.40015404609351e-07
1.229093359746e-08
-1.35433947186165e-07
1.99636390032189e-07
7.72516970022923e-09
-1.471320643405e-07
1.71551281613535e-07
3.859478735137e-09
-1.46538757027654e-07
1.50728463957416e-07
1.39393842498585e-09
-1.38775440968714e-07
1.29044787179832e-07
3.89559401632431e-10
-1.26747959747356e-07
3.45808637156949e-06
-4.50363052006723e-07
-7.50243060190899e-08
5.88989202901557e-07
-1.41620635088282e-08
-8.8901464291861e-08
2.98796757512049e-07
1.18369724901767e-08
-1.0689131471032e-07
2.2169460700468e-07
1.19991498695238e-08
-1.26456459427941e-07
1.90551698554884e-07
8.16524953033515e-09
-1.43541892574793e-07
1.73888805731364e-07
4.28979715879515e-09
-1.52677055642519e-07
1.57279658246401e-07
1.57120559670738e-09
-1.49979912482777e-07
1.40506567515095e-07
1.5218569582961e-10
-1.40462277466011e-07
1.21452763411624e-07
-1.27701935695834e-10
-1.27521436925078e-07
3.2472526554195e-06
-5.58064513414091e-07
-7.72959205965562e-08
5.62969390873773e-07
-3.86567009966657e-08
-8.79279937140838e-08
2.76676327224334e-07
5.94968497963695e-09
-9.86642479898865e-08
1.99990728212571e-07
9.81808065297967e-09
-1.15343370385288e-07
1.72559284216849e-07
7.57015049368781e-09
-1.33145275299793e-07
1.64170379034149e-07
4.18465250520933e-09
-1.48316917582383e-07
1.5855765054056e-07
1.44135959132887e-09
-1.55625916858941e-07
1.4673985733047e-07
-1.81008039787825e-10
-1.51310727320188e-07
1.31589831253078e-07
-7.63335317242448e-10
-1.40439772831598e-07
1.14164660437495e-07
-5.86468182657894e-10
-1.26727523349422e-07
3.08811019967731e-06
-5.68058707120097e-07
-5.90927463981118e-08
5.41576723729186e-07
-5.9613509823421e-08
-7.71114731253666e-08
2.57476547144969e-07
-4.96707477450672e-09
-8.86512606007577e-08
1.79248777901031e-07
5.23429997652047e-09
-1.03705001545652e-07
1.52245874504806e-07
5.6416385070405e-09
-1.20469252199616e-07
1.47138359532604e-07
3.36808627029904e-09
-1.37210864113423e-07
1.49198983346522e-07
9.45026537182984e-10
-1.51003394776419e-07
1.47882038402917e-07
-6.9366676292923e-10
-1.56857837582977e-07
1.3787216139672e-07
-1.39036318102629e-09
-1.51203888841252e-07
1.23391105777992e-07
-1.35540723744078e-09
-1.39241395640484e-07
1.07018997221934e-07
-7.98873553278691e-10
-1.24775389108897e-07
2.50905380871596e-06
-4.69259918717483e-08
-5.7444654790454e-08
3.05599315844475e-06
-1.00711036073902e-07
-6.41541873198395e-08
4.52304098156469e-07
1.18904985804246e-10
-8.14583223096609e-08
3.31250451565063e-06
-1.54342468650687e-07
-6.93734387960726e-08
5.52747283839988e-07
8.68130007753766e-10
-9.29511464034347e-08
2.50750917836502e-07
2.99618894828436e-09
-9.83927023067263e-08
3.61698127042572e-06
-2.09568860244775e-07
-7.4336288738164e-08
5.98723712449802e-07
2.89203375831835e-09
-1.01687354846091e-07
3.07793484704092e-07
5.94963783246035e-09
-1.12200634073351e-07
1.95330088396378e-07
3.14674706798108e-09
-1.11726425207207e-07
3.81221884545477e-06
-2.6630475799007e-07
-7.56994807407878e-08
6.55137053344972e-07
4.05717380564323e-09
-1.08413623272549e-07
3.37036190630727e-07
1.01420783803056e-08
-1.23869439187203e-07
2.34223527170839e-07
6.24765451755402e-09
-1.26920387087618e-07
1.73464464436741e-07
2.35300898228458e-09
-1.21891130051485e-07
3.86301164428192e-06
-3.22108609677243e-07
-7.44845657075618e-08
6.78601688675126e-07
2.79073538216392e-09
-1.08553447384446e-07
3.62390355148881e-07
1.39966633828549e-08
-1.31695160591056e-07
2.54293505449031e-07
9.52509645199643e-09
-1.3979819316408e-07
1.99552936354934e-07
4.91903171355049e-09
-1.37945573147589e-07
1.61022193175892e-07
1.686914377019e-09
-1.29428176309113e-07
3.80910059841189e-06
-3.73251182343327e-07
-7.12473860094771e-08
6.71640587313587e-07
-1.18050572464954e-09
-1.04026673456831e-07
3.62645707731672e-07
1.61362559777697e-08
-1.30447927325196e-07
2.67308804401908e-07
1.22076208954433e-08
-1.47695932775475e-07
2.12204608536871e-07
7.06792211890684e-09
-1.50823705484469e-07
1.79358424620357e-07
3.15905502271861e-09
-1.45408947738625e-07
1.51063795766286e-07
1.03052659973363e-09
-1.34532144869891e-07
3.70455500115702e-06
-4.16044408030707e-07
-6.82400023181224e-08
6.48313937999511e-07
-6.81026943583192e-09
-9.75969052201931e-08
3.44676366178297e-07
1.59901545778172e-08
-1.23010458965219e-07
2.60269062524529e-07
1.36367154373721e-08
-1.45041569651071e-07
2.17950653869751e-07
8.48503482371479e-09
-1.58090546841144e-07
1.87938689481219e-07
4.21009143902513e-09
-1.57882552203904e-07
1.65220584598149e-07
1.50655628405237e-09
-1.49841928605012e-07
1.41895712345966e-07
4.06576790568956e-10
-1.37422281383432e-07
3.58580288639052e-06
-4.42601704102597e-07
-7.25093075319081e-08
6.1937160512508e-07
-1.27471331428129e-08
-9.19748651554272e-08
3.19804579052118e-07
1.38722644710565e-08
-1.1343383262515e-07
2.40298694790421e-07
1.35356677356238e-08
-1.35319669495827e-07
2.07936171804074e-07
9.05844496294466e-09
-1.54150961344867e-07
1.90260154472866e-07
4.70463826954479e-09
-1.64348485844036e-07
1.72240717059704e-07
1.70489844379084e-09
-1.61810454620397e-07
1.53786662664188e-07
1.61158231660195e-10
-1.51826714097619e-07
1.33222478010243e-07
-1.43091907729088e-10
-1.38374439305563e-07
3.39899413880682e-06
-5.29061148922964e-07
-7.30366687383049e-08
5.92469515482252e-07
-2.98727975024396e-08
-8.88097933395669e-08
2.94869976931829e-07
8.88932369664022e-09
-1.04145671880126e-07
2.16517909341134e-07
1.17629554134617e-08
-1.23180472987392e-07
1.88350954345074e-07
8.68223993616051e-09
-1.42764932054594e-07
1.79601295540445e-07
4.70572017319467e-09
-1.5938831667216e-07
1.7343197473213e-07
1.59238846827546e-09
-1.67571955535878e-07
1.60424487756484e-07
-2.1433531986672e-10
-1.63297614082292e-07
1.43725360384941e-07
-8.38449820573142e-10
-1.51886899201097e-07
1.24919604159654e-07
-6.32564860581605e-10
-1.37643727348243e-07
3.18507001385744e-06
-5.89591383090816e-07
-6.54189892085575e-08
5.65333935742128e-07
-5.63869448328454e-08
-8.33197300772401e-08
2.72504055485942e-07
-1.61036639325979e-09
-9.53933692970885e-08
1.93577497804472e-07
7.81314617306199e-09
-1.10986921495936e-07
1.66317122889178e-07
7.11914945963527e-09
-1.28963424102192e-07
1.61146150026051e-07
4.10385176756204e-09
-1.47071375296597e-07
1.63211283761326e-07
1.20201519233642e-09
-1.62089249754822e-07
1.61480858606582e-07
-7.21358739776572e-10
-1.68683985537718e-07
1.50367012768894e-07
-1.54963093268341e-09
-1.63018945954444e-07
1.34438947843416e-07
-1.53017148401011e-09
-1.50543710311114e-07
1.16816770058644e-07
-9.02312285095512e-10
-1.35622837695548e-07
3.22966119324674e-06
-5.98807911397174e-07
-5.50988609127548e-08
5.45591932963233e-07
-6.98118253486712e-08
-7.00553568813047e-08
2.53736927863534e-07
-1.30155133274329e-08
-8.4207682912329e-08
1.72722616589374e-07
1.67863696901929e-09
-9.86945999861386e-08
1.45059780851528e-07
4.16621951413394e-09
-1.15077158100033e-07
1.40698566109098e-07
2.67878172424931e-09
-1.32432226784335e-07
1.46025792969895e-07
3.98035111875492e-10
-1.49450975864164e-07
1.52056540445275e-07
-1.40657996543733e-09
-1.63152838742535e-07
1.5161542720751e-07
-2.31945372647885e-09
-1.68399236497396e-07
1.41137673108955e-07
-2.39244821345683e-09
-1.61578601049637e-07
1.25570694188025e-07
-1.88263484360261e-09
-1.48181353028628e-07
1.08765308773124e-07
-1.00139836623557e-09
-1.32629874474819e-07
2.61953892189265e-06
-4.87637227244365e-08
-6.17168443443627e-08
3.18218520637965e-06
-1.04709834081712e-07
-6.83979599289869e-08
4.82586815607526e-07
2.45000495724851e-10
-8.79688420098979e-08
3.44616861640393e-06
-1.60532326383896e-07
-7.38359322390889e-08
5.87205080045339e-07
1.33606543491171e-09
-9.98268047059383e-08
2.7252635398318e-07
3.22538724224921e-09
-1.06458628116893e-07
3.75933617994757e-06
-2.1782737397112e-07
-7.88695578215524e-08
6.35301698298878e-07
3.78883197227909e-09
-1.08871036817016e-07
3.32137890301536e-07
6.519988141829e-09
-1.20817848507283e-07
2.14567609432839e-07
3.38612674014242e-09
-1.21016174797306e-07
3.95898963437513e-06
-2.76239780323571e-07
-8.00865850611635e-08
6.93992589395264e-07
5.46662659637124e-09
-1.15765606790308e-07
3.63104531162487e-07
1.12232244586207e-08
-1.33028024840683e-07
2.55246241046163e-07
6.77432476705077e-09
-1.36850015162451e-07
1.91317778272056e-07
2.52645561594406e-09
-1.32106088440358e-07
4.00987193900023e-06
-3.34604322399923e-07
-7.85477677985571e-08
7.18051084762014e-07
4.56206769252834e-09
-1.15651080179125e-07
3.89646460366458e-07
1.55859434226604e-08
-1.41111846640217e-07
2.76673864565586e-07
1.04121012895169e-08
-1.50412918621299e-07
2.18536883525388e-07
5.31049583097629e-09
-1.48861301032996e-07
1.77652861419535e-07
1.80004794189513e-09
-1.40321665724154e-07
3.95378941372626e-06
-3.91874829153747e-07
-7.49147994331371e-08
7.1025856089611e-07
2.55995500062081e-10
-1.10563625336586e-07
3.89549190376107e-07
1.8060161445875e-08
-1.39518953535122e-07
2.90325798404741e-07
1.34180239702539e-08
-1.58604216393171e-07
2.32125402691163e-07
7.68132017641528e-09
-1.62480489441938e-07
1.96727213118503e-07
3.3942179511353e-09
-1.57021348346477e-07
1.66440520635765e-07
1.08567128074844e-09
-1.45890389262299e-07
3.84442955578925e-06
-4.42653266620332e-07
-7.04652425235463e-08
6.85264780368454e-07
-6.0802672618244e-09
-1.03296338963379e-07
3.70101330375723e-07
1.80016524962396e-08
-1.31316598749181e-07
2.82516191087024e-07
1.50764765798585e-08
-1.55563778700613e-07
2.3810216158807e-07
9.2839846252063e-09
-1.70063187942974e-07
2.05977713524932e-07
4.56342757965076e-09
-1.70266824099142e-07
1.81156181261334e-07
1.60412130423928e-09
-1.61917526861498e-07
1.56019979940712e-07
4.11919457312018e-10
-1.49068207756221e-07
3.71614492877794e-06
-4.7792709822554e-07
-6.84487324677714e-08
6.53883982551585e-07
-1.34072696992496e-08
-9.61495193480866e-08
3.43228331250562e-07
1.5818016319643e-08
-1.2084703090854e-07
2.60860822942813e-07
1.51138403489579e-08
-1.45049018422012e-07
2.27127564007043e-07
9.99145407097884e-09
-1.65738622207213e-07
2.08320325445489e-07
5.13614749848776e-09
-1.77075718036315e-07
1.88726473451469e-07
1.83328110988923e-09
-1.74694477313553e-07
1.68387537316545e-07
1.50322349959897e-10
-1.64186243401341e-07
1.46143418954157e-07
-1.78532733504819e-10
-1.50164676632986e-07
3.58280870024045e-06
-5.41193796509607e-07
-8.52153173416992e-08
6.21862018524631e-07
-2.23547927603914e-08
-9.22870195364806e-08
3.15654266246793e-07
1.16783737979256e-08
-1.10564666573132e-07
2.3504938261607e-07
1.35580982458159e-08
-1.31986146383264e-07
2.05877617447826e-07
9.73337430010885e-09
-1.53520479237308e-07
1.96673246793462e-07
5.19406071893923e-09
-1.71711505596671e-07
1.89865403734099e-07
1.72108467073298e-09
-1.8079772862074e-07
1.75520703978099e-07
-2.62769346614756e-10
-1.76482550846011e-07
1.57068439757372e-07
-9.27851095998321e-10
-1.64384727437308e-07
1.3670753193917e-07
-6.93581485221148e-10
-1.4946870413609e-07
3.33117852828872e-06
-6.07414347301909e-07
-6.77388465653962e-08
5.96400648874356e-07
-4.79765837285037e-08
-8.59929678033556e-08
2.90910361575078e-07
2.60629117663614e-09
-1.00932652199376e-07
2.09947696394719e-07
1.00337242162527e-08
-1.18785466993021e-07
1.81987060271767e-07
8.38795700959768e-09
-1.38555530371249e-07
1.76666236440696e-07
4.70958669128122e-09
-1.58288609438877e-07
1.78708656416486e-07
1.36728530253596e-09
-1.74660176339907e-07
1.76505699097488e-07
-8.05830208644383e-10
-1.82004857091055e-07
1.64156022613316e-07
-1.72410080569768e-09
-1.76200835967027e-07
1.4659005122794e-07
-1.68120232823365e-09
-1.6298916311981e-07
1.27540624423387e-07
-9.79756345105162e-10
-1.47387623095935e-07
3.32470146402416e-06
-6.2302581732068e-07
-6.15925760396531e-08
5.68763261627108e-07
-6.81176901456383e-08
-7.68554652970684e-08
2.69151816798196e-07
-9.54504048562131e-09
-9.0796583414054e-08
1.8699037906253e-07
4.17245434965357e-09
-1.06019890006295e-07
1.58977709652715e-07
5.74692016476383e-09
-1.23531770809328e-07
1.54588222358619e-07
3.50045078119971e-09
-1.42248852309149e-07
1.60119360259925e-07
6.93461935038605e-10
-1.60655627219909e-07
1.6623520196325e-07
-1.44512041536563e-09
-1.75543662917908e-07
1.65347166613043e-07
-2.53280126055048e-09
-1.81432158504378e-07
1.53689013256928e-07
-2.65563155463357e-09
-1.74444462080679e-07
1.36588876638001e-07
-2.10569734527027e-09
-1.60358307990844e-07
1.18482081866568e-07
-1.12214420738416e-09
-1.44217400094759e-07
3.44274045074782e-06
-6.34619725522785e-07
-5.78144618351271e-08
5.65583730516543e-07
-8.08368200227815e-08
-6.70491116342953e-08
2.50720994228574e-07
-1.97780080736487e-08
-7.91571744316712e-08
1.6625197738025e-07
-2.85400070234792e-09
-9.33264327706214e-08
1.37600846707939e-07
1.83057509882789e-09
-1.09131733121144e-07
1.33256881413804e-07
1.41447484024452e-09
-1.26346486534507e-07
1.39610443574709e-07
-4.84867128995962e-10
-1.44234383445994e-07
1.4906278157118e-07
-2.2951600380957e-09
-1.61503525231698e-07
1.56046142620397e-07
-3.38578813966133e-09
-1.75090153419697e-07
1.55160666517735e-07
-3.62207101157438e-09
-1.79717644499449e-07
1.43647311592154e-07
-3.15433867838848e-09
-1.71718835157228e-07
1.26833642495903e-07