/*--------------------------------*- C++ -*----------------------------------*\
  =========                 |
  \\      /  F ield         | OpenFOAM: The Open Source CFD Toolbox
   \\    /   O peration     | Website:  https://openfoam.org
    \\  /    A nd           | Version:  12
     \\/     M anipulation  |
\*---------------------------------------------------------------------------*/
/*   Windows 32 and 64 bit porting by blueCAPE: http://www.bluecape.com.pt   *\
|  Based on Windows porting (2.0.x v4) by Symscape: http://www.symscape.com   |
\*---------------------------------------------------------------------------*/
FoamFile
{
    format      ascii;
    class       volVectorField;
    location    "200";
    object      U;
}
// * * * * * * * * * * * * * * * * * * * * * * * * * * * * * * * * * * * * * //

dimensions      [0 1 -1 0 0 0 0];

internalField   nonuniform List<vector> 
10116
(
(1.79058213450661e-06 -6.58544178905963e-05 3.74246079043083e-06)
(2.37045090572447e-06 -6.52991358196407e-05 4.00350136994992e-06)
(7.15898887242567e-06 -0.000131335855093723 2.04833727126274e-06)
(1.49250690541606e-06 -3.77180478277243e-05 8.67173150212642e-06)
(2.66050592718981e-06 -6.52114119252984e-05 4.57846570606589e-06)
(8.8507689948885e-06 -0.000135689236477725 2.05991830595365e-06)
(1.78367667093316e-06 -3.62409412191244e-05 9.39830660262262e-06)
(1.39591576425071e-05 -0.000152103744301283 1.28294690486592e-06)
(5.60901403550195e-06 -8.53715613305665e-05 6.54781245419368e-06)
(1.05654001731425e-06 -8.87560761358865e-06 1.44564082370618e-05)
(2.85166076282688e-06 -6.46178085783177e-05 5.13822429345586e-06)
(9.97538544405054e-06 -0.000138990255281725 2.24446004704595e-06)
(1.90120985047174e-06 -3.45981507029071e-05 1.052648535137e-05)
(1.63960196598574e-05 -0.000158837455662878 1.27407808407107e-06)
(6.58297490393452e-06 -8.71899009876394e-05 7.12494979727819e-06)
(1.19789556593745e-06 -6.32066612339506e-06 1.58135032266033e-05)
(2.14491208886102e-05 -0.000155687026562343 7.11703455166851e-07)
(1.04392266850285e-05 -0.000101990265069902 5.61435848220646e-06)
(3.65779189142408e-06 -2.89154022761333e-05 1.20244885287176e-05)
(8.28564607902469e-07 3.99960810218163e-06 2.01527290926756e-05)
(3.05498675135031e-06 -6.36785823544141e-05 5.70127025228547e-06)
(1.0717035555781e-05 -0.000141365012411025 2.7993561441369e-06)
(2.01203907362618e-06 -3.24260560463728e-05 1.16528220392756e-05)
(1.81470586939093e-05 -0.000163518561016196 1.47989714731891e-06)
(7.14766033918216e-06 -8.8012303109927e-05 8.02643485231913e-06)
(1.28278425031339e-06 -3.32181530778766e-06 1.7340878639073e-05)
(2.45386715449588e-05 -0.000163667209575305 7.49953636350823e-07)
(1.18565536947929e-05 -0.000105467046138501 6.68803826457709e-06)
(4.15632556641156e-06 -2.80423434957092e-05 1.32127639781661e-05)
(9.14689175010451e-07 7.17591214380581e-06 2.21557728420852e-05)
(2.96910042751599e-05 -0.000158568935074799 1.40649202768152e-07)
(1.58267283790428e-05 -0.000108513819762503 4.74093087719445e-06)
(6.77183202931245e-06 -3.76044161082074e-05 1.10061908644926e-05)
(2.67817810032431e-06 -7.06783572279096e-06 1.73843924324109e-05)
(6.25256034190131e-07 1.39962433517977e-05 2.58721300404212e-05)
(3.27516473261347e-06 -6.24665065387434e-05 6.29472108144112e-06)
(1.14433582204021e-05 -0.000143369086799235 3.33018654337672e-06)
(2.14731476280052e-06 -2.98740405853523e-05 1.28110884979059e-05)
(1.94935206445881e-05 -0.000166931097789555 1.91491064941549e-06)
(7.60584532547574e-06 -8.78326420763334e-05 9.08446759781692e-06)
(1.36516390854701e-06 2.25744343446606e-07 1.90337721653628e-05)
(2.68366086439856e-05 -0.000169073284174978 9.51947445937966e-07)
(1.29122008550581e-05 -0.000107393927739032 7.11914363613318e-06)
(4.47548785064752e-06 -2.61999196904137e-05 1.45767598417761e-05)
(9.74412122486308e-07 1.08402117814467e-05 2.43375383225433e-05)
(3.34647029316727e-05 -0.000167612540863532 2.97686222298559e-07)
(1.76725670585912e-05 -0.00011282511688834 5.97969637284748e-06)
(7.57594763988313e-06 -3.77117544155493e-05 1.21413113681864e-05)
(2.97596438698346e-06 -4.85065516633693e-06 1.92235873412718e-05)
(6.83846571242369e-07 1.76886674543247e-05 2.85044864430672e-05)
(3.87336792537005e-05 -0.000161851428539134 -3.18682342818561e-07)
(2.15986346887279e-05 -0.000113774505963281 3.65954937312278e-06)
(1.0160180399387e-05 -4.18771975562916e-05 1.0375370288075e-05)
(4.9535483800487e-06 -1.26633873539525e-05 1.60937915076389e-05)
(1.97650099669082e-06 6.11631854730622e-06 2.28655214794017e-05)
(4.47613130995011e-07 2.26528091414014e-05 3.15320835669102e-05)
(3.51522269904063e-06 -6.09643115579169e-05 6.92656647314722e-06)
(1.22046578214125e-05 -0.00014522096106295 3.88149704971018e-06)
(2.29893973362922e-06 -2.69265014086127e-05 1.40580705504823e-05)
(2.07891407275898e-05 -0.000169854666123069 2.30439779228771e-06)
(8.10100164640155e-06 -8.72233487076074e-05 1.02212776877743e-05)
(1.46078691898451e-06 4.22785396838787e-06 2.08747357379307e-05)
(2.87310298444806e-05 -0.000172951612678866 1.3706561799871e-06)
(1.37931917852883e-05 -0.000107966660553403 7.9872733724098e-06)
(4.76963431438909e-06 -2.34958521833253e-05 1.62107543964662e-05)
(1.0368269392978e-06 1.50694912070782e-05 2.67179647318552e-05)
(3.62172609735838e-05 -0.000173750368180189 5.37050862792067e-07)
(1.91404543509548e-05 -0.000115356298928013 6.28915140388695e-06)
(8.17681981377756e-06 -3.65062572684265e-05 1.33878754053953e-05)
(3.18796354690162e-06 -1.83697854515368e-06 2.12888472586411e-05)
(7.26755274661591e-07 2.18823932158267e-05 3.13475225147935e-05)
(4.32527520772777e-05 -0.000172202720713067 -9.56288450020678e-08)
(2.38991901479685e-05 -0.000118670632226308 5.04890827021127e-06)
(1.12541821260129e-05 -4.25473140465916e-05 1.13316768017365e-05)
(5.45912561475697e-06 -1.10573219148016e-05 1.7848070283407e-05)
(2.18092624516605e-06 9.15263369335437e-06 2.53311255178836e-05)
(4.88805979898276e-07 2.67817820721448e-05 3.47703918588089e-05)
(4.91459189601902e-05 -0.000164810079950715 -5.27562564448115e-07)
(2.75447874486371e-05 -0.000118628664260783 2.68442730487725e-06)
(1.3655500076102e-05 -4.56537647686186e-05 9.19513495887132e-06)
(7.40997119316864e-06 -1.59630891206019e-05 1.50659943377494e-05)
(3.68689719757851e-06 1.70301131955532e-06 2.13565139974489e-05)
(1.43191100222884e-06 1.62557337723123e-05 2.83141685133427e-05)
(3.01851659787677e-07 3.00893256349129e-05 3.70501365406767e-05)
(3.788958433057e-06 -5.91444477289678e-05 7.61640148756822e-06)
(1.30321362370633e-05 -0.000146934083100406 4.46886659930058e-06)
(2.46550550645726e-06 -2.35383903660878e-05 1.54231781886612e-05)
(2.21563225056191e-05 -0.000172620024946633 2.71754410137079e-06)
(8.64446613938241e-06 -8.62775724480445e-05 1.14430449894931e-05)
(1.56635520450205e-06 8.72510649796777e-06 2.28829194045274e-05)
(3.06113066687716e-05 -0.000176153300549378 1.7635414690496e-06)
(1.47019141185055e-05 -0.000108020777143711 9.09880556050217e-06)
(5.09744678192887e-06 -2.02936493965326e-05 1.80234017929684e-05)
(1.10972666779185e-06 1.98157861839529e-05 2.93056225295191e-05)
(3.85388645975678e-05 -0.000178101828647174 1.00445918995659e-06)
(2.04392387918135e-05 -0.000116262505275361 7.08801592601013e-06)
(8.73324034172652e-06 -3.41787048097137e-05 1.49954220432483e-05)
(3.39990348604491e-06 1.93572331003674e-06 2.3615763873175e-05)
(7.71556709689132e-07 2.66566551594522e-05 3.44292392475036e-05)
(4.62254336884279e-05 -0.000179264811784211 1.06680144486766e-07)
(2.57607447480777e-05 -0.000121672667335316 5.31701165282948e-06)
(1.21578709644961e-05 -4.17216884176111e-05 1.25001431417769e-05)
(5.85808868653058e-06 -8.43404910431135e-06 1.98499894318392e-05)
(2.33324377650381e-06 1.2888761375996e-05 2.80661695751242e-05)
(5.17910831764483e-07 3.14268301879542e-05 3.82644013702501e-05)
(5.42563899045016e-05 -0.000177503199090461 -4.42508133211565e-07)
(3.03261951013789e-05 -0.000124094723923658 4.16327962801476e-06)
(1.50873925831201e-05 -4.66887686319694e-05 1.02013998826482e-05)
(8.12845858439766e-06 -1.47277466466657e-05 1.67762192396948e-05)
(4.04126620878212e-06 4.30545253649623e-06 2.37283128834802e-05)
(1.57429526976909e-06 1.98753024866464e-05 3.13768592820475e-05)
(3.2820865257589e-07 3.45756586546299e-05 4.08673519322998e-05)
(6.1643088114038e-05 -0.000169102831436905 -8.06659039455689e-07)
(3.35456451472629e-05 -0.0001229843335878 1.6377630019454e-06)
(1.71245663123036e-05 -4.94669977896503e-05 7.66430335387336e-06)
(9.89980510600583e-06 -1.91806731151716e-05 1.3629180583236e-05)
(5.56725387694911e-06 -1.26744885976804e-06 2.01247928817347e-05)
(2.70274713756261e-06 1.24052814877667e-05 2.66024017279104e-05)
(1.00318112427273e-06 2.45783935155836e-05 3.36603950310963e-05)
(1.83514784666083e-07 3.63731379583392e-05 4.24019116803033e-05)
(4.08782708868138e-06 -5.69589431885878e-05 8.39304202204196e-06)
(1.39490351481621e-05 -0.000148511763725333 5.10488382645719e-06)
(2.65334081638231e-06 -1.96630511228974e-05 1.69484478028588e-05)
(2.36458036145525e-05 -0.000175263456804948 3.25864613791198e-06)
(9.23860027461721e-06 -8.49780195776883e-05 1.27673421251596e-05)
(1.68034402998329e-06 1.37695694860201e-05 2.5091242811562e-05)
(3.26223986294155e-05 -0.000179124874282015 2.19456179812788e-06)
(1.56884369334971e-05 -0.000107742569347616 1.03161330523679e-05)
(5.45869544212124e-06 -1.66191506021894e-05 2.00001314285461e-05)
(1.18946397518267e-06 2.51224471438438e-05 3.21337544086039e-05)
(4.09089864625611e-05 -0.000181555792978354 1.53464767970033e-06)
(2.17878283319909e-05 -0.000116544325008245 8.1949107558314e-06)
(9.33280393913298e-06 -3.13018383091464e-05 1.68198984610575e-05)
(3.64058814342755e-06 6.25878195536735e-06 2.6163873193945e-05)
(8.23875505655225e-07 3.19973506683158e-05 3.77783464933502e-05)
(4.87378136610421e-05 -0.000184105808115123 5.16119856682906e-07)
(2.74529871130195e-05 -0.000122848609290089 6.05938602649887e-06)
(1.30042912810643e-05 -3.95827118744156e-05 1.40932186687525e-05)
(6.25070659373654e-06 -4.89033837402694e-06 2.21659867086695e-05)
(2.48587256637928e-06 1.73364681026206e-05 3.10882188184926e-05)
(5.47501403473197e-07 3.66675759900698e-05 4.20425355281141e-05)
(5.66759044235644e-05 -0.000185942971364354 -6.17374031649259e-07)
(3.24963771525959e-05 -0.000127553792319099 4.353853883255e-06)
(1.62965133216042e-05 -4.6153864231303e-05 1.13272578719377e-05)
(8.74382749078207e-06 -1.23471939481372e-05 1.8743803077448e-05)
(4.32675660187663e-06 7.74862418702239e-06 2.64090780120077e-05)
(1.67916914711252e-06 2.41525999515146e-05 3.47575003040598e-05)
(3.44868986997429e-07 3.95913348709878e-05 4.49890529255903e-05)
(6.61792529930839e-05 -0.000183628307757966 -1.7511170390061e-07)
(3.68032409503028e-05 -0.000129258910389002 3.13199772408372e-06)
(1.88720041485043e-05 -5.07992101942928e-05 8.75378257669506e-06)
(1.08481026448337e-05 -1.81984478868143e-05 1.53291261894424e-05)
(6.06938676288249e-06 1.0586710457566e-06 2.2447139989143e-05)
(2.95148418251915e-06 1.5677638012264e-05 2.95617951075681e-05)
(1.10059076201598e-06 2.86424963878492e-05 3.72895215037039e-05)
(1.98879833372386e-07 4.11397471759558e-05 4.67714104222835e-05)
(7.02092695171702e-05 -0.000187629063071824 5.94681763463554e-08)
(3.94558757547884e-05 -0.000126614576996025 3.86734804349623e-07)
(2.04110350104374e-05 -5.34311313491357e-05 5.8302195287636e-06)
(1.23090613677731e-05 -2.26486374556088e-05 1.17684397937886e-05)
(7.44519239227248e-06 -4.344285840868e-06 1.84550960527499e-05)
(4.12178133568397e-06 9.57192866398208e-06 2.5186368284124e-05)
(1.9126551325853e-06 2.10977078405131e-05 3.1787282836251e-05)
(6.54104458717154e-07 3.15123043840152e-05 3.88888686129418e-05)
(8.91483299986486e-08 4.15996095066624e-05 4.75989589789165e-05)
(4.39760731063755e-06 -5.43300634004988e-05 9.2700098114739e-06)
(1.4935269148195e-05 -0.000149929518701891 5.8270550738516e-06)
(2.85640505266119e-06 -1.52421432681307e-05 1.8652368940402e-05)
(2.52860823942573e-05 -0.000177813961032922 3.84357746241871e-06)
(9.8823797716569e-06 -8.32921486855008e-05 1.42281253095852e-05)
(1.80115281696279e-06 1.94181154249558e-05 2.75412564051436e-05)
(3.48197423424059e-05 -0.000181956617952774 2.73160333720145e-06)
(1.67601241298037e-05 -0.000107135701070511 1.16396359240772e-05)
(5.85008710815813e-06 -1.24369958224438e-05 2.21668518112646e-05)
(1.27398520647267e-06 3.10429885041854e-05 3.52458666441209e-05)
(4.35420293012717e-05 -0.000184667994630142 2.02118273064931e-06)
(2.32525059183145e-05 -0.000116474244953493 9.4149061036777e-06)
(9.98754918597397e-06 -2.79580557921678e-05 1.88109879189952e-05)
(3.90397328665005e-06 1.11319808623896e-05 2.89498820282702e-05)
(8.80859818319787e-07 3.79500643724574e-05 4.14408843969013e-05)
(5.14701280493377e-05 -0.000187733135172682 1.07367112924226e-06)
(2.92306022884351e-05 -0.00012329356295317 7.15396488071121e-06)
(1.39013832248593e-05 -3.68365223871528e-05 1.59342130505628e-05)
(6.68176191411357e-06 -7.65396700214067e-07 2.47195269331269e-05)
(2.6589258882453e-06 2.23762489858784e-05 3.43843875829289e-05)
(5.82237721689052e-07 4.25100913777792e-05 4.61467703927393e-05)
(5.88829169682151e-05 -0.000191236324660618 -3.86068229235924e-07)
(3.44918730725443e-05 -0.000128968070903914 5.01999783620937e-06)
(1.74406829229113e-05 -4.41730160692765e-05 1.28941917505453e-05)
(9.34423468102521e-06 -8.9286155621907e-06 2.10573804182418e-05)
(4.60791710281907e-06 1.20126333344606e-05 2.94194317590587e-05)
(1.7827163542933e-06 2.91234037431124e-05 3.84625751569399e-05)
(3.61214309417354e-07 4.52139700327036e-05 4.94440787052563e-05)
(6.69496267357574e-05 -0.000194419276745635 -1.320132104006e-06)
(3.90922506266522e-05 -0.000133289473361778 3.13678313555136e-06)
(2.03669554752501e-05 -5.05255451269632e-05 9.80927675958363e-06)
(1.16905698621566e-05 -1.60150905793548e-05 1.72659719980565e-05)
(6.50716406689936e-06 4.31025245961404e-06 2.50965952195524e-05)
(3.14901284983674e-06 1.97108538958427e-05 3.28870122658237e-05)
(1.16585972263554e-06 3.3346754923156e-05 4.12875425133921e-05)
(2.05292072364786e-07 4.64445202433291e-05 5.14931397606222e-05)
(7.29150132217895e-05 -0.00019172792427659 -8.60309055831589e-07)
(4.30678372149431e-05 -0.000134348666478886 1.86451965012797e-06)
(2.24554810844399e-05 -5.50880755017311e-05 6.98338946130816e-06)
(1.3478191841986e-05 -2.1862888175642e-05 1.34621995118035e-05)
(8.10706969716803e-06 -2.2164979690188e-06 2.07470706053439e-05)
(4.47640455284508e-06 1.26140501150268e-05 2.80893313383524e-05)
(2.08295928359448e-06 2.48649951077106e-05 3.53036810828387e-05)
(7.13562366050264e-07 3.59170256492412e-05 4.30576384894679e-05)
(9.6147410303846e-08 4.6575981002644e-05 5.24943351152316e-05)
(6.60990175711419e-05 -0.000185734408121405 -9.32621408658997e-08)
(4.39183848502444e-05 -0.000131144955445821 -4.56350534721413e-07)
(2.33944459318391e-05 -5.7591700540964e-05 3.74107490599422e-06)
(1.45349104544853e-05 -2.64666325693454e-05 9.5152301422422e-06)
(9.24271283489232e-06 -7.74179104348407e-06 1.63031318305694e-05)
(5.53091000461664e-06 6.55533878180674e-06 2.33200550226672e-05)
(2.93502472502984e-06 1.83704896159838e-05 3.0215627559423e-05)
(1.26385697437576e-06 2.83286458952004e-05 3.69026241842996e-05)
(3.64737573379716e-07 3.72689236956169e-05 4.4005367661013e-05)
(1.31080925693561e-08 4.58627192755693e-05 5.26599249440676e-05)
(4.72598844235428e-06 -5.11501368701066e-05 1.02661259145967e-05)
(1.5954782745292e-05 -0.000151114976556146 6.68084344825247e-06)
(3.06451796670151e-06 -1.01883790503769e-05 2.05582316718604e-05)
(2.70622779227163e-05 -0.000180263769246483 4.49795124709307e-06)
(1.05673309773668e-05 -8.11642241244703e-05 1.58584079038634e-05)
(1.92797720433777e-06 2.57438948073604e-05 3.02727673738009e-05)
(3.7258673489087e-05 -0.000184709676505048 3.30682472843304e-06)
(1.79195456033992e-05 -0.000106178147914024 1.30851632752992e-05)
(6.2656509842736e-06 -7.69693478967414e-06 2.45623557864845e-05)
(1.36196750065259e-06 3.76403514417273e-05 3.86919246090697e-05)
(4.6506693575267e-05 -0.000187599132803704 2.44126018105872e-06)
(2.48409974575703e-05 -0.000116078128521277 1.07379786312999e-05)
(1.0696199428786e-05 -2.4122864332575e-05 2.09880906500914e-05)
(4.18540178447738e-06 1.65977040911083e-05 3.20139167203741e-05)
(9.40605085090135e-07 4.45705880718586e-05 4.54699118352651e-05)
(5.47036918903228e-05 -0.000190898368281534 1.61579422834416e-06)
(3.11856949900468e-05 -0.000123354802504686 8.3594627506211e-06)
(1.48774564114788e-05 -3.36181514764522e-05 1.79448689563169e-05)
(7.1523051529393e-06 3.90526541902599e-06 2.75125651939196e-05)
(2.847282142298e-06 2.80220917740847e-05 3.79902478413547e-05)
(6.199018122746e-07 4.9002820790651e-05 5.06337649874145e-05)
(6.16363524448747e-05 -0.000194795449718797 1.09889365616536e-07)
(3.66551915506855e-05 -0.000129516405591248 6.11214007928556e-06)
(1.86374181345038e-05 -4.15301987089847e-05 1.47314686096965e-05)
(9.98815773718431e-06 -4.89885432650373e-06 2.36216723997013e-05)
(4.9159603706419e-06 1.68910439534864e-05 3.27136666180756e-05)
(1.89965386995607e-06 3.47153093269038e-05 4.24955550575234e-05)
(3.80731498957461e-07 5.14614888178619e-05 5.42827063017477e-05)
(6.86365119599147e-05 -0.000199882589337312 -1.90742539315779e-06)
(4.12310064324695e-05 -0.000134912722198663 3.70193180263824e-06)
(2.17701037042594e-05 -4.86904131707316e-05 1.13380358041299e-05)
(1.25110960598938e-05 -1.27128164471417e-05 1.95586508973269e-05)
(6.93714859664812e-06 8.45983618928464e-06 2.81024979945052e-05)
(3.34000324638329e-06 2.45158733919345e-05 3.65727782996677e-05)
(1.22717130673159e-06 3.87342567632682e-05 4.56554006798522e-05)
(2.10411232901908e-07 5.23627490552347e-05 5.65975552656702e-05)
(7.51517088176571e-05 -0.000207083075304105 -2.45541959993773e-06)
(4.52693722275657e-05 -0.000139256564197332 1.54907820427261e-06)
(2.41780016513956e-05 -5.50931695136776e-05 7.95255858809691e-06)
(1.45378031609045e-05 -1.98567641557315e-05 1.53534844049833e-05)
(8.7078093467675e-06 8.75363055587669e-07 2.3362232031114e-05)
(4.78023337076274e-06 1.64764405323782e-05 3.13811798553024e-05)
(2.20800758041111e-06 2.93523741242734e-05 3.92406102990428e-05)
(7.44118396758178e-07 4.09508238153333e-05 4.76464949947868e-05)
(9.38258212366366e-08 5.20944232080035e-05 5.77877612265893e-05)
(6.91243044169439e-05 -0.000190503415087278 -2.60940054137969e-06)
(4.78076371597655e-05 -0.000139426206349749 4.4437145235535e-07)
(2.57043402494768e-05 -5.96996591104265e-05 4.94657762584905e-06)
(1.59113496349165e-05 -2.58619106071083e-05 1.11892700431054e-05)
(1.00613157874761e-05 -5.77280145932888e-06 1.85615843708066e-05)
(5.99537073359659e-06 9.42471966650029e-06 2.61777857201351e-05)
(3.17393422235787e-06 2.19352950520058e-05 3.36676151508741e-05)
(1.3680013321153e-06 3.24733676358048e-05 4.09521039117459e-05)
(3.9579646438124e-07 4.19287383987565e-05 4.86931514947309e-05)
(1.18892749088386e-08 5.09833803265031e-05 5.80563338893311e-05)
(6.43500480166309e-05 -0.000187889250753866 -4.33077869527478e-06)
(4.54549712644108e-05 -0.000135508176235672 -1.97874405060526e-06)
(2.57576622699932e-05 -6.22730254853513e-05 1.50481019471015e-06)
(1.6512200729427e-05 -3.06964221440247e-05 6.89246266786219e-06)
(1.08940882084826e-05 -1.15164267238083e-05 1.3698839808758e-05)
(6.87537874655065e-06 3.20894120941879e-06 2.09408915962331e-05)
(3.95402852034648e-06 1.5430272598371e-05 2.81833309044054e-05)
(1.94872097952118e-06 2.57264865045136e-05 3.52069252934383e-05)
(7.25290345323159e-07 3.43543650389611e-05 4.19427874449357e-05)
(1.24411564173269e-07 4.19794847998402e-05 4.90179129844346e-05)
(-4.77911871791004e-08 4.92248652991113e-05 5.75967742757248e-05)
(5.07847703159866e-06 -4.72745314307224e-05 1.14117445191419e-05)
(1.7107897708989e-05 -0.000151947437562257 7.51364617406697e-06)
(3.27919079617507e-06 -4.38523081349857e-06 2.27225399025396e-05)
(2.8949310763004e-05 -0.000182543704921604 5.26135962273758e-06)
(1.12856369875934e-05 -7.85111502923957e-05 1.77056529601243e-05)
(2.06072345822415e-06 3.284216594096e-05 3.33285350979534e-05)
(3.98903281853277e-05 -0.000187407671396519 3.94756879790122e-06)
(1.91533850437511e-05 -0.000104822028134579 1.46819489645798e-05)
(6.70120265356185e-06 -2.32591678586281e-06 2.72332148602648e-05)
(1.45283868031505e-06 4.49946938431144e-05 4.25244309711445e-05)
(4.98530549198164e-05 -0.000190481945335422 2.9048464797818e-06)
(2.65603385678732e-05 -0.000115340560636681 1.21817879164144e-05)
(1.14541706722986e-05 -1.97519237618633e-05 2.33870862647907e-05)
(4.4799235195734e-06 2.27147124159753e-05 3.54050927605614e-05)
(1.00217231395267e-06 5.19252458329506e-05 4.99239231617991e-05)
(5.84111300483561e-05 -0.000193834165498408 2.22862406539927e-06)
(3.33291076509028e-05 -0.000123086146668044 9.65374284083268e-06)
(1.59341157099013e-05 -2.9912769326969e-05 2.01384421393045e-05)
(7.65806631805514e-06 9.15721637161967e-06 3.05827482670822e-05)
(3.04625190811489e-06 3.43205916662912e-05 4.19576751294763e-05)
(6.58624872538654e-07 5.62039780818657e-05 5.55657485699667e-05)
(6.54404670072261e-05 -0.000197767687109068 6.96018257929793e-07)
(3.91040806249059e-05 -0.000129639285201775 7.31598509299922e-06)
(1.99487262773433e-05 -3.84044564510334e-05 1.67367053633105e-05)
(1.06862673727269e-05 -3.22790433926501e-07 2.64275756985391e-05)
(5.25051486160442e-06 2.23720557121685e-05 3.63182253969917e-05)
(2.02626109441217e-06 4.0952105413472e-05 4.69059915801659e-05)
(4.01621487045687e-07 5.83849002097163e-05 5.95696785909836e-05)
(7.06829566637247e-05 -0.000202969101217481 -1.37858690048058e-06)
(4.36770125766381e-05 -0.000135464253654009 4.71913796624759e-06)
(2.32566159059441e-05 -4.61330573524575e-05 1.31575493919791e-05)
(1.3380447954563e-05 -8.77088437968795e-06 2.21069375035188e-05)
(7.39730196459485e-06 1.32429608412797e-05 3.13993423301496e-05)
(3.5478094715386e-06 2.99579666079354e-05 4.05917842428135e-05)
(1.29676820047762e-06 4.47610306001074e-05 5.04058626119826e-05)
(2.17328563731755e-07 5.89190900350767e-05 6.21411639324663e-05)
(7.82362430723774e-05 -0.000207567765774318 -3.58790069979018e-06)
(4.75049532219463e-05 -0.000141076190829416 1.94744627730424e-06)
(2.57934704301476e-05 -5.34050532007186e-05 9.38264758662928e-06)
(1.5570643790239e-05 -1.66744543869223e-05 1.75984962025036e-05)
(9.29907405759205e-06 4.91465231256797e-06 2.63416577140105e-05)
(5.07413315771621e-06 2.1166665690901e-05 3.50559574648833e-05)
(2.32301551619363e-06 3.4585510950965e-05 4.35804900854841e-05)
(7.68763674080585e-07 4.66610024968596e-05 5.26533083282553e-05)
(8.93776596624411e-08 5.82264570625708e-05 6.35118162507366e-05)
(7.97697485193328e-05 -0.000219899347344881 -5.08683435160303e-06)
(5.04548352174157e-05 -0.000145531617024275 -3.61252723557332e-07)
(2.76115418821128e-05 -6.0054598668786e-05 5.75572396323295e-06)
(1.71659887103892e-05 -2.40315450107585e-05 1.30136246506931e-05)
(1.08212763930286e-05 -2.82643295900275e-06 2.11271103104662e-05)
(6.41250830452158e-06 1.31414204220179e-05 2.94289907503652e-05)
(3.36761937678624e-06 2.62655323058723e-05 3.75655993178675e-05)
(1.43093356998324e-06 3.73137600108569e-05 4.5473545251221e-05)
(3.98256379289572e-07 4.7207913960249e-05 5.38479820349404e-05)
(2.20343112037982e-09 5.66436326598452e-05 6.38942099215779e-05)
(7.05102558943229e-05 -0.00020277417503876 -5.02498745204131e-06)
(4.94649943741806e-05 -0.000143951518618505 -1.75043367699506e-06)
(2.83134733808646e-05 -6.47741837072618e-05 2.57573998848676e-06)
(1.80771298988588e-05 -3.02945267735879e-05 8.52338951056589e-06)
(1.18609380951764e-05 -9.69149478269037e-06 1.59056594233743e-05)
(7.4498770113976e-06 5.93405867923715e-06 2.3745120097958e-05)
(4.26659439209833e-06 1.88368518524708e-05 3.15793849744023e-05)
(2.09568274797598e-06 2.96885921261866e-05 3.91842434630796e-05)
(7.77028736757529e-07 3.87837054826713e-05 4.65034479933127e-05)
(1.30410138582341e-07 4.68203066483087e-05 5.42021525515117e-05)
(-5.49151771940615e-08 5.44283446674961e-05 6.34713609834656e-05)
(6.92568392927791e-05 -0.000199683580673569 -6.38039755460762e-06)
(4.63780702074908e-05 -0.000142865205235708 -5.3572609883627e-06)
(2.71347905910617e-05 -6.76271784437596e-05 -1.13757095953925e-06)
(1.81265354221059e-05 -3.54355690213619e-05 3.94548324072019e-06)
(1.23572576432649e-05 -1.57107035036662e-05 1.06676159516241e-05)
(8.11304291653713e-06 -4.96853419948961e-07 1.80727946336545e-05)
(4.93013093420031e-06 1.21713167200838e-05 2.56183157974896e-05)
(2.6415101697331e-06 2.28976029128567e-05 3.30373865894918e-05)
(1.1343428282304e-06 3.1896274181661e-05 4.01500672835818e-05)
(2.8188999804776e-07 3.93111858786649e-05 4.68993988108127e-05)
(-7.22910481180471e-08 4.57278000435327e-05 5.39255366902443e-05)
(-9.4965615683083e-08 5.17242844490056e-05 6.24108744252795e-05)
(5.44444205534407e-06 -4.251862939868e-05 1.27395313365493e-05)
(1.8408312896259e-05 -0.000152304700414164 8.36956345945894e-06)
(3.49732738470603e-06 2.30874877274668e-06 2.51815349251002e-05)
(3.09492663501127e-05 -0.000184536998657703 6.14627952815251e-06)
(1.20395527501779e-05 -7.52217864997108e-05 1.97996749181764e-05)
(2.19786767827565e-06 4.08268756747757e-05 3.67579959959389e-05)
(4.26418795984118e-05 -0.0001899734564871 4.70565697910973e-06)
(2.04433733156843e-05 -0.000102981296530161 1.64778591129141e-05)
(7.15428658996263e-06 3.77103827680736e-06 3.02334091639606e-05)
(1.54661583274e-06 5.32033221089689e-05 4.68003986762526e-05)
(5.34535592040338e-05 -0.000193402428208717 3.52262856222818e-06)
(2.83892360869804e-05 -0.000114224585141202 1.37781800103089e-05)
(1.22515300324665e-05 -1.47743587839249e-05 2.60562267208239e-05)
(4.78397361617068e-06 2.95633083260856e-05 3.91789266221362e-05)
(1.06498599511033e-06 6.00960979012448e-05 5.48661455578288e-05)
(6.27856038968579e-05 -0.000196768824014551 2.78755912725454e-06)
(3.56708363112113e-05 -0.000122490662049829 1.10695871516189e-05)
(1.70695091926878e-05 -2.5680364090727e-05 2.25539092819519e-05)
(8.19346546065637e-06 1.50466105601517e-05 3.39789585558619e-05)
(3.25185221190768e-06 4.13347639363268e-05 4.63448838787261e-05)
(6.97608578951067e-07 6.41818362400655e-05 6.1010355810084e-05)
(6.98881422367607e-05 -0.000200440382164119 1.43663804854253e-06)
(4.18227334597578e-05 -0.000129426322939017 8.61301818911958e-06)
(2.1376278660439e-05 -3.4792438559661e-05 1.89218873656038e-05)
(1.14376752958118e-05 4.82972185127284e-06 2.95097924448294e-05)
(5.60673784058044e-06 2.84966962296155e-05 4.0283383273777e-05)
(2.15801651829276e-06 4.78844721996304e-05 5.17552408658803e-05)
(4.22494667342875e-07 6.60439347787715e-05 6.53755923049017e-05)
(7.51981676063621e-05 -0.000205373195117937 -7.40371754957862e-07)
(4.66011241601124e-05 -0.000135544032950587 5.91496178516744e-06)
(2.49002180240664e-05 -4.30814184569933e-05 1.51083088881869e-05)
(1.43202316014704e-05 -4.27921883955081e-06 2.48951502881383e-05)
(7.89278880544154e-06 1.86275490387967e-05 3.50068660065657e-05)
(3.7717006125575e-06 3.60417498181126e-05 4.4987330189207e-05)
(1.37106313733007e-06 5.14588325758389e-05 5.55976645266393e-05)
(2.24464915155672e-07 6.61655656125967e-05 6.81952151752865e-05)
(8.00785391521149e-05 -0.000212619177532797 -3.90353304001745e-06)
(5.0091646927091e-05 -0.000141539876331585 2.79695618813124e-06)
(2.75326108547522e-05 -5.09145192141303e-05 1.11137970851859e-05)
(1.66614937837276e-05 -1.28241783438964e-05 2.00918453402666e-05)
(9.92420310533797e-06 9.60335286728165e-06 2.96120404554144e-05)
(5.38589407734035e-06 2.65069026419219e-05 3.90673213202664e-05)
(2.44687677009907e-06 4.04699374901314e-05 4.83055907074669e-05)
(7.97558047331336e-07 5.30204779842754e-05 5.80963448408124e-05)
(8.57129007818684e-08 6.50007344986907e-05 6.97279590866814e-05)
(8.7237575203968e-05 -0.000210165357603023 -4.44025968564061e-06)
(5.33832743346858e-05 -0.000147446725375558 -1.29768974998787e-08)
(2.94466218531448e-05 -5.85311611322371e-05 7.02866754204248e-06)
(1.83934619224036e-05 -2.09766946226325e-05 1.51672249259605e-05)
(1.15721980659382e-05 1.09755310146305e-06 2.40503006138055e-05)
(6.81887204708224e-06 1.77195742751702e-05 3.30699564967365e-05)
(3.54737075152063e-06 3.13838668323384e-05 4.18871054172791e-05)
(1.48105615953616e-06 4.2880831922564e-05 5.04443833939571e-05)
(3.92681901965071e-07 5.31549230889236e-05 5.94678243827351e-05)
(-9.99654067409086e-09 6.29123688799572e-05 7.02086456084311e-05)
(8.23862678143089e-05 -0.000218626036335634 -6.33620960296098e-06)
(5.40641498584973e-05 -0.000151886997685845 -2.52454860722141e-06)
(3.0500504880782e-05 -6.55013168684213e-05 3.18147184418327e-06)
(1.95075648312157e-05 -2.86544980506365e-05 1.02399877644995e-05)
(1.27681464753618e-05 -6.88775755090695e-06 1.83979560049776e-05)
(7.97884051097678e-06 9.51635410533046e-06 2.69374032698457e-05)
(4.53450749806593e-06 2.30290311856352e-05 3.54294979402309e-05)
(2.19833644489234e-06 3.43821889967702e-05 4.36608253387503e-05)
(7.89593069032755e-07 4.38884530355127e-05 5.15847629773861e-05)
(1.0964799506814e-07 5.22686868950087e-05 5.98973923294713e-05)
(-7.01361953964745e-08 6.01633909888435e-05 6.98275850997455e-05)
(7.56888255601502e-05 -0.000214085496903414 -6.54469611971366e-06)
(5.07660010679909e-05 -0.000151161487652545 -4.64958445455625e-06)
(2.982957582115e-05 -7.03451352534649e-05 -2.54184465343959e-07)
(1.9865196149877e-05 -3.52432351193247e-05 5.47114099835431e-06)
(1.34623410154662e-05 -1.40350112444356e-05 1.27941519227454e-05)
(8.79324383326386e-06 2.09454186882646e-06 2.08030035855322e-05)
(5.3167078111206e-06 1.54411969703845e-05 2.89481858464632e-05)
(2.83201637708545e-06 2.67121090457916e-05 3.69507728284774e-05)
(1.20571920476911e-06 3.61589293596365e-05 4.46330661164124e-05)
(2.91971657988544e-07 4.39455359054964e-05 5.19518608939415e-05)
(-8.54609283559071e-08 5.06820827833493e-05 5.95838263064356e-05)
(-1.06524873062891e-07 5.69511900983951e-05 6.87393107082671e-05)
(7.01009012525223e-05 -0.000217231975076254 -8.76250932532431e-06)
(4.74568616279234e-05 -0.000153405199474005 -8.0946215759356e-06)