/*--------------------------------*- C++ -*----------------------------------*\
  =========                 |
  \\      /  F ield         | OpenFOAM: The Open Source CFD Toolbox
   \\    /   O peration     | Website:  https://openfoam.org
    \\  /    A nd           | Version:  12
     \\/     M anipulation  |
\*---------------------------------------------------------------------------*/
/*   Windows 32 and 64 bit porting by blueCAPE: http://www.bluecape.com.pt   *\
|  Based on Windows porting (2.0.x v4) by Symscape: http://www.symscape.com   |
\*---------------------------------------------------------------------------*/
FoamFile
{
    format      ascii;
    class       volScalarField;
    location    "100";
    object      k;
}
// * * * * * * * * * * * * * * * * * * * * * * * * * * * * * * * * * * * * * //

dimensions      [0 2 -2 0 0 0 0];

internalField   nonuniform List<scalar> 
10116
(
0.000464087474865676
0.000468364686364997
0.000465940672657596
0.00131416739450248
0.000471351683677264
0.000470195596701964
0.00132641329493436
0.00046826674246012
0.00131574816023966
0.0019207890815541
0.000473428634088054
0.000473173094007974
0.00133520372460662
0.000472518573183048
0.0013278413932888
0.00193856576176339
0.000465881883745733
0.00131456530447868
0.00192101564249691
0.00240741176338898
0.000474849297731617
0.000475244036497569
0.00134149459409774
0.000475510090347086
0.00133658698901115
0.00195151421818704
0.000470127340567247
0.00132651990152569
0.00193853959260622
0.00242936733739653
0.000457390927134755
0.0013046686880846
0.00191312454224296
0.00240651831285123
0.00282398716339634
0.00047579725351487
0.000476667324939226
0.00134593331942918
0.000477597764024368
0.00134286451366419
0.00196090587131437
0.000473123431019332
0.00133523447562932
0.00195140441058471
0.00244552210208281
0.000461596165131223
0.00131649124956993
0.00193036818576227
0.00242813907907445
0.00284926391045259
0.000444562570540926
0.00128271949226326
0.00189383236878365
0.00239325131993892
0.00282139323268292
0.00318967512329088
0.00047641223909766
0.000477620213526773
0.00134900742322004
0.000479041838691596
0.00134730199451717
0.00196762623107302
0.000475220109198618
0.00134152359241781
0.00196076487724108
0.00245735154473808
0.00046457937169064
0.00132515665759049
0.00194313150439582
0.00244417432648491
0.00286798975005025
0.000448699806179114
0.00129437247017727
0.00191080915803518
0.00241447701515445
0.00284625896501456
0.00321763807027668
0.000429367805692082
0.00125009782583044
0.00186105001707557
0.00236564490754951
0.00280323582954812
0.00318497264382556
0.0035134996614111
0.000476800658520756
0.000478239051242968
0.00135109664667314
0.000480013055718898
0.00135037829804106
0.00197235622071919
0.000476680372279202
0.0013459876506727
0.00196747323616467
0.00246589984515497
0.000466678212805455
0.00133144252468106
0.00195246784915039
0.00245595291066229
0.00288179766176298
0.000451641861304802
0.00130294187801712
0.00192344165752028
0.00243034913451586
0.00286482876685508
0.00323844979025311
0.000433418942065446
0.0012615194068309
0.00187773903036499
0.00238648946192724
0.00282760805572858
0.00321245679450325
0.00354363965211496
0.000412427715086869
0.00120968975451149
0.00181567123713087
0.00232316017359695
0.00276819194710436
0.00316215249348891
0.00350706037547025
0.0038008275914281
0.000477043867950495
0.000478628793993226
0.00135249674397374
0.000480646639748106
0.00135246983618399
0.00197563267422759
0.000477670429332453
0.00134909329673327
0.00197219882249272
0.00247198226737604
0.000468142904284801
0.0013359261639595
0.00195918481484909
0.00246447696107231
0.00289184939032008
0.000453719875966609
0.0013091818008005
0.00193272861879266
0.00244206913569658
0.00287856373444201
0.00325387453617288
0.000436314406122616
0.00126994216586786
0.00189018989786265
0.00240215601306891
0.00284596003595405
0.00323307971974779
0.00356614508775218
0.000416376430860891
0.00122081736875323
0.00183200493741692
0.0023436149852866
0.00279208725230462
0.00318906047775851
0.00353666882664053
0.003832725193862
0.000393455459781238
0.00116299415608363
0.00175965494431709
0.00226700661134481
0.00271690086645893
0.00312049978998924
0.00348042218358068
0.00379332776699197
0.00405554011173871
0.000477203286648718
0.000478871826248764
0.00135343657381198
0.000481046222200085
0.0013538714885719
0.00197787828845824
0.000478321080322133
0.00135121147848097
0.00197547394467312
0.00247624860302238
0.000469144781630884
0.00133906044527957
0.00196393154927208
0.00247054707438411
0.00289906006518993
0.000455186296374475
0.00131365118274968
0.00193944060856389
0.0024505823703077
0.00288857642158776
0.00326516675991034
0.000438362886014636
0.00127608812256691
0.00189937560949826
0.00241378016988337
0.00285960425864737
0.00324841146353191
0.00358288972545316
0.000419213016824086
0.00122905126546632
0.00184420743494396
0.00235902296069649
0.00281016963494955
0.00320942016812724
0.00355896169489323
0.00385660154509404
0.000397279487200423
0.00117376666887332
0.00177554587595939
0.00228700581426274
0.00274032147576656
0.00314685486310043
0.00350939345416797
0.00382465633204266
0.00408884561583946
0.00037204131900669
0.00110998773525121
0.00169403640833104
0.00219860732935722
0.00265109771398787
0.00306147968188002
0.00343340695895999
0.00376400433424893
0.00404747822265756
0.00428058583161128
0.000477325387058263
0.00047903010644437
0.00135409134627375
0.000481295106304595
0.00135481217228924
0.00197942287104402
0.000478733601848842
0.00135263508839768
0.0019777193954497
0.00247921479955908
0.000469807729688596
0.00134120833437545
0.00196723083005616
0.00247480698077765
0.0029041648210354
0.000456197248952962
0.00131678999644492
0.00194420422302724
0.00245666302224979
0.00289576450741716
0.00327331878581904
0.000439808630790574
0.0012805038569179
0.00190604024411284
0.00242226065455633
0.00286958664602954
0.00325965099991301
0.00359520278827905
0.000421227522434791
0.00123506406649213
0.00185323012099785
0.0023704926452021
0.00282367693568223
0.00322463445234807
0.00357559978688868
0.0038744210445174
0.000400039508643452
0.00118176026129729
0.0017874282307995
0.0023020850132985
0.0027580806770408
0.00316689493018727
0.00353139186576803
0.00384830553767333
0.0041138260884119
0.000375709386808982
0.00112033387364917
0.00170938737920836
0.00221805169298581
0.00267398174290039
0.00308729455827719
0.00346177223906234
0.00379465626208496
0.00408018922929639
0.00431500429097136
0.000347908158373519
0.00105009894695292
0.0016187967111261
0.00211849804139743
0.0025720048505432
0.00298722718967826
0.00336800412580486
0.00371297801270781
0.00401637633224719
0.00427220753661181
0.00447825008275802
0.000477443220429214
0.000479150205820255
0.00135459347893179
0.000481456569423294
0.00135546730053037
0.00198052068465099
0.000478991239574945
0.00135359294624519
0.00197926421235453
0.00248128616219282
0.000470230184941613
0.00134265870416259
0.00196949903333415
0.00247776979822732
0.00290775117160248
0.00045686562174625
0.00131895135906396
0.00194752916861094
0.00246094183640386
0.00290085562493518
0.00327913172990244
0.000440805145683852
0.00128361612313716
0.00191078957719786
0.0024283423856769
0.0028767734408785
0.00326777077499458
0.00360413684473274
0.000422651131191478
0.00123938999483224
0.00185979466700232
0.00237889099927728
0.00283360087426179
0.0032358272684736
0.00358785116106373
0.00388757120802953
0.000402007359549661
0.00118760822046841
0.00179622700893366
0.00231333188656065
0.00277138788146308
0.00318194039329794
0.00354789540363777
0.00386601081780638
0.00413251626449766
0.000378364876483118
0.00112802785837641
0.00172087437015534
0.00223271966581351
0.0026913472143503
0.00310696229622722
0.00348341792362531
0.00381799358071653
0.0041049336961326
0.00434086397521359
0.000351388289724591
0.00105993325331157
0.00163350186172192
0.00213727001991976
0.0025942476682843
0.00301244444088457
0.00339578472515797
0.00374299225556839
0.00404838797646282
0.0043060146229272
0.00451352878660641
0.00032093747674623
0.000982774606565211
0.00153346328233593
0.00202648241888252
0.00247982916438733
0.0028988861118648
0.00328660732098583
0.00364252881166601
0.00396242382932543
0.00423989613065236
0.00446964805627279
0.00465045051229786
0.000477580620653414
0.000479266557491502
0.00135504140726646
0.000481578032940777
0.00135596949344022
0.00198136512022481
0.000479158694303286
0.00135426091130591
0.00198036233859345
0.00248277700236228
0.000470495875373088
0.00134363882780359
0.00197106331064515
0.00247983939735758
0.00291028317802119
0.000457291904839605
0.00132041803681799
0.00194982454019306
0.00246392535569905
0.00290443355193273
0.0032832488978766
0.000441468786152244
0.00128576714802612
0.00191411860980702
0.00243263863117565
0.00288187645614487
0.00327356314063194
0.0036105444648166
0.000423630030803024
0.00124244506916873
0.00186448741488611
0.00238493674452944
0.00284077314124459
0.00324393551002194
0.00359674679425325
0.0038971524843385
0.00040339531147285
0.00119181538427533
0.00180264010672094
0.00232158804042564
0.00278119893968587
0.00319305472391989
0.00356009022805653
0.00387909500567852
0.00414635025717711
0.000380258178961309
0.00113366933161005
0.00172938859473495
0.00224367257968903
0.00270438263718541
0.00312177306334762
0.00349973262999424
0.00383555645252507
0.00412350611268191
0.00436025323238007
0.000353910363904159
0.00106725783905153
0.00164451264962905
0.00215143513337256
0.00261113181372283
0.00303166963695117
0.00341702556060683
0.00376595909982301
0.0040728128854876
0.0043316332091894
0.00454007500902867
0.000324174576863472
0.000992008649058587
0.00154741108142773
0.00204445310943715
0.00250130181139301
0.00292339860685004
0.00331374876752896
0.00367193280507739
0.00399378256910782
0.00427299279230569
0.00450430491166867
0.00468636973275096
0.00029104387820753
0.000907651914125578
0.001437537956449
0.00192209732121266
0.00237418172963014
0.00279645720384993
0.00319036409490457
0.00355523350295387
0.00388803191830974
0.00418377665064238
0.00443646144746737
0.00464165569303469
0.00479899859729056
0.000477754134539297
0.000479403490503854
0.00135550682495187
0.000481695236024803
0.00135641748133086
0.00198210112387069
0.000479284273013346
0.00135477226100174
0.00198120702981006
0.0024839276936105
0.000470669513002349
0.00134432429678441
0.00197217695886104
0.00248132930410107
0.00291212253354687
0.000457562398812951
0.00132141395066761
0.00195141364478733
0.00246601413570426
0.00290696027737185
0.00328618019383098
0.000441894501402307
0.00128723262435844
0.00191642674010157
0.00243564568405094
0.00288547110181312
0.00327766681689964
0.00361511235716693
0.00042427914379571
0.00124456224527747
0.0018677880242726
0.00238922423825693
0.0028458844584638
0.00324973339952807
0.00360312949264916
0.00390405736226324
0.000404343012089019
0.00119478792972462
0.00180723421127781
0.00232754868571063
0.0027883152344818
0.00320113607414348
0.00356896862621788
0.00388863513616567
0.00415646524405662
0.000381586008624302
0.00113772687560725
0.00173560118009462
0.00225172607901689
0.00271401630252049
0.00313275111814011
0.00351183712351532
0.00384858080892835
0.00413727249689417
0.00437464136179844
0.000355694472481238
0.00107263464108662
0.0016526790222202
0.00216201997644246
0.00262381861087798
0.00304617172361764
0.00343308329068109
0.00378332391958857
0.00409124134303947
0.00435090306321612
0.00456001578336475
0.000326515823581499
0.000998895048631803
0.00155786166327574
0.00205801634416184
0.00251760372127508
0.00294209072843444
0.00333451402806997
0.00369447698154158
0.00401783050637319
0.00429829032284151
0.00453060730514949
0.00471343456695899
0.000294006118217411
0.00091619025291895
0.0014506037595051
0.00193913074532216
0.00239474135808556
0.00282012916247655
0.00321675729044834
0.00358397407705903
0.0039187698252669
0.00421621696299522
0.00447040511643887
0.00467694797457483
0.00483536634304375
0.000258274404319334
0.000824503827481724
0.00133062911448662
0.00180487395845911
0.00225452826461717
0.00267939489342077
0.0030791750157828
0.00345230643567748
0.00379591451792564
0.00410628947475207
0.00437869877104491
0.00460780710663834
0.00479002703255034
0.00492575893750604
0.0004779700748834
0.000479576270523974
0.00135603994404413
0.000481832805113524
0.00135688297750766
0.0019828355227712
0.000479403470824777
0.0013552265205678
0.00198194317826303
0.00248491945260674
0.000470799264586288
0.00134484855027529
0.00197303321339234
0.00248247944864472
0.00291354713193338
0.000457740269920461
0.00132211275566733
0.0019525478837373
0.00246752010316088
0.00290879622720521
0.00328832505578989
0.000442167704267607
0.00128823171653925
0.0019180311757051
0.00243775820903784
0.00288801486570856
0.00328058932891827
0.00361838696808338
0.000424698028667779
0.00124600886664902
0.00187008461985143
0.00239223693676081
0.00284949759106262
0.00325384987243685
0.00360768086889974
0.0039090062621387
0.000404969448262355
0.00119684974670207
0.00181047308464846
0.00233178916672045
0.00279340525424532
0.00320693485313865
0.00357535359210729
0.00389551331451574
0.00416378443780909
0.000382485227559257
0.00114058998155368
0.00174005695798228
0.00225755181545216
0.00272102309349269
0.0031407611546307
0.00352068181586553
0.00385810260799119
0.00414734557505245
0.00438519335809839
0.000356937382687286
0.00107650055027887
0.00165864095525212
0.00216981053807211
0.00263320864918861
0.00305694564608928
0.00344503683029455
0.00379625361821054
0.00410494878183651
0.00436522315524787
0.00457484599710701
0.000328174258575153
0.00100394726647731
0.0015656137481679
0.00206815557594171
0.00252985986164422
0.00295620358384144
0.00335023818923808
0.00371157332340781
0.00403605932575558
0.00431741815770775
0.00455042807383875
0.0047337976770893
0.000296160843556532
0.000922564863623492
0.00146040069578039
0.00195198817122454
0.00241035086335323
0.00283818158373814
0.00323695377293715
0.00360602337828815
0.00394238851259574
0.00424113857777071
0.00449638887449909
0.00470376809680765
0.00486280222882
0.000260946073036782
0.000832259787563715
0.00134269092032732
0.00182083118225307
0.00227402397822249
0.00270207407284212
0.00310467921390877
0.00348027233505125
0.00382597888935339
0.00413810960553189
0.00441199107152804
0.00464238978588537
0.00482576719246294
0.00496240767824565
0.000222580516399393
0.00073315960130387
0.00121245705812528
0.0016744462665532
0.00212039196037859
0.00254707676855011
0.00295238675202128
0.00333362654090682
0.00368737490528602
0.0040102409586458
0.00429876786095572
0.00454878392136089
0.00475567568962909
0.00491662723520707
0.00503270159565055
0.000478225646736477
0.000479791263334862
0.00135667345792678
0.000482004950955384
0.00135741576035414
0.00198364541791261
0.00047954063094155
0.00135569564103604
0.00198267750061081
0.00248588696796024
0.000470920416385239
0.0013453111286206
0.00197377715707763
0.00248347077356576
0.00291476744150622
0.000457872801830668
0.00132264669871085
0.00195341964881259
0.0024686825149389
0.0029102184908345
0.00328999159977655
0.000442351289339088
0.00128893464355945
0.00191917955392658
0.0024392848569954
0.00288986574209704
0.00328272826914835
0.00362079706785624
0.00042496650038201
0.00124699777079196
0.00187168640386878
0.00239436110716743
0.0028520625049314
0.00325678708100125
0.00361094432997867
0.00391257370501984
0.000405375398715438
0.0011982598253157
0.00181273229702972
0.00233477852520445
0.00279701643075893
0.00321106552689841
0.00357991597750514
0.00390044450625239
0.00416905406068641
0.000383085456440165
0.00114257402360092
0.00174320235733657
0.00226170532177012
0.00272604961503708
0.00314652885990046
0.00352706394347271
0.0038649830382132
0.00415463773333456
0.00439285551343294
0.000357789530660596
0.00107922360037345
0.00166291868751373
0.00217545269684229
0.00264005079640372
0.0030648274131937
0.00345380084840986
0.00380574010983367
0.00411500528774297
0.00437573326428492
0.00458575082337094
0.000329338035924106
0.00100757663911276
0.0015712729089145
0.00207562193365885
0.00253893902706044
0.00296670310641201
0.0033619695908343
0.00372434510468093
0.00404967295767132
0.00433168225703901
0.00456519032819581
0.0047489712476446
0.000297683607399106
0.000927240852638595
0.00146767041665036
0.00196160159871014
0.00242208983233054
0.00285181803125175
0.00325226045974452
0.00362277170120101
0.00396034547019689
0.00426006997182992
0.00451607145410688
0.00472401133756186
0.00488347342864234
0.000262895614937816
0.000838060728529969
0.00135173968958068
0.00183287692632124
0.00228882531454166
0.00271936894478904
0.0031241959305426
0.00350173074475976
0.00384909444601331
0.00416260355860145
0.00443760507284347
0.00466889648322027
0.00485295904476265
0.00499008498066294
0.000224933946628755
0.000740060092022196
0.00122339983608803
0.00168918576335454
0.00213867000515173
0.00256860193850022
0.00297684288371149
0.00336067285130518
0.00371665231128763
0.00404138854588633
0.00433144897812572
0.00458272648012018
0.00479071487309021
0.00495265138586079
0.00506948662263102
0.000183722904641377
0.00063334301213211
0.0010828125702199
0.0015305768349079
0.00197142338677267
0.0023989870186661
0.00280929783412372
0.00319847811705784
0.00356230710221231
0.00389701296712062
0.00419952215984468
0.00446692552777375
0.0046956935747679
0.00488190580569521
0.00502342898018801
0.00512188302334411
0.000478513026857191
0.000480039651517069
0.00135742796826727
0.000482218480680622
0.00135804795733488
0.00198458540315543
0.000479708712853285
0.00135622901775411
0.00198348685210533
0.00248692898017289
0.000471056942509255
0.00134578387382506
0.00197451561748653
0.00248443774743483
0.00291594084589057
0.000457994709324381
0.0013231145590677
0.00195417366114063
0.0024696821099218
0.00291143701867485
0.00329141370410122
0.000442488021891252
0.0012894711125553
0.00192006196604184
0.00244046315699478
0.00289129958129868
0.00328439046804238
0.0036226740770844
0.000425144835915714
0.00124769467105809
0.00187283547752517
0.00239590004939288
0.00285393278556924
0.00325893951098188
0.00361334669935155
0.00391521139563306
0.000405635167031091
0.00119922397183192
0.00181431151382233
0.00233689263639002
0.00279958851181423
0.00321402150807013
0.00358319313007111
0.00390400000277119
0.00417287007483788
0.000383473147727182
0.0011439278427956
0.00174539909034293
0.0022646399836328
0.00272962656433069
0.0031506515157536
0.00353163865472646
0.00386992572236114
0.0041598895230629
0.00439839333820387
0.000358355311955435
0.00108110637516216
0.00166593914841304
0.00217948047181735
0.00264496932250338
0.00307051877097098
0.00346014612377023
0.00381261754853162
0.00412230162331556
0.00438336856448399
0.00459369315504775
0.000330127103342543
0.00101013045312339
0.00157533184047324
0.00208103211635919
0.00254556186048381
0.00297439757122866
0.0033705926917004
0.0037337469419703
0.00405969600760094
0.00434217877669372
0.0045760535363969
0.00476015407165778
0.000298744128933002
0.000930596411602818
0.00147297448846518
0.00196868142497271
0.00243078959963049
0.00286197121320622
0.00326369584082336
0.00363531098418246
0.00397379990280126
0.00427424411679256
0.0045307815486484
0.00473911732424009
0.00489890230548534
0.000264270715196106
0.000842314013945925
0.00135845500059712
0.00184188371854184
0.00229995759787434
0.00273243600101615
0.00313899387996332
0.0035180438221205
0.00386669725844603
0.00418126541996656
0.00445709739326768
0.00468900654211695
0.00487351115521197
0.00501096305901798
0.00022666353096559
0.000745236586633814
0.00123161551604222
0.00170031599675511
0.00215254593510218
0.00258501521998979
0.00299555636888611
0.00338142559943519
0.00373916604095652
0.00406537969538193
0.00435664283788818
0.00460887322191647
0.00481760067976739
0.00498008664538884
0.00509729247334745
0.000185770594727622
0.000639329352756542
0.00109253230156235
0.00154396441602308
0.00198833201377216
0.00241919349613337
0.00283253649430371
0.00322444025910134
0.00359064899250252
0.00392737269087834
0.00423154030386612
0.0045002721738822
0.00473010869590623
0.0049172416127563
0.00505959525923449
0.00515868208536052
0.000143809732358252
0.000524851340820548
0.000941568387114262
0.00137310490349201
0.00180740558838061
0.00223476133229454
0.00264933998494337
0.00304609382473818
0.00341995998172755
0.00376652068317459
0.00408239708634727
0.00436509291204657
0.0046123299884882
0.00482121410563027
0.00498845079629971
0.00511248988058527
0.0051953909464897
0.000478892593291764
0.000480289407848336
0.00135832461990294
0.000482452966654208
0.00135879808319457
0.00198569522054482
0.000479907664550673
0.00135685860850861
0.00198442539040745
0.0024881173154152
0.000471220630853879
0.00134631539269913
0.00197532533210281
0.00248547886530173
0.00291718370422015
0.000458129572823095
0.00132358744587896
0.00195491648521466
0.0024706533032967
0.0029126088120113
0.00329276745888615
0.000442609321048664
0.00128993815283471
0.00192082171222966
0.00244147299106183
0.00289252580235542
0.00328580929069197
0.00362427152967629
0.00042527603690169
0.00124822535758697
0.00187371811152129
0.00239708795389498
0.00285538180743092
0.00326061229094393
0.00361521833814174
0.00391727000848741
0.000405806447719064
0.00119990234863429
0.00181544581940603
0.00233842753181019
0.00280146844705662
0.00321619204213274
0.00358560844383465
0.00390662954729265
0.00417570223828477
0.000383722412457969
0.00114485090032292
0.00174693590670093
0.00226671970069813
0.00273218149421667
0.00315361099449295
0.00353493375151832
0.00387349557342363
0.00416369361605164
0.00440241891647454
0.000358719726675681
0.00108238896757837
0.00166804851129811
0.00218232989580769
0.00264847696353275
0.00307459857784755
0.00346470937921379
0.00381757311372007
0.00412756671540348
0.0043888887671962
0.00459945226867585
0.000330646840481459
0.00101189225231972
0.00157819555090393
0.00208489602225137
0.00255032855467379
0.00297996463788057
0.00337685293812586
0.00374058542870204
0.00406699149763811
0.00434982091383295
0.00458396930465911
0.00476832020090495
0.000299462165493517
0.00093295084873777
0.00147677377970239
0.00197381105181289
0.00243713881875376
0.00286941953948404
0.00327211551753265
0.00364456468261182
0.00398373821904851
0.00428471090600217
0.00454163450483543
0.00475025890073912
0.00491029566600433
0.000265221838505418
0.000845359305622424
0.00136335097532533
0.00184851492116707
0.00230820838694894
0.00274216881555252
0.00315005748334683
0.00353027326810621
0.00387991487212586
0.00419528294654516
0.00447172305829302
0.00470406460324331
0.00488887309937691
0.00502656840366545
0.000227878330359214
0.000749028645696462
0.00123771211184496
0.00170863770151455
0.00216298171582467
0.00259741668113893
0.00300974782263919
0.00339720857417236
0.00375632443212846
0.00408368763978581
0.00437587196086541
0.0046288011862631
0.00483802547930097
0.00500084698279055
0.00511828829201141
0.000187291986353507
0.000643842390352249
0.00109984036174245
0.00155407756911312
0.00200116794974201
0.0024345993209979
0.00285031599055496
0.00324435926971637
0.0036124427851761
0.003950760063909
0.00425623825903565
0.00452601068398782
0.0047566470794876
0.00494437990731827
0.00508716208757183
0.00518652023181485
0.000146173940570718
0.000529912536365004
0.000949978029188639
0.00138501804137832
0.00182279676007775
0.00225348617513472
0.00267118759684907
0.00307079572662465
0.00344719706652347
0.00379594087393723
0.0041136354873429
0.00439779274955419
0.00464616922701607
0.00485594559525743
0.00502394438899864
0.00514867807236352
0.00523210570973595
8.23183693378408e-05
0.000408673245738331
0.000789145655332469
0.00120197549051997
0.00162817825969158
0.00205415389607593
0.0024720998196206
0.00287584461365799
0.00325951082937553
0.003617987646783
0.00394732121090494
0.0042447483598026
0.00450842315090817
0.0047366970921469
0.00492725757382546
0.00507734965643133
0.0051858977058248
0.00525527586704119
0.000480655833821118
0.00135942250992602
0.000482653670651685
0.00135968362693796
0.00198701465457853
0.000480120889468866
0.00135759970540926
0.00198553205574675
0.00248950550297164
0.000471408868516352
0.00134693520111692
0.00197626003429476
0.00248666557779492
0.00291858150775832
0.00045828806048821
0.00132411287463687
0.00195572437225266
0.00247169448486506
0.00291384988876664
0.00329418341672544
0.000442740863307034
0.00129040560954366
0.00192156432631206
0.00244244830776663
0.00289370117533086
0.00328716014830811
0.00362578035670972
0.000425393347270747
0.0012486845164571
0.00187447496931895
0.00239810263472396
0.00285661767667939
0.00326203801501489
0.00361681164142889
0.00391901780144745
0.000405932886698844
0.00120041606561871
0.00181631636566418
0.00233961240351099
0.00280292539940547
0.0032178792265473
0.00358749043481421
0.00390868225380673
0.00417791501021855
0.000383885487320942
0.00114549826689853
0.00174803964158875
0.00226823160999238
0.00273405273445542
0.00315578896857603
0.00353736690270397
0.00387613876049172
0.00416651746454058
0.00440541456197733
0.000358951776680212
0.00108326229013263
0.00166952305354405
0.00218435123101235
0.00265098743918708
0.00307753519161129
0.00346800601050607
0.00382116175595274
0.00413138675305959
0.00439290251563906
0.00460365164718655
0.000330979752918173
0.00101308861191055
0.00158019235593013
0.00208763017718639
0.00255373214597842
0.00298396361447325
0.00338136749788872
0.0037455285820526
0.00407227154760754
0.00435535663697127
0.00458971107004222
0.00477425781619838
0.000299933745537291
0.000934568461617372
0.001479448722163
0.00197747316050772
0.00244171078313367
0.00287481490430338
0.00327823969932906
0.00365131321335328
0.00399099528074575
0.0042923554589371
0.00454955984062922
0.00475839872497718
0.0049186340089528
0.000265857881321844
0.000847487984135846
0.00136685188031565
0.0018533159798035
0.00231422973680725
0.00274931203053471
0.00315821145444565
0.00353931305945349
0.00388970209639995
0.00420566746492766
0.00448255088609087
0.00471519928434208
0.00490022570379812
0.00503811117944671
0.00022871187947373
0.000751732400003946
0.00124215091533712
0.0017147602762913
0.00217071449397786
0.00260665415879344
0.00302036152317868
0.00340904905213589
0.00376922479038184
0.00409746858565208
0.00439034618508955
0.00464378132165233
0.00485334397460823
0.00501638631036644
0.00513399965271255
0.000188358899142723
0.000647142088465483
0.00110526209476935
0.00156163825675381
0.00201082024528066
0.00244623856057222
0.00286379916078889
0.00325951040688327
0.00362905871285883
0.00396862128064117
0.00427511850932802
0.00454568466446594
0.00477689936101231
0.00496501945983374
0.0051080419631872
0.00520755631985495
0.000147979330868126
0.0005337505394457
0.000956318187780347
0.00139402549402886
0.00183448407238459
0.0022677611870434
0.00268790013312572
0.00308974479477721
0.00346813885842484
0.00381860347204279
0.00413773481690062
0.00442304728239251
0.00467231458507328
0.00488275104761752
0.00505122455814308
0.00517628089047249
0.00525989748263118
8.40289607990441e-05
0.00041289798514448
0.000796190606143387
0.00121231026834563
0.00164191498896162
0.00207124032756729
0.00249238356471131
0.00289910470499665
0.00328546124253059
0.00364629491601917
0.00397762559253085
0.00427668363440407
0.0045416367938856
0.00477087630971978
0.00496216928670287
0.00511288284546899
0.00522201067034367
0.00529183815537859
2.80172846071025e-05
0.000284423382222651
0.000627429353034279
0.00101769131642107
0.00143356151691463
0.00185690874437246
0.00227725150373711
0.00268724289611539
0.00308026293902241
0.00345054123271518
0.00379349399318528
0.00410582288040611
0.00438544037065044
0.00463114876557892
0.00484188035913966
0.00501582573734221
0.00515067222722711
0.00524570362652982
0.00530346732622954
0.000483012387285796
0.00136076596618894
0.00198858815136467
0.000480311791775969
0.00135846471918086
0.00198684515467477
0.00249114448274633
0.0004716039427325
0.00134765897444924
0.00197735777926207
0.00248805079735358
0.0029201978960404
0.000458465085145593
0.0013247185538218
0.0019566502710759
0.00247287674453818
0.00291524527912133
0.0032957583900206
0.000442893046398233
0.00129091944507884
0.00192236506846691
0.00244348709834318
0.00289494154139341
0.00328857335510928
0.00362734372420846
0.000425519488215527
0.00124914046617839
0.00187520966012712
0.00239907669082057
0.00285779645557497
0.00326339166982036
0.0036183170091468
0.00392065799061684
0.000406045706318932
0.00120085895526461
0.0018170601261387
0.00234062164876261
0.00280416484685001
0.00321931399714113
0.00358909046777897
0.00391042554378234
0.00417978905885621
0.000384005638591499
0.00114598794538145
0.0017488853573933
0.00226939843635468
0.00273550348894064
0.00315748268258001
0.00353926329934849
0.00387820240111972
0.00416872453584283
0.0044077566312808
0.000359102524078934
0.00108387221950677
0.00167058027787434
0.00218582119316187
0.00265282875088724
0.00307970068535537
0.00347044552935401
0.00382382369819815
0.00413422555459316
0.00439589032723664
0.00460678325264505
0.000331188692429185
0.00101389829840651
0.00158158400825331
0.00208956933561924
0.00255617080133555
0.00298684770868236
0.00338463738694495
0.00374911846945644
0.00407611223931584
0.00435938813069661
0.00459389889306095
0.00477859827050242
0.000300230766756648
0.000935660728090897
0.00148130837240432
0.00198006224167137
0.00244497649012624
0.00287869534286404
0.00328266496627436
0.00365620437495849
0.00399626369838621
0.00429790886508946
0.00455531930489186
0.0047643193279118
0.00492471105166893
0.000266266205475356
0.000848941494434027
0.00136930961267688
0.00185673899326561
0.00231856455813339
0.00275448888947702
0.00316414915826314
0.00354591771537767
0.00389686721396363
0.00421327573728101
0.00449048230270348
0.0047233512421951
0.0049085381310663
0.00504657455780022
0.000229256796728966
0.000753608139305934
0.00124531584226207
0.00171918656712847
0.00217635471688815
0.00261343367095379
0.00302818731874342
0.00341780959944981
0.00377879225306858
0.00410770222604551
0.00440109581157038
0.0046548958653564
0.00486469299292224
0.00502788893761176
0.00514563637022926
0.000189081868955546
0.000649478029158849
0.00110920012505145
0.00156719551507182