/*--------------------------------*- C++ -*----------------------------------*\
  =========                 |
  \\      /  F ield         | OpenFOAM: The Open Source CFD Toolbox
   \\    /   O peration     | Website:  https://openfoam.org
    \\  /    A nd           | Version:  12
     \\/     M anipulation  |
\*---------------------------------------------------------------------------*/
/*   Windows 32 and 64 bit porting by blueCAPE: http://www.bluecape.com.pt   *\
|  Based on Windows porting (2.0.x v4) by Symscape: http://www.symscape.com   |
\*---------------------------------------------------------------------------*/
FoamFile
{
    format      ascii;
    class       volScalarField;
    location    "100";
    object      nut;
}
// * * * * * * * * * * * * * * * * * * * * * * * * * * * * * * * * * * * * * //

dimensions      [0 2 -1 0 0 0 0];

internalField   nonuniform List<scalar> 
10116
(
0.000106249238789595
0.00010676613415781
0.000108364089215122
0.000880400160996659
0.000107119233407407
0.000108888712887019
0.000884577510870191
0.0001108684205202
0.000893888464298388
0.00207000192505904
0.000107365266891079
0.000109241438986998
0.000887532344072435
0.000111403244577135
0.000898083527972993
0.00208005744583569
0.000112342693472877
0.000910642438034396
0.00208739192039311
0.00334984076989941
0.00010753480571632
0.000109487519348046
0.000889628023399526
0.000111761010442529
0.000901056870910214
0.00208723990045034
0.000112888399608984
0.000914891614595806
0.0020974776691648
0.00336682780277147
0.000112040811099396
0.000920951285104255
0.00210722767317023
0.00336294254486816
0.00456729153625404
0.000107648381415084
0.000109659004074871
0.000891094319434423
0.000112011230776352
0.000903170034151038
0.00209236563660817
0.000113251960702892
0.000917913126896559
0.00210469570180348
0.00337909546977084
0.000112591038661243
0.000925251035136157
0.00211737877477848
0.00337991864796416
0.00459150951908932
0.000110468103243438
0.000919505545380854
0.0021173592587344
0.00337320127038944
0.00457214069619333
0.00565937763047966
0.000107722159610456
0.000109774422243088
0.000892096913229902
0.0001121877962382
0.000904653278710242
0.00209597401261595
0.000113506025997496
0.000920070382946393
0.00210985552360413
0.00338792211181979
0.000112958927826149
0.000928320412274376
0.00212467935602665
0.00339220598509383
0.00460921491982257
0.000111019492081002
0.00092382928870198
0.00212757711832117
0.00339020791268547
0.00459629425562904
0.00569071963317655
0.000108394172704074
0.000908306468942024
0.00210999749009835
0.00337099820967988
0.00456767962777071
0.00565581321867244
0.00660995980034107
0.000107768680709229
0.000109849409877364
0.000892766083158873
0.000112307149636112
0.000905668550648653
0.00209846398594981
0.000113686922261749
0.000921591933983051
0.00211349220708795
0.00339418724729436
0.000113217500065781
0.000930521437723928
0.00212991912241041
0.00340105889235078
0.00462207148340428
0.000111390898656104
0.000926928576968596
0.00213496228212523
0.00340256876291197
0.00461397933193904
0.00571385827667102
0.000108946388634309
0.000912627970724271
0.00212024910455238
0.00338803308843186
0.00459179251647001
0.00568703466266073
0.00664804310002877
0.000106131807796815
0.000891839671021163
0.00208620024274528
0.00334962686272155
0.00454728483790744
0.00563684762291626
0.00660060016800877
0.00742484118378396
0.000107797484690077
0.000109896566011815
0.000893203757385357
0.000112385129954427
0.000906345856048255
0.00210014552634669
0.000113810382030052
0.000922637514637545
0.0021160032125635
0.00339855496048502
0.000113401153111781
0.000932082017284566
0.00213362550295673
0.00340734761257308
0.00463127906880333
0.000111650278224409
0.000929158288435473
0.0021402871678284
0.00341150497452463
0.00462683396657594
0.00573080071430137
0.000109328360703501
0.000915755710338854
0.00212768696392307
0.0034004690816742
0.00460950719028945
0.00571010578241234
0.00667637174346751
0.000106683800884275
0.000896144357769253
0.00209643001046551
0.00336665357779678
0.00457133400562612
0.00566794795443872
0.00663852515440996
0.00746911850358278
0.000103621207786621
0.000872536893201247
0.00205077161064672
0.00330886317436765
0.00450653909133478
0.00559822371266326
0.00657080261870586
0.00741247704573293
0.00811816166209808
0.000107815780528872
0.00010992558532669
0.000893488385800727
0.000112434339726161
0.000906788587223235
0.00210126070119183
0.000113891754064341
0.000923337513880205
0.00211769928349151
0.0034015423669097
0.000113527802382787
0.000933160349791022
0.00213619316761836
0.00341173385938487
0.00463776397033995
0.000111837227616892
0.000930745624728221
0.00214407149285845
0.00341787196112277
0.00463604532831029
0.00574303617561768
0.000109588787195945
0.000918000422383705
0.0021330709003158
0.00340949689280071
0.00462241955170232
0.00572701055467063
0.00669725883149452
0.000107071989630063
0.000899316129404513
0.00210388475693817
0.00337912203026446
0.00458907001538726
0.00569099169807136
0.00666674990256186
0.00750224816219394
0.000104171282499267
0.000876818930165154
0.00206093139606163
0.00332580109647465
0.00453047675125466
0.0056291492733232
0.00660854475505154
0.00745658126346954
0.00816799404938103
0.000100735342899655
0.000850539648258979
0.00200666783466101
0.00325146294567775
0.0044447151949251
0.005537339343325
0.00651750842770743
0.00737593331204784
0.00810437389208649
0.00870531459923751
0.000107829120005755
0.000109943778483422
0.000893679759931619
0.000112464539995789
0.000907076178795832
0.00210199673404908
0.000113943495514963
0.000923796786984041
0.00211882401021223
0.00340355308175488
0.000113611931365546
0.000933886562993733
0.00213793318225524
0.00341473480254256
0.00464225349628395
0.000111967394003356
0.000931848392132555
0.00214670605543255
0.00342232556689268
0.00464253514806858
0.00575173362844364
0.000109775445859736
0.000919601423135561
0.0021369141303654
0.00341595591940916
0.00463169551462765
0.00573922344597829
0.00671245260251334
0.000107339357922718
0.000901575294460829
0.00210929541645463
0.00338820683303653
0.00460204432430065
0.00570791552795856
0.00668757094991321
0.00752681612683681
0.000104561773254961
0.000880014151232519
0.00206837619826885
0.00333823821448307
0.00454817746251968
0.00565214070675369
0.00663669568388291
0.00748958760602864
0.00820545804788177
0.000101280719032771
0.00085478486913102
0.00201671841376661
0.00326822190950046
0.00446843346949598
0.00556801608188022
0.00655497597823908
0.00741982183179174
0.00815403477167774
0.00876001568023107
9.73792207836226e-05
0.000825162677787033
0.0019541935213807
0.00317898994084379
0.00436241741316236
0.00545329663415297
0.00643890318664242
0.00731208140361356
0.00806376464810094
0.00869066591634853
0.0092002927226004
0.000107841335710016
0.000109956747094304
0.000893822916255474
0.000112483333504254
0.000907269197105122
0.00210249667943256
0.000113975275480054
0.000924096013607478
0.00211956607764193
0.00340489971473629
0.000113665755506959
0.000934366209584608
0.00213909094176167
0.00341675492268442
0.00464531702964895
0.000112053690530203
0.000932595902386924
0.0021485008984308
0.00342538148775741
0.00464702912380216
0.00575781894538991
0.00010990557861251
0.000920718526364558
0.00213960342657804
0.00342049339108119
0.00463824669331698
0.0057479068318777
0.00672333865677974
0.000107527514040467
0.000903182132608436
0.00211317012129628
0.00339473349909459
0.00461139833490387
0.00572016786825067
0.00670272006683809
0.00754479459640166
0.000104836551602771
0.000882304620711809
0.00207379018559279
0.0033473275048352
0.00456116815348727
0.00566907838860503
0.00665750265255278
0.00751407172372981
0.00823337011804234
0.000101669748037328
0.000857977281801627
0.00202411923421068
0.00328056060441896
0.00448600864902112
0.00559087632155778
0.0065830059459019
0.00745272762097191
0.00819136632524934
0.00880130298539307
9.79180857654812e-05
0.000829346575703862
0.00196409264871652
0.00319547821067446
0.00438578135926189
0.00548357965966907
0.00647598040015354
0.00735562020397424
0.00811320030925575
0.00874520497255629
0.00925915444225227
9.34892569626503e-05
0.00079564821521975
0.00189223434084545
0.00309098207533224
0.0042592766942878
0.00534514558167448
0.00633395247238185
0.00721901339838467
0.00799234253290106
0.00864730470171849
0.00918488533687311
0.00961528405337787
0.000107855126137815
0.000109968641359348
0.000893951014050506
0.000112496510484649
0.000907413318291856
0.00210286825804967
0.000113995057336146
0.000924296973498645
0.00212006976700129
0.0034058215984207
0.000113699014334037
0.000934680604137879
0.00213985715000119
0.00341810783423684
0.00464739632307553
0.000112108820671777
0.000933093300912245
0.00214970208404926
0.0034274448895918
0.00465009617874505
0.00576202045756871
0.000109993274640791
0.000921480232044321
0.00214144635706071
0.00342362130222574
0.00464279443466834
0.00575398317144012
0.00673102305064757
0.000107658486022114
0.000904305982955319
0.00211589302255799
0.00339933958463619
0.00461802924918528
0.00572889715173788
0.0067135758843281
0.0075577618510881
0.00010502828052803
0.000883919272258099
0.00207767364421358
0.00335387986489391
0.00457056814660211
0.00568137877309951
0.00667266853630912
0.00753199214144909
0.00825389892247672
0.000101944259205853
0.000860293572556034
0.00202951922412789
0.00328960087830423
0.00449894209749921
0.0056077655860326
0.00660377964827213
0.00747717759849081
0.00821918559907969
0.00883218457497787
9.83024561533972e-05
0.000832507956483889
0.00197141154440653
0.00320764746273008
0.00440312519280301
0.00550618673069328
0.00650377765581834
0.00738835256232505
0.00815042007425277
0.00878635635782586
0.00930373339429201
9.40136642778348e-05
0.000799743421394779
0.00190193847602275
0.00310710007806848
0.00428213576732424
0.00537484958985215
0.00637044358120758
0.00726203283130848
0.0080413766289058
0.0087016231130926
0.00924359772880911
0.00967759692629452
8.89957211250263e-05
0.000761286184500932
0.00181915401575138
0.00298552515513928
0.00413342503603562
0.00521083093090492
0.00620084063120688
0.00709551722611814
0.0078875837201566
0.00857011637711163
0.00913934541191142
0.0095991082285604
0.00996097202232163
0.000107872331021985
0.000109982313263983
0.000894087718130111
0.000112508548330697
0.000907542323851344
0.00210319110608981
0.000114008896374941
0.000924446458381486
0.00212044375218941
0.00340649923113593
0.000113719835082267
0.000934892626486209
0.00214037808245168
0.00341903377724329
0.0046488302909845
0.000112143274220668
0.000933421691804864
0.00215050165495144
0.00342883092612441
0.0046521780511273
0.00576490354588183
0.000110049314482694
0.000921990306464058
0.00214268788427683
0.00342574391146908
0.00464590626194195
0.00575817868127666
0.00673637937329002
0.000107746221489553
0.000905076306488964
0.00211776881818924
0.00340253106119678
0.00462265047501006
0.00573501842647774
0.00672123967004353
0.00756698302504551
0.000105158951325502
0.000885046425106922
0.00208041049119049
0.0033585226448943
0.00457725825664477
0.00569017031389316
0.00668355561472674
0.00754491896977118
0.008268788427346
0.000102135538272427
0.000861921426004599
0.00203339470911858
0.00329613503978013
0.00450833020901636
0.00562006997036386
0.00661896235370401
0.00749510113994327
0.00823964873528224
0.00885499413149833
9.8570153918832e-05
0.00083481100566015
0.00197677065502079
0.00321658524088433
0.00441591707231333
0.00552292871841753
0.00652443164986808
0.00741273240829766
0.00817819602422636
0.0088171397525192
0.00933718934774974
9.43857656581699e-05
0.000802847200295617
0.00190914256188853
0.00311902256234823
0.00429913216042967
0.00539705638848409
0.0063978452807353
0.00729443890371249
0.00807838594759947
0.00874266055297891
0.00928803945097516
0.00972493150643624
8.95028274397705e-05
0.000765253016244474
0.00182857198051407
0.00300116179632362
0.00415561275813346
0.00523974436874184
0.00623650255205381
0.00713775989902174
0.00793598784701526
0.00862399951399112
0.00919785005123892
0.00966128681824107
0.0100260473073101
8.38483336659709e-05
0.000721242484758623
0.00173280439379525
0.00285961683895843
0.0039816324843911
0.0050469972738737
0.00603635935597004
0.00693939248492039
0.00774802407072931
0.00845574076293255
0.00905747908137573
0.00955169196286102
0.00994403768855126
0.0102468617129375
0.000107893460270376
0.000109999300080417
0.000894248947319272
0.000112522381697689
0.000907680220175058
0.00210352262457788
0.000114021253218211
0.000924579429763924
0.0021207684242129
0.00340706624628698
0.000113734383477997
0.000935050152232746
0.00214076426271963
0.00341971401837114
0.00464987494746358
0.000112165045329342
0.000933644350392959
0.00215104755552368
0.00342978157802774
0.00465361373113933
0.00576690424674554
0.000110084875958099
0.000922329298282245
0.0021435198925312
0.00342717694982827
0.00464802405014368
0.00576105833906671
0.00674008910724103
0.000107802557356939
0.000905594074941805
0.00211903998428662
0.00340470900793995
0.00462582593606752
0.00573925420598757
0.00672658195896127
0.00757346108707369
0.000105245241345807
0.00088581963867718
0.00208230332336211
0.00336175441071243
0.0045819411198894
0.0056963560261301
0.00669125547004545
0.00755411207880527
0.00827944181263693
0.000102262862114365
0.000863047578764426
0.00203612853596396
0.00330077924131687
0.00451503572756478
0.00562889482429183
0.00662989198491508
0.00750805051048129
0.00825449190156737
0.00887161609092162
9.87550096175259e-05
0.000836432120445449
0.00198061911773344
0.00322305806140876
0.0044252262004684
0.00553515988655988
0.00653956948049301
0.00743064774424757
0.00819865596143302
0.00883987866863197
0.00936199051079203
9.4645684020366e-05
0.000805104374722281
0.00191442066266345
0.00312779800366532
0.00431169206193288
0.00541353393785986
0.00641824859579821
0.00731863163869379
0.00810606517891147
0.00877339733832258
0.00932139319217558
0.00976055997254338
8.98661147949093e-05
0.000768266389729701
0.00183559079985808
0.0030127523539113
0.00417213416530484
0.00526138667443781
0.00626331497073157
0.00716962775156498
0.00797258951131829
0.00866480119426665
0.00924218056513865
0.00970848428646495
0.0100756136754521
8.43390981579781e-05
0.000725043069142307
0.00174183963321584
0.00287463859519546
0.00400296426137956
0.00507488550102264
0.00607091683926192
0.0069805513604519
0.00779547469054829
0.00850890303106939
0.00911552908650296
0.00961368178212875
0.010008995833478
0.0103140522251124
7.78943100397142e-05
0.000674260379509225
0.00163011684952641
0.00270903025108202
0.00379928238735325
0.00484898158259903
0.0058359268486994
0.00674675783233819
0.00757129100880173
0.0083023831537201
0.00893505904916464
0.00946590530598589
0.00989499306245116
0.0102292189589948
0.0104814731515898
0.000107917998518738
0.000110019640440441
0.000894444543731378
0.000112539307751833
0.000907842764675175
0.00210390276299659
0.000114035039079415
0.000924720477613641
0.00212110163620529
0.00340761934255308
0.000113747134276409
0.000935188712379259
0.00214109758179003
0.00342028278752762
0.00465072000924628
0.000112180241167757
0.000933809618172128
0.00215145194243266
0.00343047975740727
0.00465465937158338
0.00576835263437148
0.000110108330594329
0.000922560323161111
0.00214409086654106
0.00342816369298705
0.00464948748447797
0.00576305677821849
0.0067426770720812
0.000107838050307614
0.000905939589220702
0.00211989701723729
0.00340618788571722
0.00462799630736294
0.00574216811204171
0.0067302821421498
0.00757798041397168
0.000105299045746792
0.000886338526769661
0.00208359145077741
0.00336397114885985
0.0045851741552734
0.00570065170608697
0.0066966331136491
0.00756057075534804
0.00828697456234752
0.000102347030270377
0.00086381449322681
0.00203802251754112
0.00330402369123629
0.00451974808436186
0.00563512721157301
0.00663764464660889
0.0075172746131994
0.00826511283231377
0.00888357084584517
9.88812328267308e-05
0.000837545291574104
0.0019833311141323
0.00322766806951808
0.00443189455157668
0.00554395964754154
0.00655049993353192
0.00744362350847344
0.00821351792203153
0.00885645024583265
0.00938013695148277
9.48280020848527e-05
0.000806692028965227
0.00191821026416442
0.00313416251532607
0.00432085094463262
0.0054255994502163
0.0064332397596468
0.00733645459801082
0.00812649850384119
0.00879613053817375
0.00934611964000478
0.00978705531766064
9.0119181516668e-05
0.000770457368216174
0.00184074458133861
0.00302129598682516
0.00418436331346283
0.00527747134555882
0.0062833136465902
0.00719346448268392
0.00800002199075872
0.00869542214567768
0.00927548725713284
0.00974400737923728
0.0101130190318709
8.46922230182079e-05
0.000727942669438722
0.00174858984813593
0.00288579267995451
0.00401886980935896
0.00509578305389451
0.00609692520888077
0.00701163601319236
0.00783140445354558
0.00854922897081489
0.00915960760174007
0.00966077426288498
0.0100584267757066
0.0103653546304201
7.83645107098938e-05
0.000677863155257483
0.00163866460668208
0.00272326535326296
0.0038195508098639
0.00487558660006717
0.00586907706587848
0.00678649200002146
0.00761741490230099
0.00835443630148957
0.00899231736092087
0.00952743386193239
0.00995978691942187
0.010296311618753
0.0105501914500008
7.06895222031189e-05
0.000617748735337596
0.00150625716704669
0.00252772756845576
0.00358003451219989
0.00461062124758262
0.00559363533047146
0.00651215586223465
0.0073531252031019
0.00810755013691575
0.00876990937656748
0.0093367162847401
0.00980591497874376
0.0101787994785156
0.0104631983234294
0.01067243915782
0.000107945694344001
0.000110040768512008
0.000894681110586221
0.000112559307285677
0.000908038953727858
0.00210435822274556
0.000114051257605505
0.000924885248240253
0.0021214834579314
0.00340822629951357
0.000113760964576591
0.000935333230103508
0.00214143687896464
0.00342083715628473
0.00465150310234437
0.000112193318676779
0.000933953334547356
0.00215179802451397
0.00343106113509205
0.0046555048892687
0.00576949234542476
0.000110124842802979
0.000922731489290808
0.00214451372953743
0.00342888859538776
0.00465055368312461
0.00576450295651563
0.00674454005177467
0.000107860732371425
0.000906175909147533
0.00212048780032314
0.00340721088203856
0.00462950135702777
0.00574419411373123
0.00673286334412524
0.00758114581871003
0.000105331876115334
0.000886683858914505
0.00208446346464952
0.00336548423567829
0.00458739454459504
0.00570361760874604
0.0067003649811068
0.00756507681460152
0.00829226078536282
0.000102399904841756
0.000864319369787959
0.00203931311686956
0.00330625793709892
0.00452301559307951
0.00563947263401755
0.00664307595912292
0.00752376607608718
0.00827262302636699
0.00889206967516356
9.89642269531439e-05
0.00083829465906732
0.00198520745913172
0.00323089604527258
0.00443659592623589
0.00555019562547
0.00655827842536486
0.00745289059876141
0.00822416798990905
0.00886836943247131
0.00939324591001043
9.49505438509264e-05
0.000807781842403562
0.00192087512751679
0.00313869980066754
0.00432742586254076
0.00543430230094304
0.00644409402091364
0.00734939843832629
0.00814137464501692
0.00881271948976755
0.00936421221381821
0.00980650921763236
9.02947633057623e-05
0.000771997700536606
0.0018444398201943
0.00302749696914426
0.00419329482492903
0.00528927066886374
0.00629803715782068
0.007211064151659
0.00802031983252686
0.00871811492926393
0.00930020701360374
0.00977042442554548
0.0101409130613478
8.49381781661724e-05
0.000730050184934368
0.00175355304112331
0.00289402515893019
0.00403065890893705
0.00511133533915583
0.00611635109968095
0.00703492240798177
0.00785838076274381
0.00857955214991453
0.00919278500043758
0.00969625177375016
0.0100957246576835
0.010404159723248
7.87061733561284e-05
0.000680630292722171
0.00164507014810578
0.00273386306328448
0.00383468243359862
0.00489554241523859
0.00589404782947059
0.00681652655257059
0.00765237481071413
0.00839397117275306
0.00903586570957811
0.00957426621148419
0.0100091224902837
0.010347482093118
0.0106027759832421
7.11411690957465e-05
0.000621126066378187
0.00151420416350188
0.00254098381824461
0.0035990060704688
0.00463566129787579
0.00562505005192083
0.00655009537275911
0.00739751619124743
0.00815805674789959
0.00882592849990359
0.00939740270721128
0.00987025309143661
0.0102457575962674
0.0105318399983204
0.0107421709618907
6.48927668188145e-05
0.00054653316572978
0.00135303343828235
0.00230670722980001
0.00331520202179397
0.00432386449800315
0.00530207349651625
0.00622874072076523
0.00708748683331782
0.00786675181526426
0.00855940944529315
0.00916155638302094
0.00967105863398279
0.0100870023199307
0.0104116596046661
0.0106536184742536
0.0108265615943083
0.000107992339623362
0.000110059865498102
0.000894968259786468
0.00011257687507063
0.000908273101759822
0.00210490666808676
0.000114068229763965
0.000925082910318922
0.00212194039103521
0.00340893234354544
0.000113776645244377
0.000935498944964588
0.00214182266765049
0.00342144506780719
0.00465232089732068
0.000112207154487312
0.000934100552822686
0.00215214555319795
0.00343162385487636
0.00465628804075282
0.005770501652649
0.000110138190997918
0.00092287870729312
0.0021448724574496
0.00342948878118842
0.00465141368121952
0.00576564096248073
0.00674597473489499
0.000107875159215617
0.000906349950720841
0.00212092509351895
0.00340796298459207
0.00463059898647226
0.00574566118421075
0.0067347219187568
0.0075834171365586
0.000105352352170056
0.000886918215805067
0.00208506613232673
0.00336653519285612
0.00458894049921331
0.00570568623355642
0.00670297269203398
0.00756823326491725
0.00829597678338541
0.000102432794584255
0.000864649394727567
0.0020401873549245
0.00330778888757045
0.0045252695542913
0.00564248513122382
0.00664685697822915
0.00752830285611077
0.00827789388882057
0.00889806367084507
9.90165015506357e-05
0.000838788277615857
0.0019864820335596
0.00323312403613005
0.00443986713948947
0.00555455955447524
0.00656374666461046
0.00745943024744049
0.00823171043987284
0.00887684336439049
0.00940260801372712
9.50303780817237e-05
0.000808514007052293
0.00192271268689131
0.00314187924228644
0.00433207207004095
0.00544048691321877
0.0064518412785672
0.00735866937365919
0.00815206012060192
0.00882466735622248
0.00937728282178074
0.00982061637727993
9.04131090685296e-05
0.000773051434598153
0.00184702940234042
0.00303191745182726
0.0041997155809104
0.00529779828922751
0.00630872157065722
0.00722387693690687
0.0080351335087911
0.00873470859099543
0.00931831625629513
0.00978982123104801
0.0101614563765142
8.51078041537532e-05
0.000731528409995554
0.00175711007697469
0.00290000042200557
0.00403927791046723
0.00512276016953462
0.00613067569728561
0.00705214648030209
0.00787838112561536
0.00860207163725552
0.00921745386836558
0.00972266204931869
0.0101235374968334
0.0104331683976033
7.8943799837173e-05
0.000682639818800251
0.00164978402596623
0.00274169309780784
0.00384591022581165
0.00491041070837666
0.00591272006951807
0.00683905350557236
0.00767865897155355
0.00842374757231386
0.00906870334620729
0.00960960604047775
0.0100463782571885
0.0103861789458291
0.0106426326495773
7.14735630753181e-05
0.000623746059114753
0.00152018439739197
0.00255087451855786
0.00361318783917869
0.00465446124954948
0.00564873194951095
0.00657879360684102
0.00743118744447794
0.00819645117421803
0.00886858459595094
0.00944366453642765
0.00991932836867107
0.0102968458490993
0.0105842979309975
0.0107956357807259
6.59597047219045e-05
0.000549734369259433
0.00136025655153978
0.00231877150187119
0.00333260332207044
0.00434703430314708
0.00533140137324562
0.00626449045241907
0.00712971042095357
0.00791524347818227
0.00861369284694152
0.00922090154810208
0.00973452451703272
0.0101535217658358
0.0104802011685358
0.0107232963230234
0.0108968731213097
3.59940829279217e-05
0.0004527428543669
0.0011573303989745
0.002032718523433
0.00299286776653214
0.00397826138745551
0.00495200788023665
0.0058882112363715
0.00676688489417993
0.00757356794451633
0.0082989090772256
0.00893766678593813
0.00948748198153388
0.00994745983727593
0.0103176692882102
0.0106012011669312
0.010807280302646
0.010949856724113
0.000110109428003141
0.000895339199087292
0.000112585163736718
0.0009085567276207
0.00210556348748777
0.000114081383919716
0.000925314064640916
0.00212248951999293
0.00340976581592621
0.000113791952655001
0.000935692388722198
0.00214228153436393
0.00342215170426783
0.00465323755227449
0.000112222355266484
0.000934266128713064
0.00215253534246915
0.00343223651996228
0.00465710553924923
0.00577150485649441
0.000110151930008784
0.000923027143372911
0.00214522734422113
0.00343006354717815
0.00465220617822174
0.00576664847150541
0.00674719629990473
0.000107887588141798
0.000906498320027313
0.00212129312200023
0.00340858208971152
0.00463148132558735
0.00574681416987712
0.00673615321708181
0.00758513623966858
0.000105366615495692
0.000887085396309648
0.00208551128422932
0.00336730830521759
0.00459006954903229
0.00570718630992286
0.00670485224064525
0.00757049801387203
0.00829863461109402
0.000102453143927714
0.000864871419727724
0.00204079088694933
0.0033088552022264
0.00452684462591789
0.00564459373721694
0.00664950651004914
0.00753148587438888
0.00828159882455084
0.00890228777764335
9.90487974082615e-05
0.000839111959987884
0.0019873414332603
0.00323465360595106
0.00444213138749922
0.00555759618399577
0.0065675668090768
0.00746401354123197
0.00823701234909851
0.00888282001502875
0.00940923818900685
9.50805758234348e-05
0.000808996098802516
0.00192395659743716
0.00314407424059636
0.00433531244239786
0.00544482776909671
0.00645730478392978
0.00736523163033836
0.00815964642308822
0.00883317372365855
0.00938661793256151
0.00983073050528768
9.04904409066159e-05
0.000773756527708282
0.00184880654179791
0.00303501283832288
0.00420425865366303
0.00530387093765507
0.00631636609588535
0.00723307797799877
0.00804580163090451
0.00874668566230704
0.00933141527554068
0.00980388726242376
0.0101764026642342
8.52208151629749e-05
0.000732537328110422
0.00175959747704893
0.00290425500523993
0.00404547787149643
0.00513102844195604
0.00614108849913763
0.00706471052468036
0.00789300949413753
0.00861857524536954
0.00923556011117985
0.00974207507503436
0.0101440209558489
0.0104545896314518
7.91072271300036e-05
0.000684041919332478
0.00165315771815343
0.00274737248022037
0.003854122860818
0.00492134395731077
0.00592650569775
0.00685573894003844
0.00769817721044547
0.00844590131453472
0.00909316683277589
0.00963595795253674
0.0100741853029709
0.0104151044846079
0.0106724915131698
7.17066081965119e-05
0.000625644787164429
0.00152458610439021
0.00255818909789177
0.00362371985221167
0.00466848153402532
0.00566645731339485
0.00660033923645668
0.00745652954842918
0.00822540435903704
0.00890079718328144
0.00947863211386664
0.00995644321729638
0.010335506330582
0.0106240470272559
0.0108362327306274
6.6774400345397e-05
0.000552240077285628
0.00136572338673998
0.00232779801378743
0.00334563667762449
0.00436444770375139
0.00535352707771955
0.00629154918917272
0.00716175607530505
0.00795212906915945
0.00865505985220544
0.00926618996388183
0.00978300319765091
0.0102043574005341
0.0105325934213502
0.0107766414798748
0.0109508741767871
3.67422569545779e-05
0.000456297985743966
0.00116373087066741
0.00204334787650713
0.00300840188419728
0.00399923281701726
0.00497887919790479
0.00592135650159285
0.00680648352456281
0.00761954991060441
0.00835093124698248
0.00899512192210027
0.00954953327727511
0.010013096490819
0.0103857996462267
0.0106708169823975
0.0108775613832359
0.0110203952710502
1.17636660853354e-05
0.000306885517230152
0.000902388860742617
0.001688861296751
0.00259754819339111
0.00356057297728562
0.00453210519025529
0.00548064011105297
0.00638245110885021
0.00722009017757147
0.00798173802722603
0.00866027556176774
0.00925228896676385
0.0097568907401166
0.0101743154962101
0.0105054882220948
0.0107541969254255
0.0109301930195762
0.0110475814360441
0.000112637797570913
0.000908932858433114
0.00210633409104147
0.000114089102795097
0.000925586359882344
0.002123146450182
0.00341074858915489
0.000113802143229554
0.000935915677727439
0.00214282984483115
0.00342298524499582
0.00465429178685223
0.000112236299793583
0.000934455378848119
0.00215299342032411
0.0034329445394961
0.00465802138243272
0.00577258566348735
0.000110166781045839
0.000923191285703036
0.00214561926830149
0.00343068221030648
0.00465302854333181
0.00576765033345378
0.0067483578837287
0.000107901256179872
0.000906646799370988
0.00212165234173889
0.00340916817247593
0.00463228810660525
0.0057478313459591
0.00673737230817561
0.0075865525461852
0.000105379029349717
0.000887229047599298
0.00208588349394598
0.00336794136619733
0.00459097409569633
0.00570836320314824
0.00670629902140632
0.00757221240209125
0.00830061852500989
0.000102467451616629
0.000865033988614907
0.00204123427012613
0.00330963939463636
0.00452799639630907
0.00564612553773914
0.00665141944775788
0.00753377206754969
0.00828424944275672
0.0089053033221867
9.9068755543649e-05
0.000839329116047229
0.00198793250893367
0.00323571974837854
0.00444371787552304
0.00555972857385109
0.00657025229422633
0.00746723754795644
0.00824074455306676
0.00888703263960272
0.00941392234551889
9.51111499927723e-05
0.000809310679850835
0.00192478808166367
0.00314558017074504
0.00433755999373536
0.00544785723521495
0.00646113388309723
0.00736984506187558
0.00816499271967329
0.00883918201531533
0.0093932293218022
0.00983791909867222
9.05383108342981e-05
0.000774219134552901
0.00185000381031689
0.0030371467759064
0.00420743025129537
0.00530814208255937
0.00632177086494569
0.00723960870573508
0.00805339617740145
0.00875523211966039
0.00934078297065538
0.00981397261153648
0.0101871553170916
8.52927978418709e-05
0.000733209100672471
0.00176129859482382
0.00290722752892794
0.0040498654432174
0.00513692387269968
0.0061485520056009
0.00707375191026516
0.00790356856498966
0.00863051519680613
0.00924868293479037
0.00975616911168151
0.0101589238452953
0.0104702195311765
7.92137676023768e-05
0.000684990059413524
0.00165550923013515
0.00275140703506194
0.00386002897527259
0.00492926227819158
0.0059365387013114
0.00686792810292685
0.00771247771315841
0.00846216871892991
0.00911115885576151
0.00965536187031744
0.0100946849886988
0.0104364637415366
0.0106945919335946