/*--------------------------------*- C++ -*----------------------------------*\
  =========                 |
  \\      /  F ield         | OpenFOAM: The Open Source CFD Toolbox
   \\    /   O peration     | Website:  https://openfoam.org
    \\  /    A nd           | Version:  12
     \\/     M anipulation  |
\*---------------------------------------------------------------------------*/
/*   Windows 32 and 64 bit porting by blueCAPE: http://www.bluecape.com.pt   *\
|  Based on Windows porting (2.0.x v4) by Symscape: http://www.symscape.com   |
\*---------------------------------------------------------------------------*/
FoamFile
{
    format      ascii;
    class       volScalarField;
    location    "100";
    object      omega;
}
// * * * * * * * * * * * * * * * * * * * * * * * * * * * * * * * * * * * * * //

dimensions      [0 0 -1 0 0 0 0];

internalField   nonuniform List<scalar> 
10116
(
4.36791340956999
4.38682818348291
4.29977011787198
1.49269326917748
4.4002525847489
4.31812980643668
1.49948792348283
4.22362599072838
1.47193773361019
0.927916567758418
4.40951387536103
4.3314432544622
1.50440007457085
4.24151536139396
1.47852772256694
0.931977030559626
4.14697092747033
1.44355814046635
0.920294662314845
0.718664536243396
4.41577305662582
4.34062292512843
1.50792753691762
4.25470464578171
1.48335474947434
0.93497360689875
4.16453189340663
1.44992027510465
0.924224186557435
0.721559723190105
4.08236001370059
1.41665331183821
0.907886967602673
0.715598997230437
0.618306745032636
4.4199201814306
4.34681428087544
1.5104274486717
4.26383819474285
1.48683466333829
0.937171705081669
4.17761801281778
1.45464144318724
0.927167005145961
0.723720925898747
4.09975936468661
1.42284763764268
0.911678254621317
0.718401633878672
0.620550583333587
4.02435234686022
1.39501006677667
0.894431287922128
0.709489629613062
0.617083642030517
0.563608815589947
4.42260200519984
4.35092441178252
1.51217586700963
4.26999954321664
1.48930206325899
0.938764612170578
4.18673903012956
1.45806627110611
0.929336087378927
0.725327048152869
4.11281676120064
1.42747766834499
0.91455282364566
0.72052650612174
0.622229555344894
4.04163086831396
1.40109486244577
0.898115110178926
0.712191428177595
0.619250815269013
0.565418484424719
3.96117055908804
1.37629519173912
0.88201527528302
0.701763916918295
0.613711130812442
0.563132571866147
0.531546297941147
4.42429707205207
4.35358780513135
1.51338258941531
4.27410950481954
1.49102924803329
0.939904727422074
4.19292177847604
1.46050285494084
0.930911043611336
0.726506720311506
4.12196182157625
1.43085636794977
0.916686379593983
0.722114196900824
0.623486173268887
4.05456699563175
1.40565509618684
0.90092535761597
0.714268925585483
0.620901950518951
0.566771108670179
3.97827727470862
1.38229316577898
0.885621895244904
0.7043878851348
0.615796128763748
0.564873784855793
0.533034999742951
3.88599538299062
1.35639823369416
0.870324525866983
0.693557900269941
0.608757103585844
0.560978884835094
0.531324468412428
0.511906921285966
4.42537104944535
4.3552661503706
1.51420852497627
4.27678145625683
1.4922226732308
0.940712274193827
4.19707254129348
1.46221378963032
0.932039616378199
0.727362745672135
4.12820232809577
1.43327104180322
0.918242124559392
0.7232831050106
0.624417001730647
4.06375947451437
1.40899760255587
0.903023037209378
0.715833379676332
0.622145457398436
0.567787068228136
3.99086205367976
1.38676958443202
0.888377815868872
0.706419013192797
0.617410911506864
0.566203121789089
0.534144176624298
3.90290210331514
1.36229989975296
0.873868876266529
0.696125969343218
0.610781721236796
0.562648158274119
0.532749179129212
0.513142908634201
3.79705533438146
1.33288823102565
0.858045301184061
0.685131566909852
0.602879684697069
0.557408912210961
0.52967991667754
0.511749006922813
0.499563852081579
4.42609870566142
4.35632728109291
1.51477802657619
4.27846353144152
1.49303984153321
0.941281720700529
4.19978675586922
1.46339930758654
0.932839690730832
0.72797817458086
4.13242194232782
1.43497357724152
0.919360467509436
0.724132413666506
0.625098664729467
4.07007850671832
1.41139657050042
0.904559673044416
0.716990688411478
0.623069063615168
0.568543651835722
4.00007060239512
1.39007356799835
0.890441855081824
0.707957873485721
0.618637972313495
0.567208918601117
0.534978536084685
3.91524448431827
1.36665097542523
0.876572459048506
0.698117126155361
0.612361464420238
0.563947434542013
0.533837589066543
0.514059447477172
3.81371408385242
1.33866483545495
0.861525948584408
0.687655619780438
0.604863820349075
0.559028497967449
0.531038766361598
0.512923576757621
0.500593608555495
3.69325510091615
1.30503938002574
0.844203698823534
0.676190184569036
0.596460649945547
0.552879188372388
0.526797471310322
0.510308889059613
0.499418989862957
0.491720980650856
4.42668350657769
4.35704605619501
1.51518631951266
4.27952762997667
1.4936035186017
0.941686939366006
4.20150004776689
1.46421280898116
0.933404277994569
0.728419607394749
4.13519710510856
1.43615765289092
0.920155431602867
0.724743537605013
0.625593760306311
4.07437587534893
1.4130946702944
0.905668579127146
0.717834400682204
0.623746383185032
0.569101247949266
4.00643902965818
1.3924552797578
0.891959212131243
0.709101847829259
0.619554251130481
0.567960287762829
0.535601962676489
3.92425975510367
1.36989564163993
0.878601501971127
0.699630442300257
0.613570130294504
0.564940815355998
0.534663454588857
0.514748996020134
3.82586767793239
1.34288779293168
0.864169792852728
0.689610766335017
0.606414481354215
0.560300087080842
0.532100917983017
0.513820752236837
0.50135240036647
3.70958451319262
1.31066179819971
0.847608356000353
0.678672303902654
0.598415923870072
0.554469403981079
0.528113642300838
0.511421479937156
0.50038899067104
0.492579516804877
3.57271454396389
1.27259627128208
0.828370728597217
0.666406022296226
0.589582473878566
0.547783733415458
0.523071092727692
0.507786744670662
0.498077077831515
0.491585751625213
0.486750826064181
4.42727472991482
4.35762441580154
1.51550542539975
4.28024805474926
1.49400784778689
0.941985166504764
4.20258900500547
1.46477522499101
0.933806326319635
0.728739866097643
4.13695561028338
1.43697266702259
0.920717766076907
0.725182184351876
0.625953224084303
4.07720280862242
1.41427959922211
0.90645955514068
0.718443141355049
0.624238744292982
0.569509350850279
4.01076224927566
1.39414607872125
0.893057822520813
0.709939212865815
0.620228640495449
0.568514916920996
0.536063558407603
3.93063240569681
1.37224813255863
0.880096991841559
0.700759279016085
0.614477576750234
0.565687466347587
0.535282859091003
0.51526534730099
3.83461067159934
1.34602969608194
0.866156577175724
0.691098162106652
0.607604847750285
0.56128001328994
0.532916859188535
0.514502783570369
0.501922809888237
3.721508942308
1.31475259578868
0.850184288094278
0.680590891326929
0.599942493409498
0.555720090649676
0.529153087852492
0.512294796602084
0.501129302870929
0.493206969742757
3.58859435391929
1.27803415889432
0.831682692152721
0.668841994534727
0.591513223249438
0.54935728627062
0.524366121472119
0.508861544203444
0.498987800392936
0.492385785860948
0.487466627191122
3.43288081618241
1.23518734506779
0.810398188657108
0.655611184243022
0.582218377057559
0.542339973265361
0.518887272254811
0.504574324862877
0.495777528679961
0.490314181921883
0.486630795305544
0.483651911527683
4.42798258882172
4.35821113698574
1.51578932846303
4.28082640844661
1.49432399338456
0.942220280628729
4.20332868371962
1.46517942840358
0.934102438239356
0.728980344570474
4.13808227036001
1.43753793740368
0.921119108648938
0.725500632987272
0.626217988676988
4.07900022584688
1.41509754225764
0.907020816819557
0.718881100956955
0.624596447103286
0.569808615233896
4.01359799127687
1.39532797700241
0.893843828259276
0.710545476976136
0.620720235775576
0.568921222585472
0.536403521076821
3.93494323072691
1.37392109815348
0.881182269145186
0.701588260057485
0.615148364802098
0.566240835557309
0.535742331095021
0.515649018998584
3.84082562758124
1.34833057913838
0.867624283410143
0.692209659840954
0.608501799005775
0.562021095836548
0.533533204696802
0.515015806287367
0.502350500790108
3.73005975935796
1.31777031443091
0.852117375472556
0.682050091391522
0.601115235221338
0.556687510462829
0.529959025951138
0.512968483361855
0.501692784884141
0.493677775341441
3.60021893402028
1.28197914595208
0.834180287872926
0.670720569629383
0.593017845141167
0.55059332079162
0.525390894559553
0.509715673156492
0.499705886124035
0.492995393401189
0.487984211995378
3.44816447006525
1.24040863922143
0.813596812376185
0.657993968030818
0.584124826326089
0.543903333103401
0.520175514512729
0.505634288686599
0.496654087156127
0.491056982906611
0.487289153402934
0.484249320202401
3.27031316256941
1.19226111363179
0.790223336782863
0.643805435001599
0.574386062147441
0.536662432715753
0.514505094494523
0.501053466527752
0.492930668789472
0.488182011368722
0.48542442018717
0.483550719766269
0.481780150223938
4.42888486800129
4.35891441338547
1.51607811791305
4.28141010769204
1.49460520537997
0.942425592297103
4.20391994180109
1.46549564738845
0.934336045351083
0.729173126154563
4.1388515263134
1.43794512727847
0.921415228005899
0.725739921207134
0.626420486717779
4.08015908214514
1.4156666405647
0.907422526411119
0.719199689000585
0.624860064559963
0.570032120689767
4.01542257195792
1.39614550753264
0.894403125235563
0.710983000187672
0.621078200705456
0.569219365761839
0.536655101626399
3.93776355152137
1.37509095791654
0.881960300968837
0.702190279907853
0.615639117395655
0.566647420786746
0.536081090622056
0.515933146584502
3.84506508473485
1.3499720419528
0.86869116404217
0.693027539727629
0.609167121045447
0.562572980694016
0.533992508172433
0.515397866000356
0.502669197619161
3.73607477944156
1.31998908633834
0.853548586662228
0.683141331238387
0.602000336420043
0.557422084539863
0.530572155550949
0.513479503087463
0.502117581685046
0.494030972447208
3.6085413113399
1.28488320567648
0.836049957552015
0.672147577176613
0.594172981039125
0.551550070429019
0.526188865929878
0.510381828346265
0.500262078693142
0.49345969161632
0.488371351756266
3.45937569404287
1.24419073550235
0.816000698101193
0.659827334693088
0.58560742664479
0.545128773290583
0.521193289576821
0.506478569538951
0.497355602026802
0.491645569079877
0.487789412293444
0.484675348493663
3.28488078675791
1.19723834270554
0.793298691527194
0.646126692568713
0.576266725863357
0.538218845045242
0.515795073215997
0.502114686927229
0.493797357154567
0.488893460181097
0.486027179344669
0.48409161870078
0.482280423663894
3.08025685219017
1.1431714643899
0.767904974878453
0.631159368580481
0.566232135551293
0.530888912361997
0.510104656499194
0.497494044785548
0.489920331077177
0.485621495487755
0.483434599374182
0.482407423161725
0.481698398837042
0.480709028334683
4.4300189620912
4.35981201856166
1.51640093970386
4.28210634936659
1.49489098401414
0.942626192655811
4.20450974966314
1.46577619719901
0.934540120286165
0.729342863619047
4.13946293274953
1.43826354882036
0.92164898665012
0.725931886499433
0.626586126476943
4.08095292589978
1.41607749793685
0.907719533546969
0.719439429895066
0.625061811155749
0.570206286613065
4.01660718985512
1.39671559706329
0.894804467356807
0.711302113875386
0.621342496198848
0.56944212952541
0.536845568435596
3.93959140748009
1.3759021852358
0.882515022707797
0.702625960451244
0.615997581933446
0.566946463016435
0.536331957435459
0.516145289081971
3.84786469282481
1.3511212604062
0.869456944305907
0.693622698698652
0.60965542357575
0.562980059256817
0.534332250220153
0.515681164626279
0.50290641954315
3.74021633710492
1.32158412771008
0.85459091960444
0.683945108231926
0.602658153263451
0.557971191978319
0.531031549816513
0.513862100768403
0.50243499230582
0.494294761310262
3.61437241583683
1.28701483834166
0.837435597991308
0.673214846500072
0.595044982990901
0.552277749647658
0.526798719788942
0.510891344721516
0.50068557592201
0.493810302027983
0.488661678500246
3.46739803269356
1.24697778076739
0.81780027697242
0.661217755596152
0.586744096124089
0.546076484931046
0.521986354880576
0.507140338063283
0.497906103229429
0.492103342777954
0.488170381832879
0.484992427730126
3.29557858634954
1.2008398075934
0.795602536193413
0.647908603802226
0.577726115185251
0.539436038321856
0.516811590677366
0.502958243194849
0.494492850409384
0.489467499909519
0.486507360769318
0.484500768401654
0.48263087345911
3.09401071076188
1.14787634415738
0.770846462971109
0.633412208858646
0.568085006444395
0.532440401324843
0.51140203302245
0.498566969189372
0.490794857430842
0.486327037741763
0.484008227022249
0.482894055690015
0.482142991439938
0.481130749577097
2.85746823209437
1.08735382292152
0.743785366354274
0.618098031900679
0.558103279565841
0.525280767757606
0.505898519389298
0.494107929134238
0.487020628450207
0.483022872396453
0.481112417646263
0.480543991760028
0.480614353099003
0.480645419255961
0.480152123929947
4.43137987453912
4.36096011052316
1.51677761068016
4.2829919659563
1.49521019847509
0.942840825536682
4.20520424961308
1.46605993254803
0.934739508361262
0.729508409850071
4.14006400584026
1.43854508807953
0.921852966377874
0.726101006215616
0.626734663817916
4.08158154292034
1.41639866732134
0.90795411707121
0.719631856042408
0.625226951858461
0.57035202393361
4.01741890873669
1.39712776628305
0.895101781307752
0.71154270199682
0.621545009368167
0.569615812489553
0.536996956720433
3.94078434439206
1.37646901143225
0.882913834327678
0.702944519651258
0.616262917149241
0.567170277402982
0.536521984325794
0.516308236665029
3.84975377355486
1.3519211781111
0.870003712269683
0.69405426559493
0.610013128409111
0.563280426950087
0.534584457107042
0.515892864767303
0.503085176540642
3.74300510164429
1.3227076329002
0.855340086938662
0.684530600603485
0.603141937151121
0.558377609193692
0.531372818410015
0.514146846707818
0.502671629247618
0.494492089910835
3.61837651526401
1.28855551004905
0.838447335225336
0.674001368786074
0.595693504364743
0.552822821239832
0.52725759613093
0.511275201587158
0.501003994488778
0.494073036354931
0.488878877471618
3.47300405664365
1.24902267895868
0.819134866635154
0.662257277186185
0.587601622827172
0.546797295604589
0.52259354795427
0.507649172352369
0.498329379591609
0.492453157469665
0.488458366042645
0.485229836095351
3.30322138294219
1.20349404248728
0.797324317305913
0.649258333928226
0.57884310010502
0.540375843755486
0.517602755913585
0.503619877448722
0.49504182298145
0.489921006761876
0.48688239538403
0.484811962235156
0.482889769439987
3.1041293470511
1.15127298304433
0.773045600728893
0.635138116141502
0.569519646844879
0.533650847382667
0.512421560624019
0.499417074441867
0.491494784728003
0.486898125294296
0.484475456350385
0.483283881412835
0.482476947238275
0.481419609708105
2.87035476379688
1.0917544142683
0.746583425979483
0.620279533660055
0.55992709918367
0.526829312900489
0.507208007374481
0.495200296603098
0.48791517318624
0.483741619427484
0.481683286329449
0.481003231985774
0.481005759646141
0.481012188562784
0.480511339216565
2.59901183252404
1.02524372111582
0.718876294107844
0.605514951060553
0.550671615051346
0.520317521185221
0.50223113738216
0.491155031409258
0.484461640978119
0.480664676913501
0.478855821596683
0.478425753931762
0.478863378373842
0.479615087810645
0.480104536386303
0.479916816353193
4.43290517296845
4.36238003431142
1.51721988114608
4.28412800601859
1.49558336870853
0.943083445444067
4.20607999354609
1.46637544531558
0.934952777826217
0.729684229162784
4.14076079842052
1.43882824913227
0.922051748002577
0.726266008561807
0.62688141483146
4.08219236872592
1.416681658628
0.908158497627595
0.719801254679637
0.625375139307863
0.570485842954853
4.01805814772326
1.39744999224678
0.89533675611207
0.711735913577793
0.621710828065547
0.569761260045852
0.537126927748197
3.94160902275077
1.37687910091522
0.883209739400421
0.703185136565246
0.616466562049248
0.567344948039193
0.536673108404076
0.516440586853038
3.85102005196354
1.3524820146157
0.870397368239503
0.694370400436309
0.61027855454743
0.56350578326669
0.534775812985522
0.516055566710968
0.503224655235599
3.74485843829431
1.32350133848816
0.855875969170542
0.684955628604074
0.603497049293215
0.558678394279055
0.531627016830429
0.514360186537556
0.502850125021321
0.494642248529498
3.62105907344787
1.28964960407238
0.83917634942883
0.674574619943698
0.596170885624789
0.553227125343166
0.527599760081509
0.51156225869802
0.501242390521882
0.494269955470551
0.48904214784287
3.47683214812173
1.25049908291791
0.820111530367802
0.663023623959382
0.588239276961117
0.547337524950074
0.523051445364002
0.508034361356602
0.498649943604518
0.492717234644246
0.488674693813996
0.485407596731659
3.30854324210779
1.20543935682188
0.798602628471778
0.650267017617912
0.579684878148684
0.541089952165568
0.518208413040342
0.504129613566967
0.495466513278596
0.490271595576847
0.48716996750944
0.485047232119142
0.483082960661358
3.1113301568476
1.15377549561425
0.774687145891467
0.636443575087203
0.570615785120075
0.534583591118369
0.513213487716077
0.500082817989429
0.492047582725675
0.487352410347924
0.484847344200427
0.483589602614394
0.482730197232838
0.481630731583352
2.87986979039099
1.09492127312355
0.748670515637504
0.621946292625329
0.561336165999579
0.528034485401105
0.508234146643355
0.496062851564778
0.488628188431296
0.48432137920347
0.482150020586306
0.481381352900778
0.481320983377319
0.481284876897834
0.480750746917962
2.61129521891326
1.02930691105028
0.721522452451635
0.60762465503999
0.552466979727311
0.521865887234238
0.503557562716524
0.492273787723965
0.485385756472003
0.481410317707033
0.479444208494591
0.478884678468534
0.479228714004309
0.47992952854435
0.480409430834632
0.48022714436976
2.2161134346418
0.960328437012087
0.695894395861765
0.595266224405539
0.545187164009559
0.516843516564081
0.499679981177954
0.489038468816527
0.48253493264362
0.478789819689776
0.476948452161287
0.476457572223904
0.476920900084413
0.477963021392801
0.479121579624452
0.479882951782114
0.479874510594483
4.4345052154807
4.36389237506944
1.51773496439642
4.28554235806882
1.49602369657522
0.943364972257748
4.20719831931924
1.46674270313872
0.935193749452749
0.729881694521236
4.14162880125143
1.43914154040023
0.922263715823721
0.726441259772928
0.627038368290585
4.08289092541687
1.41696463178328
0.908357003228608
0.719966233999068
0.625521614324444
0.570620659535654
4.01867251530426
1.39773313940486
0.895541226965847
0.711905810700971
0.621859503495517
0.569894884553862
0.537249496492919
3.94229811565481
1.37720022668311
0.883443794053325
0.70337851811554
0.616633359047625
0.567491222751559
0.536802912095455
0.516557369579843
3.85189736498741
1.35288950801977
0.870689802716315
0.694609560824554
0.610482626117484
0.563681897405714
0.534928099602121
0.516187782609969
0.503340636951585
3.74608946300241
1.32406372722164
0.856262491032632
0.685267342548885
0.603761049245287
0.558904617584513
0.531820342019769
0.514524408416896
0.502989488869237
0.494761453651908
3.62282772121813
1.29041975962625
0.839699772320176
0.674991083367119
0.596521670654606
0.553526980437249
0.527855439317052
0.511778110001092
0.501422729279972
0.494419985464907
0.489167714102405
3.47938045871091
1.25154572894651
0.820817151550394
0.66358248088941
0.588708708774941
0.547738591308829
0.523393678226967
0.508323616507585
0.498891254170218
0.492916133633727
0.488837693368047
0.485541845615363
3.3121542725241
1.20684188267853
0.799539941178593
0.651010815160328
0.580310445267211
0.54162491337556
0.518665387414106
0.504516441025137
0.495789922431278
0.490538506392676
0.487387890678991
0.485224274134228
0.483227549680115
3.11630456387144
1.15560693757275
0.775905273773559
0.637418845576818
0.571440846139242
0.535291273610733
0.513818971820925
0.500595567316546
0.492476158523342
0.487706115858815
0.485136472843117
0.483824756983396
0.482921419603188
0.481787335553803
2.88658933100799
1.09725308291112
0.750226752329033
0.623205311666984
0.562410869943846
0.528961187850947
0.509029310918234
0.496736656820182
0.489190162767246
0.484782765002073
0.48252454555099
0.481684802349397
0.481569114306362
0.481490547088907
0.480923138149909
2.6204372399364
1.03221877067411
0.723491415665978
0.60923324836524
0.553851069696087
0.523067910648854
0.504593954188555
0.493154134877053
0.486119185145906
0.482008613232045
0.47992306021176
0.47926423757741
0.479533180342215
0.480183930086784
0.480632926315632
0.480427492846196
2.21610968677025
0.963942889506561
0.698381513482353
0.597306824006005
0.54695881385166
0.518396225560789
0.501029168476003
0.490190822373884
0.483497486292356
0.479573481776073
0.477569326006736
0.476937393443853
0.477287742086073
0.478252345072676
0.479374804758689
0.48013949416926
0.480147437846566
2.2869972684867
0.902660841129798
0.681867214437404
0.591314280193593
0.544019444460174
0.516344627970704
0.499211608585417
0.488407174643105
0.481685573250843
0.477712443235241
0.475643385675525
0.474928016614021
0.475197018522219
0.476171522140473
0.47755529240075
0.478940978147774
0.47985224409837
0.479940148939883
4.36525593255653
1.51833239437279
4.28700953689048
1.49653135088071
0.943697336312246
4.20858226796012
1.46717720748804
0.935473196472302
0.730110405630719
4.14272589157152
1.43950642043409
0.922502482794138
0.726638031474102
0.627215239920799
4.08375015298827
1.41727590666357
0.908567833320341
0.720141071423662
0.625678302587143
0.570766810153273
4.01936546433394
1.39801480249896
0.895739247165771
0.712070862295243
0.622006219087424
0.570029569957466
0.537375851471954
3.94293129170379
1.37748133545297
0.883647313932482
0.70354844671701
0.616782725841417
0.567625456224669
0.5369253823172
0.516670719894503
3.85257593013835
1.35321364844077
0.870921379998851
0.694801957957281
0.610649875663954
0.563829363858772
0.535058835907913
0.516304508190154
0.503446073482173
3.74693711294787
1.3244723328459
0.856550101613697
0.685503435891111
0.603964341696628
0.559081683375851
0.531974349879662
0.514657907501717
0.503105445314366
0.494863193823145
3.62398924643857
1.29096275799509
0.840078622426315
0.675296800558062
0.596782762132459
0.553752933772641
0.528050358880713
0.511944644103906
0.501563743984401
0.494539178797585
0.489269328155085
3.48104489325774
1.25227873584326
0.821324326149068
0.663988830235259
0.589053771765975
0.548036364237154
0.5236499764273
0.50854185856481
0.499074510886256
0.493068151179456
0.488963235002976
0.485646291863096
3.31453513246571
1.20783273310195
0.800218242804506
0.651553474680013
0.58077082888473
0.542022032228103
0.519007234470559
0.504807666177479
0.496034511392382
0.490740793102303
0.48755303523512
0.485358368329583
0.483337203847066
3.11963551173997
1.15692122655638
0.776798045089287
0.638138171909732
0.57205349042021
0.535820851830364
0.514275515633611
0.500984866554547
0.492803422989544
0.487977112828158
0.485357772796546
0.484003587328693
0.483065416083623
0.481904250386831
2.89116289081741
1.09895662642653
0.751380767664803
0.624145538559721
0.563218810704221
0.529663071999102
0.50963614602199
0.49725479367754
0.489625620110105
0.485142844210204
0.48281817169182
0.481922123833035
0.481760443018351
0.481645317891913
0.481049776088105
2.6267997312957
1.0343602340211
0.724958788215786
0.610446764096045
0.554904994670985
0.523990197400008
0.505394994156084
0.493839830061992
0.486695410953388
0.482483426639196
0.480307372620294
0.479571800008557
0.479779702124335
0.480384734044678
0.480800014352589
0.480568888589514
2.21610871984906
0.966519022069517
0.700228316411207
0.598860161307862
0.548321365751863
0.519598661955368
0.502080234974863
0.491094435070845
0.484258165449612
0.480198879926684
0.478071196220124
0.477331815949474
0.47759511989071
0.478496671173233
0.479580323294731
0.480324125112552
0.480317589054281
2.28698419106163
0.904886714481711
0.684170735873634
0.593296071747671
0.545776479394715
0.517909414714214
0.500591290859228
0.489601445921519
0.482695834151986
0.47854465930389
0.476309225269711
0.475444765667557
0.475587304846957
0.476463630815324
0.477784037409744
0.47914633470925
0.480071818155092
0.480185875844206
2.38167969099607
0.926806141879106
0.695298202725972
0.602590229510787
0.551890248104736
0.521519641984156
0.502471016920248
0.490315518199406
0.482614419834909
0.477908329100093
0.475271673944386
0.474098410740181
0.473984371478653
0.474654158679609
0.475892492319825
0.477448132947606
0.478945314368353
0.479927812540422
0.480056866467289
4.28819097764859
1.49710284270582
0.944099115056063
4.20997080359728
1.46768014100115
0.935802216801603
0.730380565330257
4.14406907769052
1.43993631746995
0.922778719006446
0.726865767531703
0.627420460463949
4.0848200269322
1.41763703629675
0.908804575343915
0.720336934106475
0.625854851185505
0.57093278162451
4.02020502182005
1.39832282330933
0.895948827859235
0.712245247024756
0.622162858971091
0.570175576704911
0.537515020202844
3.94360087436039
1.37775864542291
0.883843984820912
0.703713213736307
0.616929774186541
0.567760512339079
0.537051664007952
0.516790461378705
3.85319269711059
1.35349373255299
0.871122539399968
0.694971020652107
0.610799535871634
0.563964464518591
0.535181991784544
0.51641783617987
0.503551518029945
3.74758650218232
1.32478950014023
0.856778363458125
0.685693565296719
0.604131109991705
0.559229981954023
0.532106466468828
0.51477564841978
0.503210890093094
0.494958618680546
3.62478081114804
1.29135543946242
0.84036066132368
0.675528588116202
0.596984062714601
0.553930042527623
0.528205824364416
0.512080093025113
0.501681071166638
0.494640956717939
0.489358535535182
3.4821226791428
1.25279243638967
0.821692540243848
0.664287419870249
0.589310765736352
0.548261009737072
0.523845728657533
0.508710622540864
0.49921811069036
0.493189089572231
0.489064914278017
0.485732625220243
3.31606326636827
1.20852183359073
0.800705579168826
0.651948156532687
0.581109214911759
0.542316934643176
0.519263515936141
0.505027899099314
0.496220924732361
0.490896050081671
0.487680670796298
0.485462871815158
0.483423575903125
3.12179002462789
1.15784364058685
0.777443198274879
0.638663116247488
0.57250409689943
0.536213686972437
0.514616962722414
0.501278212801324
0.493051611043843
0.488183572035213
0.485526678162122
0.484139951668079
0.483175010051824
0.48199319439037
2.89415342393191
1.10017383310812
0.752225248638698
0.624839053335403
0.563818233186827
0.530187586592084
0.510093081356394
0.497647842002492
0.489958271985863
0.485419561164807
0.483044569987638
0.482104754630327
0.481906369378375
0.481761740578949
0.481143778292785
2.63098749188839
1.03591973467129
0.726046774590367
0.611352315790636
0.555696452747893
0.524687506637444
0.506005001211922
0.494365921513561
0.487141006417785
0.482853657721777
0.480609429824164
0.479814723076741
0.47997365883505
0.480539762963671
0.480924920296121
0.48067118807765
2.21610684513456
0.968410245958656
0.701605731084174
0.600031554716588
0.549357462880826
0.520519406164929
0.502890491285468
0.491796056649148
0.484853631187504
0.480693177211346
0.478472467036982
0.477651334017047
0.477846893714293
0.478696338355109
0.479742701943615
0.480460317376031
0.480434487309699
2.28700717368183
0.906492863941027
0.68588655072397
0.594803982737011
0.547125720387064
0.51911848502833
0.501662998769495
0.490534614199976
0.483490818621747
0.479205292113052
0.476843752188235
0.475865826519792
0.475911672100984
0.476711937318877
0.47797992713729
0.479313168164571
0.480226364919167
0.480333603725965
2.38166628498341
0.928425328877602
0.697320846313581
0.604531461604161
0.553651534186883
0.523110051072207
0.503892239788948
0.491562247931754
0.48368295831216
0.478800165103292
0.475994445164645
0.47466571061549
0.474414999465809
0.474971534649788
0.476124840091714
0.47762938080986
0.47911401879844
0.480120462710993
0.480286754792087
3.68516441843931
1.18645583097746
0.793762875675176
0.650753553472698
0.578885659961934
0.537565849424073
0.512371886484544
0.496519171733488
0.486440578796218
0.480117066021706
0.476332135554602
0.474312775187317
0.473550826662007
0.473706523368297
0.474548715406983
0.475894039001482
0.477514722791494
0.479050887233546
0.4800538055783
0.480176971927807
4.21103402570521
1.46822599487974
0.936195861373952
0.730706752221634
4.14537960828032
1.44042320326116
0.923103489690897
0.727134426244943
0.62766272487794
4.08610599752184
1.41806052890093
0.909077497003344
0.720563043381053
0.626059568759439
0.571126114740426
4.02123309999781
1.39867834170324
0.896183471906734
0.712440045228115
0.622339014706958
0.570341372072814
0.537674682891771
3.94436597149796
1.37805914693556
0.88405160432497
0.703886885684432
0.617086344313443
0.56790662903348
0.537190769534955
0.516924673671192
3.85383634618106
1.35376247874121
0.87131638039044
0.695134806232193
0.61094661027721
0.564100034197487
0.535308708818311
0.516537553506235
0.503665687026443
3.74817736604843
1.32506050131917
0.856976076472559
0.685860693425237
0.604280352093944
0.559365684124447
0.53223063344709
0.514889720183913
0.503316360054054
0.495057000903987
3.62538288669837
1.29165793273536
0.840583519687827
0.675715448051962
0.597149381037019
0.554078473310996
0.528339139726573
0.51219937323724
0.501787586742036
0.494736448387517
0.48944500009711
3.4828435046238
1.25316155736366
0.82196669627166
0.664513935119156
0.589509089327655
0.548437290191442
0.524002033046877
0.508847978452741
0.499337573676302
0.4932922967794
0.489154219398711
0.485810772018881
3.31702669772503
1.20900111560491
0.801057738931284
0.652238381218559
0.581361280490915
0.542539520014384
0.519459459050227
0.505198485929554
0.49636729697795
0.491019792205881
0.487784164094344
0.48554933634613
0.483496667009982
3.1231295665147
1.15848070673095
0.77790536711759
0.639044838256385
0.572835146026542
0.536505287738091
0.514872961772102
0.501500269172781
0.493241204436235
0.488342625866896
0.485657808354183
0.484246627659749
0.483261509942894
0.482064174780333
2.89601719012439
1.10102202223364
0.75283394434138
0.62534511825048
0.564258807204968
0.530576225021841
0.510434483942303
0.497943898904541
0.490210756542002
0.485631001596088
0.483218382833243
0.48224517148525