/*--------------------------------*- C++ -*----------------------------------*\
  =========                 |
  \\      /  F ield         | OpenFOAM: The Open Source CFD Toolbox
   \\    /   O peration     | Website:  https://openfoam.org
    \\  /    A nd           | Version:  12
     \\/     M anipulation  |
\*---------------------------------------------------------------------------*/
/*   Windows 32 and 64 bit porting by blueCAPE: http://www.bluecape.com.pt   *\
|  Based on Windows porting (2.0.x v4) by Symscape: http://www.symscape.com   |
\*---------------------------------------------------------------------------*/
FoamFile
{
    format      ascii;
    class       volScalarField;
    location    "100";
    object      p;
}
// * * * * * * * * * * * * * * * * * * * * * * * * * * * * * * * * * * * * * //

dimensions      [0 2 -2 0 0 0 0];

internalField   nonuniform List<scalar> 
10116
(
83333.3316287146
83333.3315823987
83333.3316287465
83333.3316270754
83333.3315352676
83333.3315824033
83333.3315808815
83333.3316287828
83333.3316271844
83333.3316265224
83333.331487429
83333.3315352425
83333.331533896
83333.331582432
83333.3315809446
83333.3315803718
83333.3316288083
83333.3316272443
83333.3316266529
83333.3316299493
83333.3314388799
83333.331487421
83333.3314861833
83333.3315352678
83333.3315339204
83333.3315334536
83333.33158249
83333.3315809906
83333.3315805112
83333.3315835576
83333.3316288388
83333.3316273119
83333.3316267893
83333.3316299746
83333.3316373699
83333.3313896548
83333.3314388926
83333.3314377529
83333.3314874733
83333.3314862171
83333.3314858099
83333.3315353502
83333.3315339529
83333.3315335561
83333.3315364205
83333.3315825799
83333.3315810975
83333.3315806803
83333.3315836409
83333.3315904654
83333.3316288961
83333.3316274578
83333.331627004
83333.3316301121
83333.3316373425
83333.3316484555
83333.3313397931
83333.3313896814
83333.3313886402
83333.3314389705
83333.3314377971
83333.3314374436
83333.3314875917
83333.3314862711
83333.3314859052
83333.3314885904
83333.3315354888
83333.3315340784
83333.3315337165
83333.3315364879
83333.3315428591
83333.3315827136
83333.3315813035
83333.3315809441
83333.3315838643
83333.3315905039
83333.3316008113
83333.3316290044
83333.3316276899
83333.3316273142
83333.3316304154
83333.3316374296
83333.3316483898
83333.3316626258
83333.3312893275
83333.3313398306
83333.3313388781
83333.3313897782
83333.3313886937
83333.3313883935
83333.3314391233
83333.331437873
83333.3314375381
83333.3314400656
83333.3314877842
83333.3314864173
83333.3314860615
83333.3314886393
83333.3314946189
83333.3315356903
83333.3315343228
83333.3315339898
83333.3315367217
83333.3315428919
83333.3315525302
83333.3315829141
83333.3315816053
83333.331581311
83333.3315842375
83333.3315906907
83333.3316007906
83333.3316140408
83333.3316291862
83333.3316279824
83333.3316277181
83333.3316308017
83333.3316376744
83333.3316483864
83333.3316625303
83333.3316793338
83333.3312382763
83333.3312893765
83333.3312884977
83333.3313399438
83333.3313389424
83333.3313386934
83333.3313899594
83333.3313887885
83333.3313884912
83333.3313908752
83333.3314393624
83333.3314380431
83333.3314376972
83333.3314401069
83333.3314457389
83333.3314880558
83333.3314866936
83333.33148634
83333.3314888663
83333.3314946323
83333.3315036939
83333.3315359774
83333.3315346868
83333.3315343837
83333.3315371158
83333.3315430999
83333.3315525067
83333.3315649217
83333.3315832022
83333.3315819836
83333.3315817779
83333.3315846949
83333.3315910596
83333.3316008947
83333.3316140003
83333.3316296378
83333.3316294762
83333.3316283842
83333.3316282084
83333.3316312632
83333.3316380532
83333.3316485023
83333.3316624553
83333.3316792132
83333.3316980652
83333.3311866505
83333.3312383361
83333.3312375167
83333.331289508
83333.3312885721
83333.3312883692
83333.3313401513
83333.3313390553
83333.3313387959
83333.3313410566
83333.3313902389
83333.3313889827
83333.3313886581
83333.3313909204
83333.3313962411
83333.3314396947
83333.3314383529
83333.3314379848
83333.3314403328
83333.331445744
83333.331454295
83333.3314884254
83333.331487112
83333.3314867542
83333.3314892678
83333.3314948399
83333.3315036552
83333.3315153508
83333.3315363629
83333.3315351465
83333.3315349004
83333.3315376129
83333.3315435277
83333.3315526415
83333.331564879
83333.3315795563
83333.3315836017
83333.3315824772
83333.3315823462
83333.3315852327
83333.3315915192
83333.331601142
83333.331614005
83333.3316295783
83333.331647145
83333.33162991
83333.3316289218
83333.3316288179
83333.3316318134
83333.3316384626
83333.3316487207
83333.3316624087
83333.3316790524
83333.331697922
83333.3317183593
83333.3311344566
83333.3311867195
83333.3311859466
83333.3312384857
83333.3312376008
83333.3312374373
83333.331289744
83333.3312887045
83333.3312884785
83333.3312906382
83333.331340471
83333.3313392749
83333.3313389754
83333.3313411126
83333.3313461629
83333.3313906289
83333.3313893238
83333.3313889586
83333.3313911539
83333.3313962507
83333.3314043499
83333.3314401309
83333.3314388136
83333.3314384206
83333.3314407394
83333.3314459567
83333.3314542529
83333.3314653189
83333.3314888984
83333.3314876449
83333.3314873139
83333.331489789
83333.3314952978
83333.3315038007
83333.3315152987
83333.3315291542
83333.3315368621
83333.3315357273
83333.3315355393
83333.3315382105
83333.3315440443
83333.3315529814
83333.3315649193
83333.3315795078
83333.3315960061
83333.3315841397
83333.3315831138
83333.3315830425
83333.3315858755
83333.3315920365
83333.3316015118
83333.3316140983
83333.3316295185
83333.3316470702
83333.3316661552
83333.3316305124
83333.3316295955
83333.3316295647
83333.3316324766
83333.3316389376
83333.331648979
83333.3316623855
83333.3316788384
83333.3316976776
83333.3317181862
83333.3317397902
83333.3310816979
83333.3311345325
83333.331133793
83333.3311868857
83333.3311860394
83333.3311859073
83333.3312387498
83333.3312377517
83333.3312375549
83333.3312396338
83333.3312901062
83333.3312889511
83333.3312886735
83333.3312907077
83333.3312955305
83333.3313409207
83333.3313396491
83333.3313392929
83333.3313413606
83333.3313461854
83333.3313538932
83333.3313911356
83333.3313898252
83333.3313894168
83333.331391567
83333.3313964796
83333.3314043165
83333.3314148339
83333.3314406865
83333.3314394145
83333.3314390173
83333.3314412812
83333.3314464318
83333.3314544127
83333.3314652643
83333.331478409
83333.3314894918
83333.3314883058
83333.3314880155
83333.3314904356
83333.3314958517
83333.3315041966
83333.3315153586
83333.3315291062
83333.3315447046
83333.3315374996
83333.3315364517
83333.3315363171
83333.3315389343
83333.3315446446
83333.3315534264
83333.3315651121
83333.3315794894
83333.3315959477
83333.3316139075
83333.3315848403
83333.3315838821
83333.3315838855
83333.3315866442
83333.3315926374
83333.331601897
83333.3316142699
83333.3316294511
83333.3316469412
83333.3316660633
83333.3316862981
83333.3316313288
83333.3316304453
83333.3316304513
83333.3316332712
83333.3316395076
83333.3316492475
83333.3316623626
83333.3316785394
83333.3316972565
83333.3317178184
83333.331739551
83333.3317619495
83333.3310283799
83333.3310817785
83333.3310810611
83333.3311347128
83333.3311338929
83333.331133783
83333.3311871763
83333.3311862074
83333.3311860333
83333.331188048
83333.3312391531
83333.3312380255
83333.3312377659
83333.3312397172
83333.3312443534
83333.3312906137
83333.3312893611
83333.3312890113
83333.3312909752
83333.3312955704
83333.3313029458
83333.3313415068
83333.3313401972
83333.3313397766
83333.3313417842
83333.3313464358
83333.3313538777
83333.3313639247
83333.3313917835
83333.3313904938
83333.331390049
83333.3313921291
83333.3313969628
83333.3314044985
83333.3314147835
83333.3314273153
83333.3314413856
83333.331440151
83333.3314397766
83333.3314419694
83333.3314470152
83333.3314548523
83333.3314653517
83333.3314783657
83333.331493194
83333.3314902433
83333.3314891118
83333.3314888666
83333.3314912289
83333.331496517
83333.331504703
83333.3315156352
83333.3315290947
83333.3315446516
83333.3315616617
83333.3315383166
83333.3315373126
83333.3315372475
83333.3315397992
83333.3315453535
83333.3315539363
83333.3315654167
83333.3315795259
83333.3315958718
83333.3316138369
83333.3316329336
83333.3315857692
83333.3315848234
83333.3315848724
83333.3315875569
83333.3315933494
83333.3316023422
83333.3316144371
83333.3316293719
83333.3316467165
83333.3316658534
83333.3316861672
83333.3317072114
83333.3316324262
83333.3316314804
83333.3316314991
83333.3316342058
83333.3316401925
83333.3316495861
83333.3316623224
83333.3316781537
83333.3316966416
83333.331717172
83333.3317390482
83333.3317616442
83333.3317845109
83333.3309745147
83333.3310284623
83333.3310277578
83333.33108197
83333.3310811651
83333.3310810681
83333.3311350276
83333.3311340757
83333.3311339166
83333.3311358787
83333.3311876185
83333.3311865068
83333.3311862593
83333.3311881486
83333.3311926292
83333.331239715
83333.331238471
83333.3312381253
83333.3312400072
83333.3312444124
83333.3312515115
83333.3312912724
83333.331289957
83333.3312895237
83333.3312914134
83333.331295847
83333.3313029536
83333.3313125953
83333.331342249
83333.3313409299
83333.3313404472
83333.3313423693
83333.3313469317
83333.3313540947
83333.3313638844
83333.3313758933
83333.3313925967
83333.3313913081
83333.3313908641
83333.3313928562
83333.3313975755
83333.3314049741
83333.3314149084
83333.3314272747
83333.3314414511
83333.3314422638
83333.3314410425
83333.3314406955
83333.3314428234
83333.3314477346
83333.3314554057
83333.3314656939
83333.3314783817
83333.3314931521
83333.33150935
83333.3314911955
83333.33149007
83333.3314898756
83333.3314921779
83333.3314973169
83333.3315053071
83333.3315160186
83333.3315292225
83333.3315446079
83333.3315616003
83333.3315797311
83333.3315393706
83333.3315383472
83333.3315383276
83333.3315408189
83333.3315461934
83333.3315545315
83333.331565745
83333.3315796002
83333.331595767
83333.3316136998
83333.3316328365
83333.3316527595
83333.3315869734
83333.3315859599
83333.3315860224
83333.331588619
83333.3315941934
83333.3316028759
83333.3316146279
83333.3316292447
83333.3316463583
83333.3316654353
83333.3316858474
83333.331707029
83333.3317285869
83333.3316338183
83333.3316327566
83333.3316327245
83333.3316352986
83333.3316410101
83333.3316500146
83333.3316623067
83333.331677709
83333.3316958596
83333.3317162328
83333.3317381749
83333.3317610047
83333.3317841411
83333.3318071976
83333.3309201094
83333.330974594
83333.3309739018
83333.3310286621
83333.3310278625
83333.3310277724
83333.3310823063
83333.3310813588
83333.3310812064
83333.3310831259
83333.3311355061
83333.3311343987
83333.3311341556
83333.3311359944
83333.3311403499
83333.3311882322
83333.3311869866
83333.3311866401
83333.3311884528
83333.331192707
83333.3311995807
83333.331240442
83333.3312391143
83333.3312386677
83333.3312404621
83333.3312447173
83333.3312515438
83333.3312608467
83333.3312920993
83333.3312907487
83333.3312902344
83333.3312920247
83333.3312963599
83333.3313032081
83333.3313125803
83333.3313241396
83333.3313431643
83333.3313418213
83333.3313413154
83333.3313431354
83333.3313475733
83333.3313545906
83333.331364061
83333.3313758583
83333.3313894799
83333.3313935938
83333.3313922894
83333.3313918498
83333.3313937661
83333.3313983433
83333.3314055678
83333.331415308
83333.3314273404
83333.3314414225
83333.3314569338
83333.3314433453
83333.3314421015
83333.3314417804
83333.3314438478
83333.3314486122
83333.3314560861
83333.3314661497
83333.331478603
83333.3314931374
83333.3315093038
83333.3315266024
83333.3314923739
83333.3314912053
83333.331491043
83333.3314932917
83333.3314982671
83333.331506027
83333.3315164856
83333.3315294511
83333.3315445918
83333.3315615054
83333.3315796484
83333.3315986211
83333.3315406695
83333.3315395869
83333.3315395731
83333.3315419966
83333.3315471812
83333.3315552392
83333.3315661374
83333.3315796988
83333.3315956171
83333.3316134401
83333.3316326105
83333.3316526202
83333.3316730972
83333.3315884346
83333.3315873215
83333.3315873508
83333.3315898453
83333.3315951832
83333.3316035199
83333.3316148715
83333.3316290958
83333.3316458877
83333.3316647937
83333.3316852346
83333.3317065947
83333.3317283516
83333.3317501672
83333.3316354627
83333.3316342878
83333.3316341689
83333.3316365732
83333.3316419832
83333.3316505581
83333.3316623469
83333.3316772382
83333.3316949479
83333.33171503
83333.3317369045
83333.3317599031
83333.3317833676
83333.3318067651
83333.331829777
83333.3308651581
83333.3309201764
83333.3309195198
83333.3309747988
83333.3309740033
83333.3309739251
83333.3310290179
83333.3310280639
83333.3310279119
83333.331029799
83333.3310828189
83333.331081703
83333.3310814548
83333.331083252
83333.3310875107
83333.3311361692
83333.3311349119
83333.3311345562
83333.3311363104
83333.3311404442
83333.331147139
83333.3311890248
83333.3311876759
83333.3311872126
83333.3311889282
83333.3311930387
83333.3311996366
83333.3312086636
83333.3312413476
83333.3312399625
83333.3312394196
83333.331241102
83333.3312452499
83333.3312518369
83333.331260861
83333.3312720414
83333.3312931069
83333.3312917133
83333.3312911534
83333.3312928309
83333.3312970322
83333.3313037288
83333.3313128056
83333.3313241251
83333.3313372727
83333.3313442649
83333.3313428881
83333.3313423662
83333.3313440988
83333.3313483877
83333.3313552281
83333.3313644942
83333.3313759929
83333.3313894584
83333.3314043983
83333.3313947866
83333.331393446
83333.3313930105
83333.331394861
83333.3313992904
83333.3314063149
83333.3314158254
83333.3314276374
83333.3314414414
83333.3314569073
83333.3314734971
83333.3314446338
83333.3314433395
83333.3314430333
83333.3314450474
83333.3314496589
83333.3314569119
83333.3314667248
83333.3314789181
83333.3314932083
83333.3315092524
83333.3315265407
83333.3315446918
83333.3314937662
83333.3314925433
83333.3314923792
83333.3314945721
83333.33149938
83333.3315068842
83333.3315170464
83333.331529712
83333.3315446111
83333.3315613645
83333.3315794848
83333.3315985026
83333.3316180629
83333.3315421902
83333.3315410435
83333.3315410019
83333.3315433438
83333.3315483266
83333.3315560776
83333.3315666122
83333.3315798111
83333.3315954162
83333.3316130419
83333.3316321839
83333.3316522968
83333.3316729128
83333.3316937071
83333.3315901004
83333.3315889002
83333.3315888871
83333.3315912534
83333.3315963366
83333.3316042958
83333.3316151958
83333.3316289553
83333.3316453364
83333.3316639554
83333.3316843036
83333.3317057845
83333.3317278028
83333.3317498791
83333.3317717357
83333.3316372906
83333.3316360137
83333.3316358426
83333.3316380623
83333.331643139
83333.3316512466
83333.3316624744
83333.3316767766
83333.3316939454
83333.3317136099
83333.331735265
83333.3317582978
83333.33178204
83333.331805862
83333.3318292842
83333.3318520571
83333.3308097788
83333.3308652134
83333.3308645924
83333.3309203834
83333.3309196083
83333.3309195679
83333.3309751729
83333.3309742111
83333.3309740621
83333.3309759308
83333.3310295641
83333.331028428
83333.3310281664
83333.3310299292
83333.3310341195
83333.3310835303
83333.331082249
83333.3310818733
83333.3310835766
83333.3310876167
83333.3310941759
83333.3311370251
83333.331135646
83333.3311351584
83333.3311368058
83333.3311407997
83333.3311472154
83333.3311560254
83333.3311900046
83333.3311885786
83333.3311880058
83333.3311895981
83333.3311935927
83333.3311999666
83333.3312087061
83333.3312195786
83333.3312424406
83333.3312409982
83333.3312403891
83333.3312419495
83333.3312459551
83333.3312523851
83333.3312611332
83333.3312720571
83333.3312848014
83333.3312943015
83333.3312928606
83333.3312922678
83333.3312938473
83333.3312978938
83333.331304409
83333.3313132762
83333.3313243194
83333.3313372681
83333.3313517233
83333.3313455575
83333.331344136
83333.3313436009
83333.3313452615
83333.3313493999
83333.331356038
83333.3313650753
83333.3313763345
83333.3313895518
83333.3314043852
83333.3314203919
83333.3313961745
83333.3313947822
83333.331394347
83333.3313961419
83333.3314004245
83333.3314072337
83333.3314164931
83333.3314280384
83333.3314416246
83333.3314569016
83333.33147346
83333.3314909069
83333.3314461185
83333.3314447704
83333.3314444589
83333.3314464225
83333.3314508829
83333.3314578983
83333.331467428
83333.3314793312
83333.3314933765
83333.3315092116
83333.3315264365
83333.3315446006
83333.3315633664
83333.3314953539
83333.3314940916
83333.3314939005
83333.3314960267
83333.3315006618
83333.3315078913
83333.3315177196
83333.3315300412
83333.3315446328
83333.3315611636
83333.3315791995
83333.3315982559
83333.3316179052
83333.3316378328
83333.3315438692
83333.3315426823
83333.3315426313
83333.3315448743
83333.3315496426
83333.3315570632
83333.3315671924
83333.3315799664
83333.331595185
83333.3316125207
83333.3316315333
83333.3316516989
83333.33167249
83333.3316934771
83333.3317143872
83333.3315918757
83333.3315906292
83333.3315906221
83333.3315928652
83333.3315976735
83333.3316052266
83333.3316156279
83333.3316288551
83333.3316447385
83333.331662961
83333.3316830822
83333.3317045599
83333.3317267953
83333.3317492184
83333.3317713964
83333.3317931135
83333.3316390509
83333.3316378653
83333.331637695
83333.3316397746
83333.3316445066
83333.3316521123
83333.3316627269
83333.3316763668
83333.331692896
83333.3317120226
83333.3317333122
83333.3317562157
83333.3317801027
83333.3318043151
83333.331828258
83333.3318515079
83333.331873885
83333.3307539579
83333.3308099064
83333.3308091819
83333.3308654334
83333.3308646691
83333.3308646588
83333.3309207775
83333.3309198195
83333.3309196912
83333.330921567
83333.3309757547
83333.3309745969
83333.3309743217
83333.3309760575
83333.3309802078
83333.3310303245
83333.3310290078
83333.3310286025
83333.3310302597
83333.3310342302
83333.3310406958
83333.331084448
83333.3310830282
83333.3310825053
83333.33108409
83333.3310879912
83333.3310942678
83333.3311029153
83333.3311380771
83333.3311366034
83333.3311359929
83333.3311375056
83333.3311413745
83333.3311475783
83333.3311560919
83333.3311667241
83333.3311911786
83333.3311896846
83333.3311890264
83333.3311904879
83333.3311943318
83333.3312005427
83333.3312090229
83333.3312196244
83333.3312320436
83333.3312437241
83333.331242223
83333.3312415674
83333.3312430195
83333.331246865
83333.331253108
83333.331261643
83333.3312723063
83333.3312848302
83333.3312988726
83333.3312956866
83333.331294194
83333.3312935751
83333.3312950764
83333.3312989695
83333.33130528
83333.3313139161
83333.3313247126
83333.3313374303
83333.331351727
83333.3313672482
83333.3313470387
83333.3313455647
83333.331345019
83333.3313466202
83333.3313506158
83333.331357042
83333.3313658282
83333.3313768228
83333.331389796
83333.3314044328
83333.3314203799
83333.3314372322
83333.3313977485
83333.3313963055
83333.3313958608
83333.3313976068
83333.3314017503
83333.3314083348
83333.3314173204
83333.3314285762
83333.3314418873
83333.3314569556
83333.331473412
83333.3314908468
83333.3315089313
83333.3314477773
83333.3314464042
83333.3314460682
83333.3314479768
83333.3314522866
83333.3314590531
83333.3314682724
83333.3314798468
83333.3314935798
83333.3315091793
83333.3315262726
83333.3315444257
83333.3315632415
83333.3315824157
83333.33149707
83333.3314957966
83333.3314956166
83333.3314976663
83333.3315021206
83333.3315090601
83333.3315185221
83333.3315304508
83333.3315446739
83333.3315609094
83333.3315787778
83333.3315978216
83333.3316175718
83333.3316376351
83333.3316577417
83333.331545596
83333.331544438
83333.3315444351
83333.3315465998
83333.331551143
83333.3315582123
83333.3315678989
83333.3315801914
83333.3315949503
83333.3316119058
83333.3316306773
83333.3316507913
83333.3316717194
83333.3316929561
83333.3317141123
83333.3317349695
83333.3315934658
83333.3315924304
83333.331592489
83333.3315946718
83333.3315992099
83333.3316063349
83333.331616197
83333.331628831
83333.3316441322
83333.3316618541
83333.3316816202
83333.331702948
83333.3317252776
83333.3317480178
83333.3317706283
83333.3317927257
83333.3318141563
83333.3316403447
83333.3316396918
83333.3316396256
83333.3316416553
83333.3316460929
83333.331653183
83333.331663144
83333.3316760553
83333.3316918531
83333.3317103251
83333.3317311097
83333.3317537218
83333.3317775821
83333.3318020558
83333.3318265026
83333.3318503671
83333.3318732845
83333.3318951423
83333.3307542042
83333.330753322
83333.3308102084
83333.3308093164
83333.3308092003
83333.3308658646
83333.3308648918
83333.3308647685
83333.3308666717
83333.3309214018
83333.3309202307
83333.3309199495
83333.3309216767
83333.3309258179
83333.3309765685
83333.3309752147
83333.3309747798
83333.3309763915
83333.3309803136
83333.3309867274
83333.3310313055
83333.3310298344
83333.3310292668
83333.3310307896
83333.3310346171
83333.3310407954
83333.3310493329
83333.3310855722
83333.331084043
83333.3310833828
83333.3310848197
83333.3310885847
83333.3310946572
83333.3311030002
83333.3311134549
83333.3311393307
83333.3311377786
83333.3311370664
83333.3311384385
83333.3311421476
83333.3311481813
83333.3311564486
83333.3311667969
83333.3311789658
83333.3311925478
83333.3311909854
83333.3311902699
83333.3311916126
83333.3311952909
83333.3312013085
83333.3312095701
83333.3312199241
83333.3312321071
83333.3312458158
83333.3312451976
83333.3312436385
83333.3312429477
83333.3312443153
83333.3312480041
83333.3312540399
83333.331262339
83333.3312727502
83333.3312850516
83333.3312989171
83333.3313140209
83333.3312972572
83333.3312957104
83333.3312950735
83333.3312965114
83333.3313002645
83333.3313063651
83333.3313147495
83333.3313252781
83333.3313377381
83333.3313518515
83333.3313672538
83333.331383628
83333.3313486983
83333.3313471769
83333.3313466192
83333.3313481721
83333.3313520371
83333.3313582485
83333.3313667675
83333.3313774727
83333.3313901678
83333.3314045871
83333.3314203839
83333.3314372032
83333.3314547128
83333.3313994766
83333.3313980165
83333.3313975576
83333.3313992569
83333.3314032663
83333.3314096227
83333.3314183154
83333.3314292526
83333.3314422554
83333.3314570642
83333.331473358
83333.3314907404
83333.3315088423
83333.3315273696
83333.3314495381
83333.3314481771
83333.3314478664
83333.3314497178
83333.3314538742
83333.331460384
83333.3314692686
83333.3314804756
83333.3314938523
83333.3315091519
83333.3315260455
83333.3315441323
83333.3315629909
83333.3315822559
83333.3316016618
83333.3314987986
83333.3314976026
83333.3314974896
83333.3314994958
83333.3315037651
83333.3315104008
83333.3315194684
83333.3315309588
83333.3315447533
83333.3315606204
83333.3315782314
83333.3315971743
83333.3316169855
83333.3316372149
83333.3316575044
83333.3316776314
83333.3315470707
83333.3315462203
83333.3315463442
83333.3315484998
83333.3315528328
83333.3315595389
83333.3315687528
83333.3315805142
83333.3315947426
83333.3316112304
83333.3316296535
83333.3316495918
83333.3316705531
83333.3316920147
83333.3317134963
83333.331734652
83333.3317553174
83333.3315945784
83333.331594076
83333.3315943871
83333.3315966037
83333.331600934
83333.3316076339
83333.3316169303
83333.331628919
83333.3316435615
83333.331660683
83333.3316799728
83333.3317010077
83333.3317232765
83333.3317462137
83333.3317692426
83333.3317918568
83333.3318137241
83333.3318347509
83333.3316414601
83333.3316411866
83333.3316415367
83333.3316435757
83333.3316478382
83333.3316544644
83333.3316637582
83333.3316758917
83333.3316908783
83333.3317085847
83333.3317287291
83333.3317508937
83333.331774553
83333.3317991108
83333.3318239376
83333.3318484177
83333.3318720392
83333.3318944966
83333.331915743
83333.3307546399
83333.3307536137
83333.3307532542
83333.3308107398
83333.3308096131
83333.3308093605
83333.3308111892
83333.3308665503
83333.3308653452
83333.3308650294
83333.33086676
83333.3308709237
83333.3309222787
83333.3309208947
83333.3309204403
83333.3309220107
83333.3309259037
83333.3309323082
83333.3309776191
83333.3309760948
83333.3309754838
83333.330976941
83333.3309807058
83333.3309868229
83333.3309953027
83333.3310325045
83333.3310309107
83333.3310301919
83333.3310315515
83333.3310352279
83333.3310412027
83333.331049428
83333.3310597646
83333.3310869061
83333.3310852873
83333.3310845127
83333.3310857972
83333.3310893915
83333.3310952844
83333.3311033898
83333.3311135477
83333.3311255347
83333.3311407837
83333.3311391546
83333.3311383764
83333.3311396196
83333.3311431562
83333.3311489889
83333.3311570306
83333.3311671398
83333.3311790668
83333.3311925099
83333.3311941071
83333.331192482
83333.3311917241
83333.3311929763
83333.3311964939
83333.3312023008
83333.3312103207
83333.3312204154
83333.3312323766
83333.3312459015
83333.3312606727
83333.3312468536
83333.3312452392
83333.3312445257
83333.3312458274
83333.3312493776
83333.331255204
83333.33126325
83333.3312733874
83333.3312854219
83333.3312990905
83333.3313140681
83333.3313300346
83333.3312989977
83333.3312974066
83333.331296758
83333.3312981491
83333.3313017777
83333.3313076712
83333.3313157931
83333.3313260315
83333.3313382073
83333.3313520738
83333.3313673306
83333.3313836265
83333.3314006619
83333.3313504944
83333.3313489608
83333.3313484016
83333.3313499155
83333.3313536593
83333.3313596591
83333.3313678988
83333.3313782928
83333.331390678
83333.3314048231
83333.3314204319
83333.3314371615
83333.3314546596
83333.3314726411
83333.3314012883
83333.3313998607
83333.3313994349
83333.3314010959
83333.3314049739
83333.3314111003
83333.3314194841
83333.3314300737
83333.3314427305
83333.3314572355
83333.3314733006
83333.3314905729
83333.33150867
83333.3315272502
83333.3315460534
83333.3314512907
83333.3314500341
83333.3314498107
83333.3314516456
83333.3314556501
83333.3314618955
83333.3314704261
83333.3314812302
83333.331494203
83333.3315091427
83333.3315257638
83333.3315437072
83333.3315625637
83333.3315819287
83333.331601467
83333.3316209548
83333.3315002471
83333.3314994064
83333.3314994566
83333.3315014863
83333.3315055938
83333.3315119202
83333.3315205723
83333.3315315852
83333.3315448933
83333.3315603199
83333.3315775858
83333.3315963259
83333.3316161099
83333.3316364771
83333.3316569995
83333.3316773561
83333.3316973717
83333.3315480314
83333.3315477904
83333.3315482593
83333.3315504946
83333.3315546851
83333.3315610439
83333.3315697696
83333.3315809607
83333.3315945961
83333.3316105328
83333.3316285053
83333.3316481465
83333.331669009
83333.331690594
83333.3317123902
83333.3317339463
83333.3317549608
83333.3317753215
83333.3315955557
83333.3315953579
83333.3315961491
83333.33159852
83333.3316027637
83333.3316091063
83333.3316178424
83333.3316291532
83333.3316430745
83333.3316595032
83333.3316782012
83333.3316988067
83333.3317208599
83333.3317438334
83333.3317671649
83333.3317902979
83333.3318127631
83333.3318342802
83333.3318548143
83333.3316419702
83333.3316421289
83333.3316431359
83333.3316454317
83333.3316496093
83333.3316559039
83333.3316645786
83333.331675919
83333.3316900352
83333.3317068789
83333.3317262539
83333.3317478181
83333.3317711062
83333.3317955645
83333.3318205906
83333.3318455686
83333.3318699128
83333.3318931581
83333.3319150594
83333.3319356243
83333.3307552957
83333.3307540608
83333.3307535422
83333.3307551809
83333.3308115355
83333.3308101563
83333.3308096947
83333.3308113104
83333.3308154629
83333.3308675081
83333.3308660741
83333.3308655619
83333.3308670972
83333.3308709827
83333.33087742
83333.3309234106
83333.3309218392
83333.3309211951
83333.3309225857
83333.3309262945
83333.3309323835
83333.3309408565
83333.3309789005
83333.3309772405
83333.3309764655
83333.3309777418
83333.3309813345
83333.330987238
83333.330995396
83333.3310056726
83333.3310339225
83333.3310322287
83333.3310313844
83333.331032578
83333.3310360693
83333.3310418514
83333.3310498404
83333.3310598699
83333.3310717365
83333.3310884434
83333.33108674
83333.331085892
83333.3310870381
83333.3310904505
83333.3310961326
83333.3311040027
83333.3311139273
83333.33112566
83333.3311389198
83333.3311424272
83333.3311407325
83333.3311399061
83333.3311410534
83333.331144424
83333.331150041
83333.3311578335
83333.3311676746
83333.3311793612
83333.3311926271
83333.3312071502
83333.3311958455
83333.3311941657
83333.3311933826
83333.3311945673
83333.331197946
83333.3312035428
83333.3312113069
83333.3312211206
83333.3312328061
83333.3312461124
83333.3312607495
83333.3312764003
83333.331248671
83333.3312470177
83333.3312462938
83333.3312475511
83333.3312509811
83333.3312566064
83333.331264393
83333.3312742385
83333.3312859793
83333.3312993903
83333.3313141913
83333.3313300644
83333.3313467166
83333.3313008626
83333.3312992651
83333.3312986243
83333.3312999847
83333.3313035025
83333.3313091977
83333.3313170508
83333.3313269833
83333.3313388462
83333.3313524302
83333.3313674689
83333.3313836472
83333.3314006423
83333.3314181735
83333.3313523628
83333.3313508783
83333.3313503571
83333.3313518505
83333.3313554814
83333.3313612726
83333.3313692243
83333.3313792862
83333.3313913313
83333.3314051643
83333.3314205272
83333.3314371084
83333.3314545606
83333.3314725613
83333.331490856
83333.3314030797
83333.3314017754
83333.3314014551
83333.3314031199
83333.3314068737
83333.3314127681
83333.331420831
83333.3314310466
83333.3314433188
83333.3314574698
83333.3314732491
83333.3314903416
83333.3315083845
83333.3315270101
83333.331545903
83333.3315648395
83333.3314527505
83333.3314518757
83333.3314518407
83333.3314537272
83333.3314576082
83333.3314635889
83333.331471752
83333.3314821235
83333.3314946461
83333.3315091671
83333.3315254443
83333.3315431599
83333.3315619367
83333.3315813669
83333.3316010643
83333.331620726
83333.3316401702
83333.3315011647
83333.3315009876
83333.3315014141
83333.3315035569
83333.3315075702
83333.3315136109
83333.3315218401
83333.3315323468
83333.3315451185
83333.3315600362
83333.3315768725
83333.3315953094
83333.3316149563
83333.3316353752
83333.3316561145
83333.3316767707
83333.3316970613
83333.331716857
83333.3315489149
83333.3315489926
83333.3315499698
83333.3315524455
83333.3315566066
83333.3315626927
83333.3315709492
83333.3315815507
83333.3315945458
83333.3316098562
83333.3316272814
83333.3316465099
83333.331667141
83333.3316887117
83333.3317107246
83333.3317326849
83333.3317541727
83333.3317749309
83333.3317948968
83333.3315960966
83333.3315961875