/*--------------------------------*- C++ -*----------------------------------*\
  =========                 |
  \\      /  F ield         | OpenFOAM: The Open Source CFD Toolbox
   \\    /   O peration     | Website:  https://openfoam.org
    \\  /    A nd           | Version:  12
     \\/     M anipulation  |
\*---------------------------------------------------------------------------*/
/*   Windows 32 and 64 bit porting by blueCAPE: http://www.bluecape.com.pt   *\
|  Based on Windows porting (2.0.x v4) by Symscape: http://www.symscape.com   |
\*---------------------------------------------------------------------------*/
FoamFile
{
    format      ascii;
    class       surfaceScalarField;
    location    "100";
    object      phi;
}
// * * * * * * * * * * * * * * * * * * * * * * * * * * * * * * * * * * * * * //

dimensions      [0 3 -1 0 0 0 0];

internalField   nonuniform List<scalar> 
28903
(
8.44187003553306e-06
3.09381477925543e-08
-2.00018951621837e-07
8.60024726751552e-06
2.64101939514462e-08
-1.84791314411697e-07
1.02889843784674e-05
7.70586241356432e-08
-2.30970776773313e-07
2.23085138237404e-06
3.84418983947847e-08
-3.07795574854233e-07
8.74232067858285e-06
2.61063772077045e-08
-1.68178192782649e-07
1.04671884208104e-05
6.43225220401281e-08
-2.16121163051299e-07
2.29365557570824e-06
3.63831445472797e-08
-2.83980178205252e-07
1.14913182789314e-05
1.35928102377596e-07
-2.6094872767526e-07
2.87513274993989e-06
9.30563252736428e-08
-3.60485808631456e-07
1.66949855025784e-06
3.66440448554343e-08
-4.00848177618173e-07
8.87244317588267e-06
2.19008894048e-08
-1.52020662458474e-07
1.06333515051311e-05
5.55414700917966e-08
-1.95589504300908e-07
2.3499329946426e-06
3.60440988468589e-08
-2.6049929913433e-07
1.16894962271179e-05
1.12747932465939e-07
-2.46600387863382e-07
2.94331817765484e-06
8.73545681609658e-08
-3.35278600580813e-07
1.7201129466678e-06
3.5220047634611e-08
-3.69814976107569e-07
1.27881414183805e-05
1.95235255694933e-07
-2.86626453827321e-07
3.28901439620149e-06
1.60760656902452e-07
-4.11472053539966e-07
2.08992576848397e-06
8.45470854070911e-08
-4.71708072782199e-07
1.63087309522979e-06
3.37435704457106e-08
-4.8349156440804e-07
8.99430373668529e-06
1.57508885857503e-08
-1.37611070175781e-07
1.07867869863864e-05
4.40823362851917e-08
-1.75616915197695e-07
2.40104969450183e-06
3.44740348874833e-08
-2.37609619674319e-07
1.18756682992798e-05
9.28199928019169e-08
-2.23445577200267e-07
3.00842332104017e-06
8.31847710787194e-08
-3.07834224587372e-07
1.76540594240539e-06
3.40838339607815e-08
-3.39875896012054e-07
1.30118414056749e-05
1.630084408404e-07
-2.73968899788419e-07
3.36380329556433e-06
1.5088336417628e-07
-3.84917595004895e-07
2.14602384395505e-06
8.0054411524408e-08
-4.3621146784274e-07
1.67568119335072e-06
3.22900931109581e-08
-4.46913774579714e-07
1.36884817450731e-05
2.43064659756118e-07
-2.95013471329696e-07
3.67039386196306e-06
2.31757350986682e-07
-4.50691686635625e-07
2.40643088760411e-06
1.43139447181707e-07
-5.42145360651649e-07
1.97536792780931e-06
7.6790394745662e-08
-5.69281272535071e-07
1.71647326815376e-06
3.16727912958708e-08
-5.57432764313979e-07
9.10956616363229e-06
9.69521663519565e-09
-1.24959423432407e-07
1.09300742965476e-05
3.15701050852259e-08
-1.59105085703286e-07
2.44860888595617e-06
3.12176347918419e-08
-2.16387637470567e-07
1.20480385012975e-05
7.25504151586164e-08
-2.00832963271993e-07
3.07005307326813e-06
7.79249318776919e-08
-2.80694131737624e-07
1.80687415336054e-06
3.21653443864648e-08
-3.1124299707083e-07
1.32206433900941e-05
1.32747537080588e-07
-2.48726269003136e-07
3.43684593071827e-06
1.41047113713879e-07
-3.54348740098295e-07
2.1978059230255e-06
7.6163699800341e-08
-4.01695091066625e-07
1.71657341995775e-06
3.09433295365326e-08
-4.11711279119981e-07
1.39317863763482e-05
2.03835798764526e-07
-2.8413560562592e-07
3.75428359980133e-06
2.17355561773373e-07
-4.24326979336353e-07
2.46935007429315e-06
1.35746092102153e-07
-5.035292804703e-07
2.02505281687257e-06
7.34945490845085e-08
-5.27101532764045e-07
1.75610461909473e-06
3.02852528411086e-08
-5.16831232864044e-07
1.4048396998653e-05
2.74146945877768e-07
-2.8929439927962e-07
3.83993714238655e-06
2.96491971859412e-07
-4.60278247441691e-07
2.63379331622263e-06
2.05868616831556e-07
-5.93993444145076e-07
2.26003931111003e-06
1.27853836612364e-07
-6.55267080761763e-07
2.01406946791289e-06
6.94464971945412e-08
-6.53326960926378e-07
1.84430749808405e-06
3.03857338225003e-08
-6.23620800662908e-07
9.21958401757511e-06
4.16021951679461e-09
-1.14179659605442e-07
1.10652565949108e-05
1.95077719392191e-08
-1.44995264995554e-07
2.49323147603528e-06
2.7809717826969e-08
-1.97392889966101e-07
1.22091485617321e-05
5.26160221824074e-08
-1.8215616469388e-07
3.12796708764681e-06
7.0658522514873e-08
-2.56460153315893e-07
1.84555071730333e-06
2.97034538604528e-08
-2.84767308352069e-07
1.34137082824231e-05
1.02896539553233e-07
-2.23404250163158e-07
3.50770512138491e-06
1.30176212569091e-07
-3.23941782361304e-07
2.24661895802667e-06
7.13767815299439e-08
-3.68718556570804e-07
1.75455028686598e-06
2.91481189855386e-08
-3.78367827696838e-07
1.41587997817962e-05
1.65471224681866e-07
-2.59728915026905e-07
3.83649322504669e-06
2.02217007158317e-07
-3.92102184899972e-07
2.52827581167059e-06
1.27993387316322e-07
-4.65102813917197e-07
2.07122225845944e-06
6.97339058241333e-08
-4.86654490164947e-07
1.79312894486638e-06
2.88443210274412e-08
-4.77579830945031e-07
1.4304012324949e-05
2.29257256922295e-07
-2.81056060544627e-07
3.93090577746189e-06
2.7835927263085e-07
-4.36109423279692e-07
2.70386407224103e-06
1.95632758621727e-07
-5.54285593215981e-07
2.31626334037256e-06
1.21965157440525e-07
-6.0822497737416e-07
2.05743220983786e-06
6.64645733144714e-08
-6.06644528421895e-07
1.87865876509684e-06
2.88869854009819e-08
-5.80070358672818e-07
1.39942792711752e-05
2.86861436018829e-07
-2.75792488137287e-07
3.80362022483425e-06
3.48069928159295e-07
-4.45720100903415e-07
2.65418465035608e-06
2.63899791108655e-07
-6.04096730568101e-07
2.43675813872233e-06
1.79709070582076e-07
-7.15030756079986e-07
2.27464267869025e-06
1.12434242816083e-07
-7.50402035501637e-07
2.11730810046257e-06
6.39292344336617e-08
-7.25622551405604e-07
1.98799920163703e-06
2.98076608100974e-08
-6.82642778132244e-07
9.32566565119629e-06
-8.7179105177367e-10
-1.05209579208468e-07
1.11941990424405e-05
8.23013845613251e-09
-1.33017525473835e-07
2.53547764303962e-06
2.45468705059937e-08
-1.80973698783038e-07
1.23613373038049e-05
3.37267705194867e-08
-1.66407798383267e-07
3.18256178005139e-06
6.31725590844031e-08
-2.34953738572016e-07
1.88207838676399e-06
2.70797808026131e-08
-2.61000296955763e-07
1.35945453810391e-05
7.48073122491585e-08
-2.03026100988031e-07
3.5747007591923e-06
1.18156661946985e-07
-2.96651261828345e-07
2.29260077442755e-06
6.56408541853377e-08
-3.38379636484482e-07
1.79044153418693e-06
2.69513227663823e-08
-3.47609686961131e-07
1.43686577535509e-05
1.27665621630364e-07
-2.34622927043429e-07
3.91679549526749e-06
1.85987591077961e-07
-3.59517774650062e-07
2.58468559237406e-06
1.19228323225819e-07
-4.28202325895364e-07
2.11485913811483e-06
6.52786636429579e-08
-4.48485621808772e-07
1.82817702996251e-06
2.70590647432857e-08
-4.40474786375869e-07
1.45426895373398e-05
1.83932553133295e-07
-2.57141466632852e-07
4.02013899698443e-06
2.58156115944002e-07
-4.04900290078558e-07
2.76964822855046e-06
1.83987573720593e-07
-5.13880279542332e-07
2.36887261404267e-06
1.14905167791254e-07
-5.62883382978283e-07
2.09849112158177e-06
6.29255461496518e-08
-5.61794331284561e-07
1.91148632062431e-06
2.738959151745e-08
-5.37796971580905e-07
1.42571483005712e-05
2.37574394469232e-07
-2.71226622155883e-07
3.89876814019653e-06
3.27463252489985e-07
-4.25312595406306e-07
2.72886131107489e-06
2.51166725374699e-07
-5.66321379221471e-07
2.49919038845528e-06
1.71554601826898e-07
-6.66308534532778e-07
2.32334408088279e-06
1.0781778756123e-07
-6.98280308912434e-07
2.15439231761464e-06
6.11676327022931e-08
-6.76010185121758e-07
2.01689251711479e-06
2.79138546067186e-08
-6.36878433881312e-07
1.37154172890231e-05
2.78673071917691e-07
-2.57746043533997e-07
3.63655508957107e-06
3.83541941205321e-07
-4.18970340723581e-07
2.50428460601283e-06
3.11352289164812e-07
-5.81563951103358e-07
2.40999824720259e-06
2.27667009276961e-07
-7.25104501882865e-07
2.42175236514482e-06
1.56720266360376e-07
-8.16581522744865e-07
2.36893743714162e-06
1.01211238946318e-07
-8.30845518798047e-07
2.25581624868604e-06
6.12602261854152e-08
-7.88383775775496e-07
2.13981295302835e-06
2.91386268821588e-08
-7.34508212188354e-07
9.42893864845226e-06
-5.35707214121526e-09
-9.79189442232785e-08
1.13184620803509e-05
-2.16323751277111e-09
-1.22972179210818e-07
2.57593522148381e-06
2.14665917516803e-08
-1.67135053362784e-07
1.25065947235623e-05
1.60290091144663e-08
-1.5305978600846e-07
3.23442226871626e-06
5.59159524493695e-08
-2.16248909699837e-07
1.91701827303787e-06
2.43227042350358e-08
-2.40236449084397e-07
1.37658109625807e-05
4.85335755627871e-08
-1.86073700911623e-07
3.63790067609505e-06
1.06017185091392e-07
-2.72452937016727e-07
2.33627746925521e-06
5.95711217954415e-08
-3.11122088448435e-07
1.82484623885332e-06
2.45598903260764e-08
-3.19964944608156e-07
1.45653965125108e-05
9.19977357924151e-08
-2.13922392436535e-07
3.99316631167096e-06
1.68947627946366e-07
-3.30188189092045e-07
2.63827770352987e-06
1.09573710268465e-07
-3.94176637636459e-07
2.15646818533308e-06
6.02360769318472e-08
-4.13273785271131e-07
1.86189549923688e-06
2.49331241422796e-08
-4.06261111401413e-07
1.4763274453351e-05
1.39741543430385e-07
-2.32661949224351e-07
4.10741269388905e-06
2.36816739300018e-07
-3.72724793197438e-07
2.83302411086011e-06
1.7105193147775e-07
-4.74716623400762e-07
2.41898275480783e-06
1.0700840512628e-07
-5.20041999196076e-07
2.13784708723949e-06
5.87534434914865e-08
-5.19535459063806e-07
1.94324832723742e-06
2.55647524995432e-08
-4.97801245109071e-07
1.4502911415749e-05
1.87815361157087e-07
-2.49661379537756e-07
3.99262823790611e-06
3.03859443299606e-07
-3.96706996066585e-07
2.79912136833594e-06
2.36054389664876e-07
-5.27227836447621e-07
2.55756097141363e-06
1.61688517953959e-07
-6.19033942490516e-07
2.3696633140811e-06
1.01872018897138e-07
-6.48148817455018e-07
2.19030408109464e-06
5.7750739737776e-08
-6.28066617140608e-07
2.04518548434028e-06
2.63243536466443e-08
-5.92414240629974e-07
1.39824199279231e-05
2.27449811159791e-07
-2.56957914048417e-07
3.73444424337016e-06
3.61482922783957e-07
-4.03155477399292e-07
2.58136025877372e-06
2.96884108550025e-07
-5.48109056832734e-07
2.4760011686162e-06
2.17736503545824e-07
-6.78508739049441e-07
2.47542735496947e-06
1.49843177032688e-07
-7.62010344906682e-07
2.41027231774374e-06
9.70716368563407e-08
-7.75519853228333e-07
2.2867876071858e-06
5.74822683237428e-08
-7.36550770133627e-07
2.16304869954812e-06
2.72014486561294e-08
-6.87316098167758e-07
1.33433054484117e-05
2.48624498104537e-07
-2.37979438747183e-07
3.40415629429054e-06
4.02452872021566e-07
-3.86617312921531e-07
2.25998365955096e-06
3.45898820019182e-07
-5.4343041639646e-07
2.2262756497449e-06
2.67699556796542e-07
-6.96605360090449e-07
2.37343848194682e-06
1.96718699376644e-07
-8.2587185826647e-07
2.50593640636385e-06
1.39285467662412e-07
-9.01923248484819e-07
2.51545757740419e-06
9.51724965743818e-08
-8.99758772333406e-07
2.41471250138385e-06
5.97117775466054e-08
-8.4300432254374e-07
2.29773749754651e-06
2.87325481614598e-08
-7.79456020186063e-07
9.53035721305002e-06
-9.24563623865528e-09
-9.21730951676123e-08
1.14393820050044e-05
-1.15214209789031e-08
-1.14761169428385e-07
2.61517075000157e-06
1.86156967503731e-08
-1.55770840111733e-07
1.26465347287515e-05
-3.48530737074109e-10
-1.41759105180222e-07
3.28424824842502e-06
4.90479918403329e-08
-2.00381869314976e-07
1.95079211821604e-06
2.16637732145042e-08
-2.22572956901403e-07
1.39296109477408e-05
2.39386732518546e-08
-1.71707008934311e-07
3.69789670320289e-06
9.42236231355228e-08
-2.51364755974212e-07
2.37812518626568e-06
5.34864997766492e-08
-2.8726132729784e-07
1.85821848090106e-06
2.21301974005813e-08
-2.95738999905325e-07
1.47522667977417e-05
5.85688932489609e-08
-1.96905561316336e-07
4.06532586574405e-06
1.51907169998391e-07
-3.04123940815331e-07
2.68931247311569e-06
9.96009457543691e-08
-3.63518043938045e-07
2.19654946118453e-06
5.48999329886406e-08
-3.8154414060275e-07
1.89478549052263e-06
2.26205524858185e-08
-3.75475588564434e-07
1.49707444474549e-05
9.87116335087225e-08
-2.14188224206398e-07
4.19071961219985e-06
2.15254561872866e-07
-3.43535531208613e-07
2.89353454669955e-06
1.57228658217945e-07
-4.38353612836731e-07
2.46702312684022e-06
9.84189691208381e-08
-4.80400377733111e-07
2.17597451724667e-06
5.40446589245728e-08
-4.80512734019644e-07
1.97445440932738e-06
2.34421608251359e-08
-4.60909149491673e-07
1.47299537537237e-05
1.39267613610206e-07
-2.26572336934267e-07
4.08477588313361e-06
2.78595400634829e-07
-3.66591121989487e-07
2.86701704411519e-06
2.19304478136565e-07
-4.88873704292627e-07
2.61337701134281e-06
1.50519736872573e-07
-5.74044923671704e-07
2.41430734141064e-06
9.49367855090099e-08
-6.00868738124426e-07
2.22543550978709e-06
5.37046758219103e-08
-5.82806087446421e-07
2.07323597797087e-06
2.44582354322867e-08
-5.50309697107032e-07
1.42332704670365e-05
1.75266702421194e-07
-2.38319295503784e-07
3.83114361629664e-06
3.35693909775197e-07
-3.78197736561493e-07
2.65413221677805e-06
2.79226492921775e-07
-5.12651619968279e-07
2.53786648957025e-06
2.053010569432e-07
-6.32707216846401e-07
2.52652765369475e-06
1.41208986726142e-07
-7.09471486535721e-07
2.45046945811746e-06
9.14660364729567e-08
-7.22060669479976e-07
2.31751279829832e-06
5.40093175574688e-08
-6.86476185052212e-07
2.1865546607153e-06
2.54354837650268e-08
-6.41355534688884e-07
1.36135756109192e-05
1.98199242808492e-07
-2.41108925679144e-07
3.50431575530616e-06
3.80130332814905e-07
-3.75794322807591e-07
2.33855886385558e-06
3.30521461161483e-07
-5.15373263059015e-07
2.29426728932598e-06
2.56457804699419e-07
-6.54825357258097e-07
2.43018455149446e-06
1.88495604343465e-07
-7.73909545808375e-07
2.55117316829706e-06
1.33915848331483e-07
-8.44091806145994e-07
2.54983361874734e-06
8.99280299079405e-08
-8.42341956607666e-07
2.43934459822028e-06
5.58459475033612e-08
-7.89827774297335e-07
2.31519177038509e-06
2.67165236708455e-08
-7.31486939642339e-07
1.29437052548891e-05
1.96937680082199e-07
-2.1895829553602e-07
3.14498898211967e-06
4.04411634547591e-07
-3.52064553552508e-07
1.97107358040715e-06
3.67111157444123e-07
-4.99070811690068e-07
1.96049202679946e-06
2.97963136739802e-07
-6.49867087554857e-07
2.17911283673132e-06
2.30870277412996e-07
-7.9301076154091e-07
2.45118300993459e-06
1.75205824052158e-07
-9.11671343664532e-07
2.65781662796478e-06
1.29956474623147e-07
-9.75082903754044e-07
2.69293650066229e-06
9.26921362860319e-08
-9.59609071803247e-07
2.58543807405518e-06
5.92910468802938e-08
-8.90322096818719e-07
2.4596316584581e-06
2.88806199975326e-08
-8.17858597470694e-07
9.63073962441093e-06
-1.24964803797153e-08
-8.7886878147739e-08
1.15581424593251e-05
-1.97682134527059e-08
-1.08236094736795e-07
2.65368835285718e-06
1.60260754433007e-08
-1.467179017186e-07
1.27826567727276e-05
-1.51844259411884e-08
-1.32458033125423e-07
3.3327027594073e-06
4.26847320430436e-08
-1.87285484295187e-07
1.98380719571535e-06
1.91581624751832e-08
-2.07944386999687e-07
1.40875027485934e-05
1.17450701338971e-09
-1.59414859874914e-07
3.75551354607329e-06
8.30358028813944e-08
-2.33363627723113e-07
2.41866039901779e-06
4.76221436526403e-08
-2.66876357594912e-07
1.89092714318951e-06
1.97455794158006e-08
-2.7502761553815e-07
1.49313706127892e-05
2.71964995002355e-08
-1.82364139734237e-07
4.13383673602242e-06
1.35307149097512e-07
-2.8130201338991e-07
2.73825929278195e-06
8.97131538748265e-08
-3.36539329410418e-07
2.23553454159052e-06
4.95201297011851e-08
-3.53637105836872e-07
1.92722342520419e-06
2.02568022890463e-08
-3.48434129862152e-07
1.51685608729525e-05
5.97590514904419e-08
-1.99008520440898e-07
4.26945335161203e-06
1.93751527607635e-07
-3.17486234201749e-07
2.95126111872829e-06
1.43104237980052e-07
-4.05354764501576e-07
2.51344303249081e-06
8.95298108856479e-08
-4.44568255959521e-07
2.21332079597306e-06
4.90116732698855e-08
-4.45281736176683e-07
2.00550187442182e-06
2.11608073437219e-08
-4.27683885073278e-07
1.49444985916658e-05
9.28605715519389e-08
-2.08704008697412e-07
4.17253761586997e-06
2.52699501066284e-07
-3.39397283768026e-07
2.93200046912616e-06
2.01657659701361e-07
-4.52948958099958e-07
2.6670557733823e-06
1.38469927438773e-07
-5.32083873330067e-07
2.45770747254981e-06
8.72737799449688e-08
-5.57029771360449e-07
2.2601574235244e-06
4.91622304693144e-08
-5.40954365182048e-07
2.10148677948802e-06
2.22651505317355e-08
-5.11425010928608e-07
1.44660921673905e-05
1.23940411665855e-07
-2.17507612176508e-07
3.92623395624594e-06
3.07915639448714e-07
-3.50987101710466e-07
2.72464982319292e-06
2.59495659564727e-07
-4.7730244161826e-07
2.59712729941728e-06
1.91119587583004e-07
-5.88735181678705e-07
2.5758860816197e-06
1.31294168808034e-07
-6.59760713356647e-07
2.49000039482596e-06
8.48616964162052e-08
-6.71556316477022e-07
2.34833052017037e-06
4.99933718874915e-08
-6.39158373931036e-07
2.21060974684229e-06
2.3436615042149e-08
-5.97801149829056e-07
1.38696967607045e-05
1.45121561070972e-07
-2.26002129648782e-07
3.60330645228232e-06
3.53369517359117e-07
-3.54993568493121e-07
2.41293387474306e-06
3.11260869400726e-07
-4.84610117672201e-07
2.35813368097106e-06
2.42021439525095e-07
-6.1323981681046e-07
2.48415622862197e-06
1.77732975573682e-07
-7.23203826025034e-07
2.59531143444493e-06
1.25823769801114e-07
-7.8796703313382e-07
2.58409612687089e-06
8.45090103983674e-08
-7.8682224260025e-07
2.46470855690777e-06
5.18986649581018e-08
-7.38302808353542e-07
2.33369601044436e-06
2.48359701076248e-08
-6.84695627245924e-07
1.32192779375912e-05
1.49101925263072e-07
-2.26565848849803e-07
3.24742056093834e-06
3.83015809912075e-07
-3.46456351662125e-07
2.0510315617357e-06
3.51619322932571e-07
-4.76858529714723e-07
2.02975547721359e-06
2.85973407734045e-07
-6.14155764461956e-07
2.2374895194778e-06
2.21520696505247e-07
-7.46229776039488e-07
2.49941140815831e-06
1.67819660948606e-07
-8.56042763257522e-07
2.69550656273801e-06
1.2332698558611e-07
-9.15181084859706e-07
2.72024995664675e-06
8.70186536933371e-08
-9.00828316961603e-07
2.60359795294917e-06
5.52536972614022e-08
-8.36524791624962e-07
2.47110213008369e-06
2.67421295140858e-08
-7.69699563558818e-07
1.25474380580655e-05
1.22860126458249e-07
-2.01911711611896e-07
2.88202889445003e-06
3.88699337837221e-07
-3.1784952486931e-07
1.66094335997128e-06
3.74811275092011e-07
-4.52468481822096e-07
1.65640724954982e-06
3.17717624572854e-07
-5.9619453298899e-07
1.90986091058372e-06
2.57384773643078e-07
-7.39846295566171e-07
2.25438503348716e-06
2.0582089171465e-07
-8.75390127869987e-07
2.60603340812919e-06
1.62888358576448e-07
-9.85387964738916e-07
2.84921925358477e-06
1.25901245346956e-07
-1.03818588399507e-06
2.88713634280552e-06
9.19245866920214e-08
-1.01112796143451e-06
2.76228442769394e-06
5.988904479733e-08
-9.30695586135969e-07
2.6218369472576e-06
2.95536672671912e-08
-8.50026586100676e-07
9.73062991141585e-06
-1.50637408610098e-08
-8.48280609126856e-08
1.1675772585252e-05
-2.68784740058977e-08
-1.03248751773962e-07
2.69189999573965e-06
1.36958978091249e-08
-1.3979574201417e-07
1.29162981845882e-05
-2.84331039742561e-08
-1.24982246686621e-07
3.38038520624889e-06
3.68949812996372e-08
-1.76789022072293e-07
2.01644327010881e-06
1.68324820232568e-08
-1.96186841285641e-07
1.42410139944019e-05
-1.95077703356997e-08
-1.49188937221159e-07
3.81152082281277e-06
7.26440646603231e-08
-2.18424075288102e-07
2.45835094892938e-06
4.21163362094921e-08
-2.49935020880399e-07
1.9233141260812e-06
1.74429989054197e-08
-2.57774630279211e-07
1.51040050804136e-05
-1.72410556723992e-09
-1.69734948342734e-07
4.19961529687492e-06
1.19535827613531e-07
-2.61693054272191e-07
2.78568307314308e-06
8.01889712927927e-08
-3.13355068025305e-07
2.27380256686968e-06
4.42767738051186e-08
-3.29676084144445e-07
1.95951350050329e-06
1.7929588097426e-08
-3.2524748735471e-07
1.5358122678784e-05
2.26361930070085e-08
-1.85001726277837e-07
4.34421926474208e-06
1.72664498012307e-07
-2.94487784359918e-07
3.00664988813657e-06
1.29137938160348e-07
-3.76116707234639e-07
2.55866576468699e-06
8.0655842724028e-08
-4.12898307391752e-07
2.25025131820726e-06
4.39129245981864e-08
-4.14224502722453e-07
2.0366891144875e-06
1.88292873478657e-08
-3.98450781839694e-07
1.5149534877994e-05
4.85227149580147e-08
-1.93805245755466e-07
4.25533718537531e-06
2.26889280216597e-07
-3.14947615847371e-07
2.99401777376796e-06
1.83696525403103e-07
-4.20095940753116e-07
2.71896730949526e-06
1.26020362616724e-07
-4.9375812110337e-07
2.5003793420704e-06
7.89951634474119e-08
-5.17224038400527e-07
2.29480925438508e-06
4.43438746695108e-08
-5.0311684270629e-07
2.13024749621715e-06
1.99072942842323e-08
-4.76351869041859e-07
1.4686785165193e-05
7.36942763846723e-08
-2.01533467358645e-07
4.01700625167445e-06
2.79340421928555e-07
-3.26118387605525e-07
2.79214393632467e-06
2.38630391096705e-07
-4.4386552127967e-07
2.65416230173317e-06
1.75867121247427e-07
-5.47382097532067e-07
2.6240165663321e-06
1.2049193185433e-07
-6.13433164100449e-07
2.52920175408858e-06
7.7601385554754e-08
-6.24669687854918e-07
2.37953203702337e-06
4.54880117880977e-08
-5.95378654831213e-07
2.23558499759071e-06
2.11480718792525e-08
-5.57548238667125e-07
1.41097171742314e-05
9.18929953151689e-08
-2.07983878619557e-07
3.70074462477002e-06
3.24184538545675e-07
-3.31218695762193e-07
2.48513311970971e-06
2.89547590827727e-07
-4.53239596465466e-07
2.41935749375402e-06
2.25418621279591e-07
-5.72827325734783e-07
2.53627612652149e-06
1.65218502711943e-07
-6.7478054648917e-07
2.63876949756372e-06
1.16504771880992e-07
-7.3486155962258e-07
2.61865935458098e-06
7.80238836303934e-08
-7.34149610229408e-07
2.49099205785753e-06
4.75957722838908e-08
-6.89600548200908e-07
2.35349335427679e-06
2.27052615577576e-08
-6.40303547094645e-07
1.34831819585755e-05
9.64838260297754e-08
-2.15296863242381e-07
3.34856587939771e-06
3.56345233339542e-07
-3.30132201935315e-07
2.12686471139539e-06
3.31662817511045e-07
-4.51231563808567e-07
2.09493431490202e-06
2.70193606288906e-07
-5.77963936336058e-07
2.29309485571554e-06
2.09028737907554e-07
-7.00142386377536e-07
2.54617958310767e-06
1.57848066518149e-07
-8.0199649219021e-07
2.73303317530631e-06
1.16014514962209e-07
-8.56998704753778e-07
2.74863286528656e-06
8.04851838065422e-08
-8.43791065780806e-07
2.62331761414761e-06
5.11043920796682e-08
-7.84290527959403e-07
2.48435992358166e-06
2.47188301547744e-08
-7.226721226145e-07
1.2832079376761e-05
7.87097626547326e-08
-2.14339689519241e-07
2.98704141430266e-06
3.69106624591476e-07
-3.17701450368722e-07
1.74241312535829e-06
3.59962701426389e-07
-4.36278228280163e-07
1.72698735096692e-06
3.05526949688588e-07
-5.66997578745231e-07
1.96955699810195e-06
2.47321991128337e-07
-6.99656073082316e-07
2.30422433737959e-06
1.9727659452143e-07
-8.25527587236589e-07
2.64616927751447e-06
1.5517792552459e-07
-9.28030139965367e-07
2.87932546302678e-06
1.19125348136986e-07
-9.7739387750982e-07
2.90725050361112e-06
8.63356574705501e-08
-9.52024347818121e-07
2.77373841539864e-06
5.57541087637276e-08
-8.76990684508828e-07
2.62704481030959e-06
2.73026115612965e-08
-8.02210008775821e-07
1.21709988263928e-05
2.72270620594097e-08
-1.90528971302322e-07
2.63319972602716e-06
3.55619698670288e-07
-2.8609304790982e-07
1.34364130576256e-06
3.68790463515829e-07
-4.06247829644593e-07
1.33269817498132e-06
3.2661885675586e-07
-5.40158918973069e-07
1.60499087626324e-06
2.75386399347714e-07
-6.79079048387449e-07
1.98457675314665e-06
2.29935823157766e-07
-8.17240779294093e-07
2.40914511687924e-06
1.91443017645818e-07
-9.46815800028528e-07
2.80403138143375e-06
1.57353935135694e-07
-1.04917859533529e-06
3.06065373558166e-06
1.25243938665064e-07
-1.09282572592798e-06
3.08878748642345e-06
9.34806093893293e-08
-1.05534283870098e-06
2.94002703365009e-06
6.19168887886715e-08
-9.64686962731721e-07
2.78025850020261e-06
3.10097565352207e-08
-8.76412158608258e-07
9.83022771920228e-06
-1.67804751831601e-08
-8.28164497056687e-08
1.17932079061608e-05
-3.28271373889375e-08
-9.96803563689496e-08
2.73019522613431e-06
1.16776285197049e-08
-1.34802677107439e-07
1.30487043044617e-05
-4.00988124345696e-08
-1.19192238894658e-07
3.4278176360811e-06
3.17050552923042e-08
-1.68692553057973e-07
2.04904315500583e-06
1.46996061010743e-08
-1.87095651475098e-07
1.43916174592453e-05
-3.81015174008526e-08
-1.4093837176048e-07
3.86663771915189e-06
6.31484791672453e-08
-2.0635440971749e-07
2.49763509525682e-06
3.702376278758e-08
-2.362653367082e-07
1.9556913665774e-06
1.52663896098815e-08
-2.4383087992282e-07
1.52716784293266e-05
-2.8024619847045e-08
-1.59157374493869e-07
4.26351855517521e-06
1.04865995895098e-07
-2.45313008185031e-07
2.83209031453913e-06
7.12071136217045e-08
-2.93922879167109e-07
2.31174962817729e-06
3.91683211078092e-08
-3.09608331302299e-07
1.99192708971466e-06
1.56933892387858e-08
-3.05881956090937e-07
1.55405137010672e-05
-1.15600446744001e-08
-1.7256025252966e-07
4.41597762682111e-06
1.52609997015959e-07
-2.74568970745704e-07
3.06028914202193e-06
1.1568995654459e-07
-3.50834331509368e-07
2.60312469357982e-06
7.20322856656931e-08
-3.85570303692122e-07
2.28708094137371e-06
3.89168520823151e-08
-3.87493649276252e-07
2.06824807323284e-06
1.65273628224372e-08
-3.7333404102701e-07
1.53457748423042e-05
7.00452834993124e-09
-1.80614274238537e-07
4.33405389218652e-06
2.01940911428605e-07
-2.92996074585597e-07
3.05349514668388e-06
1.65929818159431e-07
-3.90758889550807e-07
2.76953416466696e-06
1.13597364155128e-07
-4.59626199618564e-07
2.54264085673674e-06
7.07540757004316e-08
-4.82001535083034e-07
2.32969750052061e-06
3.94233375280737e-08
-4.69707418418263e-07
2.15973597921401e-06
1.75304357285978e-08
-4.45469780794305e-07
1.48974626906388e-05
2.57511458704334e-08
-1.87912357395997e-07
4.10282244932372e-06
2.507356262577e-07
-3.03470922149512e-07
2.85650042689606e-06
2.17375738324709e-07
-4.12985762687427e-07
2.70930286719643e-06
1.60131325194381e-07
-5.09349459864679e-07
2.67123107260736e-06
1.0920092112381e-07
-5.71178969331064e-07
2.56836862504086e-06
7.00414839116511e-08
-5.82088773166047e-07
2.41135244165016e-06
4.07116354407519e-08
-5.55741526308585e-07
2.26168910884123e-06
1.87766543112183e-08
-5.2123259015536e-07
1.43371787767525e-05
3.99741153678672e-08
-1.9375088946793e-07
3.79387408881858e-06
2.93866803765955e-07
-3.09194453858748e-07
2.5542719731339e-06
2.66479831852707e-07
-4.23109228131029e-07
2.47823691278978e-06
2.07512694815134e-07
-5.34392412742089e-07
2.58703373292099e-06
1.51593475197006e-07
-6.29241965985063e-07
2.68190876816409e-06
1.06357292454149e-07
-6.85328250474096e-07
2.65375013007474e-06
7.08623090486875e-08
-6.85134545344016e-07
2.51846987138953e-06
4.28073564441918e-08
-6.44515688003068e-07
2.37488689984961e-06
2.0305605543193e-08
-5.99247326126032e-07
1.37312634355843e-05
4.34516781765365e-08
-1.99657313256848e-07
3.44813738298808e-06
3.26700591995969e-07
-3.10076833092156e-07
2.20056418954368e-06
3.08879165039672e-07
-4.24251896520065e-07
2.15743793056513e-06
2.51874286886825e-07
-5.42201315449659e-07
2.3467562407308e-06
1.94381047695263e-07
-6.55652277801811e-07
2.5920912051852e-06
1.46149492959136e-07
-7.50336980221971e-07
2.77096617394902e-06
1.06757037519066e-07
-8.01527136920074e-07
2.77815998764997e-06
7.37495750302735e-08
-7.89830094795615e-07
2.64478384485953e-06
4.64725532096916e-08
-7.34833682223396e-07
2.49961514722026e-06
2.24543230086002e-08
-6.78012896666236e-07
1.31055761604923e-05
2.95253608888161e-08
-2.0656289059853e-07
3.09051199749833e-06
3.43622475602398e-07
-3.06051883394443e-07
1.81977616202594e-06
3.40147305296615e-07
-4.15983664860805e-07
1.79350979473781e-06
2.89063664612237e-07
-5.36626558521475e-07
2.02646921887134e-06
2.335899525731e-07
-6.59439571926356e-07
2.35262745909873e-06
1.85664147031692e-07
-7.76361955162912e-07
2.6863119120461e-06
1.45466956302123e-07
-8.71591462724694e-07
2.91054169863402e-06
1.10183739663721e-07
-9.17912918231266e-07
2.92925384080183e-06
7.97474309456244e-08
-8.94437011474675e-07
2.78754553912559e-06
5.13450556133105e-08
-8.24723572844406e-07
2.63476143220513e-06
2.50799265329654e-08
-7.55468666086631e-07
1.24652619221923e-05
-9.83246691675988e-09
-2.0580290245209e-07
2.74080332509725e-06
3.38625099781057e-07
-2.91498291427462e-07
1.42680654194443e-06
3.55236343120827e-07
-3.96150866771287e-07
1.40479926244219e-06
3.14743194899617e-07
-5.17601693697264e-07
1.66622624457173e-06
2.65003719385453e-07
-6.45918338599206e-07
2.03596594139144e-06
2.20631133816007e-07
-7.74401774676744e-07
2.45127602927925e-06
1.82812876990172e-07
-8.95294074240709e-07
2.83676413716532e-06
1.49290874841485e-07
-9.90928560988308e-07
3.08326085698384e-06
1.17952001623343e-07
-1.03161721006854e-06
3.10153013772914e-06
8.73306978507857e-08
-9.96343512672887e-07
2.94452158700695e-06
5.73205796245389e-08
-9.115031044363e-07
2.7789088676004e-06
2.84982570247486e-08
-8.29358660244759e-07
1.18105528802607e-05
-8.19119381979843e-08
-1.8474894889389e-07
2.41490037281912e-06
3.04591327639343e-07
-2.5982512451348e-07
1.03220696827007e-06
3.4908979997082e-07
-3.62914829005032e-07
1.00098518867217e-06
3.24476082326934e-07
-4.84567122614455e-07
1.28148551084598e-06
2.84484825747312e-07
-6.15748554763323e-07
1.6808995684171e-06
2.46793174866077e-07
-7.50919700684801e-07
2.13826878831484e-06
2.1427461313522e-07
-8.84861871236511e-07
2.60798028964838e-06
1.85020958043375e-07
-1.00906739436723e-06
3.02358657379404e-06
1.56900013776292e-07
-1.10460336799343e-06
3.28114445610293e-06
1.27983923717968e-07
-1.13984920138725e-06
3.29143410390484e-06
9.72598573718809e-08
-1.0927102237783e-06
3.1141508660813e-06
6.5277722240529e-08
-9.92535634502808e-07
2.93155511693877e-06
3.29990592118951e-08
-8.9725454013691e-07
9.92914438803532e-06
-1.7195884632458e-08
-8.17228215113055e-08
1.1911275361861e-05