/*--------------------------------*- C++ -*----------------------------------*\
  =========                 |
  \\      /  F ield         | OpenFOAM: The Open Source CFD Toolbox
   \\    /   O peration     | Website:  https://openfoam.org
    \\  /    A nd           | Version:  12
     \\/     M anipulation  |
\*---------------------------------------------------------------------------*/
/*   Windows 32 and 64 bit porting by blueCAPE: http://www.bluecape.com.pt   *\
|  Based on Windows porting (2.0.x v4) by Symscape: http://www.symscape.com   |
\*---------------------------------------------------------------------------*/
FoamFile
{
    format      ascii;
    class       volVectorField;
    location    "100";
    object      U;
}
// * * * * * * * * * * * * * * * * * * * * * * * * * * * * * * * * * * * * * //

dimensions      [0 1 -1 0 0 0 0];

internalField   nonuniform List<vector> 
10116
(
(1.52845408474209e-05 0.000315818004266866 5.96159946659629e-05)
(1.61414908449517e-05 0.000344571244744329 5.51092121639522e-05)
(4.79906023798453e-05 4.93146669129518e-05 5.84449393382327e-05)
(1.20510313824977e-05 0.000409700132985284 0.000113562557150614)
(1.63547242970972e-05 0.000369138488673048 5.0740785338108e-05)
(4.87326675640329e-05 6.27310962505225e-05 5.53482187964999e-05)
(1.20547763082566e-05 0.000435654187226988 0.00010499251859556)
(8.46973503920498e-05 -5.19694466160083e-05 5.78663055009342e-05)
(3.81702266304172e-05 0.000234040886201876 0.000109514432019712)
(9.64686933531774e-06 0.000579774668960113 0.000171729149024016)
(1.50830629969987e-05 0.000390484435714062 4.59523942226002e-05)
(4.80678020674883e-05 8.23358903852482e-05 5.08654261374885e-05)
(1.18127035790847e-05 0.000458973372251887 9.64282522572048e-05)
(8.33524058122038e-05 -4.47152708429499e-05 5.60877931889005e-05)
(3.71514695863e-05 0.000249965319474391 0.000102364235143144)
(9.4344065383126e-06 0.000605627960137781 0.000158323486751681)
(0.000122353177372091 -0.000124493552839625 5.73224113737668e-05)
(6.77349249809707e-05 0.000149919326928617 0.000106475988100682)
(3.00260495845788e-05 0.000493355530134716 0.000167274188994859)
(8.13767734105479e-06 0.000691355251248795 0.000226928340242493)
(1.36339536622775e-05 0.000410115518502936 4.13471080451367e-05)
(4.49209303223018e-05 0.000100257689172565 4.54841773657478e-05)
(1.10672687225632e-05 0.000479556737209926 8.75586970465938e-05)
(8.02898024766772e-05 -2.64552162729818e-05 5.25484333999719e-05)
(3.59680382594936e-05 0.000268152740449743 9.42097867386338e-05)
(9.03115506652199e-06 0.000628777049778842 0.00014513865194338)
(0.000118465653856744 -0.000119008877326112 5.65215807468762e-05)
(6.60631765323649e-05 0.000160748874489642 9.99089752981467e-05)
(2.93089290497831e-05 0.000513670744037123 0.000154706006118797)
(7.875622637068e-06 0.000715256920402034 0.000209444526716504)
(0.000159039652292184 -0.000216986191959964 5.30032665092806e-05)
(9.79202631633631e-05 7.94927288586742e-05 0.000102806853168947)
(5.32788777176633e-05 0.00043364079970087 0.000163414378447604)
(2.47423790038723e-05 0.000637267587789962 0.000221588034509657)
(6.97862153969796e-06 0.000797204665707056 0.000275893077307709)
(1.24189968652972e-05 0.000427169867598292 3.71933304333861e-05)
(4.12588489584843e-05 0.000116941721494714 4.07525760891279e-05)
(1.01810295007282e-05 0.000498221964287797 7.91815409327306e-05)
(7.5082548380981e-05 -9.17708643952803e-06 4.70841673203182e-05)
(3.44311247514936e-05 0.000286303641888542 8.51448489498994e-05)
(8.44520476641963e-06 0.00064970316022718 0.000132281422193197)
(0.000113158665123748 -0.000101315516727637 5.35961175529792e-05)
(6.32104183120387e-05 0.000176437975703048 9.24780131373051e-05)
(2.80198134530134e-05 0.000533949061298898 0.000142052432517379)
(7.48047728503289e-06 0.000737138615008672 0.000192352089678606)
(0.000153322178865113 -0.000213290016442152 5.23397599286095e-05)
(9.48742275940944e-05 8.78813205602915e-05 9.72252394915365e-05)
(5.1749019160596e-05 0.000450583436279929 0.000151804830655119)
(2.40172522738841e-05 0.000657815206983315 0.000204983215901943)
(6.73660817792942e-06 0.000818683083152521 0.000255369396117344)
(0.000192756977027785 -0.000333593403336543 4.77581325989459e-05)
(0.000127166894551074 -7.67251732926088e-06 9.66885575556921e-05)
(7.75694660811401e-05 0.000370103422863988 0.000157813296229435)
(4.3675937689479e-05 0.000589282853557173 0.000216372420082066)
(2.10831443769459e-05 0.000754403261128087 0.000269161485515233)
(6.16809193901716e-06 0.000908278959579596 0.000319166437923051)
(1.13648309777549e-05 0.000441659065541649 3.35671109058113e-05)
(3.80202087684199e-05 0.000130814988316003 3.66792798335678e-05)
(9.34539833869571e-06 0.000515087665961183 7.15883991325754e-05)
(6.95639047929402e-05 7.39555326389595e-06 4.22872409199758e-05)
(3.19626493588411e-05 0.000303047137624539 7.71741779256989e-05)
(7.81073330767933e-06 0.000668945358863982 0.000120270063301195)
(0.000106264460566321 -8.42238873760639e-05 4.83451654238264e-05)
(5.95384571137147e-05 0.000193670364387573 8.423959208114e-05)
(2.6310799705e-05 0.000553590433307042 0.000129686976685667)
(6.99799741112683e-06 0.000757327402714591 0.000175971512618423)
(0.000146220926183126 -0.000195533601472417 5.11889523511855e-05)
(9.06792627044881e-05 0.000102279267965845 9.0639253863056e-05)
(4.93751767950731e-05 0.000469168632372838 0.000139769499703391)
(2.28498876424386e-05 0.000677872299056929 0.000188604376471458)
(6.37969756335998e-06 0.000838844016578691 0.000235282239141401)
(0.000185887914776105 -0.000331285770774762 4.71729574231447e-05)
(0.000123000283071314 -7.25091125914083e-07 9.22976689572523e-05)
(7.51163158679924e-05 0.000385189266062616 0.000147412994755709)
(4.23702517747671e-05 0.000607577484040759 0.000200851774626432)
(2.04326734044674e-05 0.000773515177265585 0.000249691169980034)
(5.95082717550688e-06 0.000927176969633715 0.000296439020451104)
(0.000221852183135338 -0.000471666532001264 4.25223428614593e-05)
(0.000153850007908257 -0.000112721154133223 8.83327402572293e-05)
(0.000101238997806327 0.000287700407253237 0.000148804530382675)
(6.38756679915359e-05 0.000530064783936879 0.00020860942332804)
(3.71908885212818e-05 0.000710277235549699 0.000262316353177126)
(1.86922610812323e-05 0.000867976042484034 0.000310817705573131)
(5.65942476719433e-06 0.00102386348225311 0.000357095953358476)
(1.038497333832e-05 0.000454187753603638 3.05032938501901e-05)
(3.50741905291031e-05 0.000141947487139029 3.31592007476486e-05)
(8.57261869325421e-06 0.000530354640108596 6.49521355095001e-05)
(6.44502292609073e-05 2.09726777878382e-05 3.82088000318812e-05)
(2.9527208842332e-05 0.000317970454660824 7.000262160491e-05)
(7.18315686806854e-06 0.000686807346448514 0.00010941232842165)
(9.90836978810829e-05 -6.73356262760735e-05 4.37011076623751e-05)
(5.54623027442951e-05 0.00020998428555416 7.66423560311349e-05)
(2.4428285136064e-05 0.000571913037121156 0.00011819982927551)
(6.48187114166503e-06 0.000776246652525355 0.000160755994367771)
(0.000137771396438414 -0.000178683907179532 4.78241680039645e-05)
(8.55480469870476e-05 0.000119214493968692 8.30414185254889e-05)
(4.64196648381878e-05 0.000488207862671707 0.000127994788446999)
(2.14244011428634e-05 0.00069720912834596 0.000172911921027533)
(5.9597645386052e-06 0.000857849245354822 0.000216112033528264)
(0.000177157455634372 -0.00031353939265616 4.55767928484673e-05)
(0.000117518962532482 1.29318393799224e-05 8.68362173844125e-05)
(7.16874842712319e-05 0.000402766809298552 0.000136331769055488)
(4.03647284353451e-05 0.000626446810547737 0.000185334294905855)
(1.94000166616759e-05 0.000792316875936851 0.000230532945493378)
(5.62100713623974e-06 0.000945354736376387 0.000274114444015996)
(0.000214413291530834 -0.000470223411532308 4.28301476693179e-05)
(0.000148970177463344 -0.000106716868277286 8.52959101751272e-05)
(9.80136969566931e-05 0.000301725680752729 0.000139931213202466)
(6.19343595950839e-05 0.000547047690411498 0.000194549732885697)
(3.60626769992045e-05 0.000727722790770815 0.000244094669764956)
(1.80921114356164e-05 0.000885043963299657 0.000289316007254815)
(5.4385226841629e-06 0.00104003578311515 0.000332808035129875)
(0.000245089274807802 -0.000627913130290775 3.64613398285994e-05)
(0.000176385055243111 -0.000233149652359015 7.85393476964406e-05)
(0.00012266733888966 0.000186643589316072 0.000136744986155986)
(8.36881540914754e-05 0.000450043294379179 0.00019677212664772)
(5.45182776607721e-05 0.000651633110845619 0.000252485947065444)
(3.29058619482178e-05 0.000823361756652056 0.000302282673202149)
(1.72275401027947e-05 0.000982439306510987 0.000347306248201697)
(5.39212170258974e-06 0.00114088320170563 0.000390227675902304)
(9.50438770041011e-06 0.000465455204165362 2.80122052151747e-05)
(3.22602776413792e-05 0.000151007086602933 3.01165507593431e-05)
(7.85649422986555e-06 0.000544358354750373 5.93248818641599e-05)
(5.963846573802e-05 3.16102991705113e-05 3.4670660987292e-05)
(2.72164768587286e-05 0.000331225992706086 6.36803847064928e-05)
(6.57948397446218e-06 0.000703563833374799 9.98945368724638e-05)
(9.20954536785024e-05 -5.34760071914183e-05 3.97519667780794e-05)
(5.1428666885978e-05 0.000224435015815016 6.97615333046042e-05)
(2.25368187266725e-05 0.000588883586156922 0.000107760675486916)
(5.95473925756811e-06 0.000794197037349471 0.000147011889666671)
(0.000128895203380811 -0.000161593859276694 4.38200010876455e-05)
(7.99943099868285e-05 0.000135548730981035 7.59298125901035e-05)
(4.32103114908596e-05 0.000506200584002075 0.00011701108189518)
(1.9886772671614e-05 0.000715536764569054 0.000158299440190896)
(5.50805049528613e-06 0.000876032226604763 0.000198324079562981)
(0.000167321449941977 -0.000296786614921068 4.2882156765598e-05)
(0.00011108493862296 2.97206680337396e-05 8.01440788709564e-05)
(6.75447734759411e-05 0.000421527507773868 0.000125372650904366)
(3.79124595986096e-05 0.000645314695407381 0.000170402842363789)
(1.81609117565949e-05 0.000810645560504716 0.000212209805108276)
(5.23306210097225e-06 0.00096288560552589 0.000252800096392461)
(0.000204767266239305 -0.000452657412432406 4.19401471229623e-05)
(0.000142442435699673 -9.34785364873793e-05 8.10022182364707e-05)
(9.3610964405157e-05 0.000318726018513684 0.000130159516254949)
(5.90812740288812e-05 0.000565177097965131 0.000180248294568338)
(3.43075445863268e-05 0.000745599343228381 0.000226010606436862)
(1.71307915136643e-05 0.00090213150033729 0.000268094804986324)
(5.11645758914473e-06 0.00105599960432634 0.000308867902958376)
(0.000237622943918107 -0.00062731676035508 3.78060904846036e-05)
(0.000171178723003021 -0.000227768990004435 7.69768504053634e-05)
(0.000118913722368187 0.000200062969326323 0.00012961978289986)
(8.11725932325493e-05 0.000466287592679115 0.000184511566345084)
(5.29081016481797e-05 0.000668099951039201 0.000235927441323583)
(3.18784057927889e-05 0.000839096006449008 0.000282180597174506)
(1.66262713874971e-05 0.000997134432396155 0.000324365644749742)
(5.15739947735713e-06 0.00115416447618082 0.000364870745792474)
(0.000261433042287665 -0.000799307655690689 3.01182707235477e-05)
(0.000193706503363957 -0.000366400944837898 6.7723361689914e-05)
(0.000140571158539554 6.96281801007998e-05 0.000122564337363717)
(0.000101532800877945 0.00035050720599823 0.000181332303991505)
(7.15316314054948e-05 0.000571427938169082 0.000238181761534445)
(4.82161124049572e-05 0.000762982057605151 0.000290588415821938)
(3.02156538893088e-05 0.000935429647234662 0.000337278044006564)
(1.64620093116524e-05 0.00109742220836305 0.000379322352186063)
(5.31397645069848e-06 0.00125671274563459 0.00041914104752057)
(8.73273474657433e-06 0.000475982222230842 2.61266259377156e-05)
(2.96700400667926e-05 0.000158845699609181 2.76323894384266e-05)
(7.20479547739889e-06 0.000557484522734569 5.47039795038418e-05)
(5.50003437703674e-05 4.00162878405623e-05 3.15282399643472e-05)
(2.50457290008687e-05 0.000343185144077585 5.82337622871457e-05)
(6.00609696512307e-06 0.000719467194387681 9.17803523285153e-05)
(8.53033974239291e-05 -4.26800125150799e-05 3.62554720242807e-05)
(4.75523187083384e-05 0.000237103453967012 6.36358017294613e-05)
(2.06935440805538e-05 0.000604724329154074 9.85275467599188e-05)
(5.43328468891758e-06 0.000811410657055972 0.000134931890484132)
(0.000119992115467748 -0.000147530962505346 4.03452271916012e-05)
(7.44000639059164e-05 0.00015002207200098 6.94246775759959e-05)
(3.99558009175619e-05 0.000522859402156037 0.000106956566001542)
(1.8306195668807e-05 0.000732954165719572 0.000145015461052072)
(5.04164744058609e-06 0.000893646958363167 0.00018225100840583)
(0.000157320317602514 -0.000279550647905147 4.11184663276079e-05)
(0.000104176260103181 4.61257562371558e-05 7.37525762823348e-05)
(6.3032511824046e-05 0.000439451777476333 0.000115059664707337)
(3.52375891594668e-05 0.000663353490245962 0.000156419987386801)
(1.68145490043108e-05 0.00082835123303562 0.000195120455093845)
(4.81160602728937e-06 0.000980032282156819 0.000233005681379081)
(0.000193876995823714 -0.000436225669936609 3.96099468475393e-05)
(0.000134870328990985 -7.67024095032066e-05 7.52935487438204e-05)
(8.83653671209502e-05 0.000337360056736737 0.000120309679037477)
(5.55993740468599e-05 0.000583805884165519 0.000166350660936602)
(3.21611775389777e-05 0.000763515645405183 0.00020862641799225)
(1.59777236800657e-05 0.000919097206309192 0.000247764269811478)
(4.7365363586368e-06 0.00107178365335284 0.000285976561735719)
(0.000227473447833657 -0.000610146388029911 3.77194101810926e-05)
(0.000163997483513187 -0.000214758275571598 7.39803144799651e-05)
(0.000113711013675876 0.000216777064589398 0.000121371977283718)
(7.75254429338282e-05 0.000484025843747777 0.000171782166987009)
(5.04283270573407e-05 0.000685429235618528 0.000219281561938397)
(3.02481622177458e-05 0.000855433036353603 0.000262208043048927)
(1.56775103520255e-05 0.00101221350595297 0.000301653443142332)
(4.82353204290517e-06 0.00116768225531202 0.000339815308391756)
(0.000254547502147276 -0.000799747123622492 3.27464860462509e-05)
(0.000188549929183172 -0.000361511969767697 6.77360773635692e-05)
(0.000136553284172601 8.26834994633371e-05 0.000117304432000051)
(9.86166793066489e-05 0.000366417645232848 0.000171144746600874)
(6.94919409955396e-05 0.000587429399850757 0.000223684086802509)
(4.676192429816e-05 0.000777972348377697 0.000272306176496404)
(2.92081157503579e-05 0.000949053648832283 0.000315862607312448)
(1.58089982234653e-05 0.0011094773688118 0.000355379074375296)
(5.05580065318051e-06 0.00126687975607891 0.000393093063517392)
(0.000270362299997425 -0.00098414517080509 2.42719951157028e-05)
(0.000205376028118225 -0.00051019930623295 5.64179158680429e-05)
(0.000154198625610527 -6.04550764495401e-05 0.000106893613173003)
(0.00011640291583842 0.000234795664801455 0.000163301520056221)
(8.68493646068617e-05 0.000471661125470045 0.000219985637040607)
(6.32167475721421e-05 0.000681197792189 0.000274218453625768)
(4.41476484816257e-05 0.000872346983685392 0.000324005026105628)
(2.87369879579142e-05 0.00104765734263504 0.000368093916636274)
(1.62266862073937e-05 0.00121137825217947 0.000407413830174276)
(5.38577241731091e-06 0.00136945116114822 0.000444298950957163)
(8.04563498259594e-06 0.000486198616548583 2.49514569358898e-05)
(2.73589558702797e-05 0.00016601915633954 2.57370408363652e-05)
(6.62307413850667e-06 0.000570061767571044 5.10616290958231e-05)
(5.06897017837857e-05 4.72066626054318e-05 2.89298760682818e-05)
(2.30420654812762e-05 0.000354266704755844 5.37207109133332e-05)
(5.47098479146659e-06 0.000734771484110566 8.50657415535284e-05)
(7.87430600350599e-05 -3.42253000523048e-05 3.30417464823903e-05)
(4.38679306414763e-05 0.000248406253867883 5.82826301230661e-05)
(1.8929934899327e-05 0.000619689973960103 9.05869875614351e-05)
(4.93051571508764e-06 0.000828092275914835 0.000124595489168731)
(0.000111149593876252 -0.000136515130113061 3.70259126755617e-05)
(6.89330845401565e-05 0.000162620751082268 6.3548254494868e-05)
(3.67624687625526e-05 0.000538352187727368 9.79833508468572e-05)
(1.67314344088025e-05 0.00074964169082115 0.000133253126272558)
(4.57552981620025e-06 0.000910875511671522 0.000168098087035449)
(0.000146882611751193 -0.000265318145623197 3.93744805061591e-05)
(9.71171115977384e-05 6.06880086328007e-05 6.78193618007444e-05)
(5.84074394496807e-05 0.00045606183812794 0.000105516053474433)
(3.24779967155241e-05 0.000680514206048855 0.000143611875515198)
(1.54130953189912e-05 0.000845548383145993 0.000179577026340728)
(4.37338320080866e-06 0.000996998789421142 0.000215099895988559)
(0.000182338814945097 -0.000419182425037926 3.72614383744813e-05)
(0.000126763770915151 -6.01884818803337e-05 6.9859709393042e-05)
(8.26412793403087e-05 0.000355308099829317 0.00011091468552498)
(5.17627346705106e-05 0.00060174960203058 0.000153207864472047)
(2.97987893987599e-05 0.00078093882071405 0.000192296182899224)
(1.4716687716172e-05 0.000935828738434822 0.000228767118481403)
(4.3234247340723e-06 0.00108760326987742 0.000264692063487132)
(0.000215693015422153 -0.000594143962810837 3.59980600288623e-05)
(0.000155594651626485 -0.000197996641760143 6.93274872986501e-05)
(0.000107517766242072 0.000235407544465986 0.000112831333360688)
(7.30824717020669e-05 0.000502569363441404 0.000159234302943547)
(4.73573851759616e-05 0.000703147433618398 0.000203122424487054)
(2.82501780384217e-05 0.00087203840384423 0.000242966603006886)
(1.45396145200968e-05 0.00102753253532216 0.000279848003425736)
(4.43394423993092e-06 0.00118145126205023 0.000315824879271175)
(0.000244105736916901 -0.000783365213270603 3.36948241917905e-05)
(0.000181087729274744 -0.000348688264279771 6.61255218713173e-05)
(0.000130813748081596 9.92787303445163e-05 0.000110701787170289)
(9.43246026199957e-05 0.000384028682828722 0.000160247548614779)
(6.63371263256426e-05 0.000604496137946048 0.000208817550776995)
(4.4479834063242e-05 0.000793887875708221 0.000253930588850587)
(2.76087532508222e-05 0.000963511784028594 0.00029452123907207)
(1.48250810605258e-05 0.00112227456427965 0.00033162721576484)
(4.69978818658595e-06 0.00127769717757583 0.000367319825507911)
(0.000264210416887864 -0.000986130634194831 2.84768750325552e-05)
(0.00020064642226467 -0.000505803520162783 5.80822818811125e-05)
(0.000150186938688767 -4.76646669616502e-05 0.000103590975494899)
(0.000113281347585714 0.000250569637026861 0.00015532392542926)
(8.44760999241042e-05 0.000487501863708063 0.000207785331220699)
(6.14084611325835e-05 0.000695924610668186 0.000258185477170345)
(4.27246733998794e-05 0.000885421791382349 0.000304529702423832)
(2.76669245640925e-05 0.00105884391006777 0.000345762887996508)
(1.55012006699277e-05 0.00122052433736478 0.000382817168126562)
(5.09465064313043e-06 0.00137624887462392 0.00041787515411798)
(0.000270867444627049 -0.00118164571727495 1.8879178241373e-05)
(0.00021102236570808 -0.000662108205565137 4.51423757808819e-05)
(0.000163285239957902 -0.00020084203059199 9.03925426895553e-05)
(0.000127770434760922 0.000106160949175068 0.000143510554094729)
(9.96005454289577e-05 0.000355962820877041 0.000198888106657504)
(7.67152289206279e-05 0.000580352130470273 0.00025378589563284)
(5.7769129411322e-05 0.00078847946120827 0.000305967150625491)
(4.18136091232003e-05 0.000981827283307388 0.000353530561007727)
(2.82199572126136e-05 0.00115918885708446 0.00039524700726519)
(1.64322834434057e-05 0.00132266365475553 0.000431962349461969)
(5.58487915354995e-06 0.00147769605795827 0.00046599880168629)
(7.48196836927483e-06 0.000496489874968471 2.43030495758081e-05)
(2.53446419661796e-05 0.000172987882358976 2.44511724044962e-05)
(6.11112531177996e-06 0.000582375869511151 4.83568889856135e-05)
(4.67886753249319e-05 5.37412118143195e-05 2.69105253011313e-05)
(2.12313365858203e-05 0.000364823226727274 5.01429664218796e-05)
(4.98047263402624e-06 0.000749718839549749 7.97060600150214e-05)
(7.26330118938895e-05 -2.69842203315842e-05 3.03500317522068e-05)
(4.04393150126334e-05 0.000258807221509108 5.38279691590114e-05)
(1.72734692943093e-05 0.000634045776199218 8.39703658972996e-05)
(4.45478736143696e-06 0.000844438714441479 0.000115999470063949)
(0.000102673756746366 -0.000127915415306429 3.38119781041586e-05)
(6.3699764748938e-05 0.000173781250714873 5.83176840082504e-05)
(3.36983641575371e-05 0.000552939380133287 9.01973055166626e-05)
(1.5199170986616e-05 0.00076579002744052 0.000123118547022742)
(4.12116179142727e-06 0.000927878366432988 0.000155954518487406)
(0.00013608296232988 -0.000254094696276814 3.64492692805827e-05)
(9.0119306499466e-05 7.33110966212666e-05 6.23214702855386e-05)
(5.38345845513962e-05 0.000471469258696583 9.68995063685799e-05)
(2.97275331874152e-05 0.000696938355784402 0.000132175837363309)
(1.40028773802566e-05 0.000862370720635228 0.000165800092937081)
(3.93303216258407e-06 0.00101392536842704 0.000199311028126232)
(0.000170050948794419 -0.000404752128205572 3.4854885924463e-05)
(0.000118381504851856 -4.55527844690289e-05 6.46804618836295e-05)
(7.67264999555419e-05 0.000371963660665568 0.000102097756920969)
(4.77751633358737e-05 0.000618833273577735 0.000141040173324631)
(2.73360529211825e-05 0.000797884879864479 0.000177325596515856)
(1.33991981530053e-05 0.00095242467040743 0.000211469745038798)
(3.89496593902379e-06 0.00110361870221394 0.000245415837464238)
(0.00020266418142144 -0.000577171658051654 3.40901327509862e-05)
(0.000146478217719615 -0.000181428855103648 6.47636468336027e-05)
(0.000100741795837697 0.000253448276983054 0.000104553870618237)
(6.81560418869866e-05 0.000520521412907017 0.000147209310638015)
(4.39345902225487e-05 0.000720464255097994 0.000187787211714097)
(2.60382359224953e-05 0.000888500608443153 0.000224849489001631)
(1.32935540985782e-05 0.00104299765172175 0.000259441471550777)
(4.01085085872557e-06 0.0011956562828972 0.000293492706377327)
(0.000231388160979563 -0.000767815232319403 3.26914867267648e-05)
(0.00017216879675421 -0.000331958496885124 6.26333216733785e-05)
(0.000123921806674789 0.000117974948757879 0.000103578509919349)
(8.90677999873727e-05 0.000402617766683249 0.000149276959981265)
(6.24013270599098e-05 0.000622163181930028 0.000194196688824516)
(4.1623167282504e-05 0.00081033673414949 0.000236067656178346)
(2.56438105561743e-05 0.00097852687226507 0.000273905720130399)
(1.36631519009509e-05 0.00113567678423781 0.000308789083971682)
(4.28928378628991e-06 0.00128917562802143 0.000342622939532608)
(0.000253371240719877 -0.000970346355936382 3.06022619416175e-05)
(0.000193203810203002 -0.000493257555513729 5.79420889969833e-05)
(0.000144203858765785 -3.11280644408733e-05 9.87276856001944e-05)
(0.000108541633245107 0.000268200798842858 0.000146394623374039)
(8.07560074719298e-05 0.000504558834219133 0.000194973960147475)
(5.85167630265806e-05 0.000711719959954974 0.000241773492391623)
(4.04840810355397e-05 0.00089957258670538 0.00028489926791171)
(2.60225351612841e-05 0.00107115819554405 0.000323462699814902)
(1.44508084797321e-05 0.00123076459695084 0.000358387555956742)
(4.7080073336049e-06 0.00138409676030227 0.000391716255210137)
(0.000265254725769447 -0.00118498125386877 2.45987425213841e-05)
(0.000207002049681573 -0.000658475059530643 4.85345653835329e-05)
(0.000159533726819483 -0.000188308243761045 8.90843925146303e-05)
(0.000124635126984953 0.000121879001797868 0.000137815670504352)
(9.70595710781327e-05 0.00037183917738937 0.000189147396343777)
(7.46407946113105e-05 0.000595098244767556 0.000240235587636632)
(5.60118355883371e-05 0.000801431460004187 0.000288841943424543)
(4.03294067441484e-05 0.00099264025245131 0.000333229176441585)
(2.70249260286299e-05 0.00116765114396722 0.000372314760832794)
(1.56007594275193e-05 0.00132862913513849 0.000407010476553113)
(5.24963810092687e-06 0.00148086239255331 0.000439479808212492)
(0.000262029387972385 -0.00139013329645782 1.61968053103702e-05)
(0.00021037651587892 -0.000819832503104959 3.43964719764171e-05)
(0.00016766981223929 -0.000348697602357221 7.37775213222e-05)
(0.000135430562283617 -3.23917951665574e-05 0.000122737652619854)
(0.00010940776714066 0.000227736156482699 0.000175841441891267)
(8.79881664901343e-05 0.000464110789520765 0.00023027180392826)
(7.00274102047718e-05 0.000686249706402943 0.000283724119388774)
(5.45975488611914e-05 0.000895850841248314 0.000334126261852564)
(4.09213481245041e-05 0.00109095191227983 0.000379638084289119)
(2.85014638795268e-05 0.00126855634055106 0.000419055111173335)
(1.70098309435093e-05 0.00142986051910125 0.000453212289960451)
(5.88336931707572e-06 0.00158039111765409 0.000484408367165721)
(7.0932383498794e-06 0.000507307706040176 2.41192033651405e-05)
(2.36223275036715e-05 0.000180233172598439 2.38104343270425e-05)
(5.6699873875311e-06 0.000594683760460648 4.65436791587308e-05)
(4.33331636818052e-05 6.00871352497965e-05 2.55465730812492e-05)
(1.96133706904821e-05 0.000375160538214923 4.74823845161453e-05)
(4.53634083611353e-06 0.000764532151901667 7.56306885364602e-05)
(6.70607633396526e-05 -2.04125223107353e-05 2.8258599971926e-05)
(3.73119968051209e-05 0.000268671327696865 5.02592054083643e-05)
(1.57463586483275e-05 0.00064804213759322 7.8666309324661e-05)
(4.01034069127656e-06 0.000860642064162949 0.000109086624882162)
(9.47986354986881e-05 -0.000120508930960686 3.10901222232677e-05)
(5.88064032033012e-05 0.000184006432407772 5.38964618797124e-05)
(3.08147586590838e-05 0.00056689570547826 8.36646717768874e-05)
(1.37370566328745e-05 0.00078159242751614 0.000114641327724733)
(3.68688673558709e-06 0.000944811165646671 0.00014582310000318)
(0.000125781855593021 -0.000245254507438878 3.3354774341037e-05)
(8.33909354727204e-05 8.44440704525285e-05 5.73112895186575e-05)
(4.94264523001138e-05 0.00048592867255804 8.93398244136788e-05)
(2.70525923892876e-05 0.00071280703462333 0.000122246261830127)
(1.26176953566406e-05 0.000878961215947172 0.00015390790519313)
(3.50224711107623e-06 0.00103093272180176 0.00018573834544636)
(0.000157648246082107 -0.000393431921219136 3.2267594334861e-05)
(0.000109992472607001 -3.28773928094264e-05 5.96552442011005e-05)
(7.08332088132364e-05 0.000387380889114441 9.40177053041053e-05)
(4.37858413924641e-05 0.000635158407401081 0.000130069340174999)
(2.48560882710329e-05 0.000814455938390244 0.000163956775387526)
(1.20648523005381e-05 0.000968984306838584 0.000196123002992915)
(3.46621811034017e-06 0.00111993687494956 0.000228398000425903)
(0.000188865923504067 -0.000562644771075227 3.19467591181978e-05)
(0.000136959281474752 -0.000166730539969427 6.01940858745189e-05)
(9.36912783829946e-05 0.00027020058472467 9.66332949502233e-05)
(6.30019353349397e-05 0.000537621384861027 0.000135932189607661)
(4.0342407376087e-05 0.000737304139766403 0.00017358688385862)
(2.37203208520728e-05 0.000904840579441993 0.00020822445147061)
(1.19939816608089e-05 0.00105868310996446 0.000240838199750773)
(3.57644777184617e-06 0.00121042595269132 0.000273247788504526)
(0.000217139853604356 -0.000750685758353901 3.12218240281863e-05)
(0.00016233123774652 -0.000315406942006185 5.90075260013845e-05)
(0.00011632517050853 0.000136137909000214 9.64846526767933e-05)
(8.32088143089421e-05 0.000420669370989668 0.000138574360300116)
(5.79760000115189e-05 0.000639483430375744 0.000180137517548803)
(3.8416236611324e-05 0.000826691779154173 0.000219073130694346)
(2.34691581055257e-05 0.00099374655616443 0.00025446793100357)
(1.23878436201694e-05 0.00114959288152023 0.000287389826270629)
(3.84757801752584e-06 0.00130147933309831 0.000319617284897692)
(0.000239899686496193 -0.000954954040527042 3.01829452106696e-05)
(0.000183998184921268 -0.000476688351335261 5.56503459519165e-05)
(0.000136896056144142 -1.23485947370469e-05 9.30993505346339e-05)
(0.000102676381561815 0.000286918973252551 0.000137128763830884)
(7.60856667666106e-05 0.000522321567593242 0.000182127163913182)
(5.48530740333464e-05 0.000728164661625878 0.000225588304740101)
(3.76930019849951e-05 0.000914481468777148 0.000265768404941634)
(2.4025259668218e-05 0.00108432759493613 0.000301892384865402)
(1.32192565086375e-05 0.00124197270812766 0.000334881582724707)
(4.26780860321284e-06 0.00139300103136241 0.000366641111918079)
(0.000254552150702947 -0.0011695130599268 2.78531206726939e-05)
(0.000199840536757335 -0.000646459471459764 4.99491565892409e-05)
(0.000153570256512741 -0.000171842756072115 8.60122388380884e-05)
(0.000119666125071267 0.000139596380287104 0.000130932211997721)
(9.29437908955445e-05 0.000389039700066752 0.000178536433777252)
(7.12190678737903e-05 0.000610987100988193 0.000226033816268488)
(5.318582636068e-05 0.000815588882922207 0.000271293714991428)
(3.80342451585528e-05 0.00100475901132041 0.000312719663601627)
(2.52740295315018e-05 0.00117752593377291 0.000349389106505301)
(1.44559086403876e-05 0.00133603492964571 0.000382217377875913)
(4.82242804332737e-06 0.00148547186702743 0.000413229358655037)
(0.000257761385244597 -0.00139441451990495 2.19617264479595e-05)
(0.000207214052940522 -0.000817231543730533 3.95364868373774e-05)
(0.000164401657052043 -0.000336510093776748 7.44858823564819e-05)
(0.000132456174862003 -1.6717089225804e-05 0.000119344170135688)
(0.00010684325752203 0.000243738897120582 0.000168629834035829)
(8.5745309146705e-05 0.000479052922822567 0.000219357204347168)
(6.80202895364137e-05 0.000699393328460596 0.000269225809934052)
(5.27525644888884e-05 0.000906721199478213 0.000316255209825587)
(3.92678898526454e-05 0.00109922069663564 0.000358795839583528)
(2.71301233644731e-05 0.00127401392835668 0.000395799034835468)
(1.60487023178784e-05 0.00143236858108209 0.000428166878590701)
(5.49971617356857e-06 0.00157967128781125 0.000458050716783625)
(0.000245588665482414 -0.00160782699322778 1.51451412560758e-05)
(0.000203546796015371 -0.000981045872481451 2.48680625130183e-05)
(0.000167308694213554 -0.000501148780233231 5.76705189491893e-05)
(0.000139305108746579 -0.000177844427569798 0.000101804395129367)
(0.000116113047996668 9.00918581293862e-05 0.000151730754776315)
(9.66962744186783e-05 0.000335903240223956 0.000204677969969776)
(8.0295186151815e-05 0.000569288678416804 0.000258294996342345)