/*--------------------------------*- C++ -*----------------------------------*\
  =========                 |
  \\      /  F ield         | OpenFOAM: The Open Source CFD Toolbox
   \\    /   O peration     | Website:  https://openfoam.org
    \\  /    A nd           | Version:  12
     \\/     M anipulation  |
\*---------------------------------------------------------------------------*/
/*   Windows 32 and 64 bit porting by blueCAPE: http://www.bluecape.com.pt   *\
|  Based on Windows porting (2.0.x v4) by Symscape: http://www.symscape.com   |
\*---------------------------------------------------------------------------*/
FoamFile
{
    format      ascii;
    class       volScalarField;
    location    "400";
    object      k;
}
// * * * * * * * * * * * * * * * * * * * * * * * * * * * * * * * * * * * * * //

dimensions      [0 2 -2 0 0 0 0];

internalField   nonuniform List<scalar> 
10152
(
3.56336560697003e-05
3.76628393522983e-05
3.66166160506971e-05
0.000163517871001737
3.95698163968765e-05
3.86963709769593e-05
0.000169404243178882
3.79091946904313e-05
0.000163929726565738
0.00025748404011823
4.13404061858668e-05
4.06491488324149e-05
0.000174828396321348
4.00569778166548e-05
0.000169809046196715
0.000265883488112657
3.83393585827247e-05
0.000164224411837215
0.000257383400214746
0.000330350459794148
4.29853936807294e-05
4.24559854609642e-05
0.000179824543419156
4.20683209233379e-05
0.000175235958234751
0.00027361908979503
4.05087960998526e-05
0.000170087657124968
0.000265749979148123
0.000340740667218029
3.73932278723655e-05
0.000163147705157696
0.000256272570550576
0.000329985491189306
0.000392242165801159
4.45129762162566e-05
4.4133555813382e-05
0.000184421417346802
4.39244101079251e-05
0.000180236368137274
0.000280744987662821
4.25386658503147e-05
0.000175507140658368
0.00027347190617191
0.000350316151517047
3.95141221281241e-05
0.000168956412257636
0.000264572922204139
0.000340328085379365
0.000404321863192595
3.54231738726338e-05
0.000159928623153747
0.000253437581390751
0.000327972441278888
0.000391589132438192
0.000447285574704979
4.59296074069952e-05
4.56920390171637e-05
0.000188642708889774
4.56477860710356e-05
0.000184837651819158
0.000287298532775533
4.44090023420901e-05
0.000180503138961709
0.000280589257840793
0.00035914137034409
4.14976145434352e-05
0.000174329354972163
0.000272248119649162
0.000349880677870624
0.000415464724245345
3.7444315178567e-05
0.000165620257633688
0.000261627203005803
0.000338216185455973
0.000403606875880209
0.00046084786679659
3.29845940220193e-05
0.000154739168622048
0.000248365152465326
0.000323778014146923
0.000388833357833325
0.00044629396502381
0.000497457318636997
4.72401001411655e-05
4.71380500232505e-05
0.000192511100061858
4.72488697608954e-05
0.000189063885388966
0.000293312773931374
4.61451743439852e-05
0.000185101670752099
0.000287136386730054
0.000367260245970771
4.33226111496102e-05
0.000179284368851853
0.000279328023900177
0.000358690147831691
0.000425741131983893
3.93327148141598e-05
0.000170886982661004
0.000269207686774165
0.000347696229971307
0.000414717243737
0.000473369865631696
3.48804112680231e-05
0.000160255036082957
0.000256383107027545
0.000333868762225986
0.000400725235868487
0.000459779524577881
0.000512346475013486
3.03264502930782e-05
0.000148140225343518
0.000241113128185475
0.000317115750943716
0.000383489571015622
0.000442833220600149
0.000496174991796249
0.000543883781071255
4.84479283404304e-05
4.84763223033459e-05
0.000196046011578989
4.87341705734466e-05
0.000192936911959325
0.000298816445545285
4.77580500248801e-05
0.000189326186623478
0.000293144909977799
0.000374710558013419
4.50169847080493e-05
0.000183846416113802
0.000285843160985862
0.000366796287299115
0.000435199139012173
4.10674041568243e-05
0.000175745305209405
0.000276204778776547
0.000356446397722204
0.000424969986466654
0.000484926075243891
3.66499810257642e-05
0.000165360177918722
0.000263808513799241
0.000343216871111945
0.000411741408472918
0.000472258698175698
0.000526105273255348
3.20951154896612e-05
0.000153439618197807
0.000248899185442379
0.000326989609918413
0.000395193313663314
0.000456168270151926
0.000510974827952498
0.000559976981598276
0.000140494555009019
0.000232026198832539
0.00030809374920762
0.000375419589416742
0.000436466578695547
0.000492109942699118
0.000542405146967676
0.00058729589215669
4.95564764122266e-05
4.97102100887245e-05
0.000199265094000491
5.0109423819907e-05
0.000196476278519701
0.000303836940680773
4.92542071355193e-05
0.000193198025431474
0.000298643756202654
0.00038152693186579
4.65911455897316e-05
0.000188038138036188
0.000291823434497291
0.00037423562539265
0.00044388039086249
4.26782583834256e-05
0.000180219209014368
0.000282646245388762
0.000364501315750267
0.000434408342508174
0.000495567180215903
3.82758051633e-05
0.00017006967207897
0.000270665549029254
0.000351851528025465
0.000421916324389826
0.0004837824686074
0.000538811345510929
3.37468372957089e-05
0.000158343184243163
0.000256111340261963
0.000336141032841953
0.000406046426113901
0.000468533395945305
0.000524682230161011
0.000574859945887516
2.91095039069637e-05
0.00014556365470521
0.000239533416486883
0.000317688202858943
0.000386867395784395
0.000449583089856849
0.000506738677446993
0.000558399608067439
0.000604493779635734
0.000221362786302221
0.000296979959811869
0.000364813837409048
0.000427152839961661
0.000484877264435183
0.000537877465515438
0.000585694802755703
0.000628168950616793
5.05693256170253e-05
5.08421222886709e-05
0.000202184779775247
5.13772804107184e-05
0.000199699565071006
0.00030839969097177
5.06396508048073e-05
0.000196736633433791
0.000303660004308917
0.000387741849268127
4.80517104612786e-05
0.000191880362332361
0.000297297124694114
0.000381042285334667
0.000451823405788077
4.4173864815671e-05
0.000184330401389616
0.000288560291333325
0.000371895300561011
0.000443072432711547
0.000505337679537776
3.97842625215638e-05
0.000174406666120953
0.000276979899313912
0.000359803684759004
0.000431287117958803
0.000494396184834553
0.000550517389964861
3.52507945684115e-05
0.000162866023996165
0.000262772372554684
0.000344597750421721
0.000416078222137115
0.000479962211724949
0.000537348712508331
0.000588612871783372
3.06240939045534e-05
0.000150236574442024
0.000246483270722752
0.000326581577831002
0.000397487704289858
0.000461758285055551
0.000520315659069816
0.000573225312739758
0.000620409499993133
2.59505805823926e-05
0.000136754476924753
0.000228570163396504
0.000306244533545166
0.000375940994940455
0.000439980087222276
0.000499262607450116
0.000553685066177668
0.000602786940563009
0.00064638887064762
0.000283964754608914
0.000351929506441004
0.000415143207299348
0.000474496403347826
0.000529944657145248
0.000580819134167091
0.00062648415660879
0.000666784574740669
5.14900913791252e-05
5.18764414864684e-05
0.000204820614516539
5.25401073524709e-05
0.000202623069273761
0.000312528536215726
5.19166798871869e-05
0.000199959422701748
0.000308218961891844
0.000393385988423529
4.94038158262036e-05
0.000195392196473054
0.000302290852702654
0.000387248499946707
0.0004590646013176
4.55619882985713e-05
0.000188099047837784
0.000293974222703062
0.000378661401428827
0.000451000141803188
0.000514278897180584
4.11827096792298e-05
0.000178391928420201
0.000282778334863395
0.000367105401756562
0.000439891247312616
0.000504142506814043
0.000561269675500863
3.66476369379649e-05
0.00016703012655771
0.000268907074095653
0.000352388658456466
0.000425321571625022
0.000490493161090084
0.00054902095045673
0.000601289759701169
3.20307650303625e-05
0.0001545434054322
0.000252900984778347
0.000334800952573389
0.000407308614042102
0.000473020069889615
0.000532873130668459
0.000586933934024371
0.000635125384241497
2.73170677657986e-05
0.000141159456314297
0.000235212694345382
0.000314825158947403
0.000386264180210676
0.000451891680702065
0.000512627849791139
0.00056836821646974
0.00061864156643602
0.000663260991902013
2.26342366305492e-05
0.000126994469555234
0.000216158611777396
0.000292874264301003
0.000362683275502797
0.000427614704908726
0.000488565177084068
0.000545489525649946
0.000597712403958442
0.000644592681770057
0.000685955176012961
0.000336926789023014
0.000400700469900744
0.000461257860010184
0.000518660813726927
0.000572314960827063
0.000621329412384326
0.000665031446025733
0.000703283967312573
5.23223906626458e-05
5.28168033119404e-05
0.000207187105084269
5.36024272212501e-05
0.000205262388771649
0.000316245855206391
5.30883757162707e-05
0.000202882547505984
0.000312344397181878
0.000398488373603543
5.06503537900217e-05
0.000198590783258031
0.000306829619238219
0.000392884801672628
0.000465638640481505
4.68471051094018e-05
0.000191543696071034
0.000298913985420684
0.000384831200227483
0.000458227566500186
0.000522430310465725
4.24791398889787e-05
0.000182045006546033
0.000288087126584316
0.000373788340558791
0.000447765259975951
0.000513062071448579
0.000571111674671777
3.79407645126783e-05
0.000170855342558261
0.000274541234027675
0.000359544082583263
0.000433811269185026
0.000500165848283398
0.000559743291845733
0.000612938209716942
3.33105281270713e-05
0.000158507030550907
0.000258811431565439
0.000342374502956923
0.000416360866124358
0.000483402117963314
0.000544450094062664
0.0005995729001322
0.000648696339345697
2.8592832644506e-05
0.000145226041654454
0.000241344659742739
0.00032275388825514
0.000395811442502453
0.000462914431401824
0.000524998917940317
0.000581957579890536
0.000633310263559761
0.000678869485290961
2.38444212793861e-05
0.000131113970464502
0.000222432818593859
0.000301087490939045
0.000372650769961774
0.000439195877612169
0.000501641620324124
0.000559944146999374
0.000613415616639924
0.000661400949936586
0.000703717433747942
1.92143506194007e-05
0.000116296014665222
0.000202293215370764
0.000277715054974543
0.000347280410430143
0.0004127618780559
0.000474941754770272
0.000533867258154945
0.00058893034328956
0.000639229352205187
0.000684085689887402
0.000723341079347191
0.00038397400973325
0.000445438181751748
0.000504346577035355
0.000560254883022631
0.00061233726928748
0.000659633158466206
0.000701467340611053
0.000737717257279484
5.30692938626432e-05
5.36669729602631e-05
0.000209297531172349
5.45680837524462e-05
0.000207632054084094
0.000319572510894416
5.41584303613525e-05
0.000205521525527917
0.00031605863525356
0.000403076363863026
5.17938660815071e-05
0.000201492116397811
0.000310936946208624
0.000397980113083696
0.000471578537418613
4.80316685136424e-05
0.000194681153861366
0.000303404064988556
0.000390434803918791
0.00046478918864473
0.000529829664148441
4.3679382322745e-05
0.000185383814418314
0.000292931396000629
0.000379883138211938
0.000454944457700168
0.000521193940234346
0.000580085130404899
3.91374053706087e-05
0.000174360817457456
0.000279699919312528
0.000366094308225913
0.000441582179857781
0.000509019382439548
0.000569558401218243
0.000623603271136157
3.44884296237729e-05
0.00016214645019666
0.000264239444536487
0.000349331440683849
0.000424677315419847
0.000492941035759442
0.000555087550829788
0.000611187716236035
0.000661170909445948
2.97461866558321e-05
0.000148964702915533
0.000246991994123773
0.000330059965926387
0.000404613089884408
0.000473079791724879
0.000536409579976643
0.000594492240636583
0.00064684086151684
0.000693269921904872
2.49787414994244e-05
0.000134915196226707
0.000228237526162959
0.000308674655973484
0.000381866984503224
0.000449913949030205
0.000513750606539697
0.000573332282188981
0.000627957764254657
0.000676960326194165
0.000720157201540771
2.02612160231153e-05
0.000120102792114135
0.000208182981995333
0.000285484583940016
0.000356831079164649
0.000423951076035944
0.000487660068176548
0.000548012928526535
0.000604392021815691
0.000655879310596075
0.00070178180984977
0.00074193357680805
1.57626230838375e-05
0.000104673584425416
0.00018703120619496
0.000260755104483716
0.000329860107514285
0.000395597951705703
0.000458681398563133
0.000519144206135612
0.000576514154657519
0.000629946882436523
0.000678470363856604
0.00072140352508479
0.000758601187773911
0.000427188857601427
0.000487299676229472
0.000544986760496038
0.000599589948003356
0.000650203805324533
0.000695843755542131
0.000735838963723588
0.000770082137295322
5.3732523045065e-05
5.44302071750155e-05
0.000211163635322523
5.5441147572405e-05
0.000209745379193702
0.00032252769159703
5.51308356360397e-05
0.000207890854990347
0.000319382510495223
0.000407175555038468
5.28380189760043e-05
0.000204111456199158
0.000314634965116167
0.000402561717546084
0.000476915579149645
4.9117925078329e-05
0.000197527073260742
0.000307467550884472
0.000395500794648022
0.000470717892334767
0.000536513177568705
4.47851618464474e-05
0.000188424650188608
0.000297334941587262
0.000385419169665499
0.000461462773753977
0.000528575670611564
0.000588230352451263
4.02431587054051e-05
0.000177564191550333
0.000284407352839883
0.000372068866063297
0.000448668440235163
0.00051709189636858
0.000578507600864666
0.000633328450252834
3.55766665915888e-05
0.000165480118202276
0.000269209281433238
0.00035570080050263
0.000432291225451101
0.000501674031985028
0.000564826481038938
0.000621822545416092
0.00067259529797414
3.08041625036015e-05
0.000152394969943359
0.000252178066382603
0.00033677181565726
0.000412700862356155
0.000482422276434053
0.0005468975731418
0.000606014087239347
0.000659279652967689
0.000706511533760386
2.59962874888009e-05
0.000138406192979706
0.000233585874745947
0.000315667152021049
0.000390364051965076
0.000459800186389221
0.000524923589098283
0.000585687368029786
0.000641377720547681
0.000691318833671004
0.000735330582601268
2.12489878094304e-05
0.000123615099934468
0.000213629070341567
0.000292679215055326
0.000365659704798514
0.000434303871990021
0.000499438474317735
0.000561120548172607
0.000618721549615714
0.000671306594032304
0.000718170925456001
0.000759148904760998
1.66462808480425e-05
0.000108142434998973
0.000192495974139213
0.000268065935657209
0.000338906343234476
0.000406329102365707
0.000470977280934741
0.000532908877802606
0.000591650568617195
0.000646344737099876
0.000696002317833592
0.000739927793262731
0.000777967775079541
1.23655844341677e-05
9.21616235820088e-05
0.00017039526404412
0.000242080536161398
0.000310395443404158
0.000376247029450555
0.000439963740428995
0.000501631174341021
0.000560817363428131
0.000616828660970734
0.00066873991558927
0.000715555174651878
0.000756597581980494
0.000791735483038836
0.000467682572098228
0.000526832942798428
0.000583460380316909
0.000636831173864915
0.000686009637580609
0.000730001845934645
0.000768143953510139
0.0008003489588552
5.43120220352642e-05
5.51083248923184e-05
0.000212795097884971
5.62249761579691e-05
0.000211614088400995
0.000325128704180437
5.60098417012664e-05
0.000210003805596721
0.000322335169691171
0.000410809634740327
5.37868638294453e-05
0.000206463066287196
0.000317944328618789
0.000406655147411108
0.000481679166777003
5.01095549897812e-05
0.000200096332599563
0.000311126198695493
0.000400056167473063
0.000476044858289424
0.000542515342479588
4.57986598884817e-05
0.000191182717215108
0.000301320250676776
0.000390424420167195
0.000467352661998035
0.000535243309074902
0.000595586149024714
4.12609800938847e-05
0.000180481188530877
0.000288686564506237
0.000377496194548476
0.00045510309779657
0.000524420324802568
0.000586630932837074
0.000642156105917295
3.65804083618072e-05
0.000168525153630106
0.000273744296374962
0.00036151094255794
0.000439235410437048
0.000509637913733073
0.00057370719640787
0.000631520473977084
0.000683014533239907
3.17786994903495e-05
0.000155535211039672
0.00025692589342685
0.000342917274751986
0.000420106652341054
0.000490977329103707
0.000556501804947215
0.000616565463019199
0.000670671914690063
0.000718641436409748
2.69262635416932e-05
0.000141606222613274
0.000238497191800804
0.00032209168434743
0.000398173047194922
0.000468888019639159
0.000535196093679702
0.000597047794559158
0.000653717911957327
0.000704523306779213
0.000749287333564499
2.21266294191686e-05
0.000126835990270524
0.000218646118303045
0.000299314735513795
0.000373801295217215
0.000443853964646039
0.000510308463092583
0.000573221154099176
0.000631951779886036
0.000685549703001133
0.000733301151610731
0.000775043655141943
1.74881209280143e-05
0.000111348877405083
0.000197549642872211
0.000274831667241159
0.000347290153835697
0.000416255883980995
0.000482361570280552
0.000545664469370648
0.000605684658486863
0.000661550208330624
0.000712254702775856
0.000757091077369089
0.000795906267434337
1.30874199304906e-05
9.52701898449041e-05
0.000175396688147297
0.000248885615327297
0.000318924145012266
0.00038642321036819
0.000451766882460039
0.000514947813280242
0.000575553714314918
0.000632887600771983
0.000686010674538409
0.000733909981475537
0.000775894006267771
0.000811822320707452
9.10366315914153e-06
7.87856104442959e-05
0.000152398124608251
0.000221729832400659
0.000288989506764984
0.000354666121411315
0.000418915421672501
0.000481520123349049
0.000542176050872839
0.000600253597468647
0.000654983553770524
0.000705410246872183
0.00075052844941684
0.000789667897334718
0.000822715619833767
0.00050597039926964
0.000564295094830946
0.000619910602542255
0.000672057199932104
0.000719787174925378
0.000762103817683676
0.000798353393637787
0.000828475607828263
5.48055481379344e-05
5.57008136412593e-05
0.000214199107186439
5.69209526292379e-05
0.000213247724363443
0.000327390789739122
5.67988422753456e-05
0.000211871999715137
0.000324933874245953
0.00041400023906927
5.46444833891833e-05
0.000208560068225825
0.000320884017878727
0.000410284032840946
0.000485896645175353
5.10108162980465e-05
0.00020240285043006
0.000314400300761161
0.000404126198018088
0.000480799400954866
0.000547868723901474
4.67237971667126e-05
0.000193672455534201
0.000304908516664984
0.000394925360142744
0.00047264494125379
0.000541231213291825
0.000602189657014369
4.21935517587247e-05
0.000183126488534668
0.000292559284887823
0.00038240346067476
0.000460917873763428
0.000531040213029027
0.000593967022004769
0.000650127183806476
3.75023692771111e-05
0.000171297045384774
0.000277866575958951
0.00036678924400674
0.000445541794584741
0.00051686860151677
0.000581769026146264
0.000640323536096315
0.000692472507214669
3.26747120530532e-05
0.000158401870463936
0.000261257734330248
0.000348523463590453
0.00042686191395822
0.000498780278588988
0.000565261140999842
0.000626188371733335
0.000681062149194086
0.000729705753957037
2.77799890737361e-05
0.000144533044427438
0.000242992714283186
0.000327974373766708
0.00040532450441555
0.000477211434775128
0.000544605143555983
0.00060745369381427
0.00066502168117821
0.000716619869308314
0.000762075304905954
2.29231371579996e-05
0.000129784084642131
0.000223252098669763
0.000305412534043755
0.000381285053441623
0.000452634229860226
0.000520304514734272
0.000584350828190644
0.000644121432860664
0.000698651376452088
0.000747219715595313
0.000789668020517439
1.82242865197045e-05
0.000114281679710819
0.0002022040527104
0.00028107163281968
0.000355027873527622
0.00042541538656913
0.000492868724848865
0.000557442261473075
0.000618646806220783
0.000675595435425043
0.000727265583521559
0.000772941567070565
0.000812473705294946
1.37868774748127e-05
9.81603958109061e-05
0.000180024993858162
0.000255182229569135
0.000326823553097124
0.000395862044024975
0.000462692730279113
0.000527284925945304
0.000589217834680211
0.000647785150439377
0.000702033384077868
0.000750932370806055
0.000793779128510373
0.000830433398452612
9.6657881457968e-06
8.15139708337557e-05
0.000156901192764525
0.000227982554354587
0.000296949377254131
0.000364276771144694
0.000430120715551796
0.000494314521830994
0.000556442642576493
0.000615896239452099
0.000671903556705524
0.000723495694976706
0.000769650486631994
0.000809682643120465
0.000843469702788623
6.04484579581037e-06
6.45497181117355e-05
0.000133025677501993
0.000199720531927282
0.000265693185628844
0.000330968744165678
0.000395479180480567
0.000458944718811914
0.000520798100526104
0.0005805825818092
0.000637602845022311
0.000691062595439898
0.000739993988955422
0.000783388936141039
0.000820586766667179
0.000851499704894828
0.000542285171616851
0.000599810224982386
0.000654401518443152
0.000705291753459797
0.000751530138285066
0.000792121346769107
0.000826425829275128
0.000854415732706902
5.52052541952093e-05
5.6200933913273e-05
0.0002153803894922
5.75268707625225e-05
0.000214653071445181
0.000329327130043559
5.74982768244331e-05
0.000213504637838736
0.000327193781887452
0.00041676686424797
5.54138361904692e-05
0.000210413777177532
0.00032347110383813
0.000413469948579997
0.000489593175573165
5.18254549398053e-05
0.000204459339344241
0.000317308492154597
0.000407734272168662
0.000485008787373436
0.000552603654579779
4.75646016068042e-05
0.000195907356271991
0.000308119490259853
0.000398946788686595
0.000477368602871398
0.000546571823212327
0.000608076070327827
4.30448955562544e-05
0.000185514070340422
0.00029604601508448
0.000386816392858684
0.000466142943208161
0.00053698548492053
0.000600552852788028
0.00065728104151985
3.83470612194013e-05
0.000173810170711012
0.000281596951415182
0.000371561885612606
0.000451241114257511
0.000523400798521408
0.000589050034524552
0.000648272484377636
0.000701011973001609
3.34963187440307e-05
0.000161009971794418
0.000265194763551153
0.000353616565953025
0.000432997304636223
0.000505865779986689
0.000573213796603074
0.000634924073243367
0.000690493983555901
0.000739749798255825
2.85621405729335e-05
0.000147202106328697
0.00024709344277396
0.000333340856875718
0.000411848416557353
0.00048480426446878
0.000553188012002372
0.000616945531020397
0.000675332367477886
0.000727654129330157
0.000773741496340834
2.36498733305186e-05
0.000132476827177664
0.000227466801031684
0.00031099619145562
0.000388139518041408
0.000460677214393144
0.000529462141887773
0.000594547726948846
0.000655271521944521
0.000710655701108444
0.00075997341009375
0.000803070433790221
1.88853588710365e-05
0.000116959633396068
0.000206475249312153
0.000286805894740494
0.000362142536820012
0.000433838478971203
0.000502532780766893
0.000568277340446065
0.000630573344278367
0.000688519263007339
0.000741077880441873
0.000787526805318111
0.000827720682362881
1.43854464997908e-05
0.000100789868146103
0.000184286875444723
0.000260989006901083
0.000334114621244136
0.000404578889656186
0.00047277957139737
0.000538677264332426
0.000601840548288718
0.000661550916227436
0.000716839429714228
0.000766659985538515
0.00081030125055521
0.000847626432281327
1.02229083369379e-05
8.40771056854351e-05
0.000161073648326267
0.000233769471652458
0.000304319930639377
0.000373185897216353
0.000440522209840828
0.000506165509686432
0.000569667504937527
0.000630408495330875
0.000687607521601918
0.000740281376199335
0.000787390850053116
0.000828239113727441
0.000862703788587125
6.45430294639089e-06
6.68741629010387e-05
0.000137000581869116
0.000205376342907431
0.000273031838852688
0.000339959534926195
0.000406078745634024
0.000471104258750097
0.000534517062748864
0.000595736732607049
0.000654092382540887
0.000708786704209899
0.000758839153712964
0.000803224650623076
0.000841267011705964
0.000872868501349652
3.34826955988506e-06
4.94601537910229e-05
0.000112237794466466
0.000176035480010928
0.000240528526724799
0.000305211392179143
0.00036977500420274
0.0004338350087307
0.000496825838215544
0.000558038973403503
0.000616980836175378
0.000672933716375892
0.000725092848025043
0.00077248708923848
0.000814109503249649
0.00084931304618474
0.000878041138832673
0.000576733058326399
0.000633429164438826
0.000686948195613225
0.000736524706031641
0.000781210002577645
0.000820013896261683
0.0008523153281026
0.000878123064884969
5.55313688785239e-05
5.65904809794439e-05
0.000216343878269618
5.80319426809743e-05
0.000215833738882217
0.000330949438697071
5.81046106708381e-05
0.000214907796514067
0.000329127935586552
0.000419126980366494
5.60948009734869e-05
0.000212032784212839
0.000325720496651708
0.000416232322903708
0.000492791622532162
5.25557351678862e-05
0.000206276556364862
0.000319867478163229
0.000410901727298273
0.000488698097787653
0.000556748244580929
4.83245083656993e-05
0.000197899490790108
0.000310971267349478
0.00040251163905403
0.000481550619904585
0.000551295419215373
0.000613278357648512
4.38186071577367e-05
0.000187656763883844
0.000299165802745934
0.000390759102237753
0.000470806721366734
0.000542288199226312
0.00060642348392371
0.000663655096449852
3.91185479666799e-05
0.000176077920185375
0.000284955142356761
0.000375853688457852
0.000456362661125022
0.00052926769295711
0.000595586724853464
0.000655406509754721
0.000708674188612821
3.42481141089289e-05
0.000163373462165841
0.000268756996787699
0.000358221647346795
0.000438542396599581
0.000512267424366072
0.000580396910831128
0.000642812717374568
0.00069900994570916
0.000748817744108596
2.92781169464853e-05
0.000149628336914616
0.000250819525944027
0.000338216003935036
0.000417774040786036
0.000491699754069743
0.000560981543542115
0.000625563376830684
0.000684692800875594
0.000737671064573693
0.000784332387441606
2.43136024742254e-05
0.000134930369728876
0.000231309961090816
0.00031608960108087
0.000394392928391064
0.000468015150181039
0.000537817028264907
0.000603850639240628
0.0006654437666976
0.000721607076629512
0.000771608742940132
0.000815298785059998
1.94843792901297e-05
0.000119400659838961
0.000210381588009319
0.000292056228516696
0.000368659713539275
0.000441555531844869
0.000511387769927659
0.000578206320060314
0.000641503236851348
0.000700363342744081
0.000753736252426666
0.000800894138442148
0.000841696242471883
1.49149551270575e-05
0.000103180128169922
0.000188195284112929
0.000266324459322163
0.000340819160123156
0.000412597686311134
0.000482059326295385
0.000549159584543374
0.000613457248586341
0.00067422128550247
0.000730467661868736
0.000781135864874968
0.000825508212182446
0.00086345242036201
1.06908736384457e-05
8.63927500289927e-05
0.000164914994699666
0.000239106258658911
0.000311122395930723
0.000381414235543727
0.000450133614666593
0.000517112091258891
0.000581885412797357
0.000643820604364512
0.000702124245538708
0.00075579795233409
0.000803786827773331
0.000845385825889816
0.000880476131267251
6.87172330758636e-06
6.90831951891785e-05
0.000140691212767747
0.000210614457062337
0.000279827952559868
0.000348291399177531
0.000415912431982567
0.000482399586471657
0.00054723187618978
0.000609791736056851
0.000669397656683283
0.000725243981586701
0.000776336359083453
0.000821632748505857
0.000860445284789251
0.000892676277335935
3.61046118113575e-06
5.1367935783467e-05
0.000115654873993304
0.000181053791876313
0.000247195558293506
0.000313525566895402
0.000379711976823264
0.000445354371454386
0.000509877500407405
0.000572623316720053
0.000632965423194787
0.000690214713988503
0.000743567017867028
0.000792038940557877
0.000834606387197962
0.000870606331785978
0.000899971837485188
1.32538610924249e-06
3.37506954028852e-05
9.00472353285887e-05
0.000150621596295426
0.000213469267026331
0.0002774126213146
0.000341858240282338
0.00040631430015317
0.000470177060548074
0.000532773069204447
0.000593354086389933
0.000651425557486931
0.000706264207102091
0.000757066205718777
0.000802862164953936
0.000842649959030785
0.000875800538810655
0.000902292955294046
0.000609352540604965
0.000665158651143008
0.000717535977985741
0.000765726318096714
0.00080878687036227
0.000845736300973326
0.000875975934773508
0.000899553937601572
5.69101468481278e-05
0.000217114803737841
5.8413635393744e-05
0.000216793747349398
0.000332270295024304
5.86049630709037e-05
0.000216083869966136
0.000330747802950544
0.000421096525251222
5.66826937853625e-05
0.000213422456416352
0.000327644928856963
0.000418588549184553
0.000495512583080982
5.32010924793058e-05
0.000207862569438347
0.000322091757493891
0.000413647754234612
0.000491890116341193
0.00056032811960673
4.90054431410374e-05
0.000199658829816684
0.000313480002013235
0.000405640817821465
0.000485215788206558
0.00055542998153527
0.000617827005393723
4.45177994460542e-05
0.000189565709368776
0.000301936038488526
0.000394253872239832
0.000474935647877969
0.000546978303710376
0.000611611765057171
0.00066928455126152
3.98198183885159e-05
0.000178112020015725
0.000287959368384722
0.000379687896477193
0.000460934038900282
0.000534500683364177
0.000601413730381223
0.000661762892349733
0.000715498503155581
3.49343469428321e-05
0.000165504916300617
0.000271963236888482
0.000362362485747503
0.000443525411030796
0.000518017403921253
0.000586846179723886
0.000649892978157626
0.000706651108351019
0.000756952566184871
2.99328951744604e-05
0.000151825952533076
0.000254190037853056
0.000342623668847626
0.000423129640889099
0.000497930195030627
0.000568021671142876
0.000633346394070979
0.00069314487451175
0.000746714686474004
0.000793893553064804
2.4920650752016e-05
0.00013715921131972
0.000234800700927745
0.00032071618639887
0.000400072970207308
0.000474679732089876
0.000545404505969349
0.000612298187108085
0.000674679754592856
0.000731549636945218
0.000782171824213447
0.000826400442039979
2.00288498652355e-05
0.000121620788758032
0.000213941705663064
0.000296844876946935
0.000374605588124874
0.000448596844719218
0.000519467683983888
0.000587266337028667
0.000651476461241818
0.000711170390296599
0.000765285961449783
0.000813090861435557
0.000854448810335588
1.53896517716455e-05
0.000105351228430029
0.000191766922566968
0.000271208629580922
0.000346960781067497
0.000419945530571673
0.000490563719645825
0.000558767003755802
0.000624105341093749
0.000685835799649208
0.000742960208123528
0.00079440513246753
0.000839447858560798
0.000877960837368449
1.10972559711766e-05
8.84807730954339e-05
0.00016843393264178
0.000244008875519866
0.000317377397181702
0.000388984566951711
0.000458979223786407
0.000527186820299788
0.000593131547549861
0.000656168073740052
0.000715490057472283
0.000770084227156148
0.000818881568159183
0.000861170928481794
0.000896838177175303
7.21414436584152e-06
7.10704759607077e-05
0.000144086324372363
0.000215445805628169
0.000286100389085808
0.000355986035936934
0.000425000010608943
0.000492842510051334
0.000558981986800736