/*--------------------------------*- C++ -*----------------------------------*\
  =========                 |
  \\      /  F ield         | OpenFOAM: The Open Source CFD Toolbox
   \\    /   O peration     | Website:  https://openfoam.org
    \\  /    A nd           | Version:  12
     \\/     M anipulation  |
\*---------------------------------------------------------------------------*/
/*   Windows 32 and 64 bit porting by blueCAPE: http://www.bluecape.com.pt   *\
|  Based on Windows porting (2.0.x v4) by Symscape: http://www.symscape.com   |
\*---------------------------------------------------------------------------*/
FoamFile
{
    format      ascii;
    class       volScalarField;
    location    "400";
    object      omega;
}
// * * * * * * * * * * * * * * * * * * * * * * * * * * * * * * * * * * * * * //

dimensions      [0 0 -1 0 0 0 0];

internalField   nonuniform List<scalar> 
10152
(
2.46683755550715
2.46683863210146
2.38167770908342
0.67171009414137
2.46684263709795
2.38167908818207
0.677084322426282
2.28699432913976
0.656589736221879
0.374269260302354
2.46684301477814
2.38168053506708
0.681966626330747
2.28699636845696
0.661854745061388
0.378387494230246
2.21610787898069
0.637495491592895
0.369879089452764
0.273276909961611
2.46684061709857
2.38167792196677
0.686404943873102
2.28699696593686
0.666680747261468
0.382144468891249
2.21610982890521
0.64262247027465
0.373933535318374
0.276528723234653
2.18721756272944
0.621693961657576
0.363358233271928
0.271692224781086
0.226353267449762
2.46684072683039
2.38167497470613
0.690430276019037
2.28699353217272
0.671074127810431
0.385571906231382
2.21611266020636
0.64734698890814
0.377653468845275
0.27950311925418
2.18722010037934
0.626691553261659
0.367328342084555
0.274902114415697
0.229059556381594
2.18619174271582
0.612165438448329
0.356895817767156
0.268930448831148
0.225739395740823
0.200869801908895
2.46684224059381
2.38167776264411
0.69408002774519
2.28699055025847
0.67505907122088
0.388694688590817
2.21610462006071
0.651655358613692
0.381052087753672
0.2822273893209
2.18722138290318
0.631311614708558
0.370987358561043
0.277854968863798
0.2315470970434
2.18619331939939
0.61706536424564
0.36078352757905
0.272087551178651
0.228414731161127
0.203210706636269
2.19192746284993
0.60674882623474
0.351689726187828
0.265674834314299
0.224405446257037
0.200627805042855
0.185771099388894
2.46684050087056
2.38168203125195
0.697379234711772
2.28699361398723
0.678669757010362
0.39153329448178
2.21610447131397
0.655564116489586
0.384149725662919
0.284719122089162
2.18721479660104
0.635531753569407
0.374336768824116
0.280563817315587
0.233836444092788
2.18619048450321
0.621604269705009
0.364376620107728
0.275004705389733
0.230889039309082
0.205374940970352
2.19192723574195
0.611575562731291
0.355509877766564
0.268780731790664
0.227044170443404
0.202943777991543
0.187851148804827
2.19485271745527
0.601935102149543
0.347442472599481
0.262456612209576
0.22255738574419
0.199896764403709
0.185660849040105
0.176371145666972
2.4668412119556
2.38168083196749
0.700354481459903
2.28701096531867
0.681934709388361
0.394107977064665
2.21610699087656
0.659105994760933
0.38696660860048
0.286992613182919
2.18721446033672
0.639362759867914
0.377391974109752
0.28304292135708
0.235939397648613
2.18619198710734
0.62575587388029
0.3676709401257
0.277686372353336
0.233170162931154
0.20737729361232
2.19192563580552
0.616053955457061
0.359045595537221
0.271657623005038
0.229496157785546
0.205099154436238
0.18978610841656
2.19485026120366
0.606695135370368
0.351210119506623
0.265519600116704
0.225162342615929
0.202184964545374
0.187719180646414
0.178255144023863
0.595831689744916
0.343266851393352
0.259350040534994
0.220435484199026
0.198727760110919
0.185184940061802
0.176301723651149
0.170378957632092
2.46683981812276
2.38166766754315
0.703029641582824
2.28699980868545
0.68487881433768
0.396435974602615
2.21612325906121
0.662309757747442
0.389521673143946
0.289060743438814
2.18721728917037
0.642834924063029
0.380171576155265
0.285305519423507
0.237865334327149
2.18619074242103
0.629526324620808
0.370678528826169
0.280143045604015
0.23526691613043
0.209225107161898
2.19192806863492
0.620155081264235
0.362290830909521
0.274306602345864
0.231761769939478
0.207097008335626
0.19158625297359
2.19484800211273
0.611117792834909
0.354698880746101
0.268359258642399
0.22758890392147
0.204325296080791
0.189647458657636
0.180018824835319
2.19512303903027
0.600575711280817
0.34699210394863
0.262379256544786
0.223013353118635
0.200992438175953
0.187220484664136
0.178165715270832
0.17211004012536
0.338565403188645
0.256158151530381
0.218170794472995
0.197245004648337
0.184356515165536
0.175935775212865
0.170324144861459
0.166559813290263
2.46683946604203
2.38167684502285
0.705426108855802
2.28698487763968
0.687525430399246
0.398533435538661
2.21611273351246
0.665197877104517
0.391832051475742
0.290935487546984
2.18721964834879
0.645976197263456
0.382693505970109
0.2873640503582
0.239622879327361
2.18619270301143
0.632944680401689
0.373416271370545
0.282386391768909
0.23718773454264
0.210924027178483
2.19193094106825
0.623880564609021
0.365255617582845
0.276735764961616
0.233846509966794
0.208941883312109
0.193255338913936
2.19485126498038
0.615171796989177
0.357902230277757
0.270976212779453
0.229834860182132
0.206313932050387
0.191444884303147
0.181668818618505
2.19511883355704
0.604918646148883
0.350438648174379
0.265187068194108
0.225416329982835
0.203116187423399
0.189137737023447
0.179923772886999
0.173740782855944
2.1947957044284
0.593031814880371
0.342271372335186
0.259162544104284
0.22072887179495
0.199493118211368
0.186374854989827
0.177779906494996
0.172036215435382
0.168168774774766
0.252699372591275
0.215781960620051
0.195576141422407
0.183262705355557
0.175292204633364
0.170015562673776
0.166515713916292
0.164194118603719
2.46684015436411
2.3816763713061
0.707562528440552
2.28699272672919
0.689897599876794
0.400415261265874
2.21611282213662
0.667794525499594
0.393913734920224
0.292628173594168
2.18722069209532
0.648808527272368
0.384974264327355
0.289230268163963
0.241220413401612
2.18619326521526
0.636037246386031
0.375901105658151
0.284428081648344
0.238940888391344
0.212479622805103
2.19192876045193
0.627258867051528
0.367955689160359
0.278955399999862
0.235757414418318
0.210638608387017
0.194796164779792
2.19485623472742
0.618855711534875
0.36082996508722
0.27337767117266
0.231903692902852
0.208152348399364
0.193112600222228
0.183206013723208
2.19512640923206
0.608916976465582
0.353602327978483
0.267774797357101
0.227642182204792
0.205092920481421
0.190929362515993
0.181571886282306
0.175274846132291
2.19479609714732
0.597216682295712
0.345666502742163
0.261942303533639
0.223112184553814
0.201602571537513
0.188280981804339
0.179529245365506
0.173661914994377
0.169693671365594
2.19479887016824
0.5841175763643
0.336911130172384
0.255702506802321
0.218328910784952
0.197815118063048
0.185271831798894
0.17712327735594
0.1717096563819
0.168106324198783
0.165704386562852
0.213255477301809
0.193808094947752
0.182021616010111
0.17445385734949
0.16948979208455
0.166248356400515
0.164161751029212
0.162831947773575
2.46684065977316
2.38167824010532
0.709456037638413
2.28699203873189
0.69201250147647
0.402094975824178
2.21610653869312
0.670122028484661
0.395781597830117
0.294149486616904
2.18722187234056
0.651355865598716
0.38702956717884
0.290915373520328
0.242666161079663
2.18619376481793
0.638827434975246
0.378148911951129
0.286279456763166
0.240534589358792
0.213897657054486
2.19192831894748
0.630315496396604
0.370407159234492
0.280976373060603
0.237502116108007
0.212192423559733
0.196211885803849
2.1948512894338
0.62219661675166
0.363497472760754
0.275573169930443
0.233801266966339
0.209844107825361
0.194652608356966
0.184630862098193
2.19512706550048
0.612553344076244
0.356494393311796
0.270150134528116
0.229693847168016
0.206922289634529
0.192593610396828
0.183108427285238
0.176710763993307
2.19480171766642
0.601126108068794
0.348784647180014
0.26450211381834
0.225319480788128
0.203567393108592
0.190065460561635
0.181173490107028
0.175194548956032
0.171135777181842
2.194803888611
0.588184114367345
0.340201453605534
0.2584506246726
0.220696272982378
0.199914376634336
0.187170180359757
0.178865064841642
0.173328116658407
0.169626578032418
0.167143784420193
2.19512089319289
0.573999387394213
0.330801327234411
0.251968372229025
0.215814711291206
0.196047188605945
0.184029937826623
0.176281123153025
0.171173781974182
0.167822340554393
0.165654148275933
0.164262270442839
0.191999804887372
0.180738523412543
0.173533302702445
0.168837042322178
0.165811686750498
0.16393071870363
0.162812070861228
0.162174088537272
2.4668404823402
2.38167958935697
0.711121862396506
2.28699459777405
0.69388704627674
0.403585012125339
2.21610307279459
0.672197167261657
0.397448947277965
0.295509429036499
2.18721678171062
0.653637844116771
0.388873978237831
0.292429962346495
0.243968136651885
2.18619496440497
0.641336958760594
0.380174961345522
0.287951451039748
0.24197696438513
0.215184162189078
2.19192894588419
0.633073971656857
0.372625507453673
0.282809527656835
0.239088495873439
0.213608967820931
0.197506265240437
2.19484834324547
0.625219760530151
0.365920127334814
0.277572987817228
0.235534555988387
0.211393888252962
0.196067773524
0.185944564843554
2.19512350666216
0.615850534149387
0.359130138468578
0.272322568282076
0.231576650614703
0.208606814907488
0.194131291618571
0.184533084347827
0.178047049229811
2.1948018994054
0.604704301297162
0.351637507432874
0.266851809714494
0.227354370868369
0.205386831990702
0.191724842634525
0.182708232684946
0.176630195772111
0.172491705116387
2.19480747205142
0.591995146377797
0.343259068864267
0.260979569316437
0.222886359023275
0.201869028122903
0.18894850303655
0.180505265950717
0.174858116656525
0.171067574776913
0.168511742624899
2.19512619639575
0.577906025915669
0.334027220392879
0.254654447984915
0.218164904809205
0.198140600720998
0.185925521489413
0.178019934029079
0.172787253079964
0.169336444186496
0.167089230208859
0.165632233763897
2.1948496692132
0.56258463625811
0.324049488363031
0.24791871255033
0.213239490202219
0.194262538468764
0.182756370340357
0.175366446259162
0.170521412822336
0.167377830763576
0.165407530472259
0.164224878237701
0.163539973816272
0.179503637906608
0.172638949784889
0.168168881888448
0.165306057800256
0.163568983922709
0.162614653758091
0.162166457168226
0.162011562004642
2.46684016227788
2.38167911428301
0.712573966897689
2.2869964960413
0.695536291057144
0.404896748879924
2.21610793041731
0.674037155626292
0.398928101656078
0.296717364743945
2.1872133618948
0.655672844427043
0.390520572101335
0.293783956898237
0.245134074566294
2.18619048118326
0.643584991463375
0.381993293871791
0.289454465261284
0.243275966439505
0.21634526368337
2.19193110897888
0.635555377879608
0.374625440550973
0.28446546235266
0.24052449157673
0.214894187915411
0.19868361020567
2.19485165253018
0.627948064007109
0.368112989575251
0.27938754962775
0.237111052614689
0.212807060462571
0.197361740170738
0.187149256384239
2.19511833635325
0.618834289415741
0.361524696235997
0.274302055323168
0.233297138161519
0.210150609677346
0.195544757860848
0.185846784127906
0.179283287758937
2.19479787338856
0.607949364010479
0.354238766784877
0.269001347259371
0.229222316098004
0.207062995007296
0.193258981947076
0.18413202252273
0.17796662350971
0.173758368303061
2.1948071299934
0.595500494196139
0.346066497701536
0.26330199179154
0.224904982603829
0.203679085612188
0.190603034565737
0.182037859742121
0.176293030390074
0.172423508676343
0.169803346898906
2.19513173342593
0.581591248254905
0.337025271493217
0.257145172506386
0.220336622782274
0.20008706283915
0.187700270935088
0.179658224028956
0.174315442826929
0.170775733671359
0.168456355770578
0.166939939403531
2.19485276903839
0.566299713180834
0.327202231988394
0.250572749796261
0.215550608202249
0.196350547089172
0.18465456787181
0.177108463187974
0.172135647016319
0.168888941913665
0.166837343095321
0.165590805855742
0.164853637829848
2.19192800044391
0.549660223103541
0.316744678041601
0.243700796023406
0.210633429470529
0.192568477975788
0.181555153131492
0.174489570246465
0.169864608424006
0.16687595070353
0.165039763572244
0.164012694438302
0.163515082410293
0.163326046266513
0.171874878671789
0.16759393594046
0.164844958156452
0.163186523534307
0.162318577693353
0.161999774189656
0.162015277050716
0.162193155510337
2.46683980077335
2.38167808144202
0.713825729779873
2.28699586317628
0.696974112947537
0.406040714344274
2.21611228819748
0.675656481315903
0.400230326519142
0.297782040242839
2.18721717928752
0.657477396451189
0.391981484727556
0.294986657425253
0.246171389038092
2.18619102891408
0.645589793693401
0.383616840038467
0.290798268854284
0.244439286667433
0.217387093217072
2.19192741355785
0.637778473102455
0.376420603316983
0.28595431572562
0.241817925567763
0.216054174065071
0.199748608364791
2.19485540606405
0.63040249566622
0.370090380186956
0.281027112467495
0.238538439856516
0.214089414583842
0.198538758749087
0.18824785823865
2.19512415553043
0.621527768556827
0.363692753986512
0.276098698936993
0.234862484839758
0.211558727929564
0.196837415317277
0.187051545502606
0.180420242350881
2.19479255283706
0.610885655724776
0.356602812421942
0.270960571100312
0.230929731699024
0.208599671636803
0.194669729207065
0.185445307142213
0.179203149519957
0.174934005827095
2.19480278064444
0.598683344338076
0.348628998272206
0.265427553113378
0.226758260373194
0.205346906364128
0.192133298064675
0.18346049877354
0.177629523520529
0.173690559258878
0.171014214331469
2.1951268519276
0.585007051200254
0.339782806009541
0.25943772518858
0.222338702347996
0.201888811559849
0.189351252928049
0.181189715936155
0.175750168134786
0.172131744296013
0.169748212336696
0.168179314776258
2.19485591281545
0.569801926491357
0.330131657985878
0.253030329646063
0.217700185553244
0.198289082243786
0.186428680728636
0.178748492914121
0.173665247892275
0.17032818330043
0.168203534662721
0.166897929511796
0.166112323898609
2.19192860642939
0.553148128555542
0.319808017734369
0.246324275147058
0.212933480133567
0.194633463935401
0.183457919516693
0.176241352592759
0.171486966853652
0.16839086593586
0.16646821862591
0.165374089006828
0.16482494455348
0.164594354329248
2.18619166013384
0.534944807381813
0.309058640535809
0.239538813855134
0.208206231274012
0.191050592566052
0.180566583698288
0.173768079839539
0.169313897289509
0.166430758844389
0.164663807998518
0.163712044091898
0.163334266622363
0.163312669008986
0.16346720309635
0.167223423869259
0.164537603877773
0.16290001428162
0.162042015193772
0.161761637365168
0.161876094037501
0.162207045916442
0.162606767396009
2.46683963623513
2.38167701464299
0.714890579472201
2.28699420050789
0.69821408448795
0.407026898846765
2.21610928201363
0.677067916822082
0.401366065466783
0.298711657801842
2.18722091846302
0.659065515435338
0.393267779465883
0.29604675478509
0.247087148625164
2.18619112937141
0.647367605194453
0.385057481104119
0.29199203683899
0.245474304583853
0.218315692581286
2.19192581834411
0.639761296324108
0.378023680579691
0.287285673200625
0.242976388991431
0.217095032817774
0.200706173400508
2.19485328379554
0.632601664706665
0.371865593930664
0.282501547250283
0.239824361707027
0.215246947639321
0.199603489682496
0.189243899477053
2.19513072820707
0.623951056511492
0.365648206646558
0.277722468649325
0.236280131210229
0.212836767034763
0.198013393310887
0.188150247631756
0.181459704906627
2.19479837995255
0.61353684850926
0.358743815811046
0.272739319850476
0.232483595518894
0.210001680144393
0.19596022349405
0.186649889136746
0.180340436359186
0.176018249116771
2.19479735130248
0.601564408566332
0.350958899737317
0.267365623776806
0.228452649642832
0.206876263856792
0.193540892933861
0.184773172210057
0.178866453774706
0.174866703185753
0.172141477368389
2.19512450376666
0.588116798400731
0.342302355422193
0.261537814253987
0.224177352189939
0.203548963373228
0.190878321129411
0.18261178993817
0.177087237587624
0.173399575255447
0.170959688871426
0.169344961158443
2.19485307998173
0.573102999434319
0.332832812822757
0.255293174850464
0.219685447852434
0.200083413789938
0.188078034913556
0.180281143683957
0.175101816545278
0.171685566640852
0.169496157013562
0.168137786460777
0.167309147734094
2.19192771322412
0.556374650415062
0.322650424962415
0.248749087941908
0.215068583079343
0.196562573343491
0.185232974002462
0.177887132917576
0.173022702310382
0.169834244544654
0.167835833125686
0.166680948770758
0.166083271981968
0.165813300447631
2.18619186705456
0.538153199422487
0.312011326937709
0.242130286613823
0.210501329897868
0.193120791754812
0.182459228135576
0.175533007737645
0.170952112982066
0.167957919719559
0.166098597375295
0.165073443237678
0.164640207748971
0.164577364396822
0.164699323111574
2.18721696261348
0.518802949894092
0.30143418765411
0.235850353373727
0.206287917911274
0.189973797715697
0.179916208234158
0.173362552014342
0.168993828268818
0.166153386933194
0.164396999650076
0.163444240824107
0.163092716339243
0.163159824948684
0.163464096201539
0.163849494938817
0.164499835229863
0.162819909184366
0.161905014285926
0.161577000318054
0.16168883370807
0.162092043390411
0.162629612712146
0.163167902867005
2.46684054324524
2.38167679998504
0.715783068606901
2.28699253851232
0.699270212399247
0.407865139021176
2.21610769218969
0.678285370354999
0.402345282754097
0.299514021696978
2.18721971661123
0.660450497447745
0.394389699865964
0.296972406304576
0.247888074666297
2.18619160177411
0.648932223453899
0.386326049323657
0.293044351325402
0.246388059552578
0.219136973440828
2.1919270372806
0.641519355275113
0.379446316445095
0.288468550003522
0.244007183015024
0.218022791446579
0.201561313278418
2.19484998274048
0.634563126634172
0.373451067350697
0.28382023785714
0.240976277697232
0.216285703808507
0.20056083146942
0.190141313675093
2.1951271024068
0.626122179020664
0.367403969133522
0.279182985341798
0.237557535603695
0.213990597190752
0.1990772838035
0.189146396921771
0.182404236862147
2.19480307817665
0.615922575837098
0.360675236365086
0.274347280788684
0.233891155317748
0.211274446620807
0.197134442012172
0.187748545342944
0.181380226939833
0.177011923937235
2.19480292537903
0.604165625332351
0.353069632903612
0.269125654254597
0.229994993683183
0.208271872673432
0.19482878262516
0.185977448833815
0.180004284092107
0.175951471003962
0.173183825729983
2.19511912672285
0.590934157326121
0.344594543469326
0.263453550807027
0.225858798614956
0.205071452872502
0.192283139569902
0.183924234758452
0.178325080539736
0.174576756206105
0.17208765812911
0.170433122874648
2.19485103008124
0.576128932382296
0.335305040407824
0.257367113379996
0.221509830953873
0.201736924101191
0.189603324032741
0.181704186472893
0.176440929432428
0.172955359077224
0.170709030070221
0.169304251039449
0.168437952639784
2.19193030732367
0.559519998665784
0.325284494700543
0.250981993535457
0.217039989512407
0.198350920110619
0.186882707130907
0.179423819823363
0.174464340222929
0.171195905762805
0.169131149345875
0.167922181620411
0.167280786451147
0.166975496348299
2.18619074015547
0.541033676671532
0.314740424444652
0.244520090342933
0.212627072547416
0.195050108104526
0.184235503918737
0.177187359854383
0.172499054163119
0.169411141757661
0.167472647463624
0.16638298095803
0.165898851163647
0.165796143465078
0.165886262030226
2.18721690518297
0.52167692501536
0.304249591341554
0.238409477443423
0.208583202849134
0.192058451933452
0.181827781542713
0.175128199817127
0.170652593669885
0.167701614045006
0.16584751473941
0.164814092511687
0.164399792810263
0.164421097518434
0.164692749611125
0.165053060109387
2.21610714181855
0.503636903770792
0.295131741745318
0.233487060777333
0.205464406492462
0.189747937335352
0.179911908203147
0.17342671083492
0.169078140178571
0.166172935487757
0.164351745064284
0.163330083031852
0.162918659642745
0.162970051431068
0.16333576469764
0.163855380075369
0.164386729716503
0.163065565800877
0.162019514921946
0.161568948014662
0.161584080061053
0.161949121292505
0.162535606202965
0.163198531394976
0.163812122651144
2.46684130462642
2.38167920268251
0.716515840307087
2.28699252204384
0.700157977061266
0.408565578067313
2.21610613034239
0.67932344029484
0.403177854236111
0.300196743479489
2.18721742646892
0.661645536008304
0.395357140121921
0.297771384428451
0.248580609467187
2.18619327907969
0.650296627607236
0.387432654230671
0.293963280405216
0.247187251799405
0.219856612217272
2.1919270686292
0.643066529098671
0.380699147853259
0.289511386467568
0.244917280825586
0.218843330690972
0.202319028015369
2.19485063213344
0.636302165750782
0.374858191184947
0.284992031060074
0.242001383642839
0.217211662156768
0.201415781835478
0.190944278799532
2.19512572264615
0.628058055405154
0.368972225188879
0.280489439945789
0.238702016173132
0.215026171829182
0.200033941495181
0.190043916950133
0.183256955538958
2.19480599233849
0.618059689036364
0.362409689512762
0.275793831792048
0.235159704261859
0.212423714821056
0.198196883735737
0.188744727852003
0.182325066797995
0.177916784557672
2.19480540593147
0.606506074007527
0.354974155763261
0.270717030243683
0.23139237807819
0.209539045148099
0.196000823686267
0.187075981609583
0.181044663271465
0.176945645980353
0.174141275250952
2.19512448062885
0.593479964946615
0.346671806813465
0.265193814582084
0.22738966709542
0.206460967766167
0.193568638656431
0.185128487101564
0.179463949667498
0.175662626139617
0.173130707704895
0.171441711110435
2.19484595929606
0.578877278479074
0.337556285910388
0.259259769161268
0.2231787447798
0.203253482021997
0.19100646468084
0.183017533686856
0.177680851681358
0.174134680984124
0.171838586334446
0.170393307473133
0.169494291436314
2.19192739202626
0.562443515015261
0.327704395406799
0.25302964220345
0.218851809038472
0.19999957852952
0.188408205265471
0.18085009061386
0.175807892063569
0.172469910130136
0.170347167592081
0.169090595553228
0.168410603108844
0.168074262230106
2.18619392223197
0.543963760092369
0.317292145000834
0.246722182758901
0.214588250502568
0.196837466668872
0.185888468841342
0.178731159770076
0.17394958365202
0.170781192730963
0.168774315513142
0.167628053594129
0.16709828170719
0.166959215218687
0.167020394465709
2.18721736716211
0.524222189782102
0.306841908607089
0.240761883077317
0.210704535133803
0.193996117652437
0.183616560023755
0.176792916101436
0.172214710325807
0.169170730443728
0.167234572269907
0.166132023519124
0.165662185871095
0.165640686239193
0.165879681185708
0.166214424949238
2.21610686072358
0.506070133938386
0.297779658111877
0.2360180954333
0.20776894174747
0.191856357444902
0.181854131687045
0.175223146838969
0.170746845886076
0.16774809851747
0.165827778342771
0.164718596831739
0.164235952834931
0.164233384591225
0.164561390168608
0.165055586327335
0.165567995448253
2.28699365889622
0.496104717984515
0.293544986538193
0.234346887448937
0.206856007837247
0.191077191838995
0.181022466296023
0.174300497965169
0.169740397747412
0.166672322325917
0.164660672314326
0.163483521613621
0.16293602015718
0.162877318747276
0.163191003404851
0.163748261064302
0.164400391376611
0.165012901720884
0.162507701946369
0.161850815950831
0.161687469731681
0.161913601383108
0.162431034752834
0.163122577338941
0.163849447004424
0.164489859109022
2.38168123357861
0.717089637829009
2.2869958697761
0.700887216520463
0.409137789612827
2.21610382311135
0.680198567253714
0.403873945226245
0.300767445452362
2.18721513546742
0.662665774169602
0.396180009656086
0.298451275921219
0.249171023150018
2.18619185766236
0.651474758108639
0.3883870633097
0.294756534347572
0.24787830600606
0.220480101735403
2.19192767101094
0.644415954381002
0.381792130379303
0.290422141566377
0.245713333320634
0.219562329709213
0.202984236223546
2.19484832729979
0.637832123536736
0.376097449813048
0.286025227182109
0.242906564214686
0.218030659694574
0.202173333476887
0.191657075042105
2.19512388949932
0.629773583044907
0.370364153512227
0.281650513101883
0.239720653006585
0.215949400627176
0.200888333223799
0.19084697844386
0.184021345686203
2.19480443521941
0.619964432233115
0.363959044964623
0.277087978295347
0.236296428230186
0.213455343630145
0.199152341942908
0.18964232859253
0.183178066830253
0.178735249507624
2.19480820150475
0.608603539198657
0.35668464936359
0.272148899320364
0.232651950828913
0.210683425646805
0.197061432091406
0.188072153394643
0.181990092224277
0.177850963239851
0.175014884613455
2.19512674179105
0.595771527356828
0.348546515590922
0.266767643570656
0.228776869718741
0.207722749803132
0.194738621709273
0.186227116733964
0.180505388982277
0.17665788244035
0.174088814235565
0.172370072881084
2.19485106355819
0.581363387116654
0.339597641784581
0.260979572014611
0.224698480697287
0.204637691983928
0.19229044428753
0.184222642981805
0.178821735805886
0.175222676651534
0.172883226657258
0.171402768872144
0.170475460463211
2.19192327368715
0.565115530571164
0.329912492765569
0.254899268974663
0.220509456800171
0.201511847553823
0.189811440680242
0.182166181905826
0.177051790680886
0.173653238470665
0.171479922010838
0.170181736957949
0.169468014957613
0.169104641766074
2.18619190833793
0.546761737901538
0.319653969203562
0.248744161140076
0.216390386315686
0.198484782438511
0.187417183648833
0.180163579116402
0.17530067187282
0.172062597988095
0.169996407614634
0.168800651351711
0.168230544344664
0.168059167482396
0.168094722296317
2.18721820985511
0.526904179058045
0.309295868990486
0.242933056968375
0.212660209450688
0.195788808866882
0.185279399614848
0.178347930219974
0.173678207978166
0.17055386879854
0.168547486351568
0.167385237204149
0.166866453231725
0.166806145914326
0.167014849604508
0.167325945135754
2.21610741556064
0.508205882243121
0.300218805927956
0.23833556790078
0.209893695342426
0.193811512013824
0.183665854923801
0.176910962380267
0.172327246530921
0.169238115076017
0.167234769104338
0.166052241525381
0.165508405097922
0.165457629727464
0.165749544192972
0.166217074443609
0.166709085535859
2.28698123859102
0.49783642557115
0.295993392153467
0.236861112389641
0.209186635783422
0.19322397784537
0.183007868329906
0.17614153376509
0.171450216262686
0.168265287878346
0.166169131138777
0.164901341699703
0.164274436430929
0.164152321016406
0.164419432838169
0.164945744564316
0.165578376134209
0.166176878760372
2.38167808075944
0.521642575277405
0.306924738792309
0.243041918891668
0.212795104263982
0.19526272317148
0.184035584124498
0.176495839408753
0.171344184538329
0.167839262325091
0.165513504911053
0.164040079522984
0.163260215310121
0.163008185647539
0.16316861476441
0.163642334806698
0.164311450834114
0.165033222371892
0.165677012731632
0.16254705158242
0.162113483193341
0.162113209880644
0.162455256021378
0.16305093299318
0.163788872068513
0.164532880612177
0.16516273580746
2.28699853912474
0.701453620156026
0.409589887253779
2.21610956824865
0.6809189840342
0.404442561778602
0.301233412191641
2.18721432026638
0.663528376222321
0.39686850576823
0.299019663303683
0.24966549812053
2.1861902107878
0.652481751889055
0.389199202004808
0.295431657862436
0.248467469947013
0.221012829970805
2.19192817451278
0.645581458901971
0.382735004751959
0.291208442421859
0.246401723650494
0.220185284580247
0.203561753714433
2.19485142689179
0.639166884127131
0.377178708575286
0.28692767146168
0.243698399335472
0.218748349931142
0.202838402462624
0.192284015048205
2.19511923406387
0.631283078110532
0.371590060735242
0.282674378623332
0.240620236979279
0.216766064117148
0.201645427494091
0.191559864635541
0.184701111255155
2.19480204369697
0.62165276463792
0.365334229424902
0.278238247850246
0.237308298575063
0.214375168571277
0.200005738927637
0.190445497770974
0.183942709900456
0.17947023178934
2.19480010875562
0.61047385796724
0.358212616988928
0.273430074440626
0.233780779633126
0.211710793592813
0.198015342457759
0.188969814818049
0.182843659333706
0.178669844902032
0.175806501082979
2.1951316293707
0.597824874939777
0.350230529949848
0.268183937127231
0.230027421419182
0.208862373739299
0.195797457085201
0.187223455738535
0.181451846754145
0.177564221270961
0.174963024477141
0.173218690931244
2.19485311275583
0.583601798377553
0.341440567311826
0.262535221140179
0.226075768239975
0.20589473049662
0.193459067928526
0.185322077806616
0.179865070443225
0.176219952584459
0.173842847496924
0.172331941688259
0.171380254767882
2.19192929954482
0.567541745914218
0.331917187140906
0.256598809377055
0.222019108710274
0.202892172412648
0.191095421779683
0.183373673768202
0.178196250244123
0.174744957334442
0.172527628587669
0.171193235431179
0.170450216800935
0.170063452639704
2.18619160196075
0.549352287064874
0.321819093963066
0.250592265489381
0.21803927133538
0.19999559557253
0.188823218427208
0.181485004994721
0.176551130709091
0.173252537014375
0.171134833005516
0.169895926054218
0.169290493185887
0.169090781205139
0.169103936652919
2.18722070558694
0.529550911741087
0.311596978731044
0.24493206849119
0.21445730983708
0.19743995090089
0.186816322879416
0.17979059105226
0.175040631223184
0.171846551382962
0.169779544287576
0.168565530696741
0.168003815059353
0.167908984897332
0.168090517258526
0.168380471462139
2.21610851709353
0.510598806116599
0.30257041886127
0.240480652089791
0.211851741165552
0.19561788990078
0.185346977163982
0.178485241760622
0.17380892648521
0.170639327342283
0.168564410941691
0.167319170399368
0.16672235972483
0.166628788238715
0.166887506636492
0.167329766458718
0.167802496314189
2.28699400985074
0.499406866261356
0.298298049767144
0.239157962613525
0.21132980504814
0.195210111582155
0.184854691766993
0.177864788180698
0.173062943143081
0.169780461780614
0.16760197940782
0.166258393508745
0.165564910112862
0.165388033374653
0.16561300142719
0.166108795419583
0.166719694709543
0.167301983644235
2.38166506997839
0.522000208125201
0.30905895630906
0.245560307388116
0.215181949410819
0.197472216307305
0.186082953249737
0.178396643502867