/*--------------------------------*- C++ -*----------------------------------*\
  =========                 |
  \\      /  F ield         | OpenFOAM: The Open Source CFD Toolbox
   \\    /   O peration     | Website:  https://openfoam.org
    \\  /    A nd           | Version:  12
     \\/     M anipulation  |
\*---------------------------------------------------------------------------*/
/*   Windows 32 and 64 bit porting by blueCAPE: http://www.bluecape.com.pt   *\
|  Based on Windows porting (2.0.x v4) by Symscape: http://www.symscape.com   |
\*---------------------------------------------------------------------------*/
FoamFile
{
    format      ascii;
    class       volScalarField;
    location    "400";
    object      p;
}
// * * * * * * * * * * * * * * * * * * * * * * * * * * * * * * * * * * * * * //

dimensions      [0 2 -2 0 0 0 0];

internalField   nonuniform List<scalar> 
10152
(
83333.3327781683
83333.3327567288
83333.3327782389
83333.3327780671
83333.3327346095
83333.3327567888
83333.3327566166
83333.332778373
83333.3327781635
83333.3327782901
83333.3327118693
83333.3327346542
83333.3327345027
83333.3327569286
83333.3327567083
83333.3327568414
83333.3327785733
83333.3327783044
83333.3327784154
83333.3327798284
83333.3326884631
83333.332711922
83333.332711744
83333.3327347966
83333.3327345832
83333.3327346995
83333.3327571528
83333.3327568598
83333.3327569742
83333.3327583201
83333.3327788514
83333.3327785128
83333.3327785879
83333.332779929
83333.3327829574
83333.3326643951
83333.3326885253
83333.3326883209
83333.3327120771
83333.332711827
83333.3327118985
83333.3327350368
83333.3327347382
83333.3327348267
83333.3327361027
83333.3327574691
83333.3327570972
83333.3327571741
83333.3327584515
83333.3327613058
83333.3327792158
83333.3327788028
83333.3327788303
83333.3327801312
83333.3327830167
83333.3327875834
83333.3326396723
83333.3326644664
83333.3326642399
83333.3326886935
83333.3326884094
83333.3326884425
83333.3327123381
83333.332711991
83333.3327120239
83333.3327132194
83333.3327353823
83333.3327349927
83333.332735031
83333.3327362372
83333.3327389592
83333.3327578872
83333.3327574301
83333.3327574553
83333.3327587003
83333.3327614048
83333.3327657312
83333.3327796712
83333.3327791856
83333.3327791458
83333.3327804047
83333.3327831879
83333.3327876004
83333.3327935077
83333.3326143003
83333.332639752
83333.3326395071
83333.3326646483
83333.3326643344
83333.3326643362
83333.3326889751
83333.3326885836
83333.3326885681
83333.332689696
83333.332712715
83333.3327122633
83333.3327122312
83333.3327133534
83333.3327159615
83333.3327358423
83333.3327353571
83333.3327353313
83333.332736492
83333.3327390658
83333.3327432211
83333.332758415
83333.3327578707
83333.3327578211
83333.3327590225
83333.3327616475
83333.3327657912
83333.332771427
83333.3327802284
83333.3327796613
83333.3327795433
83333.3327807401
83333.3327834803
83333.3327877238
83333.3327935024
83333.3328005266
83333.3325882826
83333.332614388
83333.3326141275
83333.332639948
83333.332639608
83333.3326395849
83333.3326649514
83333.3326645205
83333.3326644649
83333.3326655386
83333.3326893826
83333.3326888738
83333.332688781
83333.3326898315
83333.3326923484
83333.332713216
83333.3327126577
83333.3327125464
83333.3327136068
83333.3327160695
83333.3327200922
83333.3327364205
83333.3327358408
83333.3327357309
83333.3327368381
83333.3327393352
83333.3327432949
83333.3327487343
83333.3327590632
83333.3327584318
83333.3327582874
83333.3327594202
83333.3327619963
83333.3327659948
83333.3327714621
83333.3327782035
83333.3327802266
83333.3327800259
83333.3327811419
83333.3327838133
83333.3327879849
83333.3327935819
83333.3328005183
83333.3328084584
83333.3325616193
83333.3325883788
83333.3325881036
83333.3326145985
83333.3326142352
83333.3326141931
83333.3326402741
83333.3326398071
83333.3326397185
83333.332640752
83333.3326653898
83333.3326648304
83333.332664687
83333.33266568
83333.3326681266
83333.3326899233
83333.332689297
83333.3326891116
83333.3326900894
83333.3326924606
83333.3326963814
83333.3327138404
83333.332713181
83333.3327129752
83333.3327139684
83333.3327163504
83333.3327201726
83333.3327254668
83333.332737115
83333.3327364508
83333.3327362447
83333.3327372766
83333.3327397091
83333.3327435391
83333.3327487872
83333.3327553222
83333.3327598537
83333.3327591105
83333.3327588718
83333.332759906
83333.3327624047
83333.3327663343
83333.3327716271
83333.3327782328
83333.3327858942
83333.3327805832
83333.3327816177
83333.3327842061
83333.3327882908
83333.332793785
83333.332800565
83333.3328084549
83333.3328171321
83333.3325343059
83333.3325617245
83333.3325614343
83333.3325886046
83333.3325882188
83333.3325881614
83333.3326149478
83333.3326144483
83333.3326143329
83333.3326153387
83333.3326407449
83333.3326401388
83333.3326399526
83333.3326409022
83333.3326432997
83333.332665971
83333.3326652835
83333.3326650361
83333.3326659477
83333.3326682472
83333.3326720943
83333.3326905944
83333.3326898591
83333.332689569
83333.3326904661
83333.332692755
83333.3326964703
83333.3327016594
83333.332714579
83333.3327138326
83333.3327135282
83333.3327144375
83333.3327167413
83333.3327204397
83333.3327255305
83333.3327319186
83333.3327379671
83333.3327371801
83333.3327368868
83333.3327378207
83333.3327401687
83333.3327439106
83333.3327490019
83333.3327553721
83333.3327628306
83333.3327606562
83333.332759904
83333.3327595664
83333.3327605017
83333.3327628952
83333.3327667251
83333.332771923
83333.3327783691
83333.3327859252
83333.3327943412
83333.3327821577
83333.3327846657
83333.3327886542
83333.3327940393
83333.3328007034
83333.332808479
83333.3328171287
83333.3328263942
83333.3325063355
83333.3325344207
83333.3325341148
83333.332561967
83333.3325615574
83333.3325614873
83333.3325889779
83333.3325884469
83333.3325883087
83333.3325892969
83333.332615452
83333.3326148031
83333.3326145807
83333.3326154996
83333.3326178684
83333.3326413682
83333.3326406235
83333.3326403227
83333.3326411823
83333.3326434311
83333.3326472323
83333.3326666911
83333.3326658864
83333.3326655237
83333.3326663428
83333.3326685595
83333.332672195
83333.3326773148
83333.3326913843
83333.3326905554
83333.3326901607
83333.3326909644
83333.3326931631
83333.3326967589
83333.3327017348
83333.3327080236
83333.332715398
83333.3327146055
83333.3327142144
83333.3327150263
83333.3327172373
83333.332720832
83333.332725776
83333.3327319821
83333.3327393004
83333.3327388467
83333.3327380282
83333.3327376556
83333.332738492
83333.3327407307
83333.3327443647
83333.3327493394
83333.3327555634
83333.3327628817
83333.3327711119
83333.3327615369
83333.33276073
83333.3327603471
83333.3327611999
83333.3327634901
83333.3327671999
83333.3327722731
83333.3327786091
83333.3327860359
83333.332794375
83333.3328033983
83333.3327851858
83333.3327890807
83333.3327943474
83333.3328008923
83333.3328085509
83333.3328171308
83333.3328263852
83333.3328361055
83333.3324776981
83333.3325064599
83333.3325061378
83333.3325346811
83333.3325342466
83333.3325341648
83333.3325623668
83333.332561802
83333.3325616429
83333.332562622
83333.3325895171
83333.3325888262
83333.3325885716
83333.3325894697
83333.3325918276
83333.3326161189
83333.3326153211
83333.332614974
83333.3326157934
83333.3326180145
83333.3326217933
83333.3326421395
83333.3326412688
83333.3326408425
83333.3326415989
83333.3326437631
83333.3326473465
83333.3326524314
83333.3326675385
83333.3326666319
83333.332666157
83333.3326668719
83333.3326689879
83333.3326725082
83333.332677405
83333.3326836362
83333.3326922675
83333.33269138
83333.3326908922
83333.3326915947
83333.332693692
83333.3326971734
83333.3327020077
83333.3327081012
83333.3327153315
83333.3327163295
83333.3327154754
83333.332715032
83333.3327157508
83333.332717853
83333.3327213321
83333.3327261416
83333.3327322077
83333.3327393712
83333.3327474717
83333.3327397945
83333.3327389391
83333.3327385266
83333.3327392957
83333.3327414198
83333.3327449252
83333.332749765
83333.3327558534
83333.3327630506
83333.3327711665
83333.3327800266
83333.3327625104
83333.3327616542
83333.3327611861
83333.3327619651
83333.3327641832
83333.3327677773
83333.3327727095
83333.3327789034
83333.3327862179
83333.3327944581
83333.3328034262
83333.3328129263
83333.3327895654
83333.3327947153
83333.332801122
83333.3328086601
83333.3328171477
83333.3328263647
83333.332836083
83333.3328461278
83333.3324483821
83333.3324778319
83333.3324774933
83333.3325067393
83333.3325062785
83333.3325061859
83333.3325351097
83333.3325345087
83333.3325343295
83333.3325353065
83333.3325629443
83333.332562208
83333.3325619223
83333.3325628077
83333.3325651702
83333.3325902308
83333.3325893798
83333.3325889902
83333.3325897791
83333.3325919894
83333.3325957705
83333.3326169443
83333.3326160109
83333.3326155281
83333.3326162345
83333.3326183615
83333.3326219219
83333.3326270042
83333.3326430473
83333.332642067
83333.3326415201
83333.3326421616
83333.3326442149
83333.3326476856
83333.3326525376
83333.3326587492
83333.332668496
83333.3326675132
83333.332666938
83333.3326675457
83333.332669551
83333.3326729474
83333.3326777058
83333.3326837334
83333.3326909163
83333.3326932746
83333.3326923159
83333.3326917625
83333.3326923693
83333.3326943558
83333.3326977134
83333.3327024018
83333.332708355
83333.3327154217
83333.3327234467
83333.3327173476
83333.3327164554
83333.3327159605
83333.3327166163
83333.3327186085
83333.3327219581
83333.3327266238
83333.3327325337
83333.332739569
83333.3327475452
83333.3327562998
83333.332740832
83333.332739941
83333.3327394718
83333.3327401972
83333.3327422442
83333.332745615
83333.3327503024
83333.3327562351
83333.332763292
83333.3327712999
83333.3327800742
83333.3327894377
83333.3327635744
83333.3327626862
83333.3327621477
83333.3327628164
83333.332764942
83333.3327684509
83333.3327732464
83333.33277928
83333.3327864496
83333.3327945819
83333.3328034794
83333.3328129409
83333.3328228012
83333.3327951362
83333.3328014032
83333.3328087973
83333.3328171697
83333.3328263209
83333.3328360288
83333.3328460892
83333.3328563464
83333.3324183752
83333.3324485243
83333.3324481692
83333.3324781308
83333.332477643
83333.33247754
83333.3325071988
83333.3325065593
83333.3325063604
83333.3325073409
83333.3325357289
83333.3325349437
83333.3325346269
83333.3325355059
83333.3325378864
83333.3325637092
83333.3325628004
83333.3325623685
83333.3325631342
83333.3325653486
83333.3325691541
83333.3325911151
83333.3325901174
83333.3325895814
83333.332590247
83333.332592352
83333.332595915
83333.3326010225
83333.3326179173
83333.3326168649
83333.3326162526
83333.3326168335
83333.3326188411
83333.3326222857
83333.3326271291
83333.3326333538
83333.3326440788
83333.3326430099
83333.332642355
83333.3326428815
83333.3326448147
83333.3326481519
83333.332652866
83333.3326588674
83333.3326660438
83333.3326695769
83333.3326685195
83333.3326678664
83333.3326683737
83333.3326702633
83333.3326735273
83333.3326781301
83333.3326840077
83333.3326910267
83333.3326990258
83333.3326943753
83333.3326933743
83333.3326927587
83333.3326932927
83333.3326951704
83333.3326983968
83333.3327029327
83333.3327087165
83333.332715639
83333.3327235371
83333.3327322375
83333.3327184572
83333.3327175362
83333.3327169963
83333.3327176072
83333.3327195125
83333.3327227297
83333.33272724
83333.3327329829
83333.3327398549
83333.332747708
83333.3327563604
83333.3327656483
83333.3327419572
83333.3327410492
83333.3327405266
83333.3327411824
83333.3327431703
83333.3327464416
83333.3327509702
83333.3327567289
83333.3327636201
83333.3327714951
83333.3327801719
83333.3327894716
83333.3327992271
83333.3327647223
83333.3327638206
83333.3327632434
83333.3327638158
83333.332765805
83333.3327691926
83333.3327738755
83333.3327797507
83333.3327867482
83333.332794742
83333.3328035482
83333.3328129651
83333.3328228034
83333.3328329165
83333.3328017273
83333.332808967
83333.3328171973
83333.3328262515
83333.3328359233
83333.3328459983
83333.3328562911
83333.3328666662
83333.3323876651
83333.3324185231
83333.332418153
83333.3324488424
83333.3324483272
83333.3324482147
83333.3324786228
83333.332477943
83333.3324777247
83333.3324787133
83333.3325078626
83333.3325070253
83333.332506677
83333.3325075545
83333.3325099644
83333.3325365491
83333.332535578
83333.3325351029
83333.332535851
83333.3325380813
83333.3325419315
83333.3325646577
83333.3325635896
83333.3325629999
83333.3325636313
83333.3325657275
83333.3325693163
83333.332574474
83333.3325921597
83333.3325910316
83333.3325903558
83333.3325908855
83333.3325928622
83333.3325963008
83333.3326011662
83333.3326074372
83333.3326190269
83333.3326178744
83333.3326171459
83333.3326176028
83333.332619481
83333.3326227816
83333.3326274784
83333.3326334921
83333.3326407026
83333.3326452374
83333.3326440886
83333.3326433469
83333.3326437671
83333.3326455779
83333.3326487736
83333.3326533223
83333.3326591615
83333.332666173
83333.3326741923
83333.3326707596
83333.3326696548
83333.3326689332
83333.33266936
83333.3326711386
83333.3326742671
83333.3326787087
83333.3326844079
83333.3326912636
83333.3326991282
83333.3327078275
83333.3326955695
83333.3326945406
83333.3326938812
83333.3326943573
83333.3326961434
83333.3326992395
83333.3327036177
83333.3327092243
83333.3327159696
83333.3327237207
83333.332732312
83333.3327415723
83333.3327196517
83333.3327187245
83333.3327181461
83333.3327187084
83333.3327205528
83333.3327236552
83333.3327280063
83333.3327335698
83333.3327402617
83333.3327479553
83333.3327564892
83333.332765694
83333.3327754034
83333.3327431648
83333.3327422592
83333.3327417105
83333.332742297
83333.3327441916
83333.3327473739
83333.3327517736
83333.3327573498
83333.3327640525
83333.3327717638
83333.3327803196
83333.3327895386
83333.3327992467
83333.3328092924
83333.3327659338
83333.332765047
83333.3327644672
83333.3327649756
83333.3327668345
83333.3327700476
83333.3327745713
83333.3327803054
83333.332787128
83333.3327949498
83333.3328036297
83333.3328129776
83333.332822793
83333.3328329035
83333.3328431795
83333.332809163
83333.3328172346
83333.3328261599
83333.3328357607
83333.3328458296
83333.3328561634
83333.3328665942
83333.3328770088
83333.3323562543
83333.3323878141
83333.3323874345
83333.3324188591
83333.332418317
83333.3324181964
83333.3324493682
83333.3324486468
83333.3324484094
83333.3324494101
83333.3324793343
83333.332478442
83333.3324780617
83333.3324789417
83333.332481391
83333.3325087422
83333.3325077048
83333.332507185
83333.3325079199
83333.3325101752
83333.3325140892
83333.3325375663
83333.3325364231
83333.3325357777
83333.3325363796
83333.3325384793
83333.332542112
83333.3325473446
83333.3325657783
83333.3325645687
83333.332563828
83333.3325643124
83333.3325662706
83333.3325697213
83333.332574637
83333.3325809848
83333.3325933529
83333.3325921127
83333.3325913121
83333.3325917077
83333.3325935451
83333.3325968293
83333.3326015359
83333.3326075934
83333.3326148794
83333.3326202712
83333.3326190303
83333.3326182059
83333.3326185501
83333.3326202981
83333.3326234478
83333.3326279704
83333.3326338065
83333.3326408484
83333.33264893
83333.3326465082
83333.332645303
83333.3326444886
83333.332644822
83333.3326465172
83333.3326495712
83333.3326539495
83333.3326596013
83333.3326664335
83333.3326743059
83333.3326830492
83333.332672042
83333.3326709068
83333.3326701382
83333.3326705006
83333.3326721837
83333.3326751807
83333.33267946
83333.3326849724
83333.3326916386
83333.3326993371
83333.3327079133
83333.3327171958
83333.3326968537
83333.3326958159
83333.3326951255
83333.3326955583
83333.3326972707
83333.332700249
83333.3327044694
83333.3327098926
83333.3327164453
83333.3327240183
83333.3327324682
83333.3327416312
83333.3327513429
83333.3327209241
83333.3327200142
83333.3327194204
83333.3327199402
83333.3327217131
83333.3327247242
83333.3327289285
83333.3327343066
83333.3327408018
83333.3327483119
83333.3327566977
83333.3327657933
83333.3327754359
83333.3327854682
83333.3327444317
83333.3327435588
83333.3327430196
83333.3327435638
83333.3327453587
83333.3327484102
83333.3327526826
83333.3327581005
83333.3327646021
83333.3327721197
83333.3327805209
83333.3327896352
83333.3327992823
83333.3328092979
83333.332819546
83333.3327671573
83333.3327663378
83333.3327658055
83333.3327662916
83333.3327680463
83333.3327710769
83333.3327753806
83333.3327809189
83333.3327875781
83333.3327952183
83333.3328037345
83333.3328129759
83333.332822748
83333.3328328591
83333.332843151
83333.3328535133
83333.3328172766
83333.3328260504
83333.3328355439
83333.3328455722
83333.3328559314
83333.3328664306
83333.3328769207
83333.3328873109
83333.3323242159
83333.3323564079
83333.3323560104
83333.3323881672
83333.3323875983
83333.3323874719
83333.3324194201
83333.3324186552
83333.3324183995
83333.3324194162
83333.3324501308
83333.3324491804
83333.3324487671
83333.332449653
83333.3324521511
83333.3324802777
83333.3324791699
83333.3324786037
83333.3324793285
83333.3324816178
83333.3324856122
83333.3325098329
83333.33250861
83333.3325079065
83333.3325084821
83333.332510596
83333.3325142881
83333.3325196188
83333.3325387678
83333.3325374715
83333.3325366635
83333.3325371066
83333.3325390568
83333.332542537
83333.3325475265
83333.332553981
83333.3325670586
83333.3325657263
83333.3325648514
83333.3325651913
83333.3325669997
83333.3325702854
83333.3325750265
83333.3325811585
83333.3325885553
83333.332594688
83333.3325933514
83333.3325924452
83333.332592721
83333.3325944198
83333.3325975429
83333.3326020651
83333.3326079314
83333.3326150377
83333.3326232208
83333.3326216369
83333.3326203295
83333.3326194272
83333.3326196783
83333.3326213053
83333.3326243058
83333.3326286484
83333.3326342865
83333.332641134
83333.3326490554
83333.3326578853
83333.332647886
83333.3326466435
83333.3326457781
83333.3326460435
83333.3326476393
83333.3326505579
83333.3326547674
83333.3326602226
83333.3326668517
83333.3326745428
83333.3326831483
83333.3326924979
83333.3326734201
83333.3326722725
83333.3326714749
83333.3326717942
83333.3326733982
83333.3326762749
83333.3326803949
83333.3326857184
83333.3326921799
83333.3326996837
83333.3327080986
83333.3327172691
83333.3327270278
83333.3326982154
83333.3326971947
83333.3326964955
83333.3326968997
83333.3326985474
83333.3327014226
83333.3327054927
83333.3327107301
83333.3327170798
83333.3327244533
83333.3327327299
83333.3327417623
83333.3327513893
83333.3327614541
83333.3327222472
83333.3327213935
83333.3327208169
83333.3327213188
83333.33272302
83333.332725922
83333.3327299965
83333.3327351965
83333.3327414849
83333.3327487897
83333.332756996
83333.3327659557
83333.3327755057
83333.3327854874
83333.3327957574
83333.3327456908
83333.3327449133
83333.3327444391
83333.332744982
83333.3327466983
83333.3327496015
83333.3327536973
83333.3327589507
83333.3327652702
83333.3327725767
83333.3327807887
83333.3327897633
83333.3327993263
83333.3328093019
83333.332819537
83333.3328299124
83333.3327682992
83333.3327676359
83333.332767232
83333.3327677507
83333.3327694326
83333.3327722959
83333.3327763622
83333.3327816381
83333.3327880734
83333.3327955377
83333.3328038755
83333.3328129694
83333.3328226603
83333.3328327556
83333.332843073
83333.3328534696
83333.3328638545
83333.33282592
83333.3328352788
83333.3328452276
83333.3328555795
83333.3328661369
83333.332876723
83333.3328872078
83333.3328975229
83333.3322914961
83333.3323244173
83333.332323948
83333.3323567888
83333.3323561757
83333.3323560266
83333.3323887668
83333.3323879529
83333.3323876776
83333.3323887183
83333.3324202378
83333.3324192254
83333.332418777
83333.3324196716
83333.3324222292
83333.332451143
83333.3324499604
83333.332449345
83333.3324500618
83333.3324523936
83333.3324564847
83333.3324814474
83333.3324801398
83333.3324793753
83333.3324799263
83333.3324820627
83333.332485829
83333.3324912808
83333.3325111207
83333.3325097328
83333.3325088544
83333.332509258
83333.3325112093
83333.3325147345
83333.3325198189
83333.3325264094
83333.3325401394
83333.3325387107
83333.3325377588
83333.3325380462
83333.3325398351
83333.3325431387
83333.3325479378
83333.3325541726
83333.3325617129
83333.3325684877
83333.3325670522
83333.3325660632
83333.3325662751
83333.3325679355
83333.3325710494
83333.3325755948
83333.3325815214
83333.3325887259
83333.3325970483
83333.3325961508
83333.3325947405
83333.3325937509
83333.3325939272
83333.3325954987
83333.3325984644
83333.332602796
83333.3326084514
83333.3326153498
83333.3326233601
83333.3326323164
83333.332623113
83333.3326217626
83333.3326208051
83333.3326209851
83333.3326225085
83333.3326253685
83333.3326295347
83333.3326349653
83333.3326415955
83333.3326493206
83333.3326579982
83333.3326674582
83333.3326493609
83333.3326481051
83333.3326472084
83333.3326474304
83333.3326489447
83333.3326517401
83333.3326557862
83333.3326610449
83333.3326674572
83333.3326749371
83333.3326833635
83333.332692586
83333.3327024369
83333.332674873
83333.332673745
83333.3326729424
83333.33267324
83333.3326747816
83333.3326775504
83333.3326815176
83333.3326866526
83333.3326929034
83333.3327001924
83333.3327084135
83333.332717431
83333.3327270898
83333.3327372302
83333.3326996157
83333.332698664
83333.3326979881
83333.3326983898
83333.3326999822
83333.3327027559
83333.3327066846
83333.332711739
83333.3327178793
83333.332725038
83333.3327331157
83333.3327419836
83333.3327514927
83333.332761488
83333.3327718223
83333.332723549
83333.3327228251
83333.3327223238
83333.3327228439
83333.3327244928
83333.3327272762
83333.3327311958
83333.3327362282
83333.3327423125
83333.3327493973
83333.3327573983
83333.3327661901
83333.3327756201
83333.332785528
83333.332795763
83333.3328061967
83333.3327468408
83333.3327462546
83333.332745936
83333.3327465397
83333.332748209
83333.332750973
83333.3327548668
83333.3327599007
83333.3327660261
83333.3327731357
83333.3327811359
83333.3327899331
83333.3327993768
83333.332809292
83333.3328195096
83333.3328298891
83333.3328403283
83333.3327692116
83333.3327688311
83333.3327686951
83333.3327693232
83333.3327709734
83333.3327736914
83333.3327775288
83333.3327825191
83333.3327886598
83333.3327958836
83333.3328040442
83333.3328129716
83333.332822538
83333.3328325809
83333.3328429118
83333.3328533591
83333.3328637964
83333.3328741519
83333.3328349646
83333.3328448031
83333.3328551078
83333.3328656932
83333.3328763705
83333.3328869783
83333.3328974059
83333.3329076048
83333.3322917679
83333.3322912315
83333.3323248634
83333.3323241445
83333.3323239317
83333.33235744
83333.3323565508
83333.3323562323
83333.3323573012
83333.3323896462
83333.3323885616
83333.3323880704
83333.3323889791
83333.332391613
83333.3324213252
83333.3324200613
83333.3324193915
83333.3324201015
83333.3324224851
83333.3324266915
83333.3324523982
83333.332451
83333.3324501701
83333.3324506968
83333.3324528627
83333.3324567179
83333.3324623147
83333.3324828277
83333.3324813429
83333.3324803899
83333.3324807545
83333.3324827135
83333.3324862987
83333.3324914983
83333.3324982533
83333.332512589
83333.3325110596
83333.3325100267
83333.3325102628
83333.3325120396
83333.3325153756
83333.3325202551
83333.332526619
83333.3325343347
83333.3325416674
83333.3325401291
83333.3325390554
83333.3325392053
83333.3325408361
83333.3325439558
83333.3325485463
83333.3325545608
83333.332561896
83333.3325703935
83333.3325700508
83333.3325685365
83333.3325674585
83333.3325675644
83333.3325690906
83333.3325720378
83333.332576381
83333.3325820823
83333.332589065
83333.332597201
83333.3326063231
83333.3325977274
83333.3325962705
83333.332595222
83333.3325953239
83333.3325967874
83333.3325996066
83333.332603753
83333.3326091889
83333.3326158551
83333.332623653
83333.3326324434
83333.3326420553
83333.3326246856
83333.3326233235
83333.3326223321
83333.332622468
83333.3326239085
83333.332626642
83333.3326306393
83333.3326358646
83333.3326422649
83333.3326497623
83333.3326582432
83333.3326675612
83333.3326775475
83333.3326509062
83333.3326496758
83333.3326487763
83333.3326489799
83333.3326504337
83333.3326531196
83333.33265701
83333.332662075
83333.3326682671
83333.3326755172
83333.3326837303
83333.3326927798
83333.3327025148
83333.3327127739
83333.3326763561
83333.332675307
83333.3326745351
83333.3326748403
83333.3326763364
83333.3326790072
83333.3326828282
83333.3326877766
83333.3326938133
83333.3327008769
83333.3327088805
83333.3327177102
83333.3327272275
83333.3327372806
83333.3327477196
83333.3327009821
83333.3327001866
83333.3326995923
83333.332700027
83333.3327015853
83333.3327042584
83333.3327080399
83333.3327129147
83333.3327188439
83333.3327257771
83333.3327336363
83333.3327423123
83333.3327516712
83333.3327615643
83333.3327718435
83333.332782374
83333.3327247235
83333.3327242325
83333.3327239093
83333.3327245074
83333.3327261322
83333.332728804
83333.3327325522
83333.3327373862
83333.3327432721
83333.3327501353
83333.3327579119
83333.3327665061
83333.3327757846
83333.3327855926
83333.332795774
83333.3328061887
83333.3328167227
83333.3327477294
83333.3327474565
83333.3327474434
83333.3327481974
83333.3327498691
83333.3327525169
83333.3327562123
83333.3327609965
83333.332766869
83333.3327737655
83333.3327815643
83333.3327901578
83333.3327994422
83333.3328092624
83333.3328194457
83333.3328298309
83333.3328402912
83333.3328507414
83333.3327697811
83333.3327697745
83333.3327700758
83333.3327709351
83333.3327726229
83333.3327752343
83333.3327788616
83333.332783572
83333.3327893916
83333.3327963017
83333.3328042174
83333.3328129761
83333.3328223955
83333.3328323415
83333.3328426511
83333.3328531421
83333.3328636551
83333.3328740804
83333.3328843641
83333.332844301
83333.3328545252
83333.3328650983
83333.3328758397
83333.3328865712
83333.3328971474
83333.3329074761
83333.332917528
83333.3322923006
83333.3322915005
83333.3322912019
83333.3323255955
83333.3323245682
83333.3323241581
83333.332325219
83333.3323583954
83333.3323572047
83333.3323566384
83333.3323575623
83333.3323602933
83333.3323908178
83333.3323894592
83333.3323887207
83333.3323894255
83333.3323918753
83333.3323962228
83333.3324226739
83333.332421177
83333.3324202735
83333.3324207741
83333.3324229773
83333.332426938
83333.3324327062
83333.3324538786
83333.3324522899
83333.3324512567
83333.3324515804
83333.3324535524
83333.3324572125
83333.3324625486
83333.3324694963
83333.3324843999
83333.3324827638
83333.3324816451
83333.3324818289
83333.3324835988
83333.3324869805
83333.3324919614
83333.3324984805
83333.3325064033
83333.3325142222
83333.3325125765
83333.3325114142
83333.3325115025
83333.3325131097
83333.3325162485
83333.3325209045
83333.3325270334
83333.3325345306
83333.3325432381
83333.3325433359
83333.3325417147
83333.3325405456
83333.3325405835
83333.3325420719
83333.3325450145
83333.3325493898
83333.3325551639
83333.3325622627
83333.3325705598
83333.3325798857
83333.332571732
83333.3325701682
83333.3325690282
83333.3325690563
83333.3325704695
83333.3325732632
83333.3325774111
83333.3325828797
83333.3325896148
83333.3325975219
83333.3326064641
83333.3326162682
83333.3325994008
83333.332597933
83333.3325968499
83333.332596907
83333.332598286
83333.3326009749
83333.3326049458
83333.3326101664
83333.3326165889
83333.332624142
83333.3326327181
83333.3326421732
83333.3326523367
83333.3326263276
83333.3326249956
83333.3326240035
83333.3326241231
83333.3326255047
83333.3326281279
83333.3326319659
83333.332636991
83333.3326431604
83333.3326504126
83333.3326586612
83333.3326677868
83333.3326776412
83333.3326880611
83333.3326524766
83333.3326513346
83333.3326504729
83333.3326506911
83333.332652106
83333.3326546968
83333.3326584393
83333.3326633139
83333.3326692849
83333.3326762977
83333.3326842752
83333.332693115
83333.3327026867
83333.3327128411
83333.3327234257
83333.3326777976
83333.3326769215
83333.3326762401
83333.3326765913
83333.332678066
83333.3326806478
83333.3326843252
83333.3326890885
83333.3326949089
83333.3327017397
83333.332709511
83333.3327181269
83333.3327274675
83333.3327373933
83333.332747758
83333.3327584226
83333.3327022161
83333.3327016826
83333.332701278
83333.3327018035
83333.3327033551
83333.3327059373
83333.3327095659
83333.3327142498
83333.3327199672
83333.3327266693
83333.3327342954
83333.332742757
83333.3327519366
83333.332761697
83333.3327718922
83333.3327823822
83333.3327930455
83333.332725643
83333.332725479
83333.3327254971
83333.3327262674
83333.3327279177
83333.3327304992
83333.3327340779
83333.3327386932
83333.3327443463
83333.3327509902
83333.3327585375
83333.3327669115
83333.3327760064
83333.3327856836
83333.3327957884
83333.3328061705
83333.3328167014
83333.3328272821
83333.3327482993
83333.3327483696
83333.3327488236
83333.3327498602
83333.3327516199
83333.3327542001
83333.3327577186
83333.3327622554
83333.3327678427
83333.3327744651
83333.3327820432
83333.33279044
83333.3327995361
83333.3328092203
83333.3328193359
83333.3328297142
83333.3328402035
83333.3328506912
83333.3328611084
83333.33277
83333.3327704199
83333.332771156
83333.332772417
83333.3327742769
83333.3327768617
83333.3327803218
83333.3327847738
83333.3327902778
83333.3327968457
83333.3328044411
83333.3328129613
83333.3328222289
83333.3328320531
83333.3328422965
83333.3328527986
83333.3328633854
83333.3328739106
83333.3328842804
83333.3328944584
83333.3328538368
83333.3328643628
83333.3328751283
83333.3328859595
83333.3328966906
83333.3329071915
83333.3329173889
83333.3329272698
83333.3322931271
83333.3322920115
83333.3322914881
83333.3322925069
83333.3323266509
83333.3323252918
83333.332324601
83333.3323254952
83333.3323283195
83333.3323596659
83333.3323581756
83333.3323573287
83333.3323580214
83333.3323605567
83333.3323650735
83333.3323922707
83333.3323906596
83333.3323896633
83333.3323901343
83333.3323923865
83333.3323964756
83333.3324024473
83333.3324242635
83333.3324225618
83333.3324214381
83333.3324217162
83333.3324237062
83333.3324274574
83333.3324329538
83333.3324401247
83333.3324555628
83333.3324538128
83333.3324526015
83333.3324527295
83333.3324544957
83333.3324579353
83333.3324630385
83333.3324697402
83333.3324779016
83333.3324861458
83333.3324843866
83333.3324831301
83333.3324831552
83333.3324847424
83333.3324879117
83333.3324926525
83333.3324989218
83333.332506612