/*--------------------------------*- C++ -*----------------------------------*\
  =========                 |
  \\      /  F ield         | OpenFOAM: The Open Source CFD Toolbox
   \\    /   O peration     | Website:  https://openfoam.org
    \\  /    A nd           | Version:  12
     \\/     M anipulation  |
\*---------------------------------------------------------------------------*/
/*   Windows 32 and 64 bit porting by blueCAPE: http://www.bluecape.com.pt   *\
|  Based on Windows porting (2.0.x v4) by Symscape: http://www.symscape.com   |
\*---------------------------------------------------------------------------*/
FoamFile
{
    format      ascii;
    class       volVectorField;
    location    "400";
    object      U;
}
// * * * * * * * * * * * * * * * * * * * * * * * * * * * * * * * * * * * * * //

dimensions      [0 1 -1 0 0 0 0];

internalField   nonuniform List<vector> 
10152
(
(4.00200304574846e-06 0.000151284096351941 3.36918175904281e-05)
(6.44685691076855e-06 0.000187727087967612 3.40847878890945e-05)
(1.49648116075111e-05 -0.000169522521015118 3.00385669149504e-05)
(3.91057593100776e-06 0.000261783174538539 6.94000032689901e-05)
(8.40310753235579e-06 0.000222837700623802 3.50571080163052e-05)
(1.9899356938052e-05 -0.000145200261661618 3.08682687638943e-05)
(4.77359890065209e-06 0.000287133964930176 6.97798940238742e-05)
(2.93756711308945e-05 -0.000268773590739905 2.88450066829019e-05)
(1.32504750622882e-05 7.41515552918055e-05 6.38035634104543e-05)
(3.17135531203699e-06 0.000423246941842551 0.000102858343480593)
(8.27301960141253e-06 0.000249863525344242 3.42827301472915e-05)
(2.39612265821768e-05 -0.00011053587608314 3.20019564310712e-05)
(5.34245330132948e-06 0.000308977621384175 6.96817622512916e-05)
(3.32584041850657e-05 -0.000248688956799848 3.1307721685984e-05)
(1.52976121134371e-05 9.18499621859151e-05 6.52269140721988e-05)
(3.47338018494762e-06 0.000445665099361996 0.000101594859356338)
(4.4654601666755e-05 -0.00031068111990797 2.88650856111814e-05)
(2.44043721469362e-05 -1.36171638406918e-05 6.09421507891693e-05)
(1.00193510964619e-05 0.000326486412422049 9.72549875194135e-05)
(2.6946096050963e-06 0.000492231704724875 0.000134483779079975)
(7.89765364497674e-06 0.000278409391095545 3.29881774223643e-05)
(2.40943286640039e-05 -8.7214069156298e-05 3.10286390805783e-05)
(5.45249057616201e-06 0.000328911569590315 6.82022918745997e-05)
(3.67179023079227e-05 -0.000215929370072697 3.2602324337576e-05)
(1.67062842716184e-05 0.00010925711269174 6.48850812204327e-05)
(3.66782172172105e-06 0.000466387993922278 0.000100235306743886)
(4.77944445170605e-05 -0.000292540931524575 3.2097294161855e-05)
(2.65828996301287e-05 -6.83964348325932e-08 6.31454722954359e-05)
(1.07842860551239e-05 0.000344532662977207 9.64961268554545e-05)
(2.78280646002624e-06 0.000512327223180924 0.000131915031340602)
(6.03976984984911e-05 -0.000352764021154238 2.93738285209562e-05)
(3.62285705227451e-05 -4.78771817601775e-05 5.96915547564405e-05)
(1.82211636480765e-05 0.000271886557674663 9.42493449846526e-05)
(7.91895273321185e-06 0.000440488912201839 0.000128839866912952)
(2.26983329438771e-06 0.000534638252466428 0.000162475287375694)
(7.66917946348403e-06 0.000306347242743588 3.16933271089023e-05)
(2.38323641359441e-05 -6.1681153929409e-05 2.95068104599942e-05)
(5.44863750142483e-06 0.000348684524728311 6.63425655388119e-05)
(3.78400399411408e-05 -0.000194927150320721 3.08460835907702e-05)
(1.72169069157668e-05 0.000126106984525707 6.31847489455597e-05)
(3.72883707644904e-06 0.000486248979950105 9.82576536963084e-05)
(5.13414816386124e-05 -0.000259723897160715 3.36166369145364e-05)
(2.84099012749596e-05 1.48534757742565e-05 6.28220423495877e-05)
(1.13887100808959e-05 0.000362636232792411 9.52300058909437e-05)
(2.85047586474917e-06 0.000531635917369949 0.000129576714079794)
(6.33070031973533e-05 -0.000335500156099101 3.31649686616145e-05)
(3.83703645377395e-05 -3.61023486770193e-05 6.24900628103179e-05)
(1.91774075055188e-05 0.000287096463139455 9.38527969777538e-05)
(8.19207914941577e-06 0.000457988570785834 0.000126497563101403)
(2.28876249177719e-06 0.00055253480992551 0.000159173045151748)
(7.57734815079283e-05 -0.000403275469328041 2.92529697732565e-05)
(4.81058397161935e-05 -7.34832970663131e-05 5.8774748290651e-05)
(2.70433772353812e-05 0.000244213906020797 9.28132809447893e-05)
(1.41448420078866e-05 0.000407292247030426 0.000125576963661747)
(6.53830202027515e-06 0.000500915781277878 0.000156400021434538)
(1.91071543256889e-06 0.000570454978184156 0.000186862491722529)
(7.58633177603422e-06 0.000333032047935916 3.05487006358331e-05)
(2.37995171315909e-05 -3.72702653516806e-05 2.80914428090364e-05)
(5.45291853386438e-06 0.000368187750859826 6.44239736147218e-05)
(3.84413046739811e-05 -0.000170987194526367 2.91237396084727e-05)
(1.7469649873157e-05 0.000143355132199631 6.13758173844784e-05)
(3.76049285342549e-06 0.000505673208719468 9.60314245899896e-05)
(5.33817691493504e-05 -0.000239448955800745 3.16007938323661e-05)
(2.94531676092503e-05 3.02059806082486e-05 6.10213642457815e-05)
(1.17160566228607e-05 0.000380965539489025 9.33552828770626e-05)
(2.87795114302969e-06 0.000550444908135928 0.00012705918247489)
(6.72925510026363e-05 -0.000301511866162375 3.47688980032968e-05)
(4.0520998234799e-05 -2.22725300791058e-05 6.23948025633661e-05)
(2.00690177133377e-05 0.000303475245474926 9.27116657813088e-05)
(8.47836038351974e-06 0.000475785062903643 0.000124349285581204)
(2.30532789098834e-06 0.000570182026340573 0.00015618822290075)
(7.85596686497223e-05 -0.000385925343641446 3.37504669963136e-05)
(5.03090489640334e-05 -6.22697637413643e-05 6.20642259169603e-05)
(2.8127992600056e-05 0.000258072875063797 9.26964054942668e-05)
(1.45792799492676e-05 0.000423008205541354 0.000123428679682972)
(6.60895313134721e-06 0.000517126473593183 0.00015325268225457)
(1.89795395313792e-06 0.000586251468590708 0.000183239214595425)
(8.9409087756428e-05 -0.000460667609080203 2.91799419465446e-05)
(5.94702106878388e-05 -9.87203876838949e-05 5.76883775504182e-05)
(3.59367082847097e-05 0.000222345131424484 9.14763794846907e-05)
(2.10778707249963e-05 0.00038823074254543 0.000123929071538837)
(1.1494806507995e-05 0.000477828622756871 0.000152700826539775)
(5.56771822936658e-06 0.000544520945034093 0.000180206391838381)
(1.6472450441109e-06 0.000604059972575234 0.000207980024927275)
(7.60006233098915e-06 0.000358187490801222 2.96071866060278e-05)
(2.40385274227727e-05 -1.46870032372243e-05 2.68761498021253e-05)
(5.48388187091004e-06 0.000387316313226599 6.26551084706283e-05)
(3.91233150654891e-05 -0.00014826687202602 2.75776477741424e-05)
(1.77031703976979e-05 0.000160406903590991 5.95501818234283e-05)
(3.783600745503e-06 0.000524811966219962 9.37980030284928e-05)
(5.49192332898222e-05 -0.00021579497549728 2.97927869876049e-05)
(3.01753640642274e-05 4.63039283423095e-05 5.92430836628053e-05)
(1.19401077200995e-05 0.000399143067582428 9.12618345660742e-05)
(2.89576598333839e-06 0.00056889602346438 0.000124488483361306)
(7.04292538328578e-05 -0.000281499379651622 3.24615840580423e-05)
(4.21743582375383e-05 -7.49672585920375e-06 6.06005825798679e-05)
(2.06837170642828e-05 0.000320890557427529 9.09219002861779e-05)
(8.67855778697335e-06 0.000493728695646899 0.000122033756769438)
(2.30953391515443e-06 0.000587617936573677 0.000153288986667563)
(8.36457385611978e-05 -0.000350095358729934 3.54072982522273e-05)
(5.2903995332958e-05 -4.87624072313888e-05 6.22098066400478e-05)
(2.92739902548256e-05 0.000273562815547399 9.17404215969796e-05)
(1.50400372030656e-05 0.000439742444479168 0.000121459132063199)
(6.71172294670126e-06 0.000533810408656787 0.000150479115747822)
(1.88220957155367e-06 0.000602155329629233 0.000179939744159766)
(9.24412849407813e-05 -0.000443697418672642 3.3219030368528e-05)
(6.16319661779559e-05 -8.76079103987879e-05 6.14219456865531e-05)
(3.71380659230962e-05 0.000235709879202649 9.16304688980368e-05)
(2.16202319514918e-05 0.000403006688578698 0.000121912700368813)
(1.1658043820875e-05 0.000492828514463971 0.000149681170044983)
(5.53775915770468e-06 0.000559135264115422 0.000176725173391726)
(1.61087044303434e-06 0.00061788076382397 0.000204275589607619)
(0.000104052268046405 -0.00051693198605492 2.68110737784159e-05)
(6.98249825692741e-05 -0.000121289909334006 5.64837719446017e-05)
(4.43376575445817e-05 0.000201197259684017 8.98894567233686e-05)
(2.80068210438783e-05 0.000371791658339762 0.000122225672967142)
(1.71312529105771e-05 0.00046348410190915 0.000150676894828556)
(9.72709801777085e-06 0.00052616685241025 0.00017605795366362)
(4.91158075375117e-06 0.000582005648787488 0.000200841868052503)
(1.48848260872857e-06 0.000636451343387521 0.000226200988533905)
(7.64649193545794e-06 0.000381902336807021 2.88753902185588e-05)
(2.44622053122543e-05 5.91620075622991e-06 2.58866140340047e-05)
(5.54092372193082e-06 0.000405950945964399 6.11549324117912e-05)
(3.99446108095468e-05 -0.000127488270412119 2.6261829190032e-05)
(1.79823687754865e-05 0.000176994203572958 5.78510014738826e-05)
(3.80787410329599e-06 0.000543708248138488 9.17540784293847e-05)
(5.63602953081226e-05 -0.000193345632574917 2.8212481924049e-05)
(3.07969038768965e-05 6.22246284599349e-05 5.74594853829977e-05)
(1.21156681632405e-05 0.000417064025113306 8.9142975827095e-05)
(2.90549003264606e-06 0.00058715755870821 0.000122028212502221)
(7.29855252426918e-05 -0.000257866388531892 3.0694906378854e-05)
(4.35060041624532e-05 8.24886781466408e-06 5.88518626248922e-05)
(2.11436537644249e-05 0.000338365787791876 8.89254137838767e-05)
(8.82259943260761e-06 0.000511465002754962 0.000119630164544196)
(2.31033454308042e-06 0.000604870439699202 0.000150506159457755)
(8.82575012139654e-05 -0.000330626308807093 3.31050411347359e-05)
(5.5301429620813e-05 -3.42058132963902e-05 6.04860838636724e-05)
(3.0220583828225e-05 0.000290578581136329 9.00720229891539e-05)
(1.53975643546249e-05 0.000457133314264986 0.000119318539135571)
(6.79534078395939e-06 0.000550701899004501 0.000147817101298309)
(1.86350821405963e-06 0.000618104866764698 0.00017684971361695)
(9.97679702566984e-05 -0.000406132044406019 3.48773812154952e-05)
(6.49785798706316e-05 -7.39731837810441e-05 6.18321154087477e-05)
(3.8594904201531e-05 0.000250913322971544 9.09099937347008e-05)
(2.22103132550979e-05 0.000419188000238681 0.000120085148396966)
(1.18529003797214e-05 0.000508837553283087 0.00014709826280516)
(5.52389733202198e-06 0.000574386337204375 0.000173643523321289)
(1.56862243039504e-06 0.00063205559408356 0.000200883946093408)
(0.000102654439993781 -0.000513417717304358 3.31199254798446e-05)
(7.17764250495253e-05 -0.000113390973203375 6.04696273156931e-05)
(4.55973428320567e-05 0.00021441243280013 9.02713404079094e-05)
(2.86373421078704e-05 0.000386275309995637 0.000120396343013737)
(1.73636345093588e-05 0.000477914385723746 0.000147773244247693)
(9.69967713859012e-06 0.000539924202729765 0.000172677134571158)
(4.7938991466965e-06 0.0005949505373517 0.000197271844209404)
(1.42315188463461e-06 0.000648387757948432 0.000222560873087155)
(7.97933774505053e-05 -0.000142097293776379 5.42260527621575e-05)
(5.18590936899317e-05 0.000181424594698503 8.81649088698228e-05)
(3.44286967958153e-05 0.000354987592577223 0.000120242465475912)
(2.27841335383685e-05 0.000449984003581538 0.00014862071218231)
(1.44667367043858e-05 0.00051404056635632 0.00017361932318265)
(8.57319852007614e-06 0.000566082623282032 0.000196323436767249)
(4.51719251128493e-06 0.000616646258277109 0.000218770428262237)
(1.41506177587994e-06 0.000667893407339938 0.000241919327206008)
(7.72163513444877e-06 0.000404406017620386 2.83616214360439e-05)
(2.49727492061454e-05 2.45926055354566e-05 2.51068914393403e-05)
(5.61263735149809e-06 0.000424078223414268 5.9973961599534e-05)
(4.09621642099497e-05 -0.000108825890100668 2.5199302343209e-05)
(1.83153619455127e-05 0.000192948309061246 5.63874537432793e-05)
(3.83678701210607e-06 0.000562363540122017 9.00262572048235e-05)
(5.78481435280361e-05 -0.00017289283696549 2.68673267627696e-05)
(3.14170186725196e-05 7.76275043354125e-05 5.57851882402191e-05)
(1.22798556780752e-05 0.000434695773698842 8.71795698648108e-05)
(2.91262607349808e-06 0.000605309471008016 0.000119831299896026)
(7.5341267150251e-05 -0.00023543605545719 2.91536843825506e-05)
(4.46529678446199e-05 2.38449878931153e-05 5.70843924995677e-05)
(2.15123223400847e-05 0.000355606129142687 8.68835941375575e-05)
(8.92507545304736e-06 0.000529027195601049 0.000117291817367834)
(2.3061712325576e-06 0.000622071268220675 0.000147943053839325)
(9.20871188133044e-05 -0.000306847309916194 3.16099884644665e-05)
(5.73580292656453e-05 -1.85740361657085e-05 5.88220979064883e-05)
(3.09952425800017e-05 0.000307801447549299 8.81699778392594e-05)
(1.56671144210511e-05 0.000474437909658127 0.000117057505782127)
(6.85484409121359e-06 0.000567496333908833 0.000145224060192913)
(1.84527128287479e-06 0.000634067287306481 0.000173983545352388)
(0.000106841707402196 -0.000387066920667009 3.36980273171774e-05)
(6.84138881435408e-05 -5.94982092936008e-05 6.0263032987705e-05)
(3.99697403794491e-05 0.000267861547163979 8.94141846610849e-05)
(2.27218223308966e-05 0.00043638157236612 0.000118092133195841)
(1.20080953301318e-05 0.000525404646087777 0.000144646307224724)
(5.51163327364966e-06 0.000589990803641743 0.00017080396926551)
(1.52709621370846e-06 0.000646487550624358 0.000197757405103138)
(0.000113821491071726 -0.000468523015020125 3.6553311189278e-05)
(7.63741426060187e-05 -9.97657391619801e-05 6.11409421837862e-05)
(4.74876557267829e-05 0.00022960410098888 8.98233896051415e-05)
(2.94039133453118e-05 0.00040233533054759 0.000118778957497619)
(1.76228519092656e-05 0.000493606479264228 0.000145319877185179)
(9.70587881359133e-06 0.000554725927500391 0.000169770322222102)
(4.68445039968767e-06 0.000608674352673443 0.000194092995656865)
(1.35265311289672e-06 0.000660868165421609 0.000219226015513203)
(0.0001201315081216 -0.000570203394495538 2.89515348790924e-05)
(8.03757493841731e-05 -0.000135149492038762 5.90493500299642e-05)
(5.31467405356041e-05 0.000192722088018841 8.85248026012892e-05)
(3.51445430361426e-05 0.000369480482734909 0.000118573036584379)
(2.30411035722744e-05 0.000464286123840546 0.00014587184238287)
(1.44392594804675e-05 0.000527459259656415 0.000170363717677374)
(8.37556396793975e-06 0.000578405389679486 0.000192854066379773)
(4.3018967067864e-06 0.000627924478987395 0.000215253254234066)
(1.32056527439867e-06 0.000678019096995589 0.000238443666385934)
(5.85017247787849e-05 0.000162035660092903 8.60067094332787e-05)
(4.0008864018163e-05 0.000338024768882178 0.000118127479071391)
(2.78742186883806e-05 0.000435288779629872 0.000146289305813417)
(1.91923395338782e-05 0.000501972674181316 0.00017126295521675)
(1.26847098290848e-05 0.000555049094132557 0.000193572390357233)
(7.88049257368295e-06 0.000602157166966374 0.000214024924518863)
(4.32874441107618e-06 0.000649600265653625 0.000234366506326494)
(1.40807967134932e-06 0.000698512341375066 0.00025548831622788)
(7.83406279082054e-06 0.000426004221885486 2.80970240940992e-05)
(2.55314652965873e-05 4.16906515554427e-05 2.45389109145264e-05)
(5.69577454637639e-06 0.000441781785744536 5.91511234417034e-05)
(4.20764594972572e-05 -9.22257235255813e-05 2.43595639211167e-05)
(1.86852143468206e-05 0.000208247099200456 5.52069589463525e-05)
(3.86858808725664e-06 0.000580817097674856 8.86907097726265e-05)
(5.95175341198462e-05 -0.000154671426314554 2.57989056837446e-05)
(3.20862513656002e-05 9.23171566554492e-05 5.4330629253846e-05)
(1.24484411335645e-05 0.000452010275265697 8.54945367502809e-05)
(2.91939641974422e-06 0.00062339903941063 0.000118009518815219)
(7.76155366399613e-05 -0.000215059063670618 2.78670135405953e-05)
(4.57215486979725e-05 3.89202002812472e-05 5.5410995047358e-05)
(2.18430398214877e-05 0.000372533776066033 8.49675814506367e-05)
(9.00934633328367e-06 0.000546459407716319 0.000115173291781363)
(2.3000283873218e-06 0.000639295314398185 0.000145714415256401)
(9.551098481074e-05 -0.000284548291423896 2.97534753012077e-05)
(5.91275940094035e-05 -3.07235498228799e-06 5.71068363386727e-05)
(3.16367459881562e-05 0.000324809784421241 8.61884618871667e-05)
(1.5871911892842e-05 0.000491589653149329 0.000114821291785564)
(6.88872772583106e-06 0.000584244332106111 0.000142794862178241)
(1.82457511833303e-06 0.000650129675901098 0.000171419709498992)
(0.000112179659755747 -0.000364117634711328 3.28583807147629e-05)
(7.1364220805768e-05 -4.39362369357231e-05 5.87314281797222e-05)
(4.11543955680925e-05 0.000285049507235003 8.76402758155079e-05)
(2.31443900403469e-05 0.00045357448170639 0.000115949759568959)
(1.21184972179306e-05 0.000541941288312921 0.000142218653425907)
(5.49370291679743e-06 0.000605660484218774 0.000168139176728555)
(1.48894793394822e-06 0.000661116107338596 0.00019492070764713)
(0.000127416889615907 -0.000451757700682569 3.3430542599554e-05)
(8.12080715461074e-05 -8.55223772275189e-05 5.98949822013095e-05)
(4.94310668961162e-05 0.000246626096715838 8.85638228223695e-05)
(3.01442847735152e-05 0.000419580051752652 0.000116973752203692)
(1.78423530677784e-05 0.000510097426743321 0.0001430210289336)
(9.70030198562312e-06 0.000570150759363883 0.000167138711545221)
(4.58681309780876e-06 0.000622901951719228 0.00019121559452286)
(1.28616443141325e-06 0.000673782974085964 0.000216182116969694)
(0.000131063803049801 -0.000561080671985284 3.26105838008253e-05)
(8.68013134316043e-05 -0.000127070927247745 6.06452122396339e-05)
(5.56311977486417e-05 0.000207657985464188 8.83649579239483e-05)
(3.61530024524491e-05 0.000385668669317573 0.000117193773392099)
(2.33598962262426e-05 0.000480003570229465 0.000143608756355597)
(1.4439901674491e-05 0.000542112364825855 0.000167595427945603)
(8.21471367822364e-06 0.000591835310427965 0.000189841689393935)
(4.09844114865165e-06 0.000640097655655265 0.000212119548216418)
(1.22275925620918e-06 0.00068884270320892 0.0002352686519874)
(0.000142778435143827 -0.00066058913883526 2.67048971151463e-05)
(9.02214514008808e-05 -0.000163246606115449 5.44662987964819e-05)
(5.96445617318287e-05 0.000173200537274289 8.64832922661146e-05)
(4.08315915271005e-05 0.000351527219698563 0.000116376478799787)
(2.81927458283415e-05 0.000449725545669336 0.000143694469085297)
(1.91412099921318e-05 0.000515372951642928 0.000168159024676169)
(1.24163144210693e-05 0.000567178288732633 0.00019022531355437)
(7.50809332482403e-06 0.000612969551853177 0.000210600263582133)
(4.02060397918836e-06 0.000659229403873051 0.000231003537910321)
(1.27858647071854e-06 0.000706869674744125 0.000252241632742443)
(4.46211988937371e-05 0.000320241445777975 0.000115741777497572)
(3.21667453072059e-05 0.000419575550578513 0.00014382907139492)
(2.33641331166432e-05 0.000488322189849115 0.000168655270010779)
(1.67448370895279e-05 0.000543712096298412 0.000190986170801053)
(1.15698687799278e-05 0.000591743285390454 0.000211073570638232)
(7.54603757928828e-06 0.000636070876688915 0.000229524330472974)
(4.3076776500091e-06 0.000681339536324894 0.00024793722009469)
(1.44729497385435e-06 0.00072836781089049 0.000267193720782426)
(8.00499441708342e-06 0.000446949999463354 2.81057813120722e-05)
(2.61661934563866e-05 5.75502378433452e-05 2.42133221687409e-05)
(5.78920533780807e-06 0.000459188329480834 5.87270415348894e-05)
(4.32019879653585e-05 -7.72803277376774e-05 2.37322750045195e-05)
(1.9076212993573e-05 0.000222993369359075 5.43494525404215e-05)
(3.90173016908791e-06 0.00059914172892662 8.78013430386844e-05)
(6.12727916199171e-05 -0.000138479910794913 2.49508587361015e-05)
(3.27983730476183e-05 0.000106261571305845 5.3140526010343e-05)
(1.26210710016197e-05 0.000469039008574057 8.41631312942115e-05)
(2.92509125640114e-06 0.000641481129626991 0.000116642851219413)
(7.99518248354921e-05 -0.000196936305340338 2.6849030905682e-05)
(4.68011736672587e-05 5.32586951833431e-05 5.39528351011714e-05)
(2.21689193524161e-05 0.000389100388414923 8.33013856170082e-05)
(9.08626256062935e-06 0.000563792866413662 0.000113393546973173)
(2.29015305667586e-06 0.000656599681143592 0.000143918404386764)
(9.86302402514329e-05 -0.000264276934868341 2.84904512439503e-05)
(6.07352819509621e-05 1.19256353587517e-05 5.54571152554161e-05)
(3.22017582832779e-05 0.000341499756066172 8.43040290168784e-05)
(1.60422704770051e-05 0.000508602886781058 0.000112766405232288)
(6.90930530394221e-06 0.00060099762343026 0.00014065006743372)
(1.80313753617154e-06 0.000666348995253521 0.000169253287430725)
(0.000116588997282113 -0.000341989309162901 3.09255722718115e-05)
(7.38396694616914e-05 -2.84796141018377e-05 5.70713982057944e-05)
(4.21471152458021e-05 0.000302024591832862 8.57363984936888e-05)
(2.34827916081368e-05 0.000470621016114082 0.000113792558012054)
(1.2189766064243e-05 0.000558437244407776 0.000139906924261867)
(5.46240673980792e-06 0.000621424564875721 0.000165719291921605)
(1.44997839724117e-06 0.000675994300161356 0.000192447033797812)
(0.00013378666162395 -0.000430637608174686 3.33678409131792e-05)
(8.51488896352856e-05 -7.01945915267925e-05 5.85737666619915e-05)
(5.11291470088182e-05 0.000263914060803893 8.69588703696147e-05)
(3.07867047634226e-05 0.000436851249898987 0.000114970835877052)
(1.80125386735025e-05 0.00052661480305838 0.000140723724471826)
(9.6730530639982e-06 0.00058568126027787 0.000164642419717539)
(4.49545867114104e-06 0.00063735802984323 0.000188581577930418)
(1.22581576637988e-06 0.000687058287426295 0.000213468890342478)
(0.0001461647821836 -0.000530063935861148 3.58334084213233e-05)
(9.36020331150476e-05 -0.000113724744921913 5.94181811686375e-05)
(5.82716363131332e-05 0.000224625903827651 8.74244405551194e-05)
(3.719907354459e-05 0.000403123336290687 0.000115618972613099)
(2.36742730569834e-05 0.000496645006735685 0.000141494573843744)
(1.44246325685559e-05 0.000557547553252037 0.000165123839602154)
(8.06042007774029e-06 0.000605987145506052 0.000187165630553477)
(3.91802730899702e-06 0.000652912494218338 0.000209320666607128)
(1.12645388519689e-06 0.000700250920054252 0.000232398738745549)
(0.000152333855380055 -0.00065229174221492 3.07879569307767e-05)
(9.72066081294055e-05 -0.000156795303073829 5.884160434028e-05)
(6.29194437271168e-05 0.000184084138218211 8.66174191743661e-05)
(4.21469966726181e-05 0.000367698731496572 0.000115212695434129)
(2.86372907332749e-05 0.000465668806871726 0.000141635654952805)
(1.91149411446805e-05 0.000530132427605565 0.000165566023486692)
(1.21819297568682e-05 0.000580564945146176 0.000187356841258638)
(7.1843896925176e-06 0.000624965092949568 0.00020762497503782)
(3.72604811231687e-06 0.000669848658892279 0.000228016906427507)
(1.15223885009608e-06 0.000716064089391947 0.000249301082849206)
(0.000159731445774145 -0.000769879049145268 2.44944447583514e-05)
(0.000100512303508413 -0.000203104170077835 5.09380008427588e-05)
(6.57018805695291e-05 0.000148963834590978 8.30239176066155e-05)
(4.55575259378165e-05 0.000333889132890862 0.000114028696104369)
(3.25863821224533e-05 0.000433505494768978 0.000141170665339999)
(2.33136148970501e-05 0.000501939655226863 0.000165718465173064)
(1.63888212493773e-05 0.000555913694146054 0.000187800977215251)
(1.10581051589464e-05 0.000602460292040301 0.000207773740594639)
(7.00101885550788e-06 0.000645357580616828 0.000226237297404957)
(3.90335956015813e-06 0.000689318378767118 0.000244788844298372)
(1.28555948753692e-06 0.000734980815564269 0.00026422071728498)
(3.5524538262915e-05 0.000402468584285481 0.000141133233858163)
(2.67805999543706e-05 0.000473291941120496 0.000165918306577717)
(2.02865932234267e-05 0.000530688410882441 0.000188178034368768)
(1.51825232561815e-05 0.000580846871231281 0.000208330356994071)
(1.10024870359708e-05 0.00062609436745254 0.000226482618273868)
(7.48854076655951e-06 0.00066853094721593 0.000243093714390817)
(4.41469765614079e-06 0.000712074547493655 0.000259726755976793)
(1.52536281260768e-06 0.000757458989444659 0.000277239048597144)
(8.26600767036823e-06 0.000467461035865959 2.84123802688057e-05)
(2.69471519147719e-05 7.24772071660734e-05 2.41665667400369e-05)
(5.89715040514013e-06 0.000476426896921441 5.87378569179308e-05)
(4.44149049309722e-05 -6.35861053969971e-05 2.33546931894617e-05)
(1.94943179307629e-05 0.00023732994279616 5.38677307229355e-05)
(3.93506639273334e-06 0.000617427667681679 8.74038595184433e-05)
(6.30111956895221e-05 -0.000124034874706849 2.42918202099867e-05)
(3.35315195267969e-05 0.000119577891449302 5.22559304384914e-05)
(1.27936016222457e-05 0.000485856689280177 8.32439772544695e-05)
(2.92877315202179e-06 0.000659624099098925 0.000115795281495009)
(8.23162473668602e-05 -0.00018082860182171 2.6036495076711e-05)
(4.79059544099982e-05 6.68063719276908e-05 5.2753011825846e-05)
(2.24961097886245e-05 0.0004053280480025 8.1964126007265e-05)
(9.15472840973875e-06 0.000581076932088987 0.000112030541334567)
(2.27793435737132e-06 0.000674041686537388 0.000142636091688534)
(0.00010164790003396 -0.00024622200312809 2.75269513175046e-05)
(6.22849814485787e-05 2.61841719499074e-05 5.40065386770175e-05)
(3.27364171930934e-05 0.000357808337225626 8.26487906494905e-05)
(1.61951975627717e-05 0.000525491947077427 0.000111007734124825)
(6.92550134683425e-06 0.00061780754425898 0.00013889376052811)
(1.78072399111252e-06 0.000682776387616496 0.000167574136127128)
(0.000120487296658875 -0.000321924513050383 2.92049747466859e-05)
(7.60163190071268e-05 -1.34747399885879e-05 5.54493683338469e-05)
(4.30098447134239e-05 0.00031868450933989 8.38880840805721e-05)
(2.37638105009377e-05 0.000487520793526873 0.000111781724298799)
(1.22376443550167e-05 0.000574936434636665 0.000137838146877293)
(5.423593119329e-06 0.000637328029598086 0.000163644209216168)
(1.41127016643639e-06 0.000691158735237181 0.000190423179691458)
(0.000138465623211013 -0.000409312636679499 3.19882293982298e-05)
(8.83465104212333e-05 -5.48257087554302e-05 5.69698305157991e-05)
(5.25434665213442e-05 0.000280981231232804 8.51435824046824e-05)
(3.1315309871312e-05 0.000453968118632614 0.000112900208375309)
(1.813353949356e-05 0.000543092748957538 0.000138503067820187)
(9.62470184143153e-06 0.000601299582249091 0.000162342306386316)
(4.40069537384707e-06 0.000652048849836317 0.000186255985297609)
(1.16513231072352e-06 0.000700722565154237 0.000211162138905882)
(0.000153322816191826 -0.000511430764219961 3.4724546967725e-05)
(9.83986540774251e-05 -9.89371077815004e-05 5.82431182912596e-05)
(6.05358027160023e-05 0.000241954018190175 8.60301265701782e-05)
(3.8129477822541e-05 0.000420593723154361 0.000113780731398843)
(2.39416856034754e-05 0.000513319085213623 0.000139337929392699)
(1.43843020629799e-05 0.000573123514728887 0.000162763559931178)
(7.90286139264924e-06 0.000620392946519435 0.000184696161561557)
(3.75525192287777e-06 0.000666104370499058 0.000206808492115266)
(1.0392982302242e-06 0.000712162138723596 0.000229885006221344)
(0.000163552682134613 -0.000618094108607746 3.55606719638227e-05)
(0.000104738537735834 -0.000145625360376798 5.9518360419247e-05)
(6.63310820610625e-05 0.000200451472664382 8.59626680148037e-05)
(4.35631595976958e-05 0.000385329036217056 0.000113900987166041)
(2.91073469628723e-05 0.000482606130596288 0.000139723618194282)
(1.9097319653229e-05 0.000545777524630543 0.000163269663692766)
(1.19519947625271e-05 0.00059479339429473 0.000184845250234075)
(6.88605253902513e-06 0.00063778562795406 0.000205015076485957)
(3.46236623205767e-06 0.000681232001328199 0.000225378409339019)
(1.03056130155857e-06 0.000725975122368419 0.000246677054235556)
(0.000170752549122969 -0.000760332761315382 2.9535874314887e-05)
(0.000107472039662571 -0.000194738617775576 5.65362399173426e-05)
(6.94276025947893e-05 0.000158955290429478 8.42995172762953e-05)
(4.72764278591298e-05 0.00034774566512752 0.00011281361972926)
(3.31997326740736e-05 0.00044959672913971 0.000139269523111893)
(2.33248163877203e-05 0.000516980652389952 0.00016331010275594)
(1.60563039642356e-05 0.000569463303558592 0.00018509919943555)
(1.05959751144589e-05 0.000614487058985577 0.000204944972870813)
(6.51331615891752e-06 0.000655886860092696 0.000223391957842235)
(3.5256452826693e-06 0.000698397407313114 0.000242022444900357)
(1.13095424300375e-06 0.000742561170941413 0.000261566954745332)
(0.00017308014981014 -0.000899031486601523 2.1916646419174e-05)
(0.00010780689224211 -0.0002498551569936 4.71236664727771e-05)
(7.09767917319255e-05 0.000114704321955607 7.91420896764426e-05)
(4.94167461650268e-05 0.000312722795549879 0.000110832372684386)
(3.60735940153407e-05 0.000416671020959639 0.000138545957049501)
(2.67809787203807e-05 0.000486654286653616 0.000162950379906577)
(1.98595031327924e-05 0.000543160534032308 0.000185172560531834)
(1.45145238457811e-05 0.00059172343317191 0.000205206297844108)
(1.0234396787391e-05 0.000635344784483303 0.000223307963492345)
(6.78523240543749e-06 0.00067626637373128 0.000240005150196532)
(3.91991289841661e-06 0.000718401950027132 0.000256829005373468)
(1.33098287981021e-06 0.000762351581993186 0.000274583489530961)
(2.93233445879943e-05 0.000456655431790735 0.000162949643134708)
(2.31176049332523e-05 0.000516170507151089 0.000185238877306216)
(1.83243596620131e-05 0.000568301138531975 0.000205396029537303)
(1.4356800247168e-05 0.000615552900265137 0.000223650332275375)
(1.08729378556071e-05 0.000658907579934022 0.000240033141223075)
(7.67037248139938e-06 0.000699836422086969 0.000254937786154386)
(4.64168721383632e-06 0.000741876458896569 0.000269905144440102)
(1.63440521880036e-06 0.000785738542489209 0.000285773385479441)
(8.67097961846635e-06 0.000487704646812756 2.90172289547434e-05)
(2.79409785441639e-05 8.67926164157887e-05 2.44233155062103e-05)
(6.02497401091135e-06 0.00049362303561144 5.92079554366776e-05)
(4.57831337828942e-05 -5.08077755733401e-05 2.32746134036459e-05)
(1.99508014407858e-05 0.000251395020193828 5.38031852229311e-05)
(3.96823519653551e-06 0.000635776350647119 8.75351358637561e-05)
(6.4825579821783e-05 -0.000110809361484502 2.38961717452407e-05)
(3.4293779974022e-05 0.000132426714110994 5.17354080402139e-05)