/*--------------------------------*- C++ -*----------------------------------*\
  =========                 |
  \\      /  F ield         | OpenFOAM: The Open Source CFD Toolbox
   \\    /   O peration     | Website:  https://openfoam.org
    \\  /    A nd           | Version:  12
     \\/     M anipulation  |
\*---------------------------------------------------------------------------*/
/*   Windows 32 and 64 bit porting by blueCAPE: http://www.bluecape.com.pt   *\
|  Based on Windows porting (2.0.x v4) by Symscape: http://www.symscape.com   |
\*---------------------------------------------------------------------------*/
FoamFile
{
    format      ascii;
    class       volScalarField;
    location    "200";
    object      k;
}
// * * * * * * * * * * * * * * * * * * * * * * * * * * * * * * * * * * * * * //

dimensions      [0 2 -2 0 0 0 0];

internalField   nonuniform List<scalar> 
10107
(
2.67335070095292e-05
8.94257446152029e-06
0.000182799158921725
2.52211186756984e-05
4.84417146056688e-07
2.8819494283046e-05
8.13792419816127e-06
0.000154404243877022
0.00022426570102168
0.000113386975128308
2.17446832167226e-07
1.33284429090071e-05
1.03369613569983e-06
9.60893337943731e-05
1.95689897251415e-05
1.3686820585865e-05
1.06503726894201e-05
0.000219888355932394
0.00051077457137854
0.000203041062214095
0.000232154625694247
0.000352923514157644
0.000249942757004744
0.000177398473046475
0.000222429367547426
2.33597509760124e-07
5.50198614352784e-06
5.86414437719949e-05
5.67947517535532e-06
4.57644574345621e-06
0.000134634662980548
9.90340602718601e-05
1.00337505611649e-05
2.48730279756971e-05
4.9006450845352e-05
1.21169071003231e-05
4.62999115202756e-05
2.16288800984844e-05
3.684459819705e-05
0.000271303431731953
0.00050298328986604
0.000234600221354351
0.000868998345911659
0.000558174190143647
0.000218260601382983
0.000117319966982031
0.000222047973519468
0.000292139539524713
0.000266190211928482
0.000158727729360645
0.000220838909029955
1.16019752354793e-06
2.72861684269653e-06
3.00082962868402e-05
6.83071168208453e-05
4.430774371158e-05
2.10656425177011e-05
5.62112965977325e-06
0.00013941744615237
0.000153382067721293
0.000100749281291885
6.83709580376567e-05
2.74718595615327e-05
2.30689387284545e-05
0.000173073685667219
5.76689941863284e-05
0.000100313823593235
0.000282066337496311
0.000517867730999103
0.000272551603336245
0.000832001992094258
0.000511376572270327
0.000215015689832357
0.0011367316301148
0.000876273979746997
0.000535634703591744
0.000117668748631874
0.000204440177830452
0.000257662902101935
0.000213722519515924
2.13171248083943e-06
8.88467787618106e-06
2.03013509831726e-05
2.82844860315654e-05
7.14449042452369e-05
9.85836762656084e-05
5.22739444237583e-05
1.07563491105251e-05
0.000124488688835309
0.000142266254615122
0.000150759954383803
4.98393660223977e-05
3.32392589963086e-05
0.000206042942640382
3.72244662880921e-05
0.000108597229550605
0.000268067640960625
0.000513289877075504
0.00026946268408253
0.000807435515087081
0.000515567686499101
0.000248300059689039
0.00110330392535526
0.000835829970757987
0.000511576865385785
0.000223889900634538
0.00136008748606352
0.00113749892930783
0.000874809965183312
0.000561017083103823
3.94646921747726e-06
2.55600663349981e-05
5.77620641118454e-05
3.41605567907036e-05
6.18865283908082e-05
8.32340924445331e-05
0.000107581837263138
1.9140663365344e-05
9.753114842121e-05
0.00010528102938211
0.000126937800417429
7.23459592162932e-05
4.3984642606325e-05
0.000270084759091504
4.05141153355339e-05
1.59313961945312e-05
0.000244039468602831
0.000496870792406725
0.000242674515842887
0.000786620674301658
0.000506982934933318
0.000229093313843808
0.00107427310936733
0.00080956443661174
0.000512624626650322
0.000240036145014666
0.00133390811393839
0.00110446979398111
0.000837645031275895
0.000535011955390185
0.000257297896772572
0.00135860128173215
0.00113403206637184
0.000877178126809067
0.000597882810756182
9.50737700208206e-06
5.24046570048407e-05
4.04998843587857e-05
2.74839322666474e-05
3.76696659624948e-05
4.67666747968385e-05
8.03609396767631e-05
7.11606365319251e-06
8.87067242198444e-05
7.2468822790815e-05
7.28566416522841e-05
9.08918503798082e-05
5.94510607878845e-05
0.000328549996632224
4.18560745997565e-05
2.51002867838376e-05
6.52522686625779e-06
0.000227951642480229
0.000475138329103737
0.000209661676348826
0.000766164110144437
0.000486748958238254
0.00017896284989873
0.00104952336865818
0.000788108096812421
0.000496317686450493
0.00020748572248594
0.00130900510758557
0.00107572266783891
0.000812027039260577
0.000521565315962856
0.000255108163937473
0.00133294678690566
0.00110284450479461
0.000843472747779779
0.000565929172453319
0.00029974214213556
0.00135129113858479
0.00112680663496305
0.00088162562145297
0.00062629497658256
2.85412472045797e-06
3.45301833317358e-05
2.00474546544264e-05
1.52115247507271e-05
3.42264056572238e-05
2.62914059029198e-05
3.27191149462138e-05
3.38418578392821e-06
8.88458246478797e-05
6.1696756091899e-05
3.72781784220737e-05
0.000103023039169312
7.61174643494327e-05
0.000365111890484434
5.19776878515792e-05
3.09140467650372e-05
1.06663576502922e-05
5.44003737699892e-06
0.000220376379203469
0.000456204684625783
0.00018907078810466
0.000745866181518271
0.000461557890160077
0.000130086947394906
0.00102797002049512
0.000766873674142333
0.000465133559139017
0.000149567330816608
0.00128602112043967
0.00105125191257092
0.000789665656096088
0.000494839076273409
0.00022514354776712
0.00151808289813923
0.00130848706503454
0.00107546725896225
0.000817474382831018
0.000543890210114033
0.000282500024471886
0.00132694261526473
0.00109847078696213
0.000850384729037336
0.000593582680329946
0.00033519295037545
0.00133748056767539
0.00111496401118033
0.000880253265492943
0.000637997984364645
9.37625942497878e-07
1.23723741731455e-05
7.74541312976056e-06
1.25532949348735e-05
3.67645260560708e-05
2.17876493755249e-05
8.13547916214377e-06
1.26941650777979e-06
9.16740792372205e-05
8.76068512090651e-05
3.52967879668001e-05
0.000108023245873849
9.00355865588729e-05
0.000380780800404804
6.64459583502882e-05
4.27864661322035e-05
1.98307198096976e-05
8.35496662379227e-06
6.91484849553702e-06
0.000207199719409644
0.000442261353555877
0.000201914563007503
0.000727633495090944
0.000440923069987461
0.000114254874755406
0.00100870904290223
0.000745692549625905
0.00042852975406424
0.000117048860441158
0.00126542067363807
0.00102984357910431
0.000766325360189648
0.000454428195972186
0.000176828186977336
0.0014978004515623
0.00128588600079739
0.00105177455342161
0.000793181096142641
0.000515199715808083
0.000256145908486571
0.00170662540575899
0.00151584272277037
0.00130362786125678
0.00107298850168499
0.00082433926350611
0.000568244721065496
0.000313665106046237
0.00131515578489045
0.00108966388769852
0.000852542905756931
0.000609659498510981
0.000356845416590896
0.00131659413839782
0.00109696938243741
0.000869578106440905
0.000634449411266825
1.71685648406671e-07
1.5456056437432e-06
4.50321166823037e-06
1.4059876917598e-05
4.38749321438859e-05
4.45354015826332e-05
8.10198210117507e-06
1.90436724946015e-06
6.4392098502647e-05
9.44383790078319e-05
4.81775821291837e-05
0.000106359703753812
9.81397092459306e-05
0.00038057863140557
8.06344365629158e-05
5.8212396104345e-05
3.3556305368256e-05
1.64551459545409e-05
7.95418182189751e-06
8.41913756966544e-06
0.000163072466017749
0.000422737125024836
0.000198117615853332
0.000712569188962877
0.000432845829472986
0.00013261511067427
0.000991774107852537
0.000727202021927502
0.000405452739461551
0.000100295958400288
0.00124697282123675
0.00101063379148842
0.000742715632480971
0.000417773371732534
0.000148661303831183
0.0014787353640846
0.00126556813097817
0.0010306158086495
0.000767829470686312
0.000477654491293834
0.000220882899701513
0.00168896223421986
0.00149588863622698
0.00128192004144303
0.00105025264453428
0.000799850164574886
0.000541792371842109
0.000292351571570276
0.00187839391171428
0.00170316705878049
0.00150689350068735
0.00129355795486724
0.00106631267079074
0.000828214272904446
0.000586033233800956
0.000337972128172334
0.00129660844728905
0.00107486732553778
0.000846260472615065
0.000612023681267883
0.000363214866807815
0.00128841956647486
0.00107154452843751
0.000848918466571967
0.000618375769466891
1.77787888086318e-07
1.03829604366961e-06
1.93400367070761e-05
2.05462842384353e-05
3.14262011818659e-05
4.91447473078138e-05
1.62835131810655e-05
3.01639906070124e-06
2.22538154948201e-05
5.99046389996266e-05
6.41760873103276e-05
9.93350667408277e-05
9.93341325769902e-05
0.000368626056848773
9.03246396918836e-05
7.33296547801622e-05
5.0399429859118e-05
2.92316588802086e-05
1.37754376906555e-05
1.04571517541745e-05
2.37911773948784e-05
8.23143602451635e-05
0.000384856154509183
0.000153600166331957
0.000698047280503691
0.000417130550120319
0.000148229128171517
0.000977641613549403
0.000713386365294032
0.000405285387217641
0.000120411324988784
0.00123058347115264
0.000993824073936422
0.00072374718782222
0.000395320330488264
0.000133091846125622
0.00146098203706482
0.00124731314224142
0.00101142350329337
0.000743698257898559
0.000446333921604421
0.000198566107064853
0.00167142183687557
0.00147706356853988
0.00126221535375501
0.00102955028121629
0.000775288059497722
0.000512280176875451
0.00026843384264134
0.00186290177219019
0.00168575571315866
0.00148764218156734
0.00127312451497482
0.00104491167878642
0.000805643473950879
0.000563955891565414
0.000321512614617581
0.00203582516311925
0.00187407526353556
0.00169109096688897
0.00149057046622528
0.00127700077349202
0.00105396221483734
0.000824997347603589
0.000592357447617191
0.00034878542610892
0.0012708414582897
0.00105268972364906
0.000829941088002465
0.000601213945480904
0.000356069362970048
0.00125275861870245
0.00103804407212504
0.000818700008099678
0.000592003481915626
4.77173599330096e-07
2.28052667165838e-06
2.43755072099866e-05
1.54598803831579e-05
1.04908469919228e-05
2.31264469452906e-05
2.80867328144566e-05
1.3531927189911e-05
1.76234269454969e-06
1.89405146228137e-05
3.00326523979371e-05
8.8543930390945e-05
9.43674183196697e-05
0.000347860775570833
9.32798937206184e-05
8.40362226146593e-05
6.6594536609347e-05
4.5187216403992e-05
2.41161296483614e-05
1.80258337615766e-05
3.07036380581032e-05
5.3405808178429e-06
6.10386376459869e-05
0.000323976733833198
8.36193476040892e-05
0.000683465572444475
0.000377923183491162
0.000113438929398545
0.00096676377855625
0.000700290049167573
0.000400112214946894
0.000164943991151389
0.00121647883640216
0.00097994275884133
0.000712130761775295
0.000399404062495678
0.000156409897741872
0.00144454623690201
0.00123104746882003
0.000994823937064243
0.000725353569804085
0.000427518543265037
0.000182462006561041
0.00165424449922077
0.00145947079737595
0.00124435285096534
0.00101076551488836
0.000753121284093542
0.00048821496953036
0.00025031583673551
0.00184666639636872
0.0016683958405528
0.0014693455156219
0.00125430480855092
0.00102521248749771
0.000784057417943544
0.0005420708298105
0.000304697863357612
0.00202210079210722
0.0018587790773394
0.00167419588417277
0.00147236092961939
0.00125805916426136
0.0010344198005316
0.000805380441535497
0.000574528692601828
0.000336074820460029
0.00218060050502419
0.0020308723802559
0.00185966729386995
0.00166987351410037
0.00146632439054237
0.00125331138716689
0.00103444414765548
0.00081208292351246
0.000585551094750979
0.000345106124783835
0.00123753822176268
0.0010222470486129
0.000803468933786681
0.000578782764179366
0.000338281137713162
0.00120935144571211
0.000996266742577251
0.000779608259371947
0.000557013758978062
9.20479378743878e-06
1.37134131813984e-05
9.80597790938434e-06
3.94776539338442e-06
3.2675513351588e-07
4.96850760173213e-06
7.3016961927168e-06
1.47258301872749e-06
5.01435716701022e-06
1.25414571312592e-06
1.43779574404864e-05
1.25088227719174e-05
7.54537785438667e-05
8.49115380023642e-05
0.00032042843933367
8.97257565153203e-05
8.79624531175903e-05
7.80963127563459e-05
6.07280726587434e-05
3.81860245515642e-05
2.98283077999808e-05
3.06890646972909e-05
7.9674491674937e-06
1.14987673721312e-06
0.000107248281286655
0.000313462832575014
5.07950183637887e-05
0.000674141047811582
0.000332617418175968
5.18709150835998e-05
0.000101530421738121
0.000960162141069888
0.000687896401037636
0.00037296914408114
0.000110977334247198
0.000107441501072051
0.00120514584868845
0.000969350407272322
0.00070217829839743
0.000410229395309646
0.000185959402669253
0.00142950328312846
0.00121697672865774
0.00098136473923431
0.000715647267685829
0.000432037574498471
0.000203243778507827
0.0016374834494206
0.00144311527480219
0.00122832723541158
0.000994688469251712
0.000736447662441464
0.000472220366031631
0.000234049374878732
0.00182993379953104
0.00165133728366946
0.0014521060938189
0.00123704883412328
0.00100739302985282
0.000765090649599103
0.000523535998224578
0.000289588917113176
0.00200694251857063
0.0018426805254798
0.00165723658977646
0.0014548504390836
0.00124030827435284
0.00101630860567191
0.000787133612715015
0.000557712779348724
0.000323174089604765
0.00216835575336935
0.00201730662386494
0.00184475624121005
0.00165375846882043
0.00144936273121519
0.00123600440275601
0.00101706975142023
0.000795430499771108
0.000571129017670915
0.000334770336992094
0.00231384403491645
0.00217515633714578
0.00201468652793391
0.00183466178228881
0.00163949560417518
0.00143405614090242
0.00122207530200081
0.00100660383730486
0.00078870951316949
0.000566263437993635
0.000329487447696066
0.00119635291596093
0.000983175110933411
0.000767376210187211
0.000546557807933782
0.0003126680517847
0.00115800543142553
0.000946306654324333
0.000732365703700252
0.000514739825347108
1.86850321535571e-07
1.91573289467287e-06
1.09111818049561e-06
1.73819225720555e-07
4.68849825314425e-07
2.09750361478933e-06
4.10123586977349e-07
1.19968288105025e-05
3.13764354741146e-06
6.36902299216628e-07
2.97763593397098e-05
4.06016839873498e-06
4.70681126115917e-06
3.15426046162014e-05
1.05302453704857e-05
6.12301795376621e-05
7.26581307842363e-05
0.000287749888359752
8.12802529159513e-05
8.52788735976077e-05
8.27479201519343e-05
7.22340983972719e-05
5.32391405775354e-05
4.4473187446954e-05
3.33741039745424e-05
1.23443905520983e-05
3.92033352128405e-06
0.000188073520679909
0.000391153531862714
0.000127667355894783
0.00068453446853853
0.000365835687234613
5.99107878004185e-05
8.07111094846702e-06
0.000100688173849115
0.000959232665252023
0.000683811753431903
0.00038365750575921
4.04001682309014e-05
5.41803559583647e-05
0.000163532902644074
8.95970353925276e-05
0.00119686693511804
0.000963049124244292
0.000693172327097681
0.000380502055541238
5.18492473552041e-05
0.000101783476956926
0.000138151973463592
8.48891918928275e-05
0.00141594404672905
0.00120556296819703
0.00097112958954851
0.000709153768962476
0.000439523906674904
0.000210244047278497
0.00162111321336856
0.00142805788891636
0.00121429629730129
0.00098173017696946
0.00072758050787114
0.00047391299197302
0.000249252129682527
0.00181274705984309
0.00163463285049699
0.00143593071583857
0.00122140942006852
0.000992082990549679
0.000750328049603124
0.000509748447620084
0.000274947973104996
0.00199054399446968
0.00182603951824206
0.00164045176613562
0.00143814905826581
0.00122382289595851
0.000999889066322585
0.000771016956816006
0.000542798805666867
0.000310429549080416
0.00215411236532344
0.00200225645754276
0.00182896288234889
0.00163741664258758
0.00143279825842443
0.00121948851279685
0.00100079156643341
0.000779955166516656
0.000557488726441201
0.000324017057264971
0.00230292817945896
0.00216304576832379
0.00200141885126601
0.00182033481397925
0.00162435061510565
0.00141843471557412
0.00120646769404702
0.000991387410408227
0.000774631135440945
0.00055431723730155
0.000320602413730534
0.0024362397352377
0.00230800343298433
0.0021575603577706
0.00198670962590307
0.00179936824156202
0.00160034127156911
0.00139381058661878
0.00118286505813566
0.000969890937878392
0.00075517610144659
0.000536316675151551
0.000305218801414828
0.00114702818734429
0.000935510830384857
0.000722461854758205
0.000506241706635688
0.00028112550741909
0.00109868875354714
0.000888438731196866
0.000677661044254596
0.000466144256824149
4.56336156438469e-08
1.02130556806257e-06
6.86831333358527e-08
2.86115078064255e-07
2.78248149768773e-05
9.43775120716132e-06
5.53821254040309e-06
2.65389689016963e-06
2.82797157551999e-05
3.03681316233925e-05
4.68398176548237e-05
5.90205639561678e-05
0.00025083904143346
6.97626469370577e-05
7.75974117126389e-05
8.08184123155456e-05
7.74708373268363e-05
6.55937014164865e-05
5.80834961004863e-05
4.24961165526277e-05
2.18521034931246e-05
9.48686706117975e-06
7.60940471689604e-06
0.000271501456180389
0.000473176535489217
0.000214671689947803
0.000719227914383406
0.000438085460748353
0.00014991032636359
6.84169469266689e-05
0.00021556945947284
8.49886947289722e-05
0.000964305626690207
0.000699902979748536
0.000403899971481736
8.1791842721611e-05
3.0850090773008e-05
0.00119119948475075
0.00096249450039445
0.000696894888906688
0.000380275361132147
5.16701836906652e-05
5.2339602019555e-05
5.08440012506656e-05
7.85059183014458e-05
0.00140364931115298
0.00119705072505335
0.000964752429211166
0.000700530130675171
0.000419427887376842
5.37918036291023e-05
0.000179742777646538
0.000124073258418672
9.98003216209614e-05
0.00160498774027433
0.00141437912088751
0.00120263442897388
0.000971686506589757
0.000721440363959144
0.000472880903425425
0.000244947781999362
0.0017950181877388
0.00161825151315173
0.00142085243088973
0.00120746198159448
0.000979595525031606
0.000741277380541498
0.000507547621584538
0.000282280650341089
0.00197291926022163
0.00180890175305077
0.00162388894732949
0.00142226769026526
0.00120867612016748
0.000985525578037341
0.000757797411575316
0.000530650513433568
0.000298051410938321
0.00213797313198188
0.00198593367000786
0.0018125391904086
0.00162106795128397
0.00141676358555316
0.00120392435468037
0.000985840682797705
0.000765990605750238
0.0005448959897337
0.000313092356961668
0.00228954539861016
0.0021488918907061
0.00198661068758898
0.00180502301570496
0.00160878527179087
0.00140291201369769
0.00119128734172566
0.00097687974470418
0.000761318093595173
0.00054275263592093
0.00031123209149879
0.0024266965972134
0.00229720489482391
0.00214568998420642
0.00197389107207743
0.0017857898898631
0.00158626419363047
0.00137955474981746
0.00116892842639997
0.000956651688303379
0.000743207304334874
0.000526175686085192
0.00029737698038345
0.00243008181571562
0.00228924736778094
0.0021271867688968
0.00194744000932043
0.00175456351284591
0.00155277030729268
0.00134550323395368
0.00113536207446599
0.000924269929093977
0.000712303484362589
0.000497670637944776
0.000274632278353064
0.00108949645879298
0.000879546935668248
0.000669565821269646
0.000459087623032922
0.00024505101243126
0.00103152473426392
0.000823026875169588
0.000616085287182672
0.000411920246286141
5.41890936153467e-08
5.00685569054453e-05
2.89406917454295e-05
1.33558713212767e-05
2.64973154346908e-05
3.31424026682433e-05
3.30095883323368e-05
4.50940401131685e-05
0.000210478141145815
5.67120228906911e-05
6.67531694435947e-05
7.38863393056872e-05
7.63934983262701e-05
7.21419404841909e-05
6.76288598668905e-05
5.44454945232792e-05
3.65185418748631e-05
2.07846239169046e-05
1.47462605313189e-05
1.61759100275524e-05
0.000322161473991281
0.000532808365592746
0.000277846588249054
0.000748057292060733
0.000488919082622278
0.000211107300160835
0.000971336129737267
0.000728988128660519
0.000439912403200521
0.00013217970232204
5.70805616284919e-05
0.000101714712377509
0.00118641355742934
0.000967299209583357
0.000711461666495403
0.000403728034874019
0.000145049009227388
0.0013917770578374
0.00119099548058217
0.000963876932800749
0.00070295703428886
0.000417250584578942
7.45796404400232e-05
9.22188140369975e-05
8.14192455112161e-05
0.00158868762637169
0.00140184796295217
0.00119346875973259
0.000964531420852812
0.00071341388898875
0.000460247118846075
0.000231567602711732
0.000174999254064011
0.0001445318347993
0.000149538495278247
0.00177650543533309
0.00160204531352624
0.0014069211671221
0.00119543551215213
0.000969482667288355
0.00073389566569454
0.000502325881488858
0.000276617482804994
0.00195394959498427
0.00179117885334048
0.00160750664685124
0.00140720172937686
0.00119489980115057
0.000973373980008055
0.000748378325552966
0.000525667827232742
0.000298151474883284
0.00211993832282362
0.00196835732683296
0.00179552900458632
0.0016047517745215
0.00140127743140535
0.00118937732021294
0.000972412176137054
0.000753946466509816
0.000534030390239036
0.000302640270074869
0.0022736097064521
0.0021328189954916
0.00197047096362429
0.0017889580035817
0.00159300519961088
0.0013876411849877
0.00117672988459538
0.000963280860199017
0.00074897137108186
0.000531762760431429
0.000301782438637173
0.0024142753686472
0.00228389751679914
0.00213173675158641
0.00195946943743625
0.00177110710259657
0.00157157189802295
0.00136512930670365
0.00115509351787063
0.000943746420688537
0.000731606252398269
0.000516118246781929
0.000289063289532354
0.00242063352457127
0.00227864905816817
0.00211567321571595
0.00193520902047358
0.00174183558297441
0.00153979757543027
0.00133259511884557
0.00112300305883009
0.000912773320887337
0.000702052631458167
0.00048892890125962
0.000267665046493315
0.00241035896851147
0.00225688385789337
0.00208464200347035
0.00189794704122752
0.00170087614545227
0.00149689665345601
0.00128899231862068
0.00107946567852553
0.000870038635243765
0.000661042422968354
0.000451811045218911
0.000239368365201937
0.00102387460361128
0.000815701488710424
0.00060942013995536
0.000405987810577084
0.000205392759089217
0.000956734283157967
0.000750444976127924
0.000548110149062208
0.00035257005550396
7.15129473108756e-05
5.07381531085428e-05
2.88472414540187e-05
0.000145138082227249
2.04139628497341e-05
3.1690710788052e-05
0.00016728846392253
4.32966101728202e-05
5.43015372386237e-05
6.37414674653948e-05
7.03159215246315e-05
7.22591075829166e-05
7.17855006011708e-05
6.42394966284298e-05
5.24681833994955e-05
3.73344886528978e-05
2.72794602805512e-05
2.67886222507519e-05
3.31739222110415e-05
0.000343675709226883
0.00056062853476493
0.000321493199909338
0.000765440855444543
0.000535674926230478
0.000273361164421889
0.000973566981828549
0.000751331863214024
0.000489456636116576
0.000220387515427055
0.001179429734532
0.00097270296120861
0.000732209039158125
0.000447293848007441
0.00137878517929689
0.00118566562655367
0.000966882254611159
0.00071523408093548
0.000438678736944663
0.00157141969294826
0.00138965718611116
0.00118637905439275
0.000961869391282326
0.000713614117163915
0.000460246664155533
0.0017567541056541
0.00158559949822319
0.00139388074575571
0.00118531567351829
0.000961430047950627
0.000726693307875121
0.00049549982632167
0.00027353176398859
0.000232712894587677
0.000195865195736805
0.000191461065960704
0.00193336928335013
0.0017726309903462
0.00159115203528796
0.00139294858322388
0.00118255475815428
0.000962977996817897
0.000740213213331134
0.000519591056542712
0.000292204829825387
0.00209988654436662
0.00194941043589305
0.00177784290923332
0.00158841239565343
0.00138630931057131
0.00117583687900811
0.000960564217842383
0.000744392951584326
0.000527375831155992
0.000298077865678922
0.00225519739565845
0.00211483388060182
0.00195302058737296
0.00177217672422555
0.00157704358516899
0.00137264664718169
0.00116285113916145
0.00095071474530847
0.000737873016861008
0.000521872734183468
0.000292903689881968
0.00239843844564396
0.00226802276570053
0.00211582601796832
0.0019436375670013
0.00175553040405182
0.00155645883206926
0.00135069448825835
0.00114156345480927
0.000931361691029863
0.000720551673505651
0.000506376085294065
0.000280783531495235
0.00252912022422333
0.00240826302518722
0.00226551178169024
0.00210204183916682
0.00192130531612297
0.00172788285799431
0.00152603374242522
0.00131928629316703
0.0011104672589302
0.000901296106091355
0.000691866473352122
0.000480087297956903
0.000260296155488612
0.0024010716198949
0.00224657756995003
0.0020736008989816
0.0018864020949375
0.00168904948587797
0.00148503051802533
0.00127738429061549
0.0010685587528578
0.000860059718549719
0.000652220728554047
0.000444231982491635
0.000233243338921662
0.0023763142966417
0.00221158426016128
0.0020312057347642
0.0018390830773456
0.00163857090435241
0.00143269755778229
0.00122421981108735
0.00101528622453036
0.000807656910428503
0.000602236852317131
0.000399789152509598
0.000200480895714527
0.00095039870260188
0.000744411608025275
0.000542604741775059
0.000347566177608923
0.000162900537201435
0.000874562046229353
0.000671011132305435
0.000474123075888914
0.00028865503253131
8.53956004616013e-05
7.1204303548351e-05
4.79390414138057e-05
1.00114494472136e-05
1.95269552125915e-05
0.0001222032584879
3.03776718451633e-05
4.14356469996349e-05
5.19156366545588e-05
6.09234077812186e-05
6.71327132091406e-05
7.06610991525904e-05
6.89303755495435e-05
6.42846635742989e-05
5.45974620565039e-05
4.4027922385585e-05
4.08976556563732e-05
4.45795724480279e-05
5.3804748765336e-05
0.000347401648398573
0.0005681822545675
0.000342357002656187
0.000770084063297824
0.000560606852020103
0.000315748058197909
0.000969404232636591
0.000765901084349935
0.000534534333096049
0.000280366889607314
0.00116805491321442
0.000973498909220069
0.000750327591544587
0.000498996367497889
0.000249647573211708
0.00136278399566422
0.00117810611411852
0.000969713870356666
0.000732402476765732
0.000476115157001854
0.00155202777220913
0.00137633292436007
0.00117973646190558
0.000962236523119683
0.000722428889163745
0.000476769454546171
0.00173507955146701
0.00156814883483092
0.00138098292565827
0.0011767037179663
0.000956705593384863
0.000725178325560076
0.000496234616899005
0.00191074926626772
0.00175281138822248
0.00157441847454449
0.00137922795493025
0.00117149224813552
0.000954164377738626
0.00073338542621495
0.000515350649056441
0.000293261129467198
0.000276441078638571
0.000248560265198566
0.000237221485244537
0.00207755975880007
0.00192883020659551
0.00175924596274687
0.0015718869829663
0.00137179098006235
0.001163251168427
0.000949963247410816
0.000735948733275787
0.000520845368212964
0.000291773593576736
0.00223421469396527
0.00209481756293159
0.00193414558489306
0.00175458725885435
0.00156083277303703
0.0013578785275568
0.0011496160443732
0.000939209863492198
0.000728385393714238
0.00051434685126949
0.000286822250926749
0.00237965578388877
0.00224966178986994
0.00209796914241498
0.00192641304322209
0.00173908846478239
0.00154095356712111
0.00133627698267804
0.00112839279607464
0.000919604089523642
0.000710269300491413
0.000497357916104375
0.000273135424759253
0.00251309798386192
0.00239249026782998
0.0022497856845938
0.00208640601870716
0.00190590339035095
0.00171289730508466
0.00151166124065282
0.00130573374682802
0.00109795406235977
0.000890018948020941
0.000681926206346712
0.000471408655321632
0.00025305650409577
0.00263372419037818
0.0025227555880114
0.00238883317448105
0.00223371448450829
0.00206040722984885
0.00187311610976005
0.00167589067689994
0.001472224405225
0.00126518403812293
0.00105725202532048
0.000849863064118197
0.000643259075831087
0.000436458444983124
0.000226796492677205
0.00236726387733595
0.0022016664809402
0.00202072798185207
0.00182828310925162
0.00162766545896427
0.00142191890124361
0.00121384407647414
0.00100569905233807
0.000799005254393318
0.000594641056844765
0.000393240190258808
0.000195217091478916
0.00232866050138065
0.00215478026947959
0.00196790730043878
0.0017712386810074
0.00156771015892855
0.00136017074679832
0.00115125289322802
0.000943072088049502
0.000737613299213183
0.000536555528962824
0.000342319065150556
0.000158782354867301
0.000869341074651258
0.000666054773352656
0.000469585803571751
0.000284464750375189
0.000118612098909489
0.000785187038315217
0.000584975983207241
0.000394683389940945
0.000221254481421722
9.17950633201131e-05
8.52712419825046e-05
6.76761815211208e-05
3.03287611183358e-06
9.55275891490057e-06
7.6577419726617e-05
1.8684564130328e-05
2.9041141796887e-05
3.96097501914001e-05
4.97297221887536e-05
5.84738204511288e-05
6.52319447946317e-05
6.82716376076672e-05
6.92582727579086e-05
6.66909298624285e-05
6.00952617311666e-05
5.64143974861629e-05
5.78813029658313e-05
6.35482614943421e-05
7.21912529739438e-05
0.000340509700120592
0.000562059027489767
0.000346574915089552
0.000763079780370558
0.000567518117976184
0.000337432318306721
0.000957989866061321
0.000769623064268549
0.000557805947292758
0.000317697919900624
0.0011514908510573
0.000968556726162369
0.000762886277982285
0.000536211951333067
0.000296207329299537
0.00134252543431229
0.00116631658361754
0.000968756001951359
0.000748159734064478
0.000514050316236161
0.000280358209019063
0.00152927608235414
0.00136007476056783
0.00117102386811123
0.000962462294998964
0.000735275122767388
0.000503102716309489
0.00171062367184571
0.00154858265049576
0.00136690984967491
0.00116825035837423
0.000954333977954282
0.00072969965999022
0.000505822775383765
0.00188550793083263
0.00173105145238065
0.00155659224231348
0.00136536605017907
0.00116136320552802
0.000947623101921101
0.000730162492860253
0.000515053412025296
0.00205256735345195
0.00190619386721409
0.00173930796903373
0.0015547839972212
0.00135742260636474
0.00115143131621595
0.000940553173496438
0.000729024742098767
0.00051714591554261
0.000292350111834396
0.000296685913189289
0.000285658436859344
0.000276519290318898
0.00221042014751713
0.00207251478284928
0.00191359065580694
0.00173596087332996
0.00154419704638224
0.00134321966437115
0.00113692298818942
0.000928542108447953
0.000719823947334218
0.000507560022389919
0.000280633613613155
0.00235786978337569
0.00222872324294788
0.00207805146564725
0.00190768463165656
0.0017216868688609
0.00152498014840377
0.00132181614113356
0.00111554225899696
0.000908499277723544
0.000700998372011819
0.000489708371419696
0.000267065183563695
0.00249394464726575
0.00237376285253621
0.00223155566368508
0.00206877693268028
0.00188901495066964
0.00169690009497285
0.00149670447047866
0.00129196556843239