/*--------------------------------*- C++ -*----------------------------------*\
  =========                 |
  \\      /  F ield         | OpenFOAM: The Open Source CFD Toolbox
   \\    /   O peration     | Website:  https://openfoam.org
    \\  /    A nd           | Version:  12
     \\/     M anipulation  |
\*---------------------------------------------------------------------------*/
/*   Windows 32 and 64 bit porting by blueCAPE: http://www.bluecape.com.pt   *\
|  Based on Windows porting (2.0.x v4) by Symscape: http://www.symscape.com   |
\*---------------------------------------------------------------------------*/
FoamFile
{
    format      ascii;
    class       volScalarField;
    location    "200";
    object      nut;
}
// * * * * * * * * * * * * * * * * * * * * * * * * * * * * * * * * * * * * * //

dimensions      [0 2 -1 0 0 0 0];

internalField   nonuniform List<scalar> 
10107
(
5.0727382085621e-06
1.22867041221994e-06
7.35430079099635e-05
4.22587458739556e-06
1.16747535848999e-07
8.68682349280685e-06
8.90311950268754e-07
6.9362658482155e-05
9.97111225162676e-05
2.84543807294554e-05
5.75200986659367e-08
6.28549893613883e-06
2.21393304413948e-07
6.19081407694645e-05
5.23895134328965e-06
1.49067595750849e-06
1.4513984136532e-06
0.000175018345929037
0.000454701807954677
0.000103958978862824
0.000113124349264953
0.000209007387292674
0.000113885041991006
6.45529459534882e-05
9.46623691914701e-05
5.7301259384293e-08
5.34281162758069e-06
3.95710751241015e-05
3.30977268596414e-06
8.98097239472947e-07
0.000159652232596169
6.77053333714103e-05
3.33425969637102e-06
8.50796365553013e-06
1.3997472250871e-05
2.73463964210063e-06
1.08863386294172e-05
5.16672934872941e-06
6.49359791396745e-06
0.000340905046518053
0.000591443152476071
0.00019915501063666
0.00137381901400529
0.000594182855123437
0.000136360594834153
4.19729734793417e-05
0.000110129978957974
0.000188482592130938
0.000147490531331565
5.23447947008455e-05
0.000103050862969958
2.55143307947546e-07
2.30653938816048e-06
2.82509870982803e-05
8.61452541051908e-05
3.73113663772504e-05
6.29774627990481e-06
1.42194698281771e-06
0.000221812947247439
0.000156417316230556
5.60063036049896e-05
2.34017359183748e-05
5.77431678436551e-06
5.22974098709454e-06
7.01599366025804e-05
1.48774915727764e-05
2.47404298662638e-05
0.0004450644523642
0.000796564305392222
0.000315388084603056
0.00143537390257183
0.000618130055705579
0.000155916834307051
0.00241718948845306
0.00143665306806394
0.000496109644554287
4.71432882364745e-05
0.000102619131748693
0.000144381795883747
9.90720680848518e-05
5.06194332071448e-07
2.75334402778635e-06
2.79552089403484e-05
6.82930191591835e-05
0.000101766148037353
6.27549698146851e-05
3.11346129900516e-05
3.11272133167678e-06
0.00021219509437096
0.000179346233963615
0.000106653462686374
1.56818340537693e-05
6.43886432216152e-06
9.33388492794607e-05
8.37661436877503e-06
3.48491954067622e-05
0.0004558589675723
0.000906382506653199
0.000362023618673978
0.00154932775534205
0.0007584208699902
0.000233989536685127
0.00240887966207216
0.00144733615642709
0.00058077646774664
0.000133760936732941
0.00338027574254916
0.00243191787821998
0.00140571673613431
0.0005501354185044
1.07641646328199e-06
2.21376233879439e-05
3.15067103294642e-05
3.38832073423713e-05
5.04528743419063e-05
6.26941758099034e-05
6.08101633020029e-05
5.7690453485124e-06
0.000196255093341551
0.000146902817643135
9.97936856865627e-05
2.42146201905625e-05
1.34728557679956e-05
0.000163717185205382
7.73766197132336e-06
3.533845681628e-06
0.000447613104852421
0.000926669621234601
0.000343594772080487
0.00161485999037766
0.000822806622897943
0.000223479520692639
0.00243835909293623
0.00152339423123497
0.000681022345217752
0.000170947612349566
0.00334237745394657
0.00240753463539549
0.00141527551565387
0.000583724698805597
0.000173019723331555
0.0033790250779131
0.0024182031023701
0.00142511554594821
0.000677735082677036
2.80330049070957e-06
4.21969077418189e-05
3.30100363583066e-05
5.03570855555291e-05
6.37918119286932e-05
6.50796251143287e-05
4.31832364604262e-05
2.17033843935659e-06
0.000189826093643829
0.000118649093932663
6.48386096111605e-05
3.06212910265752e-05
1.9779462491119e-05
0.000243686059069589
1.27013832661414e-05
4.77450824527101e-06
1.4471771649818e-06
0.000435522426309401
0.000915615214988368
0.000318310451115799
0.00162404686075783
0.000816633820794889
0.000177592852126129
0.00245470555929274
0.00156169167020548
0.000683360399037476
0.000127339971310023
0.00332672897378144
0.00242073718085576
0.00145916915134357
0.000618524502602331
0.000185517440795583
0.00333544054777716
0.00238044625751587
0.00139991431523727
0.000661000964056821
0.000225345287673779
0.00336231702928304
0.00241053233149513
0.00150553096303163
0.000800081685047607
8.70022044243682e-07
2.68767296883569e-05
2.09471044775839e-05
2.03231453472258e-05
5.28197034312295e-05
2.08093995420949e-05
1.62538260805262e-05
1.03905605697638e-06
0.000193729434258453
0.000113460961047176
2.3844202260529e-05
3.4588603961247e-05
2.56226529788273e-05
0.000301668667083951
1.72271610683353e-05
9.34850241227109e-06
2.02710659853471e-06
1.19909480693576e-06
0.000421602231831847
0.000895380336606627
0.000301949617002402
0.00160549453160777
0.000793392344188927
0.000137715075951615
0.00244622954595709
0.00155163253227745
0.000633858443351564
7.12969140886816e-05
0.00331183807363249
0.00242369837570817
0.0014554115790948
0.000556893115415981
0.000148248501236335
0.00416261437111656
0.00331319302906317
0.00237311062850443
0.00139906183842725
0.000654850625646805
0.000214931627397841
0.00331006409705701
0.00235290611675252
0.0014484173311107
0.000751681259523511
0.000272264865168154
0.00333879114622029
0.00242869638552758
0.00158816948976262
0.000881727945460662
2.89627927830609e-07
6.51545292856808e-06
7.44557541693148e-06
2.7811077851695e-05
7.74964767772221e-05
1.65855784700556e-05
5.99652194988277e-06
3.89535303523672e-07
0.000140677390249441
0.00014168113239075
1.9177383566194e-05
3.61365139076562e-05
3.0239730757379e-05
0.000332042697148018
2.23469814295256e-05
1.41505501382538e-05
5.98121426867778e-06
1.57215832711729e-06
1.52152421944915e-06
0.000345771727102977
0.000862479240559444
0.000310793249969108
0.0015762999823403
0.000769308473071627
0.00012251805676462
0.00242110372114782
0.00152236662453189
0.000583003635320069
5.38275531353631e-05
0.00328929961644807
0.00240483981859883
0.00141015015721004
0.000449520947636165
9.7862620923795e-05
0.00413181286247436
0.0032923690096557
0.00235352484226401
0.00134704486021138
0.000589486041696705
0.000182836338370168
0.00493351432741602
0.00415111732788988
0.00327717703702747
0.0023206250561771
0.00141420820912672
0.000718947209312782
0.000251858064488158
0.00327636981185049
0.00235689755548597
0.00151728271533764
0.000826709798652981
0.000305992665928454
0.00331950334443641
0.00245422433502816
0.00164417382985658
0.000922271436111076
5.32457713852407e-08
1.81940294091397e-06
3.88390857219741e-06
3.55162599382944e-05
5.62087801942891e-05
4.57972383148256e-05
1.29062936264682e-05
5.80620754249802e-07
7.06637779340277e-05
0.000109990246743189
4.96662502641263e-05
3.54865225827879e-05
3.28458302455992e-05
0.000342661967602589
2.70841617023592e-05
1.95596957030318e-05
1.10737845620921e-05
4.93905436564815e-06
1.48509146250573e-06
1.82591123475462e-06
0.000195981063538613
0.000762175801871814
0.000275567446423577
0.00153215481761348
0.000750202505677362
0.000146352016106013
0.00238669650688661
0.00148960604661751
0.000551849914012061
4.65743834597613e-05
0.00325916603470758
0.00237330188074434
0.00135815616550928
0.000390809045826281
7.84835298426296e-05
0.00410054445938423
0.00326505900104005
0.00231485881441801
0.00125406862215878
0.000492394354251018
0.000141860260758773
0.00489716084451915
0.0041179101523424
0.00324560769002017
0.00227551161093537
0.00134943932225484
0.000660006027676869
0.000226714976110502
0.00563885285637883
0.00492292368937178
0.00412100264681585
0.00323098103028173
0.00230630739703136
0.0014661940310464
0.000785725481349036
0.000286704915632234
0.00325110133905589
0.0023795673303781
0.0015760668063116
0.000875306220246631
0.000323831583114686
0.00330039081442507
0.00246619447383851
0.00166619840149718
0.000931745824962515
5.47041700661969e-08
1.13105013785235e-06
2.10888120840032e-05
2.37968137530702e-05
3.6001606998601e-05
5.46404179760248e-05
1.118803764205e-05
9.04723562244186e-07
1.4412227810609e-05
5.53502990554107e-05
5.91108990596279e-05
3.30810133835982e-05
3.31541326618813e-05
0.00034014692781336
3.02380385790504e-05
2.46238922247295e-05
1.69118986939305e-05
9.61831660742225e-06
4.11295043988937e-06
1.90011250310295e-06
5.19828145926276e-06
6.06961228116046e-05
0.000565736293507258
0.000168729466956564
0.00143616074607079
0.000681636170524255
0.000158335704117563
0.00233930380323096
0.00145499625529908
0.000564552881403697
6.03668241827108e-05
0.00322248726782589
0.00233691869323904
0.00131938467939918
0.000366946714257052
6.97760554647901e-05
0.00406662285463115
0.00323188938138056
0.0022701139440979
0.00118072667708461
0.000436107696525962
0.000123105815364551
0.00486169262100971
0.00408464401163747
0.00320892161910218
0.00221315393374258
0.00125870156890135
0.000583886764102227
0.000197069703875505
0.00560218810782214
0.00488564759016171
0.00408310681967488
0.00318711643332966
0.00224982963803333
0.00140423235205176
0.000738701603839806
0.000268635820952216
0.00627800498253157
0.00562808919378708
0.0048942640750582
0.00407677247408226
0.00319690358950225
0.00232148311016553
0.00152288665605072
0.00083852005519421
0.000309766381143224
0.00323279375690903
0.0023978426577787
0.00160891610077464
0.000895947061258418
0.000326803716184297
0.00326975339705079
0.00245330833943205
0.00165678237965212
0.000918620380349429
1.44434245686892e-07
1.36451755992336e-06
2.09833942951875e-05
1.54232226767459e-05
1.14787683237327e-05
3.53626578111736e-05
2.47016310513756e-05
3.96490567324136e-06
5.72429168382865e-07
1.69439155781033e-05
2.32720517970778e-05
2.94495699415542e-05
3.14336092316106e-05
0.000328265780056166
3.11403790358223e-05
2.81324249032871e-05
2.23461789058632e-05
1.51337550336859e-05
7.90654075986953e-06
5.33210754936325e-06
5.39572669567314e-06
1.37890863388121e-06
1.99951201784288e-05
0.000336837197953404
7.2089392367987e-05
0.00126951467433069
0.000524092278611924
0.000106601637400266
0.0022604313040489
0.00138075315984644
0.000555587685409356
0.000134477612235948
0.00317620300725833
0.0022946779759637
0.00130773301050166
0.000393977678184468
9.02656295758521e-05
0.00402872557045843
0.00319439068802638
0.00222992856240318
0.00114169832886442
0.000413418596995585
0.000111351732496223
0.0048253268729152
0.00404946262694696
0.00316938719621473
0.00215462226268081
0.00118892345090361
0.000535836315720493
0.000179186109743217
0.00556561793109097
0.00484941686281418
0.00404575897688225
0.00313979460885906
0.00218357768106169
0.00133087285370299
0.000685184686006626
0.000248154651249102
0.0062435879238093
0.00559113819517486
0.00485511048459425
0.0040333704064824
0.00314602055704575
0.00226461465874009
0.00147011146353256
0.00080331156562298
0.000297034362486638
0.00685085695297837
0.00626628791703034
0.00559770067857855
0.0048476072695849
0.00402856020436956
0.00317618211169851
0.00234145578042601
0.00156194546498878
0.000867134020671138
0.000316668624384785
0.0032082776839843
0.0023953520099404
0.00161126261847728
0.000891386929904114
0.000317793920780801
0.00321758847359529
0.00241181981639439
0.00162030726190238
0.000888011761843263
2.68152275932326e-06
6.57508926361694e-06
2.5354453072345e-05
7.65711663450596e-06
1.30020731825204e-07
4.31762019888776e-06
7.27878881564478e-06
4.3236579210165e-07
9.00347701276466e-07
4.22554890747228e-07
9.54782684870243e-06
8.42799559159298e-06
2.50834728458746e-05
2.82449274379879e-05
0.000309367792225914
2.98919216345396e-05
2.93667557997224e-05
2.61347997632751e-05
2.03535447396496e-05
1.27598378206272e-05
9.74385079130426e-06
8.99380127590605e-06
1.33359325625894e-06
3.46449151205827e-07
4.43907443487015e-05
0.000205071966515953
1.55108532417222e-05
0.00107276101791843
0.000370454371820709
1.82355344436192e-05
8.30429825980683e-05
0.00214496601280795
0.00124973328709064
0.000467971973437147
9.04965872043008e-05
4.98625186523141e-05
0.00311276230894787
0.00222775742003985
0.00127884206176841
0.000487657446815341
0.000143825823654884
0.00398461310848678
0.00315049108625669
0.00219880546743613
0.00115267039716524
0.000446158072544309
0.000136295730834939
0.00478652567408241
0.00401130109258605
0.00312999256328366
0.00211226426771013
0.00115278185025317
0.000512281010228236
0.000163474902516511
0.00552813399290793
0.00481259756386784
0.00400782803993101
0.00309358499311309
0.00212494947761754
0.00127351908543624
0.000646292458055166
0.000231318917367437
0.00620781493488836
0.00555433945859231
0.00481726374992979
0.00399136160626496
0.00309477474886251
0.00220557793380966
0.00141511376872939
0.000766409872106107
0.000282093089689677
0.0068198277535796
0.00623185590594846
0.00556015829854669
0.00480625296681065
0.00398175408489639
0.00312449463241055
0.00228988662873962
0.00151913590452195
0.000840845538719301
0.000306570416824637
0.00735905888847059
0.00683776378515361
0.00623239367603929
0.00554522165445389
0.00478647555720847
0.00397862291063495
0.00315466171889226
0.00234551548007122
0.00157262080365809
0.000868844306588252
0.000309428901984139
0.00316466254264028
0.00236440380916605
0.00158418265734815
0.000866011312600551
0.000300213404705357
0.00313776539979457
0.00234129720600609
0.0015601067288624
0.000843055468223927
5.01165473627922e-08
9.44739614527587e-07
9.00157402275049e-07
6.9952313872468e-08
1.80705332052382e-07
6.58420267760904e-07
1.08098273099065e-07
2.85053702491241e-06
4.4531867892117e-07
1.43918043878225e-07
1.75587657700666e-05
1.93651808102006e-06
1.470779635278e-06
1.83049860560801e-05
2.35523349418752e-06
2.03774905122272e-05
2.41555866869357e-05
0.000284519738022062
2.70393320205377e-05
2.84119695152191e-05
2.76215752496144e-05
2.41567162577708e-05
1.78178917297978e-05
1.48315629213615e-05
1.0872058871725e-05
3.57558312253687e-06
7.29338370463271e-07
0.000106526539800843
0.000319353500061565
5.91822061410667e-05
0.000923243748371843
0.000308330281374235
1.94682313692654e-05
1.36335720953341e-06
4.05554486012753e-05
0.0020189439539956
0.00111394695502467
0.000441301165492858
1.15100405504614e-05
3.54164883845036e-05
0.000135382033152942
5.43985364046226e-05
0.00303345770063497
0.00213151293553684
0.00119842565847311
0.00037047447052614
3.58544208460493e-05
6.7001521262282e-05
7.61167491598372e-05
2.91340183840619e-05
0.00393175865315708
0.00309258704003611
0.00215572078966144
0.00118987251829162
0.000516922989653048
0.000157992363569304
0.00474384471969631
0.00396824845189806
0.00309082024662547
0.00209393512036721
0.00116686118164737
0.000544185798442997
0.000189297421879881
0.00548861853336233
0.00477377031475579
0.00396893445593973
0.00305283929957881
0.00208458017698729
0.00124095929863359
0.00062224526912835
0.000214137515043326
0.00617024275777002
0.00551675059508067
0.00477940848856602
0.00395051511721902
0.00304732137656515
0.00215445727105366
0.00137007503052406
0.000735314192424219
0.000266888545449443
0.00678587596949023
0.00619608082009964
0.00552286035686639
0.00476656205954636
0.00393746597161575
0.00307533065697217
0.0022405944973233
0.00147778127752013
0.000813834774725403
0.000294244911806146
0.00733179753135623
0.00680682987354833
0.00619793665228863
0.00550706445157586
0.00474391465222373
0.00393170271801085
0.00310625760660303
0.00230094796861755
0.00153801148997393
0.00084771165132241
0.000300163721737952
0.00780627687929151
0.00734445229594957
0.00679967873106765
0.00617224227064477
0.0054706775037858
0.00471196230548173
0.00391950253955945
0.00311695651842381
0.00232226334033592
0.00155254827258384
0.000847149350563082
0.000292422814565927
0.00309356253044768
0.00230275721690348
0.00153061651395909
0.000824113540477178
0.000275818818462254
0.00302672648258598
0.00224187618412323
0.00147797311318519
0.000784980859278557
1.06153211404142e-08
9.13708284388288e-07
2.51761856872239e-08
9.19396259066333e-08
8.39811115539255e-06
2.13129804998015e-06
9.73715479593767e-07
5.62134499171038e-07
6.18338104665746e-06
1.50930127776187e-05
1.56365352992895e-05
1.96426643566534e-05
0.000254429945091107
2.3193974155517e-05
2.5815116145194e-05
2.69242446351586e-05
2.58509350602404e-05
2.19171755158124e-05
1.9415952882462e-05
1.41629305042359e-05
7.12272831151707e-06
2.73252085395909e-06
2.40868946406015e-06
0.000202613277806091
0.000501231381635118
0.000132905348121559
0.00105516594602542
0.000433823928092689
7.66944161837097e-05
2.21529362206861e-05
0.000120835990326745
3.17333469700322e-05
0.00193513032245397
0.00102893274322221
0.00039820219562936
3.09011404214403e-05
6.70323880853755e-06
0.00295512080331886
0.00203434900030521
0.00113871085450669
0.000327997267470895
1.54539175912583e-05
1.74643095081686e-05
2.41298615687733e-05
3.59148984311597e-05
0.00387287252325315
0.00302195614787035
0.00208918543518248
0.00111584482244542
0.000433534875373953
3.09233237655288e-05
0.000114615369153797
5.81307630640642e-05
4.39338106313143e-05
0.00469663441135626
0.00391782813654599
0.00304385332286693
0.00207996447878836
0.00119797531606575
0.000576069825884527
0.0001899049392857
0.00544617883679691
0.00473160409582753
0.00392796635419196
0.00301950012210517
0.00207012870168716
0.00124962476737006
0.000645072006352172
0.000232763123384702
0.00613016787057756
0.00547730989339737
0.00474044080380775
0.00391119514075904
0.00300767654011981
0.00211818224387634
0.00134093729863023
0.000712138442548982
0.000251043957479293
0.00674884594823375
0.0061585514294099
0.00548501140538093
0.00472765157505914
0.0038957968379489
0.00303109298547264
0.00219794544542454
0.00144210497038183
0.000788372710837555
0.000280806046690257
0.00730012365196088
0.00677296848325826
0.0061621522187869
0.00546927113684868
0.00470337061906094
0.00388813323361638
0.00306177935648078
0.00226003365255689
0.00150536934981833
0.000825773063894341
0.000289100459890224
0.00778272327647751
0.00731732262312138
0.00676894963196455
0.00613789508612719
0.00543249760683629
0.00466997529968631
0.00387509976030652
0.00307362804490096
0.0022843115781285
0.0015236574934584
0.000828596039392599
0.00028349877685361
0.00779021071977821
0.0073021652536404
0.00673132132450633
0.00608394896047649
0.00537400615358054
0.00461988039274966
0.00384079935313717
0.0030525485503045
0.00226748825424763
0.00150399636622143
0.000807277173671728
0.000268271898161483
0.00299031331579803
0.00221030047017085
0.00145314250263532
0.000767868902567167
0.00024595463474121
0.00288182538022229
0.00211292095143289
0.00137385264134773
0.000713706126247871
1.6864098336373e-08
1.57550368676643e-05
8.56644977493824e-06
3.39461496425606e-06
6.71722678033065e-06
7.41821970054781e-06
1.10458905868596e-05
1.50539073230605e-05
0.000219406101238612
1.88747261368326e-05
2.2193891220678e-05
2.45799920050207e-05
2.54458284931817e-05
2.40613705658036e-05
2.25806735906386e-05
1.81949159199031e-05
1.21888777597322e-05
6.8429296700324e-06
4.57518495401182e-06
4.37041155713979e-06
0.000280331722221884
0.000686291553373389
0.000210346755924553
0.00123773691092296
0.000557869459769064
0.000125488433530877
0.00199776599196796
0.00113471010937487
0.000444691357676393
6.12299768178716e-05
1.64950293659334e-05
4.14819233209404e-05
0.00290748745257731
0.00197799148306512
0.00110776598489085
0.000373528012336662
7.05197786610428e-05
0.00381782813452016
0.00295516895592219
0.0020321994628885
0.00107738596010754
0.000398417840174782
2.59154689008144e-05
3.60217831344732e-05
3.32657286151674e-05
0.00464700179716513
0.00386266176494677
0.00298854679376461
0.00203302228427321
0.00114628448219022
0.000524818069717176
0.000169426662742047
0.000103989249238937
7.66621347183044e-05
7.52484385173408e-05
0.0054006363792076
0.00468548302399058
0.00388249042063128
0.00298550932843276
0.00206167728999576
0.00126013171014096
0.00065142377843336
0.000227248936256152
0.0060869888943085
0.00543516855287
0.00469932981967817
0.00387313607633096
0.00297801033725015
0.00210291403435364
0.00134193579645324
0.000722959685470891
0.000257744950381078
0.00670830562759322
0.00611859405701794
0.00544569965661681
0.004688813492882
0.0038573192740565
0.00299440048924406
0.00216599397219812
0.00141616509618187
0.000767208093860159
0.000267174001377794
0.0072639107343286
0.00673604185721979
0.00612470049514228
0.00543126861329145
0.00466431621290065
0.00384794348711102
0.00302221103914523
0.00222426639922093
0.00147597019085491
0.000804019219768656
0.000277383799864642
0.00775336604606326
0.00728576778384098
0.00673528216814664
0.00610223983913856
0.00539475332696929
0.00463012500654458
0.0038341743111404
0.00303422446036645
0.0022496812021918
0.00149622397878882
0.000809234701811606
0.000273187503890767
0.00776677500967268
0.00727531642934659
0.0067009989590412
0.00605014903135058
0.00533683998578858
0.00458010680111709
0.00380037685950309
0.00301461585874758
0.0022350015581703
0.00147890919410831
0.000790160773769019
0.000259649406361464
0.00774405758583852
0.00722590664350425
0.00662964750543132
0.00596671202847485
0.00525245318483741
0.00450315166435627
0.00373365176885847
0.00295560099290506
0.00218060812540821
0.00143009532828233
0.000752339234375017
0.000238694733616779
0.00285202680250782
0.00208683858314128
0.00135251121970894
0.000697898873339237
0.000211127243961217
0.00270006382686114
0.00195221126657282
0.00124568204781333
0.000627672545590691
2.33518645822535e-05
1.58922322673261e-05
8.91470298457568e-06
6.5461389986899e-05
6.80437491184761e-06
1.06046118128433e-05
0.000179068777827808
1.4453977567045e-05
1.8072683203958e-05
2.1192429643194e-05
2.3390531348259e-05
2.4062992863465e-05
2.39323636191841e-05
2.14443975509494e-05
1.75542967280843e-05
1.25158159155071e-05
9.10998220794691e-06
8.73241400823047e-06
1.03916156970859e-05
0.000317872183229788
0.000805539444990279
0.000276832313071521
0.00139766228271981
0.000702082870462788
0.000200205192827713
0.0021065627296073
0.00127570202656341
0.00056228400075896
0.000139820696979847
0.0029241564494867
0.00203170584375178
0.00117887574829
0.000458829836957181
0.0037808294201872
0.00291744841063652
0.00201033273773471
0.0011150066784594
0.000446488951061534
0.00460010882771533
0.00381224747656033
0.00294123646761324
0.00200379582265949
0.00112490037646813
0.000507808584269799
0.00535312041790169
0.0046374710422968
0.00383463694949714
0.00294531569791913
0.00203036779793331
0.00122940046868611
0.000628611188501074
0.000224405303067774
0.000166926471140534
0.000124123974857884
0.000116539080416268
0.00604048284978688
0.00539016133016347
0.00465551825047027
0.00383401262981135
0.00295101050698407
0.00209119625104365
0.00133965579320023
0.000720237444776261
0.000249585201523298
0.00666376731368043
0.00607562656140608
0.00540419449418503
0.00464938699239228
0.00382212175809691
0.00296690728393206
0.00214943467721386
0.00141074254612577
0.00076675897129317
0.000263892964875994
0.00722293035194976
0.00669563665700849
0.00608498418868741
0.0053923556255206
0.00462632093936034
0.0038115075148647
0.00298901581388704
0.00219605432884484
0.00145267725780153
0.000784791753882579
0.000266089968759362
0.00771802625516393
0.00724968342939154
0.00669857234900814
0.0060650513283271
0.00535711315779063
0.00459213472353829
0.00379669171110635
0.0029991069587567
0.00221890018264162
0.00147082772965965
0.000790009438090291
0.000262717043311066
0.0081499216180429
0.00773752013600603
0.00724402104073049
0.00666772821674034
0.00601502257274205
0.00530002941770158
0.00454222968111807
0.00376293515396986
0.00297984698879414
0.00220496304110354
0.00145473003115007
0.000772326823960617
0.000250035079934496
0.00772088992648598
0.00719955808966589
0.00660009734380682
0.00593413066369354
0.0052173392157189
0.00446667487571265
0.00369775604037861
0.00292270170668633
0.00215250569740621
0.00140775814992279
0.00073631357782675
0.000230567988937729
0.00766061851288756
0.00711181572655958
0.00649344378867805
0.00581842950738608
0.00510084091794714
0.00435445965292415
0.00359156059232456
0.00282286629385155
0.00206168550211659
0.0013322755298125
0.000683521254033729
0.000204311233469476
0.00267588951462046
0.00193069000430812
0.00122727215588768
0.000613008884208474
0.000171214178628935
0.00247715650691511
0.00175528232536189
0.00108883414165432
0.000523307447559422
2.80994705432027e-05
2.30654614644433e-05
1.53578120775083e-05
3.30162663075157e-06
6.50872872263524e-06
0.000133318749869938
1.01652462165685e-05
1.38327935073703e-05
1.72785685904497e-05
2.02549368374755e-05
2.23292303117683e-05
2.35255671926036e-05
2.29765817610022e-05
2.14706969414521e-05
1.83062695533095e-05
1.48283387100548e-05
1.37512725803765e-05
1.47419076256849e-05
1.77054227574095e-05
0.000329454830524306
0.000863509838983224
0.000313783649735823
0.00150278536183426
0.000807065337810496
0.000263332171465366
0.00220639843889761
0.00141183313902974
0.000701456648725988
0.000213875508661078
0.00297125064717177
0.00212536849129671
0.00129723044326807
0.000592605393727756
0.00017898669755577
0.00377183675806104
0.00293400478686676
0.00205868710526679
0.0012037567813639
0.0005389389904114
0.004561839889073
0.00377915036527054
0.002920252218891
0.00201890413006713
0.00117391054891127
0.000551570817186023
0.00530581646124836
0.00459250131853592
0.0037931288290324
0.00291698415265954
0.00201852661464329
0.00122368854871232
0.000626950678959773
0.00599092840002924
0.00534339101744026
0.00461088775021436
0.00379492448357628
0.0029222573943527
0.00207087864250171
0.00132486525452979
0.000715673997357701
0.00025633121767214
0.000227572550642344
0.000184633184083756
0.000167772974472532
0.00661482607760251
0.00602942913045007
0.00536034990546114
0.00460888942333313
0.00378826240827794
0.00294299328874779
0.00213572544164514
0.00140391180853318
0.000759476403592502
0.000254598736700967
0.00717671966209244
0.00665127495474591
0.00604247143737563
0.00535196274387687
0.00458898064137825
0.00377894706952449
0.00296338488877515
0.00217883062369066
0.00144240309428129
0.000776216227140805
0.000259327385143609
0.00767660368898231
0.00720884630494997
0.00665845137385918
0.00602584490848605
0.00531908069641846
0.00455572338344061
0.00376284137301561
0.00296913658963585
0.00219354173791047
0.0014494664236126
0.000772685097243024
0.000253167478126802
0.00811555100574613
0.00770232799434559
0.00720820803657346
0.00663145973183494
0.00597848500085896
0.00526346348729228
0.00450618225256986
0.00372851691048166
0.0029485009344317
0.00217775527249493
0.00143205104124651
0.000754874009356252
0.000240665016835148
0.008495471443702
0.00813267710251176
0.00769188536246865
0.00716874735580212
0.00656756884898648
0.00590011772434936
0.00518230950057578
0.00443156185451251
0.00366402499502918
0.00289200179786625
0.0021260090284612
0.00138594074582919
0.000719726947236015
0.000221771798791626
0.00763793717617526
0.00708628644644927
0.00646515101572494
0.00578775929188568
0.00506855886733652
0.00432183292422311
0.00356022048653314
0.00279449148900352
0.00203726060667469
0.00131225983672132
0.000668633694733357
0.000196926063264239
0.00753538367015241
0.00695845174220864
0.00632097130427581
0.00563497042633634
0.0049129682138207
0.00416727533749113
0.00340953181452566
0.00265160656269515
0.00190945374840706
0.00120958561673345
0.000599881422828552
0.000165063651861868
0.00245791353804009
0.00173783439959769
0.00107319951512192
0.000509981145168341
0.000126418539920097
0.00220683238037582
0.00151487605894733
0.00089575031367118
0.000395543612749672
3.03590898659342e-05
2.78814219290567e-05
2.21704732357607e-05
9.94514723901391e-07
3.15037059229074e-06
8.25945435088336e-05
6.22790334731844e-06
9.71802024125655e-06
1.3223221193122e-05
1.65508893636101e-05
1.94396773718396e-05
2.16946879948633e-05
2.27273600406812e-05
2.30901217202717e-05
2.22964884466536e-05
2.01829972919694e-05
1.90206040461252e-05
1.94654291905659e-05
2.1236061099879e-05
2.40294870814027e-05
0.000327933187194492
0.000882074728030992
0.00032702908237616
0.00155409374068916
0.000862625756322072
0.000302600783797897
0.0022722278411755
0.00150788371347159
0.000801279793783335
0.000270059225453793
0.00301660304697259
0.00221540862977492
0.00142001479728665
0.0007203222493558
0.000241753107865051
0.0037777449838189
0.00297748083870635
0.00214042942401728
0.00132285800633273
0.0006556777272735
0.000223004721048213
0.00453432813609126
0.00377127482745853
0.00293938828167204
0.00207665621389783
0.00126503170443932
0.000633384508722527
0.00526053953543694
0.00455586587973668
0.00376759957525458
0.00291447239713787
0.00204746882789385
0.00126808510448228
0.000660644645880611
0.00593878181592753
0.00529692530231411
0.0045698454196522
0.00376375857044438
0.00290694373681422
0.0020686551358514
0.00132824207014994
0.000721596757184139
0.00656114689420084
0.00598026155064852
0.00531516817610291
0.0045688521716884
0.00375667991887358
0.00292154537684416
0.00212270894518019
0.00139843403959421
0.00076311582461117
0.000260866416607707
0.000264523852837215
0.000239817756116455
0.000221237521602116
0.00712468816009909
0.00660255196295727
0.00599694255868794
0.00530995855280504
0.00455192716340423
0.00374890050343144
0.0029416418083801
0.0021650615030212
0.00143348691649091
0.000766439683552241
0.000250615742417806
0.00762862906190288
0.00716280005645955
0.0066144662747134
0.00598416073979895
0.00528023093319377
0.00452062751659011
0.0037327332088491
0.00294520500628224
0.0021759346740977
0.00143597629158266
0.000760903134085872
0.000246109556381936
0.00807373258229941
0.0076610576904219
0.00716767323082791
0.00659188851272772
0.00594017757560407
0.00522681772199341
0.00447180262941487
0.00369727298162447
0.00292120281715593
0.00215450953068207
0.00141231103230852
0.000739244284199103
0.000232493350045985
0.00846187376327665
0.00809846764209676
0.00765699198163514
0.00713344354385185
0.00653208585150926
0.00586472853675222