/*--------------------------------*- C++ -*----------------------------------*\
  =========                 |
  \\      /  F ield         | OpenFOAM: The Open Source CFD Toolbox
   \\    /   O peration     | Website:  https://openfoam.org
    \\  /    A nd           | Version:  12
     \\/     M anipulation  |
\*---------------------------------------------------------------------------*/
/*   Windows 32 and 64 bit porting by blueCAPE: http://www.bluecape.com.pt   *\
|  Based on Windows porting (2.0.x v4) by Symscape: http://www.symscape.com   |
\*---------------------------------------------------------------------------*/
FoamFile
{
    format      ascii;
    class       volScalarField;
    location    "200";
    object      p;
}
// * * * * * * * * * * * * * * * * * * * * * * * * * * * * * * * * * * * * * //

dimensions      [0 2 -2 0 0 0 0];

internalField   nonuniform List<scalar> 
10107
(
83333.3301078405
83333.3314121265
83333.3300796179
83333.3299745707
83333.3320630743
83333.331337591
83333.3312132239
83333.3306192264
83333.3300104295
83333.3300184914
83333.3325902141
83333.3319906585
83333.3320720317
83333.3314285085
83333.3313258869
83333.3309228297
83333.3312457184
83333.3308719994
83333.3301443212
83333.3305340325
83333.3301392558
83333.3298611818
83333.3297444898
83333.330222817
83333.3298888478
83333.3327647539
83333.3325282326
83333.3320967757
83333.3321473289
83333.3320013507
83333.3315911228
83333.3313321205
83333.3316307246
83333.331282571
83333.3310162405
83333.3307886404
83333.3309401433
83333.3311443122
83333.3309672329
83333.3310933315
83333.3304302011
83333.330763619
83333.3298349196
83333.3300376453
83333.3305639705
83333.3308311265
83333.3303075991
83333.3303145235
83333.3301055786
83333.3304896769
83333.3301132978
83333.3327011614
83333.3327709537
83333.3326490205
83333.3322839822
83333.3320465296
83333.3319331423
83333.3317801883
83333.3317397916
83333.3314517276
83333.3311078418
83333.3309252254
83333.3300002101
83333.3308928377
83333.3302449636
83333.3308831706
83333.3307411694
83333.3312739863
83333.3306864017
83333.3309485519
83333.3301141657
83333.3303516405
83333.330499293
83333.3296508987
83333.3297967205
83333.3299487092
83333.3307907109
83333.3303888636
83333.3302071987
83333.3302416718
83333.3326089046
83333.3326002577
83333.3327376371
83333.3328910449
83333.3323384332
83333.3321800272
83333.3319829376
83333.3317597686
83333.3318559664
83333.3316259391
83333.3312574651
83333.3297137639
83333.3302284947
83333.3299868524
83333.3310422383
83333.3307076985
83333.3314279327
83333.330883651
83333.3311533615
83333.3303749134
83333.3305894638
83333.3307433493
83333.3299043035
83333.3300673192
83333.3302025742
83333.3302173399
83333.3295018238
83333.329626734
83333.3297303534
83333.3297996287
83333.3326745961
83333.3328141999
83333.3328833219
83333.3329218695
83333.3324019889
83333.3322563603
83333.332089859
83333.3318376469
83333.332057634
83333.331793727
83333.3314664109
83333.3295303259
83333.3299725137
83333.3297339008
83333.3304837399
83333.3313625187
83333.3316303857
83333.331046569
83333.3313420301
83333.3305870832
83333.330802512
83333.330974855
83333.3301392862
83333.3303158917
83333.3304350297
83333.3304564212
83333.3297272106
83333.3298727244
83333.329979404
83333.3300371876
83333.3299701526
83333.3294846894
83333.3295779351
83333.3296262208
83333.3296376853
83333.3327401401
83333.3328074861
83333.3328524786
83333.3329183511
83333.3325710279
83333.3323802385
83333.3321778246
83333.3320392303
83333.3321565947
83333.3320049693
83333.3317110087
83333.3293993587
83333.3297837403
83333.3295458667
83333.3302382273
83333.3307964697
83333.331792402
83333.331749363
83333.3312185195
83333.3315474538
83333.3307538724
83333.3309849061
83333.331225412
83333.3303426596
83333.3305275901
83333.3306644836
83333.3307354511
83333.3299358007
83333.3301016999
83333.3302114208
83333.3302656378
83333.3302020949
83333.3297061574
83333.3298135061
83333.3298622058
83333.3298720482
83333.3297816956
83333.3294510593
83333.3295055309
83333.3295187524
83333.3294934477
83333.3327605118
83333.3327826491
83333.3329352851
83333.3330251343
83333.3326337585
83333.3325758248
83333.3323322747
83333.3323413332
83333.332174564
83333.3321198494
83333.3319772785
83333.3292907344
83333.3296227255
83333.329405805
83333.3300340457
83333.3305213218
83333.3311231244
83333.3319734839
83333.3317569172
83333.331336283
83333.3316744293
83333.3308956626
83333.3311577322
83333.3315082084
83333.3305061409
83333.3306987263
83333.3308811414
83333.3310349482
83333.3301213405
83333.3303024883
83333.3304239275
83333.3305080708
83333.3304644454
83333.3297577876
83333.3299117656
83333.3300339181
83333.3300864684
83333.3300985815
83333.330009501
83333.3296659604
83333.3297304956
83333.3297454946
83333.3297189216
83333.3296213513
83333.3294004004
83333.3294269569
83333.3294167763
83333.3293746656
83333.3328489174
83333.3328580658
83333.3330468398
83333.3330670601
83333.3326573328
83333.3326357164
83333.3324978863
83333.3324331065
83333.3321102437
83333.3320623122
83333.3320751224
83333.3291933365
83333.3294811313
83333.3292911492
83333.3298413592
83333.3302816082
83333.3308144425
83333.3313138857
83333.3319594648
83333.3317272491
83333.331360178
83333.3316428234
83333.3309937896
83333.3312722807
83333.3316308949
83333.3306356316
83333.3308392974
83333.3310862746
83333.3312497065
83333.3302757133
83333.3304660921
83333.3306061588
83333.3307413763
83333.330727815
83333.3299247331
83333.3300955781
83333.3302317322
83333.330299753
83333.330332974
83333.3302413599
83333.3295994487
83333.3297409086
83333.3298664772
83333.3299429513
83333.3299635396
83333.3299374239
83333.3298286227
83333.3296068966
83333.329640224
83333.3296295662
83333.3295814197
83333.3294805468
83333.3293400659
83333.3293466978
83333.3293223042
83333.3292716405
83333.3328917031
83333.3329598092
83333.3330930403
83333.3330811037
83333.3325564916
83333.3325671431
83333.3325515744
83333.3323834347
83333.3321030141
83333.3319868774
83333.33207567
83333.329105765
83333.3293565159
83333.3291912958
83333.3296652777
83333.3300458946
83333.3305132352
83333.3309915122
83333.3312784298
83333.3320421903
83333.3316714313
83333.3313468302
83333.331614463
83333.3310286758
83333.3312780174
83333.3315795721
83333.3307250182
83333.3309338582
83333.3311947504
83333.3313501791
83333.3303985648
83333.3305944536
83333.3307529282
83333.3309218874
83333.3309098897
83333.3300668127
83333.3302493843
83333.3303964482
83333.3304868885
83333.3305528699
83333.330459014
83333.3297486264
83333.3299064131
83333.3300474091
83333.3301368393
83333.3301707228
83333.3301521832
83333.3300263274
83333.3294573978
83333.3295866393
83333.3297083677
83333.3298005793
83333.3298434331
83333.3298349543
83333.3297805856
83333.329661415
83333.3295362336
83333.329545758
83333.3295173134
83333.3294561277
83333.3293561949
83333.32927425
83333.3292668581
83333.3292336567
83333.329178246
83333.3327819399
83333.3329898769
83333.3330360739
83333.332993879
83333.3326032687
83333.3323997631
83333.3326316942
83333.3325372956
83333.3322157011
83333.3320394861
83333.3319955909
83333.3290285808
83333.3292479489
83333.3291033038
83333.3295121272
83333.3298346022
83333.3302259184
83333.3306540791
83333.3310210448
83333.3314651062
83333.3320789078
83333.3316929751
83333.3313036834
83333.331603874
83333.3310201347
83333.331261884
83333.3315403037
83333.3307700434
83333.3309658932
83333.3311870485
83333.3313122088
83333.3304861087
83333.3306822893
83333.3308445707
83333.3310229797
83333.3310013446
83333.3301814288
83333.3303712917
83333.3305245649
83333.3306307938
83333.330711021
83333.3306097974
83333.3298772851
83333.330047769
83333.330200129
83333.3303008846
83333.3303517599
83333.3303462138
83333.3302031223
83333.3295902128
83333.3297344492
83333.3298711545
83333.3299768613
83333.3300304272
83333.3300282001
83333.3299691362
83333.3298292312
83333.3293308192
83333.3294473005
83333.3295617935
83333.3296588744
83333.3297210726
83333.3297356959
83333.3297043353
83333.3296321914
83333.329512411
83333.3294579861
83333.3294498404
83333.3294095857
83333.329340888
83333.3292474745
83333.3292059161
83333.3291887643
83333.3291501857
83333.3290938011
83333.3330584493
83333.3330891913
83333.3327543578
83333.3330640748
83333.3327128521
83333.332543906
83333.3324737737
83333.3323233145
83333.3324898922
83333.3322338011
83333.3320639265
83333.328962275
83333.3291541675
83333.3290262344
83333.3293824951
83333.329655952
83333.3299828471
83333.3303494968
83333.3307195861
83333.3311012033
83333.3313930317
83333.3321594141
83333.3315626166
83333.3312862167
83333.3317090434
83333.3309716539
83333.3312301265
83333.3315367888
83333.330771186
83333.3309595835
83333.3311600622
83333.3312152808
83333.3305380423
83333.3307269345
83333.3308721246
83333.3310143377
83333.3309743473
83333.3302658418
83333.3304580892
83333.3306110643
83333.3307211488
83333.3307992977
83333.3306968518
83333.3299825545
83333.330161674
83333.3303209153
83333.3304273391
83333.3304877685
83333.3304854545
83333.3303324433
83333.3297059587
83333.3298623384
83333.3300109592
83333.3301270727
83333.330190145
83333.3301963441
83333.3301353533
83333.3299771631
83333.3294492216
83333.3295789014
83333.3297070619
83333.3298172444
83333.3298903447
83333.3299110674
83333.3298784057
83333.3297956314
83333.3296565565
83333.32921977
83333.3293227297
83333.3294277572
83333.3295233006
83333.3295955146
83333.329631287
83333.3296237401
83333.3295769814
83333.3294950283
83333.3293834627
83333.3293756058
83333.3293548949
83333.3293073063
83333.3292370228
83333.3291531878
83333.3291374877
83333.3291138583
83333.3290730185
83333.3290193341
83333.3327023517
83333.332646755
83333.3329990772
83333.3330742606
83333.3328254306
83333.3327341663
83333.3326355617
83333.3327251408
83333.3321534453
83333.3323701765
83333.3322018629
83333.332127665
83333.3289066879
83333.3290744798
83333.3289599414
83333.3292727324
83333.3295077971
83333.329783471
83333.3300959153
83333.3304306277
83333.3307624899
83333.3310683259
83333.3314247228
83333.3320934873
83333.3310550454
83333.3311735653
83333.3315290979
83333.3308963955
83333.3312489583
83333.3315996574
83333.331614382
83333.3307386206
83333.3309220914
83333.3311288594
83333.3314935963
83333.3312543424
83333.3305501374
83333.3307310741
83333.3308658358
83333.3309647916
83333.3309180119
83333.3303190581
83333.3305094011
83333.3306553165
83333.3307477284
83333.3307966022
83333.3306914403
83333.3300622569
83333.3302456034
83333.330407112
83333.3305133576
83333.3305737219
83333.330568517
83333.3304183201
83333.3298021596
83333.3299670698
83333.330123712
83333.3302458258
83333.3303137295
83333.3303233693
83333.330259976
83333.330092208
83333.3295533714
83333.3296939578
83333.3298333484
83333.3299541348
83333.330035853
83333.3300622472
83333.3300297919
83333.3299384951
83333.3297838659
83333.3293255689
83333.329440121
83333.3295571211
83333.3296646043
83333.3297475376
83333.3297905286
83333.3297840423
83333.3297314397
83333.3296369288
83333.3295092312
83333.3291238154
83333.3292132511
83333.3293071618
83333.3293973369
83333.3294725608
83333.3295215219
83333.3295354174
83333.3295120828
83333.329455998
83333.3293723806
83333.3292729103
83333.3292923306
83333.3292632594
83333.3292126715
83333.3291459895
83333.3290726951
83333.3290710107
83333.3290437667
83333.3290034624
83333.3289548696
83333.3331245583
83333.3330075448
83333.3330519444
83333.3330859168
83333.3327535718
83333.3327269282
83333.3326006175
83333.3311506735
83333.331989787
83333.3321528902
83333.3319378099
83333.3324448186
83333.3321169319
83333.3318828745
83333.3320536808
83333.3288615214
83333.3290078578
83333.3289043701
83333.3291802107
83333.32938378
83333.3296199661
83333.3298865304
83333.3301787699
83333.3304687566
83333.330806221
83333.3310568211
83333.3313685264
83333.3307499801
83333.3308889893
83333.3310035465
83333.3308290923
83333.3310854428
83333.3312935431
83333.3317165532
83333.3313699713
83333.3306754409
83333.3308673953
83333.3310594439
83333.3314488508
83333.3317826835
83333.3313727265
83333.3314190168
83333.3305356287
83333.3307042796
83333.3308409871
83333.3309471452
83333.3317401807
83333.3313678758
83333.3309190086
83333.3312097592
83333.3303411049
83333.3305234815
83333.3306629034
83333.3307392065
83333.3307620746
83333.3306816651
83333.3301156789
83333.3302986141
83333.3304579659
83333.3305582274
83333.3306028376
83333.3305787599
83333.3304344152
83333.3298770978
83333.3300465139
83333.330207067
83333.3303312333
83333.3303991223
83333.3304070526
83333.3303423129
83333.330175177
83333.3296413207
83333.3297897342
83333.3299370324
83333.3300648462
83333.3301516155
83333.3301806627
83333.330147059
83333.3300500993
83333.3298870259
83333.3294195141
83333.329543701
83333.3296707242
83333.3297880945
83333.3298797762
83333.3299285363
83333.3299231157
83333.3298658767
83333.3297611928
83333.3296208799
83333.3292185558
83333.3293181944
83333.3294226697
83333.3295232836
83333.329608364
83333.3296650509
83333.3296823358
83333.3296565363
83333.3295924876
83333.3294968386
83333.32938411
83333.3290419305
83333.3291185609
83333.3292007798
83333.3292829646
83333.3293566673
83333.3294121151
83333.3294407912
83333.3294378968
83333.3294042155
83333.3293445334
83333.3292655924
83333.3291792155
83333.3292110168
83333.3291773718
83333.3291275561
83333.3290674689
83333.3290056061
83333.329008168
83333.3289797623
83333.3289422558
83333.328900372
83333.3329442232
83333.3329246271
83333.3330524083
83333.3326176523
83333.3307708748
83333.3310889456
83333.3316501963
83333.3318075623
83333.3318449247
83333.3318324284
83333.328826501
83333.328953778
83333.3288592917
83333.3291031304
83333.329279701
83333.3294838323
83333.3297133695
83333.3299652398
83333.3302273974
83333.3305199715
83333.3307860655
83333.3309820337
83333.3312261159
83333.3304992348
83333.3306615039
83333.330712788
83333.3306734874
83333.3308299305
83333.3308692133
83333.3310105547
83333.330932475
83333.3311551139
83333.3306064969
83333.3307854317
83333.3309521676
83333.3312433966
83333.3313114247
83333.3304942633
83333.3306506432
83333.3307905185
83333.3309031572
83333.3312398477
83333.3314216211
83333.3316838132
83333.3313794639
83333.33033857
83333.3305111742
83333.330644449
83333.3307205503
83333.3307476666
83333.3316763324
83333.3306745944
83333.3308879245
83333.3310777457
83333.3301440559
83333.3303218182
83333.3304748725
83333.3305689279
83333.3305985668
83333.3305683847
83333.330446137
83333.3299302652
83333.3300999959
83333.3302601625
83333.3303824528
83333.330444569
83333.3304418419
83333.3303682136
83333.3302069795
83333.3297116956
83333.3298644861
83333.3300160052
83333.3301472876
83333.3302358332
83333.3302645168
83333.3302286442
83333.3301297125
83333.329965096
83333.3295000993
83333.3296313131
83333.3297655861
83333.3298899118
83333.3299873618
83333.3300394653
83333.330033933
83333.3299727512
83333.3298615287
83333.329713818
83333.3293034649
83333.3294116856
83333.3295250159
83333.3296344126
83333.3297276711
83333.3297906757
83333.3298104542
83333.3297823693
83333.3297116502
83333.329606359
83333.3294833631
83333.3291270093
83333.3292125274
83333.3293041353
83333.329395604
83333.3294779781
83333.3295408603
83333.3295741883
83333.3295716866
83333.3295335349
83333.3294654585
83333.3293758451
83333.3292785318
83333.3290378254
83333.3291085616
83333.3291814655
83333.3292504056
83333.329307638
83333.3293451817
83333.3293573255
83333.3293425073
83333.3293033116
83333.3292447298
83333.3291739386
83333.3291013195
83333.3291340524
83333.3290990445
83333.329052874
83333.3290013142
83333.3289511714
83333.3289501759
83333.3289226976
83333.3288897857
83333.3288557029
83333.3329579812
83333.3305050082
83333.3307543705
83333.3309631679
83333.3314745443
83333.3315907082
83333.3288011029
83333.3289117435
83333.3288241227
83333.3290405602
83333.3291930771
83333.3293698756
83333.3295687433
83333.3297867803
83333.3300199742
83333.3302668504
83333.3304980928
83333.3307228388
83333.330869385
83333.3308834213
83333.3303014637
83333.3304504932
83333.3304825053
83333.3305280743
83333.3306294379
83333.3306798117
83333.330506032
83333.330642914
83333.3307628818
83333.3309431164
83333.3311480852
83333.3311551536
83333.3304369137
83333.3305831532
83333.3307136726
83333.3308083171
83333.3312074553
83333.3303127065
83333.3304733386
83333.3306017311
83333.3306790648
83333.3307085044
83333.3311302181
83333.3311237477
83333.3312261118
83333.3301499841
83333.3303202133
83333.3304664888
83333.3305564223
83333.3305838183
83333.3305567939
83333.3304383016
83333.3306406747
83333.3307941394
83333.3308139945
83333.3299624371
83333.3301288833
83333.3302848979
83333.3304023681
83333.3304580612
83333.3304478068
83333.3303747179
83333.3302276075
83333.329764056
83333.3299177078
83333.330069628
83333.3302005922
83333.3302872148
83333.3303115429
83333.3302698282
83333.3301679062
83333.3300079395
83333.3295661603
83333.3297015328
83333.3298399132
83333.3299680032
83333.3300682759
83333.3301214731
83333.3301148042
83333.3300507846
83333.3299367507
83333.3297866385
83333.3293774633
83333.3294920155
83333.3296118552
83333.3297276349
83333.329826626
83333.3298937568
83333.3299147162
83333.3298843844
83333.3298086043
83333.3296970022
83333.3295674764
83333.3292038035
83333.3292970531
83333.3293966036
83333.3294958459
83333.3295855199
83333.3296545726
83333.3296916062
83333.3296889629
83333.3296467007
83333.3295715975
83333.329473536
83333.3293677948
83333.329122139
83333.3292011431
83333.329282422
83333.329359183
83333.3294231431
83333.3294656584
83333.3294798668
83333.3294634465
83333.3294189499
83333.3293524423
83333.3292724994
83333.3291909307
83333.3290299263
83333.3290931236
83333.3291554013
83333.3292108417
83333.3292527483
83333.3292750214
83333.3292746143
83333.3292523154
83333.3292115836
83333.3291575039
83333.3290969536
83333.329038122
83333.3290631167
83333.3290293852
83333.3289890179
83333.3289471224
83333.3289085974
83333.3288979027
83333.3288731227
83333.3288461433
83333.3288205224
83333.3303020469
83333.3305024569
83333.3307284743
83333.3308952665
83333.3287844267
83333.3288810325
83333.3287982645
83333.3289917945
83333.3291226994
83333.3292750928
83333.3294475294
83333.3296372196
83333.3298430536
83333.3300610457
83333.3302514851
83333.3304513726
83333.3306259359
83333.3306940483
83333.3306319902
83333.3301362468
83333.3302742365
83333.3302877589
83333.3303707822
83333.3304301028
83333.3304543626
83333.3303997162
83333.3305053988
83333.3305762291
83333.3305881346
83333.3303580584
83333.3304868083
83333.3305876006
83333.3306529228
83333.330269111
83333.3304177585
83333.3305376678
83333.3306082839
83333.3306340731
83333.3301358734
83333.3302959632
83333.3304339578
83333.3305209228
83333.3305475349
83333.3305241889
83333.3299753552
83333.3301355752
83333.3302853808
83333.3303978333
83333.3304494742
83333.3304381422
83333.3303670648
83333.3302232256
83333.3304086602
83333.330564609
83333.3306299424
83333.3297988515
83333.3299502364
83333.3300993856
83333.3302271849
83333.330310077
83333.3303301284
83333.3302859351
83333.3301871076
83333.3300374493
83333.329617274
83333.3297539191
83333.3298931965
83333.3300217243
83333.3301216465
83333.3301732178
83333.3301636685
83333.3300966608
83333.3299817583
83333.3298357964
83333.3294394671
83333.3295579535
83333.329681691
83333.3298011356
83333.3299032274
83333.3299723115
83333.3299933668
83333.3299611153
83333.3298821644
83333.3297675438
83333.3296351894
83333.3292717915
83333.3293708827
83333.3294763032
83333.3295812796
83333.3296762573
83333.329749607
83333.329788938
83333.3297856577
83333.3297399939
83333.3296597048
83333.3295559888
83333.329444645
83333.3291188475
83333.3291985296
83333.3292847964
83333.3293731233
83333.3294564048
83333.3295260316
83333.3295726484
83333.3295883387
83333.3295700726
83333.3295207736
83333.3294476928
83333.3293605813
83333.3292720843
83333.3291129789
83333.3291836789
83333.3292531494
83333.3293148372
83333.3293615247
83333.3293866006
83333.3293863542
83333.3293613353
83333.3293152376
83333.3292541085
83333.3291859241
83333.3291198702
83333.3290176283
83333.3290722465
83333.3291235506
83333.3291661579
83333.3291945228
83333.3292045527
83333.3291954479
83333.3291693967
83333.3291302759
83333.3290831366
83333.3290339373
83333.32898862
83333.3289993198
83333.328969011
83333.3289359647
83333.3289043656
83333.3288770602
83333.3288519894
83333.3288313399
83333.3288112622
83333.3287943586
83333.3301359466
83333.3302960759
83333.3304931116
83333.3287752757
83333.3288604946
83333.3287809296
83333.3289559464
83333.3290677202
83333.3291980547
83333.3293466397
83333.3295115224
83333.3296910386
83333.3298871183
83333.330052108
83333.3302202258
83333.3303840189
83333.3304810493
83333.3304886364
83333.3304145449
83333.3299983
83333.3301220298
83333.330125203
83333.3302221065
83333.3302596965
83333.3302646549
83333.3302750685
83333.3303535739
83333.3303946426
83333.3303858938
83333.3302697222
83333.3303817637
83333.3304609261
83333.3304937338
83333.3304552089
83333.3302076198
83333.3303416111
83333.3304465651
83333.3305045244
83333.3305167675
83333.3301052093
83333.3302536458
83333.3303815997
83333.3304624974
83333.3304871854
83333.330463041
83333.3299709674
83333.3301225039
83333.3302638983
83333.3303702738
83333.3304186869
83333.3304077915
83333.3303403274
83333.3298172812
83333.3299637118
83333.3301075083
83333.3302302703
83333.3303088167
83333.330326336
83333.3302822531
83333.3301848735
83333.3300367595
83333.3302004474
83333.3303507624
83333.3304410372
83333.3296536979
83333.3297889471
83333.3299263076
83333.3300526151
83333.3301500525
83333.3301990292
83333.3301875696
83333.3301207893
83333.3300100883
83333.3298699133
83333.3294890285
83333.3296090758
83333.3297340695
83333.3298543864
83333.3299568422
83333.3300255285
83333.3300452631
83333.3300110708
83333.3299304443
83333.329815821
83333.3296852804
83333.3293299471
83333.3294328071
83333.3295419119
83333.3296503607
83333.329748398
83333.3298240373
83333.3298643296
83333.3298602295
83333.3298121631
83333.3297287133
83333.329622105
83333.329507956
83333.3291812448
83333.3292663747
83333.3293581276
83333.3294516364
83333.3295397162
83333.3296134464
83333.3296628661
83333.3296792664
83333.329659186
83333.3296060778
83333.329528191
83333.3294362154
83333.3293429307
83333.3290465662
83333.3291146055
83333.3291885456
83333.3292658275
83333.3293413175
83333.3294081957
83333.3294589107
83333.3294862606
83333.3294858858
83333.3294581149
83333.3294072207
83333.3293403001
83333.3292661464
83333.3291944521
83333.329098945
83333.3291601336
83333.3292173507
83333.3292646397
83333.3292960264
83333.3293071498
83333.3292969715
83333.3292677412
83333.3292236382
83333.3291705048
83333.3291151259
83333.3290641467
83333.3290008886
83333.3290466164
83333.3290873255
83333.3291182787
83333.3291353009
83333.329136217
83333.3291218032
83333.3290950299
83333.3290599884
83333.329021429
83333.3289841611
83333.3289517698
83333.3289434065
83333.3289181942
83333.3288935142
83333.3288723426
83333.328855585
83333.3288129111
83333.3287975475
83333.3287849858
83333.3287765253
83333.3299973829
83333.3301282339
83333.3302869831
83333.3287706458
83333.3288487326
83333.3287718597
83333.3289317133
83333.3290271256
83333.3291377932
83333.3292645692
83333.3294067354
83333.3295624678
83333.3297333111
83333.3298885225
83333.3300295128
83333.3301735672
83333.3302823113
83333.3303281761
83333.3303081439
83333.3302323096
83333.329882224
83333.329990819
83333.3299896585
83333.3300864241
83333.330110948
83333.3301067008
83333.3301498229
83333.3302084122
83333.330232685
83333.3302142608
83333.3301679214
83333.3302600953
83333.3303196965
83333.3303336878
83333.3302893056
83333.3301358758
83333.3302546531
83333.3303462221
83333.3303921176
83333.3303864287
83333.3303074056
83333.3300595854
83333.3301940576
83333.3303091496
83333.3303816603
83333.3304015045
83333.3303702801
83333.329951824
83333.3300928748
83333.3302240486
83333.3303226281
83333.3303674897
83333.3303565602
83333.3302920786
83333.3298208544
83333.3299600819
83333.3300962904
83333.3302122282
83333.3302857339
83333.3303013098
83333.3302589206
83333.3301651843
83333.3296762628
83333.3298077736
83333.3299407909
83333.3300626599
83333.3301559584
83333.330201853
83333.3301894132
83333.3301235106
83333.3300145796
83333.3298765704
83333.3300207203
83333.330158752
83333.3302614021
83333.329526281
83333.3296456539
83333.3297694765
83333.3298882469
83333.3299889343
83333.330055779
83333.3300740468
83333.3300393851
83333.3299599346
83333.3298482164
83333.3297211752
83333.3293777441
83333.3294823751
83333.3295929897
83333.32970261
83333.3298014038
83333.3298772635
83333.3299170908
83333.3299118515
83333.3298623154
83333.3297776848
83333.3296708658
83333.3295570922
83333.3292356814
83333.3293244963
83333.3294197889
83333.3295165766
83333.3296075762
83333.3296836638
83333.3297345183
83333.329750996
83333.3297294705
83333.3296737881
83333.3295929837
83333.3294984164
83333.3294025313
83333.3291039213
83333.3291767933
83333.3292559532
83333.3293381583
83333.3294180253
83333.3294887001
83333.3295423093
83333.3295711334
83333.3295703192
83333.3295401232
83333.3294854883
83333.3294143575
83333.3293360982
83333.3292603708
83333.3289848281
83333.3290431805
83333.3291065563
83333.3291731978
83333.329240144
83333.3293022978
83333.3293534645
83333.3293873984
83333.3293993679
83333.3293880419
83333.3293557353
83333.3293072233
83333.3292491852
83333.3291889518
83333.3291335187
83333.3290799834
83333.329131242
83333.3291765837
83333.3292107754
83333.3292293669
83333.3292301645
83333.3292139989
83333.3291840376
83333.3291446546
83333.3291012244
83333.3290591668
83333.3290225484
83333.3289802231
83333.3290172982
83333.3290481914
83333.3290690462
83333.3290771546
83333.3290718834
83333.3290550257
83333.3290299995
83333.3290009093
83333.3289720271
83333.3289467264
83333.3289264568
83333.3288958898
83333.3288770818
83333.3288613616
83333.3288501762
83333.3288439786
83333.3287810918
83333.3287719315
83333.3287670759
83333.3287670846
83333.3298810965
83333.3299902971
83333.3301170138
83333.3287695774
83333.3288426579
83333.3287689504
83333.3289175853
83333.3289995628
83333.3290931747
83333.3292003103
83333.3293214236
83333.3294555032
83333.3296022398
83333.3297491171
83333.3298733143
83333.3299977904
83333.330106381
83333.3301733347
83333.3301889967
83333.3301550543
83333.3300795235
83333.3297841818
83333.3298779074
83333.3298755357
83333.3299656451
83333.3299820528
83333.3299745039
83333.3300315295
83333.3300756364
83333.3300901533
83333.3300698346
83333.330063561
83333.3301375427
83333.3301819449
83333.3301862778
83333.3301434561
83333.3300541302
83333.3301551537
83333.3302309122
83333.330265031
83333.3302513066
83333.3301779985
83333.330003934
83333.3301236587
83333.3302256256
83333.3302894712
83333.3303028833
83333.3302647687
83333.3301621678
83333.3299199042
83333.330048591
83333.3301674061
83333.3302564614
83333.3302969438
83333.3302844046
83333.3302204206
83333.3298114919
83333.3299417766
83333.3300686165
83333.330176105
83333.330243813
83333.3302575756
83333.3302175098
83333.3301284972
83333.3296861233
83333.3298119031
83333.3299385161
83333.330054017
83333.3301417682
83333.3301841341
83333.3301714136
83333.3301078663
83333.3300022693
83333.3295518082
83333.329668502
83333.3297890136
83333.3299041362
83333.3300012088
83333.3300649645
83333.3300815193
83333.3300469025
83333.3299688534
83333.3298591695
83333.3297375694
83333.3298677937
83333.3299917189
83333.3300964811
83333.3294152114
83333.329519734
83333.3296298105
83333.329738494
83333.3298360592
83333.3299105601
83333.3299491576
83333.3299431698
83333.3298937065
83333.3298100518
83333.3297049316
83333.3295939466
83333.3292815508
83333.3293723061
83333.3294693024
83333.3295674737
83333.3296594863
83333.3297361518
83333.3297870577
83333.3298029827
83333.3297803796
83333.3297233944
83333.3296415427
83333.3295466141
83333.3294504983
83333.3291547835
83333.3292311828
83333.3293138694
83333.3293992408
83333.3294818811
83333.3295548628
83333.3296101129
83333.3296396031
83333.3296382148
83333.3296062404
83333.3295491132
83333.3294754363
83333.3293949249
83333.3293168746
83333.329037847
83333.3291002677
83333.329168274
83333.3292397234
83333.3293109314
83333.3293766247
83333.3294306028
83333.3294663381
83333.3294787442
83333.3294662591
83333.3294313406
83333.3293794253
83333.329317827
83333.32925419
83333.329195498
83333.328932108
83333.3289820734
83333.3290367137
83333.3290941561
83333.3291524291
83333.329208555
83333.3292577644
83333.3292946316
83333.3293145554
83333.3293151969
83333.3292973472
83333.3292643693
83333.3292211606
83333.3291737366
83333.3291278883
83333.3290879446
83333.3290566284
83333.3290981778
83333.3291325017
83333.3291553582
83333.3291639388
83333.3291577891
83333.3291389222
83333.3291109981
83333.3290783554
83333.3290457508
83333.3290169872
83333.3289939261
83333.3289564575
83333.3289854148
83333.3290075877
83333.3290201788
83333.3290217999
83333.3290129497
83333.3289960733
83333.3289748075
83333.3289531055
83333.3289344843
83333.3289205627
83333.3289124716
83333.3288572237
83333.3288458212
83333.3288391843
83333.3288380584
83333.3288400268
83333.328756977
83333.3287546682
83333.3287579513
83333.328764809
83333.3297832525
83333.3298752448
83333.3299786933
83333.3288415151
83333.3287680488
83333.3289102961
83333.328983446
83333.3290628487
83333.3291527059
83333.3292545723
83333.3293686199
83333.3294935987
83333.3296259722
83333.3297440554
83333.329850773
83333.3299534257
83333.3300301687
83333.3300684457
83333.330065329
83333.3300234031
83333.3299514074
83333.3297014846
83333.3297814481
83333.329779012
83333.3298594845
83333.3298711103
83333.329863097
83333.3299236693
83333.3299571115
83333.3299655817
83333.329946731
83333.329962643
83333.3300215884
83333.3300548683
83333.3300541885
83333.3300165406
83333.3299690113
83333.3300528808
83333.3301139101
83333.3301388567
83333.3301221789
83333.3300586936
83333.3299399729
83333.3300436313
83333.3301305289
83333.3301837981
83333.3301922617
83333.3301532299
83333.3300625032