/*--------------------------------*- C++ -*----------------------------------*\
  =========                 |
  \\      /  F ield         | OpenFOAM: The Open Source CFD Toolbox
   \\    /   O peration     | Website:  https://openfoam.org
    \\  /    A nd           | Version:  12
     \\/     M anipulation  |
\*---------------------------------------------------------------------------*/
/*   Windows 32 and 64 bit porting by blueCAPE: http://www.bluecape.com.pt   *\
|  Based on Windows porting (2.0.x v4) by Symscape: http://www.symscape.com   |
\*---------------------------------------------------------------------------*/
FoamFile
{
    format      ascii;
    class       surfaceScalarField;
    location    "200";
    object      phi;
}
// * * * * * * * * * * * * * * * * * * * * * * * * * * * * * * * * * * * * * //

dimensions      [0 3 -1 0 0 0 0];

internalField   nonuniform List<scalar> 
28758
(
-0.000103374702998393
2.0739272064977e-05
1.95272336593772e-05
-0.000132807262545478
2.30957860527797e-05
6.33675901502994e-06
-4.36253234117115e-05
7.5815040198949e-06
-9.97723630408197e-05
1.12566739843945e-05
-0.000132655226094385
7.27385701782474e-06
-7.4259017277862e-06
6.06213692090241e-05
-4.79109234118752e-05
8.83633732406835e-06
1.54899360786115e-06
-0.00013920347395915
2.70793863232742e-05
1.86884716974245e-05
-1.78253758864555e-05
2.95436947572365e-05
5.27771841175543e-06
-4.40753185923328e-07
-4.7508706943106e-07
3.5531884173214e-06
4.94414965714637e-06
5.94406738412483e-06
-2.98310108059819e-07
5.17014156131267e-06
-5.32161532317948e-06
-6.80748085315117e-07
-3.29439646591881e-05
5.78130435350742e-06
-1.34744083240468e-05
-0.000135241873617766
-1.12348878167968e-05
-1.52605621817953e-07
4.57360347673501e-05
-3.8578408394987e-05
-8.76314630659877e-06
1.04418563522172e-05
-1.68257866039495e-06
-4.34851706199737e-06
2.87925052758702e-06
4.70083786562428e-06
-0.000108846783304013
2.56229268051173e-05
3.26285435559333e-05
3.6484800866651e-06
7.44687094038776e-06
5.91055120081324e-06
-1.2641945650745e-05
2.88180503038666e-05
1.17345378283354e-05
-1.53560759302201e-05
1.27521716299373e-05
9.97988300206296e-06
8.43113706074319e-07
-1.84047687891264e-06
1.262353580842e-06
5.01272198808814e-06
-4.08421909054633e-07
-8.15504110990817e-07
7.48835765107167e-07
1.21153981107169e-06
-1.15315278767071e-06
-2.30653716397189e-06
-3.34911070479741e-06
-1.93786613254202e-06
1.23112978365466e-06
-2.62422263416203e-06
-1.42141144695047e-05
-1.31677907305801e-06
-9.68541998431972e-06
-3.90183793535897e-07
-2.64506451990507e-05
-8.23520441761004e-06
1.88874185196033e-06
2.18442094749163e-05
-7.53396846085104e-05
1.36366330873476e-05
1.51495513478821e-05
-0.000181770197178254
2.99243769169183e-05
4.28464308628078e-05
3.5294821670897e-05
-4.74801758809864e-05
-1.25834375251387e-05
1.60056417998529e-05
-1.07128529282234e-05
4.45634412725082e-05
-4.18393450408231e-05
-4.23228500727985e-06
2.26628899125061e-05
1.00577708106747e-05
1.10864062720961e-05
6.05321244865085e-07
1.61884733943073e-06
6.26708827353416e-07
2.86957258260691e-06
1.20455875372036e-06
-2.26118921141154e-07
-0.000114390575636445
0.000129474851887741
1.07647647694666e-05
-1.56847348507363e-05
-4.12687403683997e-05
9.66560631356262e-06
7.96902653888939e-05
3.45385971663581e-06
1.81782908494276e-06
4.71943157070497e-06
-1.12500081832165e-05
2.29404936515465e-05
1.09623726148163e-05
-8.93693727207605e-06
1.48473389417626e-05
7.55156136409328e-06
7.96788636158108e-06
-1.52269642715996e-05
3.30367022197076e-05
3.05203277063136e-05
-8.02178358732313e-06
8.4684005452312e-06
2.71570240372883e-06
-1.47411127662728e-05
-2.10551265701549e-05
1.32945966164194e-05
1.04245164506699e-05
7.46379690842187e-06
-3.89084504777755e-06
5.23803301167373e-06
2.19526044353539e-07
8.09567383122062e-07
-4.85730643633414e-07
9.32576459441482e-07
-2.13259140224203e-06
-1.32021647903969e-07
-3.16121237873327e-07
-1.2415838585666e-06
-4.13223008554431e-06
1.70862853432416e-06
-1.70921903629179e-06
2.74099186030055e-05
2.03381993241122e-05
-3.92264044486798e-06
9.25349794862029e-06
-4.1969612424277e-06
-7.05542734724457e-06
-6.09849851710376e-05
-7.72456163354658e-06
1.29941463015018e-05
-3.32633575428761e-05
2.90706005641529e-06
4.04231213928594e-06
-4.85546061152929e-06
-6.8721627825273e-06
1.55328131487381e-05
-9.48842629862189e-05
1.84846501081375e-05
3.06472991469097e-05
-4.0628000677094e-05
-1.62855831669585e-05
1.3682835452426e-05
4.18488598616019e-05
-3.79183323769329e-05
-1.53166812231095e-05
2.3159475299328e-05
1.1053139073624e-05
6.39470360306965e-05
-4.19766771431906e-05
-6.9503004748582e-07
-2.76882510198379e-07
3.1002886317236e-06
7.06314862490266e-05
-1.49555866286405e-05
3.31875397436284e-05
-6.57463293031856e-05
8.3749661282658e-05
3.81451952189461e-06
-3.24715214772382e-05
2.63139495810067e-05
-8.48429810960719e-06
4.20649053875491e-05
4.99480390621691e-06
8.06722155887213e-07
-1.06582770162076e-05
2.11712472573056e-05
8.88428312748015e-06
-6.97942018323354e-06
1.53400617120365e-05
5.64290219711942e-06
-1.63706359218832e-05
2.85255079992346e-05
2.54293131712839e-05
-6.17376078331801e-06
1.01793325454081e-05
2.81998150437464e-06
-1.33328141550917e-05
1.69010285985927e-05
1.59648880237721e-05
-1.86323662845067e-05
3.03787926456566e-05
5.0249295912532e-05
-5.70301348742996e-06
6.41657382338923e-06
1.24672607007874e-06
-1.08378971879692e-05
9.61992271557856e-06
4.86647111600735e-06
-2.60434252318516e-05
1.45226545143719e-05
1.64078590724636e-05
1.90063154932398e-08
4.41632776093502e-07
-5.82052630778397e-06
-4.41035484720325e-07
7.18698397499521e-06
1.49951894984531e-05
9.62805765970394e-06
-2.86813483059484e-06
3.82981931239661e-06
3.23989271251886e-06
-3.94202951469411e-06
-4.62450664396672e-05
-1.30545044844628e-05
1.09469652730491e-05
-2.49111086616926e-05
-8.21628291718847e-06
1.11102176082378e-05
3.67056648838096e-06
-3.22610012000366e-05
6.18884442163093e-06
-5.27071005181076e-05
9.11597353756557e-06
2.96060792546527e-05
-3.45056002649175e-05
-1.79760274549624e-05
6.58993792954467e-06
4.22940816423501e-05
-4.48842219399504e-05
-2.07997002458245e-05
2.17559133243628e-05
1.208155456365e-05
4.75263959253884e-05
-1.82938239369625e-05
-1.88497484436637e-05
5.18557027063041e-05
-2.89473824167778e-05
1.10790690808705e-05
1.45126991768689e-05
6.70715069061826e-05
-1.27901897126358e-05
-3.11310130771526e-05
1.94773691054066e-05
3.87956693745248e-05
-4.04754719007936e-05
6.83719720993581e-05
-1.20004838050067e-05
-9.24395147864244e-06
2.10679661212938e-05
7.12374244424786e-06
-5.98166986160233e-06
1.57080059163475e-05
4.46547294227511e-06
-1.62698262971459e-05
2.7780976341765e-05
2.32964737745881e-05
-4.8398796931382e-06
1.12935896714481e-05
2.71258864146934e-06
-1.09951956957412e-05
1.79856556482867e-05
1.38450970849302e-05
-2.2859306252294e-05
2.64103071565102e-05
5.07722289359666e-05
-4.71619629933917e-06
7.76407708859291e-06
1.42843801489416e-06
-8.57199905396738e-06
1.15792797751856e-05
5.87582411727578e-06
-1.69825742240582e-05
1.71985327641359e-05
2.00842324121414e-05
-2.60006788255182e-05
1.93884579537113e-05
4.02430439814872e-05
-4.55286656701083e-06
7.41377137197028e-07
-7.21693287911024e-06
7.34494302654307e-06
2.58992593720939e-06
-1.24294981969172e-05
1.02804441095126e-05
7.33804066583893e-06
-2.15799217821694e-05
1.32285885238984e-05
1.83619358107619e-05
1.04465198178122e-06
7.494510492922e-06
4.72116760405975e-06
1.79304232319453e-07
-4.23430329587253e-06
3.65246634931457e-06
-8.74912353528294e-06
-2.8005728446116e-05
-1.8799535845524e-05
-7.54886082656518e-07
-3.3947540289118e-05
-1.73770631966944e-05
9.17100214837029e-06
1.47290742936391e-06
3.92869897525008e-06
-6.39639997478354e-06
-2.25504723155127e-05
-7.33615355157099e-06
3.21167776011507e-05
-4.60708559496859e-05
-9.66140970582589e-06
5.63943246991093e-06
3.84448548716442e-05
-4.22006202021993e-05
-2.15904666122484e-05
1.11363749126902e-05
4.28011528710767e-06
5.08799797878083e-05
-2.36863962416789e-05
-2.8567621062284e-05
4.50387078677087e-05
-3.64519550417678e-05
5.54033545636441e-06
9.21102630395146e-06
6.15160380315844e-05
-3.26030387808229e-05
-2.53354859042604e-05
1.18707418030952e-05
3.08774439885104e-05
5.62834308237745e-06
7.22537117980634e-05
-2.2300336518925e-05
-6.9171348887356e-05
8.98787184512739e-05
-2.8427828706915e-05
-5.54998591793106e-06
2.2282445673126e-05
6.14032090034502e-06
-4.81347674110381e-06
1.61248269662424e-05
3.77492410958933e-06
-1.53088566075807e-05
2.73098843781242e-05
1.72976233529236e-05
-3.77912033186749e-06
1.20918762880764e-05
2.55536615081301e-06
-9.44508321566038e-06
1.84605090287255e-05
1.22357750127603e-05
-2.66510789395203e-05
2.71876451515225e-05
5.07804289491763e-05
-3.76071890398084e-06
8.80965303480758e-06
1.52846041478025e-06
-6.84848997395321e-06
1.28783331004056e-05
6.09639272799171e-06
-1.47135132326999e-05
1.80828513836869e-05
1.99034216372291e-05
-3.09508272671349e-05
1.93950990240531e-05
4.19554269768315e-05
-3.8937767655219e-06
8.75788499959629e-07
-6.06996615428032e-06
8.84208360476164e-06
3.01866601733728e-06
-1.01668234708401e-05
1.22304824752656e-05
8.58117399348961e-06
-1.81716684731919e-05
1.53135614513934e-05
2.07507955023053e-05
-2.29894129913054e-05
1.29699984497229e-05
3.41379031977384e-05
-5.61124277386294e-06
1.58159206626474e-06
-8.22574441345127e-06
7.93811070883848e-06
3.89273905426789e-06
-1.29768036800055e-05
1.00562184245221e-05
8.73261000903614e-06
-1.845554980425e-05
1.06420353880816e-05
1.67679374070076e-05
2.648706391308e-06
-1.10198676378175e-06
-1.63406807392195e-06
-1.09505794513571e-06
-1.10154526949455e-05
-3.42944962161049e-06
-1.21003340107095e-05
-5.61767651559048e-05
-9.0901994056914e-06
3.96523002329749e-07
-4.61131533644948e-05
-2.11988205327606e-05
6.97934500408367e-06
-4.20156931510589e-06
-1.36330744295177e-06
-1.53469626162815e-05
-6.69306152694192e-05
-1.37784810289417e-05
3.32889143815536e-05
-4.58157510956766e-05
-4.30777544116183e-06
7.17317251507708e-06
4.39196389425146e-05
-6.61475364084663e-05
-1.33677526920707e-05
1.96445204181661e-05
5.29954866057937e-06
6.21550187355109e-05
-5.23156976915141e-05
-3.25702209913786e-05
4.068388302489e-05
-3.77943889000183e-05
4.02989662388535e-06
6.51761307118735e-06
5.69921687471892e-05
-3.84457482035185e-05
-2.33316050848095e-05
7.5594346699909e-06
2.53180572576181e-05
6.2134093763561e-06
7.4964481639824e-05
-4.15273376658121e-05
1.40928642011614e-05
9.19859155294179e-05
-3.85004705272624e-05
-0.0002015200913012
0.000200616197455509
-2.22245424530029e-05
-1.75065623707055e-06
2.30703966877495e-05
6.41913721356059e-06
-2.76842573433555e-06
1.68100674582274e-05
3.42730297630255e-06
-9.56896473125544e-06
2.92696646128131e-05
1.50502695293434e-05
-2.71703933818638e-06
1.26462289354985e-05
2.41651270775499e-06
-7.9170499463327e-06
1.90097584569887e-05
1.05469578334896e-05
-2.88066727390867e-05
3.02738875814067e-05
5.13341725642994e-05
-2.85066796752662e-06
9.60027604956192e-06
1.5815512026564e-06
-5.5225095576788e-06
1.37825270550438e-05
5.90735742133783e-06
-1.34865332094351e-05
1.91301047213458e-05
1.90662543152491e-05
-3.66340423277948e-05
2.29148524700549e-05
4.76414223709435e-05
-3.18676421303584e-06
7.13470462305997e-06
9.67937429794238e-07
-4.95035847438788e-06
1.00117716149342e-05
3.27541652711406e-06
-8.51316626963869e-06
1.35607649768703e-05
8.96479452234945e-06
-1.70822937251266e-05
1.65885863803877e-05
2.16204758275066e-05
-2.46667444210608e-05
1.36207906615173e-05
3.62252905915486e-05
-4.84635079524778e-06
1.85913740628612e-06
-7.01594297957894e-06
9.53038266401459e-06
4.50895288653208e-06
-1.10922859860134e-05
1.19782594390238e-05
1.00319157420467e-05
-1.64611719572413e-05
1.2548374452118e-05
1.91779784848114e-05
-2.10646586523675e-05
8.99804878110193e-06
2.93904907714073e-05
-6.38741339032633e-06
2.40241556680623e-06
-8.8701672471398e-06
8.03759858530031e-06
4.85068839145737e-06
-1.2091885766838e-05
8.92725334723078e-06
8.97357534817335e-06
-1.56119146884289e-05
8.14343609185998e-06
1.43357007906485e-05
5.0678187165895e-06
3.04014637008802e-07
-7.96279239656529e-06
3.21762776066757e-06
-1.39058570118403e-05
-8.63703186485398e-07
-6.69186056639725e-06
-5.56605496752386e-05
-5.99105460131468e-06
6.74559607507106e-06
-0.000116733624931478
-9.43030392215985e-06
3.92140183309688e-05
2.1544934278338e-05
-6.62392653013335e-05
-1.59890358578982e-05
-0.000182811125259533
-1.09425704331584e-05
3.48432390098478e-05
-5.10828142588083e-05
1.98883829696841e-06
9.94293109456768e-06
5.1253502571915e-05
-8.72054479207689e-05
-1.06090371839806e-06
3.08181583370299e-05
3.47890613770526e-05
0.000104564191274507
-0.000133270904172892
-1.90081944160584e-05
3.61543210613553e-05
-3.54439925985486e-05
3.46217832842065e-06
5.2430742986244e-06
5.08485877517572e-05
-3.68938898734333e-05
-2.11708887286584e-05
5.71944798534804e-06
2.14688464061141e-05
6.96177825893657e-06
6.91068251940318e-05
-3.95499101397328e-05
9.06045928930834e-06
8.91927236314549e-05
-4.77947459097248e-05
4.23774411480483e-05
0.000150329180031202
-3.05910397332563e-05
-0.000205573154648015
0.000229136800753672
-1.09993460305005e-05
1.50615333511015e-06
2.34806823173933e-05
8.1056930667049e-06
-4.94120395682106e-07
1.73071148577424e-05
3.48895076210505e-06
-9.27480663495952e-07
3.1312341030285e-05
1.77186621047749e-05
-1.41726467996271e-06
1.31270538665569e-05
2.38323465608606e-06
-4.746814460854e-06
2.00262113900377e-05
9.50045922071191e-06
-1.60696781790999e-05
3.87507936345586e-05
6.81264389917774e-05
-1.96288594009288e-06
1.01555867952579e-05
1.60286319302008e-06
-4.17980088568737e-06
1.44671034779697e-05
5.61645003377266e-06
-1.18334159403969e-05
2.05691534696024e-05
1.85984833485247e-05
-2.99156571929492e-05
2.99320316530667e-05
5.70608725858375e-05
-2.46633408925192e-06
7.84581597673128e-06
1.03403315042175e-06
-3.88589870672055e-06
1.09035986309306e-05
3.39602445679709e-06
-7.14382749748523e-06
1.46548384560011e-05
9.01325478514208e-06
-1.62349356367525e-05
1.83340070927868e-05
2.27996498021073e-05
-2.5584919125917e-05
1.64320242259978e-05
4.11879405777114e-05
-2.86461010033809e-06
5.92566443469801e-06
6.66940519760938e-07
-4.02801875086097e-06
8.10857179582516e-06
2.05280883457563e-06
-5.86164547014881e-06
1.078237438037e-05
4.89949923703774e-06
-9.69116452631944e-06
1.33891264911456e-05
1.07630854281063e-05
-1.5719236932813e-05
1.39450076197044e-05
2.05542598288387e-05
-2.04546658566073e-05
1.01862101112052e-05
3.23908480934409e-05
-5.55310601452655e-06
2.81180613982367e-06
-7.68128695587491e-06
9.66689311208437e-06
5.6314120928563e-06
-1.06324551194781e-05
1.07033237054261e-05
1.04174825767215e-05
-1.40057664638177e-05
9.77904858355401e-06
1.67907873711324e-05
-1.90554398474661e-05
7.00469493740642e-06
2.55134098298993e-05
-6.92465099647988e-06
3.08326743376278e-06
-8.69114444747719e-06
7.4578263520077e-06
5.35554347654491e-06
-1.07252613857174e-05
7.44978017784964e-06
8.50998696364511e-06
-1.34125220536103e-05
6.3905870216864e-06
1.2357361723827e-05
-1.56063869460248e-05
-1.32385268535218e-06
-4.67070306330001e-06
2.92730667048766e-05
-4.93787234359917e-06
5.62822891987434e-06
-4.94965599771636e-06
-6.84464965368695e-05
1.73358580839334e-06
9.63898157196797e-06
-0.000142279695121954
-1.0483463684566e-06
5.34377790881192e-05
4.10958559994249e-05
-0.000139667457524771
-1.14744256766533e-05
-0.000170538329914357
-4.88161487462227e-06
3.50058531809481e-05
-4.139382729369e-05
-2.11711834477993e-06
1.04938978734936e-05
4.21453697998713e-05
-4.56587233053233e-05
2.08271731502819e-06
1.03125542409556e-05
5.48867157353132e-05
0.000120316144335215
-0.000158876700296178
-4.51640594453226e-06
3.14565244912169e-05
-3.19004149584601e-05
3.04912649520503e-06
4.20604648488329e-06
4.39471748887092e-05
-3.27486255013269e-05
-1.88950959655285e-05
4.65781588604418e-06
1.85902328799086e-05
6.13810951893812e-06
5.90996582532451e-05
-3.30248192212568e-05
8.99619141000777e-06
7.59396038900989e-05
-3.52930100178263e-05
2.05404287297031e-05
0.000111988344727534
-2.99945264837686e-05
5.05715963810309e-05
0.000156577488687653
-8.60349176076164e-06
-0.000184519635731438
0.000230387724205593
-1.98095852020621e-06
3.14096408857591e-06
2.41791432998591e-05
9.1918260299524e-06
1.39562330393483e-06
1.73250274015266e-05
4.26588336812661e-06
2.17789415009417e-06
3.01284839449812e-05
1.70170478596621e-05
-1.45483504053017e-09
1.34311030937249e-05
2.46019822289141e-06
-9.15948457060717e-07
2.07520703993793e-05
1.02182878708552e-05
3.34965976527383e-06
4.17322129596972e-05
7.68829758832781e-05
-1.02727078640913e-06
1.05509734526474e-05
1.64046968987855e-06
-2.39793019266426e-06
1.50898016484227e-05
5.53776636422517e-06
-6.64830963217945e-06
2.251819168803e-05
2.0547853522409e-05
-1.45865355476864e-05
3.58584568213521e-05
6.7510072565403e-05
-1.75150433980909e-06
8.36241853155761e-06
1.078343047882e-06
-2.81611392629766e-06
1.1559829154925e-05
3.4403602420789e-06
-5.55786808065064e-06
1.56153794599083e-05
8.98423332684018e-06
-1.31512373443976e-05
2.07190010988903e-05
2.47277124542795e-05
-1.89655109301168e-05
2.1516274944726e-05
4.94655233183909e-05
-2.2931497006775e-06
6.55194879505321e-06
7.22409071034733e-07
-3.19029674509934e-06
8.91051144773207e-06
2.18940552806965e-06
-4.73366194007903e-06
1.17789257295027e-05
5.14394523547664e-06
-8.35055552088639e-06
1.46695074853831e-05
1.13370944902996e-05
-1.46265506626838e-05
1.57299982559976e-05
2.24089221342636e-05
-1.91827940777048e-05
1.22266138616401e-05
3.66856419890706e-05
-2.67289598941892e-06
5.01946853931558e-06
4.74031855342857e-07
-3.53099754125364e-06
6.73268917683347e-06
1.41325318566925e-06
-4.67134728010219e-06
8.84682188782333e-06
3.10660025811456e-06
-6.5474850958809e-06
1.09683162463103e-05
6.18647986405357e-06
-9.47066066989258e-06
1.21074040987003e-05
1.14388377612632e-05
-1.3015973994732e-05
1.11254814537591e-05
1.86251532886553e-05
-1.73536952052802e-05
8.06352594957959e-06
2.87636974021874e-05
-6.06433584437136e-06
3.61821750432492e-06
-7.62424122265176e-06
9.0009584300939e-06
6.26683510396193e-06
-9.53071460866464e-06
8.98771159553362e-06
1.00142195718468e-05
-1.20421369567561e-05
7.72190447180222e-06
1.47031590103006e-05
-1.69361270287454e-05
5.61576910172209e-06
2.21447080491154e-05
-6.89764712905991e-06
3.53966922688197e-06
-7.98803594239878e-06
6.52239653303966e-06
5.45930841411599e-06
-9.35216812752634e-06
6.13037154693803e-06
7.84611808752543e-06
-1.15573820937874e-05
5.16710493855217e-06
1.08064234006691e-05
-1.46586455295078e-05
-1.07728032089462e-06
-2.11898242752209e-06
3.2854158649354e-05
-1.27556786823202e-06
5.15048275666227e-06
-9.56152381754226e-07
-4.10104996225904e-05
-7.85351032367297e-06
9.20369907116271e-06
-4.76906937826045e-05
7.77410438993199e-07
9.84511177570132e-06
5.26335909166965e-05
-0.000157865436970984
-1.16816429981667e-05
-0.000130727984948994
-6.03975907387892e-06
3.54219431006712e-05
-3.15917886380508e-05
-1.05974871098631e-05
4.65017031629587e-06
3.85649726290465e-05
-3.41094548792108e-05
-5.98848773369493e-06
1.41094660637238e-05
2.82852707119071e-05
9.75775596433577e-05
-0.000133745132882674
1.36782690239053e-05
2.70426654225949e-05
-2.85145923966266e-05
2.69115027760696e-06
3.44197366347314e-06
3.74460447968274e-05
-2.88412746711722e-05
-1.68543309629898e-05
3.88993279400602e-06
1.62841125712808e-05
4.66619698884746e-06
4.943647092059e-05
-2.77516171703424e-05
6.92423234300357e-06
6.23788693308748e-05
-2.63882787072615e-05
1.36437343746609e-05
8.33883402443819e-05
-2.03367540514712e-05
2.407876917811e-05
0.00011129077337532
-8.78678167044815e-06
4.9203841093659e-05
0.000165203199769369
7.37699640889668e-06
-0.000167564458870677
0.00018608203607768
7.78653016810377e-06
2.82027155718872e-06
2.6728641466053e-05
9.01388143563247e-06
2.83621476840645e-06
1.7426031068897e-05
5.31248186416833e-06
6.57300016989328e-07
3.01169107778234e-05
1.91602863398765e-05
1.26585326887896e-06
1.33946070647795e-05
2.66310794334038e-06
1.91634175671918e-06
2.04550405000119e-05
1.11069625724516e-05
6.2810951436999e-06
3.78015575705435e-05
7.38613587579879e-05
-5.55009358646263e-08
1.07663683949536e-05
1.69297006599252e-06
-4.02413126816182e-07
1.54429092475318e-05
5.77383459000383e-06
-9.30319003121623e-07
2.33978892249906e-05
2.28345098387796e-05
6.21979277722288e-06
3.61302094621747e-05
6.91498338653394e-05
-1.03034966246872e-06
8.71385146682805e-06
1.11597311304005e-06
-1.63772776440887e-06
1.20382188932961e-05
3.51367665895706e-06
-3.24246066316698e-06
1.64520919837717e-05
9.28842572682037e-06
-6.98409253331155e-06
2.28133261662681e-05
2.74257230991759e-05
-8.76490913632736e-06
2.47862445640723e-05
5.66018886254225e-05
-1.71512202505222e-06
7.02193754068287e-06
7.6245669959937e-07
-2.34384422362486e-06
9.50883995799048e-06
2.28289075073023e-06
-3.53035327232339e-06
1.25572173695447e-05
5.29520627972436e-06
-6.44844307771766e-06
1.58862568531951e-05
1.19148093249037e-05
-1.12471798018685e-05
1.79442228307259e-05
2.49203196602654e-05
-1.38373699611155e-05
1.5250373472585e-05
4.25134649943705e-05
-2.21067418395987e-06
5.56923936392732e-06
5.20488320034508e-07
-2.86229661803974e-06
7.43794777751448e-06
1.52627659227207e-06
-3.76198505214563e-06
9.73067273683835e-06
3.32829669878888e-06
-5.39137034199558e-06
1.20395694723911e-05
6.61773971637866e-06
-8.18201451199006e-06
1.34043479163912e-05
1.23740380001926e-05
-1.16804972549903e-05
1.26317055008348e-05
2.06683151207291e-05
-1.52536605278617e-05
9.27334207512538e-06
3.22365252412177e-05
-2.56143002837544e-06
4.31618420171761e-06
3.43750876667542e-07
-3.22929775129434e-06
5.69873163187481e-06
1.00665202792825e-06
-4.06297201006452e-06
7.4105142487848e-06
2.15675257867317e-06
-5.15664692307161e-06
9.14951072042949e-06
4.01770554818068e-06
-6.57607698399883e-06
1.02694258267846e-05
6.97625347762262e-06
-8.45824514994233e-06
1.02665325077787e-05
1.12252616355921e-05
-1.08466909370482e-05
8.84669881463381e-06
1.66465045836353e-05
-1.4974275973419e-05
6.36617795152212e-06
2.51018713037921e-05
-6.08379227460906e-06
4.17546694195702e-06
-7.0648652945692e-06
7.89386122078008e-06
6.43747364935032e-06
-8.33232632850458e-06
7.4090814029754e-06
9.30715380756926e-06
-1.03483765433461e-05
6.20983185807563e-06
1.29000613598472e-05
-1.50935632041634e-05
4.54497144440648e-06
1.9280920535528e-05
-6.463308802844e-06
3.76028839105057e-06
-7.12727430466657e-06
5.5750747737508e-06
5.31743211897867e-06
-8.12107420821646e-06
5.08870228019332e-06
7.15837313647008e-06
-1.00012671670517e-05
4.28315946031635e-06
9.5242103571414e-06
-1.62092489121237e-05
-2.60715953689651e-06
-6.58731287802726e-06
6.47628578620884e-06
2.40846324522714e-07
6.21763788372685e-06
-7.68021033892669e-06
-2.97033383749192e-05
-1.0490631656491e-05
7.48578413284342e-07
-2.21297097603815e-05
-1.1196801237158e-05
9.1980779530424e-06
2.63300089835621e-05
-0.000170750480726115
8.83868110123806e-06
-0.000166270978195512
1.89966752631085e-05
6.91639189051424e-05
-4.89720049120011e-05
-3.49119704701465e-05
4.12249704976261e-06
4.33632713651854e-05
-3.49870809048969e-05
-1.96198499145761e-05
9.9051985891372e-06
2.77555753161119e-05
7.9307552389974e-05
-7.57000408453448e-05
-3.57552487077617e-06
2.30802802644563e-05
-2.56592118922562e-05
2.40092548051539e-06
2.93075165844355e-06
3.17882904098624e-05
-2.57876193568402e-05
-1.52272207729469e-05
3.30510657953778e-06
1.43769475085711e-05
3.54175887740223e-06
4.15089727378749e-05
-2.44555309048573e-05
4.82507366929562e-06
5.18576626245107e-05
-2.2055446556553e-05
8.1826918388383e-06
6.60240363474557e-05
-1.7206616081503e-05
1.37427249266978e-05
8.59263202668874e-05
-8.71504339883697e-06
2.34361946954836e-05
0.000126717125308564
6.2628666205083e-06
3.92395039658655e-05
0.000135458800936045
1.87605401512917e-05
-3.5606801708827e-05
7.63270138480248e-05
-5.17827931111843e-06
3.09016044115471e-05
3.69931481366515e-05
4.08923198891378e-06
4.90544547590306e-06
1.76050340783409e-05
7.05430707908808e-06
-5.72082650192872e-06
3.44219194931195e-05
2.43330620809967e-05
2.51388033833982e-06
1.32172378665036e-05
2.96075859474789e-06
3.96767031955927e-06
2.03828840515249e-05
1.29950822881448e-05
1.03935648046666e-06
3.54842761332421e-05
6.82250045510121e-05
8.53860331101069e-07
1.07367163554572e-05
1.74853495693572e-06
1.28985462891026e-06
1.53318542575352e-05
6.09401808966648e-06
2.96007576457613e-06
2.25244479278787e-05
2.24935578531612e-05
1.53848884827744e-05
3.4444854914062e-05
6.9490490210604e-05
-3.05257085659159e-07
8.89721898791529e-06
1.1440631169556e-06
-4.03042906915189e-07
1.22861469536042e-05
3.61505927965187e-06
-6.54567918591963e-07
1.68370182466816e-05
9.74677922146026e-06
-6.89310342261484e-07
2.33390479790726e-05
2.93307585638855e-05
2.28178425480005e-06
2.45482835047599e-05
5.69909232356032e-05
-1.13511670013844e-06
7.34269633724814e-06
7.91154147314498e-07
-1.47036795921974e-06
9.92295170064649e-06
2.35777676297339e-06
-2.15329106078825e-06
1.31272780987074e-05
5.46142256013439e-06
-3.74517894128517e-06
1.68219025728144e-05
1.25765249323363e-05
-5.91653245978707e-06
1.9625081375065e-05
2.72561545866324e-05
-7.09973634549197e-06
1.68218171803217e-05
4.6785165479531e-05
-1.73501158559622e-06
5.99227651891578e-06
5.5399999142258e-07
-2.17933529848444e-06
7.97744225104355e-06
1.61090041443469e-06
-2.82270542016099e-06
1.04086507522584e-05
3.49218037941972e-06
-4.07401127904601e-06
1.29088593554969e-05
6.95521607646893e-06
-6.25401078403644e-06
1.46210030037214e-05
1.33099592307232e-05
-8.78941885837417e-06
1.42770521972108e-05
2.30025209769855e-05
-1.13036962642276e-05
1.06819586887437e-05
3.60642706354439e-05
-2.17567013230563e-06
4.80251077703707e-06
3.80968006189795e-07
-2.68867656856375e-06
6.31689239913747e-06
1.10092287223608e-06
-3.32439508671217e-06
8.18717166349977e-06
2.33120209325155e-06
-4.20578652403674e-06
1.00808480497235e-05
4.3361466370596e-06
-5.46036313908225e-06
1.13314906542299e-05
7.57484075058016e-06
-7.22190684535789e-06
1.14314155086974e-05
1.23379306862473e-05
-9.38515417608001e-06
9.94955422594314e-06
1.85305401518251e-05
-1.28452592652871e-05
7.07032661446763e-06
2.78622705435799e-05
-2.49763492688692e-06
3.75459989662324e-06
2.53106004041972e-07
-3.04655377705672e-06
4.89407328972789e-06
7.3148033009909e-07
-3.701270036319e-06
6.31246571636358e-06
1.54790937318638e-06
-4.45724781437262e-06
7.75368595013496e-06
2.82427511253377e-06
-5.21537765645143e-06
8.74982244301949e-06
4.66887566228494e-06
-6.11844224178952e-06
9.04924575600118e-06
7.24707289843829e-06
-7.31558408007431e-06
8.49480280082084e-06
1.05603657811511e-05
-9.13063913666412e-06
7.08799738851356e-06
1.4706920372712e-05
-1.32733141022812e-05
5.03091106540596e-06
2.17924605415132e-05
-5.73130394693019e-06
4.45661850291762e-06
-6.32825145015116e-06
6.75004797461778e-06
6.29744422795767e-06
-7.23869667526314e-06
6.13143679164733e-06
8.50312829107209e-06
-8.94718240686182e-06
5.0870896161765e-06
1.13038269988213e-05
-1.36953300270584e-05
3.79534027665878e-06
1.68844064665472e-05
-5.87289232641016e-06
3.7952935198166e-06
-6.29190023298013e-06
4.76306140662448e-06
5.0465651108976e-06
-7.06250331094776e-06
4.29291224803223e-06
6.49474026437203e-06
-8.77161151255921e-06
3.63888126964195e-06
8.42278737085334e-06
-6.05822208454692e-06
1.41614625631218e-05
2.73413071603694e-06
1.74121094707899e-05
-1.00208463375371e-05
2.33777869076218e-06
-6.14869987219192e-06
-6.03050381975838e-05
-2.6061849012192e-06
3.44845350973793e-06
-3.27840632276549e-05
-1.59121710353573e-05
3.2608098130967e-06
1.97483472089365e-05
-6.73487442341427e-05
-1.00630127842138e-05
9.81198254335272e-06
-6.67380190016889e-06
-0.000198724221119727
0.000142283015632542
2.15290345018359e-05
8.44692655915043e-05
-9.90349894473423e-05
-1.0237396612753e-05
9.30547584993851e-06
3.21527011038294e-05
7.94673593425028e-05
-9.65586817446802e-05
-8.73193562971387e-06
1.95568359814502e-05
-2.32385601243423e-05
2.16521404612058e-06
2.62158696336912e-06
2.69118301342481e-05
-2.34043802824092e-05
-1.40265884296353e-05
2.90069731554516e-06
1.27523490702482e-05
2.94123997775974e-06
3.5103938494363e-05
-2.23238381677554e-05
3.55817888379994e-06
4.3961792700691e-05
-2.01178204811599e-05
5.20985820531457e-06
5.5096112867684e-05
-1.63373336897834e-05
8.23568158991966e-06
7.08331615882872e-05
-1.03490859575404e-05
1.41064423962143e-05
0.000104035741225862
-1.40126313770308e-07
1.46862082588721e-05
0.000103205705660136
2.38295466184387e-05
-5.16380618998641e-06
0.000111751345797072
-1.15001028335329e-05
-0.00021394269156804
0.000238501487522895
2.41540620276362e-06
-5.26370318251375e-05
3.9903408609558e-05
3.88065849682952e-05
4.82850211986261e-06
1.4556492396186e-05
1.75544470369216e-05
9.78754994944969e-06
5.12642605280557e-05
1.16360660020758e-05
1.99369634890673e-05
4.05148751227817e-06
1.27758661903192e-05
3.29154448545837e-06
7.43236592771747e-06
2.0190472042098e-05
1.78209084250479e-05
3.6795228072593e-05
1.08536192009475e-06
6.69588773025411e-05
1.78070827771625e-06
1.05147473462877e-05
1.77564737630057e-06
2.98003009427189e-06
1.50454270776823e-05
6.60802284308081e-06
5.44341309959789e-06
2.18335463499058e-05
2.4162335035398e-05
-1.43561637746152e-06
2.4978865859906e-05
5.49024867072147e-05
3.84323894740004e-07
8.89036638915876e-06
1.15677563733835e-06
7.40110652343569e-07
1.22336897488513e-05
3.70355804841248e-06
1.40580012777894e-06
1.6630043034813e-05
9.92801688123065e-06
4.9450647642343e-06
2.25671338153498e-05
2.87367610002948e-05
9.73793637654761e-06
2.22197346233436e-05
5.45006628616802e-05
-5.57064611739462e-07
7.51314691528505e-06
8.06024576193944e-07
-5.87691331513329e-07
1.01382954371521e-05
2.40925239618219e-06
-7.16026798349403e-07
1.34057972077657e-05
5.60900904773957e-06
-8.96751967675257e-07
1.71793375218814e-05
1.30579955018166e-05
-4.60630472448222e-07
2.00137530800298e-05
2.84092909432348e-05
-4.8481498463868e-07
1.6977208419402e-05
4.75052331774482e-05
-1.25530393218245e-06
6.28709822631904e-06
5.75892433662911e-07
-1.48738166650891e-06
8.35122613139804e-06
1.6709349125169e-06
-1.83778307984883e-06
1.08833111109663e-05
3.61682531031133e-06
-2.5538490440362e-06
1.3528059664041e-05