/*--------------------------------*- C++ -*----------------------------------*\
  =========                 |
  \\      /  F ield         | OpenFOAM: The Open Source CFD Toolbox
   \\    /   O peration     | Website:  https://openfoam.org
    \\  /    A nd           | Version:  12
     \\/     M anipulation  |
\*---------------------------------------------------------------------------*/
/*   Windows 32 and 64 bit porting by blueCAPE: http://www.bluecape.com.pt   *\
|  Based on Windows porting (2.0.x v4) by Symscape: http://www.symscape.com   |
\*---------------------------------------------------------------------------*/
FoamFile
{
    format      ascii;
    class       volVectorField;
    location    "200";
    object      U;
}
// * * * * * * * * * * * * * * * * * * * * * * * * * * * * * * * * * * * * * //

dimensions      [0 1 -1 0 0 0 0];

internalField   nonuniform List<vector> 
10107
(
(-0.00136168246400665 -0.00971047401578124 -0.00287375073231695)
(-0.000595316609153655 -0.0160973198369608 -0.00808888985700472)
(0.000570603756165497 -0.0037787193793131 -2.25588753375982e-05)
(-0.000344174089484872 -0.00893023446281004 -0.000316908238563035)
(-0.000668781077022882 -0.037566391024009 -0.00251141539680839)
(2.98959238613213e-05 -0.00848470629500308 -0.0164528301391296)
(0.000252341759353862 -0.0136626373637609 -0.00858522988268028)
(0.00128717633594801 -0.00726757689865184 -0.00467969121563656)
(0.00154027024632598 -0.00309609851856817 -0.00264478238821602)
(-0.000738462075396402 -0.00256633077260903 -0.00632864826566165)
(-0.00104364028464121 -0.0361410833631104 -0.00179569176568475)
(-0.00203756940635732 0.000837450085886541 -0.0140847585323524)
(0.000518017628262148 -0.0355223627951378 0.00145578512769767)
(0.00172396056965044 -0.00188106005941725 -0.00943512016161417)
(0.00316827891461645 -0.00338495898552658 -0.0158403682120193)
(-0.00227798846749407 -0.00602379619761234 -0.0158740000512228)
(-0.00163295695539255 -0.0016950833138278 -0.01864330814559)
(0.00121736577857566 -0.00559774214968718 -0.0037275762587702)
(0.000838786650430699 -0.00513631252140635 0.000764220796856696)
(0.00240878896564313 -0.00369084405571284 -0.0047895159245938)
(0.000623412169670824 -0.00428214054554404 -0.00106002759621404)
(0.00071763095636534 -0.00414882209879014 -0.00108716376972295)
(0.000754827345377316 -0.00299389260193907 0.000298941420617789)
(0.000195625078180581 -0.00368367485853749 -0.00219405815182135)
(0.000775346027070368 -0.00303688667172342 -0.00317085918636236)
(-0.00157291902249887 -0.0309906603199819 -0.000902992627728849)
(-0.00730407008545463 0.0280825760745685 -0.0110579953086688)
(0.00127150226219329 0.0131419533929535 -0.00557907907238986)
(-0.00168469528252888 -0.00505270999725452 -0.0140195901795483)
(0.00287504361290511 -0.0200426957164362 -0.0170874982881118)
(0.00102065743487306 -0.00464921573181743 0.000974226595264329)
(0.000890260059658772 -0.00116958296530663 -0.00834189603215651)
(-0.00197568174538751 -0.00356487730996028 -0.0155513839383396)
(0.000182756414228522 -0.00066783615964991 -0.0132801903904319)
(0.00503793423149573 -0.00563632245923572 -0.00929195893901876)
(0.00164099652515137 -0.00964193262147518 -0.0194910805812766)
(-0.00113854585331687 -0.00314179438825643 -0.0155372399388058)
(0.00118430741643341 -0.00141883435510822 -0.0153404455810582)
(0.000379101987004316 -0.00832274995914516 -0.0130488453554274)
(0.00041395623061712 -0.00574383809866228 0.00089409240918871)
(0.000388661526617094 -0.00550032672038368 7.07642034989055e-05)
(0.000898755884152334 -0.00463062451977382 -0.00292049704325791)
(0.00017853308275611 -0.00384464358771782 0.00178517124262938)
(0.000609438285766635 -0.00415721950351374 1.90751800432519e-05)
(0.00131150989585049 -0.0038432745064909 -0.00294234236594063)
(0.00114913630109149 -0.00481466180399701 -0.00571736275706439)
(0.00184028651872878 -0.00445257721215695 -0.000976255871314239)
(0.00175569993455994 -0.00524791731189095 -0.00131956198728554)
(0.00104414209048894 -0.00441115704415417 0.000245189947831295)
(0.000729183258862196 -0.00679116027900894 -0.000966624202958748)
(0.00128500990944588 -0.00444053443329397 -0.000903663747578298)
(0.0047677973373722 -0.0543020589147209 -0.0181267392648186)
(-0.00447842474022634 0.00130377148916503 -0.0110030866970546)
(-0.00201558092332934 0.0241634139098735 0.00425493841248393)
(0.000986291960153896 0.00131256961837137 0.00264875432218396)
(-0.00241666228299128 0.00986757362539225 -0.0107049543860678)
(-0.000957856481381514 0.00890061025936671 -0.0174333043233834)
(-0.00287670456538341 -0.00284491690903817 -0.020299393390302)
(0.000918496911037691 -0.00577164468916747 0.00549846836820444)
(0.000190667891698939 -0.00333442354331807 -0.000775579499956225)
(-0.000785201153364395 0.00284551980438826 -0.0099853180951604)
(0.00136292088207872 -0.00428355442888958 -0.00670850731696743)
(0.000880965726945556 -0.00769415042412801 -0.0116005004009217)
(-0.00282584805860182 0.00167111200200001 -0.0139610609554506)
(-0.000812025084361276 -0.0053476814517031 -0.0067493846849679)
(-0.00247246484454831 -0.00504298935354025 -0.0082899536605233)
(0.00112122093328264 -0.00780534860210595 -0.00327117470677909)
(0.000140343534325869 -0.00634677408641299 0.00325524128616253)
(0.000182075554859325 -0.00601131352711785 0.00104120534187825)
(-0.000295752504290802 -0.00441719610038367 -5.41571108595999e-05)
(0.000156098807012261 -0.00462927967382312 0.00130911738740687)
(0.000308921914991742 -0.00436264047338811 -0.000533193238638289)
(-0.00126558228377452 -0.00299153046898744 -0.0054336369371474)
(0.000109689889625545 -0.00300785944408922 0.00180575434339502)
(0.000243629982409431 -0.00314027289150065 0.000982126625921863)
(-0.000262526403917808 -0.00349373827535647 -0.00105926014675156)
(0.00163022523847162 -0.0041783141896274 -0.00653400991951504)
(0.00121099401104358 -0.00402488482150367 -0.00399581650060735)
(0.00136077721890374 -0.00392236054768006 -0.000390710953386991)
(0.000747117762313191 -0.00489393633944654 -0.00145218914543463)
(-0.00413607839030675 -0.00986824866881828 -0.0134733842838247)
(-0.00467849990079342 0.0346765001837837 -0.0131734862293685)
(-0.00511239309053332 0.011926542051387 -0.00748954871768853)
(0.000613141058033718 -0.00240505910550135 0.00398987372000627)
(0.00163171733266202 0.00209728724242472 0.00524501966886949)
(-0.00128135200534521 0.00905937378860001 -0.000772379025254394)
(-0.000690130064581144 0.0126489508974983 -0.0101864976313573)
(-0.00411753787783137 0.0109788545792725 -0.0150211478541193)
(-0.00080257727666095 -0.0061460557516569 0.00605091693848817)
(0.00037904319284154 -0.00473110171862985 0.00534924949459344)
(-0.000119308210355693 0.00374803920646598 -0.00140176185402784)
(-0.000532420111672429 -0.00246904528647376 -0.00742228088618456)
(-0.00266442840037365 9.62043398500256e-07 -0.0108039049855447)
(0.000597486884443121 -0.00207445982637883 -0.00427063437483553)
(-0.0038368943115761 0.00540046036301179 -0.00403007383945616)
(0.00111227795246643 -0.00567187528134793 -0.00567631792722207)
(-0.00032600947357631 -0.00645944443577616 0.00356883360409816)
(8.54964600569833e-05 -0.00658937905295647 0.00170312674791065)
(-0.000703175535057137 -0.00545390246138757 0.00317496293709017)
(0.000160237441233331 -0.00523773951796503 0.00125012542295033)
(7.04920027288067e-05 -0.00473637184237586 0.000513488880766558)
(-0.00196982606624702 -0.00217882202415091 -0.000923364376862855)
(0.000127954019777559 -0.00372074066552795 0.00151487714306393)
(0.000226502767418024 -0.00376288960224814 0.000696151048664733)
(-0.000262565205030798 -0.00335411195504903 -0.00126357157416102)
(-0.000665627830694904 -0.000529630959486522 -0.00508404634510298)
(8.10995942964378e-05 -0.00248838531459707 0.00169398031518641)
(0.000213490279940179 -0.00249212897092999 0.0012988502580658)
(0.000202881431894953 -0.00264425468850525 0.000524854974379281)
(4.82064734413393e-05 -0.00264604617975413 -0.00090659535483931)
(-0.00302756734292599 0.0132550909249478 -0.00999880046815498)
(-0.00215183987750538 0.0146111605842679 -0.00556520945023684)
(-0.0018822207209397 0.0166335281969169 -0.000229944307022907)
(0.00196025487351013 0.00542138405417489 0.00342477632154307)
(-0.00161898474977086 0.00538880468092446 0.00674391084579904)
(0.00018518600447207 0.00570241493514108 0.00590202831889094)
(0.000755570141788957 0.0217142018093751 -0.00277102902703638)
(-0.00345470191909523 0.0168241947038471 -0.00468751939473725)
(-0.00171697334013174 -0.00698259598206013 0.00576901109875061)
(-0.00318667885931519 -0.00369291513352405 0.0072056460583664)
(-0.00194464533579037 0.00203465015248826 0.00496971980771926)
(-0.000856165032295377 -0.00104934858877615 -0.00487429981532925)
(-0.00226213746628626 -0.00127507500083263 -0.00636184331963444)
(0.000398994126777119 -0.00130903500284245 -0.00278893391940727)
(-0.00434764606632317 0.00250823555477555 -0.00355510500535751)
(-0.00626481323831788 0.00175096742156688 0.00666017645778887)
(-0.000637115478751943 -0.00712178059584757 0.00327211317990048)
(-5.46122499652431e-05 -0.00694636944959927 0.00183145768419915)
(-0.00223098562241318 -0.00559703761752179 0.00449731162245074)
(0.000165383248368708 -0.00575430156840255 0.00119450110681589)
(-0.000189436883539413 -0.00534642957593939 0.00165135803546057)
(-0.00259695977700359 -0.00343376806214949 0.00278749134469442)
(0.000146840883754298 -0.00431192570047606 0.00127807112048433)
(0.000252711403270263 -0.00428455064121263 0.000862245628218649)
(-0.000570214526370354 -0.00349968470837277 9.89745631420368e-05)
(-0.00134718542589131 -0.000169801532041044 -0.00160406957540753)
(9.88083680613956e-05 -0.00308952054946895 0.00148638729940542)
(0.000260717623215051 -0.00309214449633612 0.00111052693495357)
(0.000197067203787402 -0.00310415305292669 0.000305203620112116)
(-0.000304717656804867 -0.00272336893278617 -0.00134872463438548)
(-0.000334302677716141 -0.000983636604628302 -0.00329907481475414)
(0.000180894492472287 -0.00210165448687609 0.00137241116747292)
(0.000278196749182732 -0.00213456030856121 0.00101323516639251)
(0.000211909089825074 -0.00224432292531219 0.000369429281195266)
(0.000191874274208061 -0.00211668692812026 -0.00057484180386308)
(-0.00268774813520031 0.0216517731448142 -0.00386099727076664)
(-0.000474358268845333 0.0329626329874286 -0.00345892399589477)
(0.000761554342531673 0.0139537678930135 0.0050101734109071)
(-0.00175939416391672 0.0148149428499708 0.00645159824368214)
(-0.00268473851002601 -0.00254756011009722 0.00674942050177982)
(-0.0032056508263006 0.00291540982777888 0.00888144027776618)
(-0.00137264974667281 0.0180740365287348 0.00456258275522178)
(-0.0072398189450991 0.00440631241403177 0.00762539060487951)
(-0.00160626286824518 -0.00713148125978288 0.00362714469752435)
(-0.00519133182001723 -0.00579627980086741 0.00689022008728879)
(-0.00681850904492606 -0.00314587903445662 0.00859895905493053)
(-0.00062920897298442 -0.000825928762670232 -0.00371389649350716)
(-0.00131513749886756 -0.000541334448571134 -0.00381934805585255)
(0.000132064501665193 -0.000915365368481897 -0.00195811765088636)
(-0.00271274392905896 6.48297203073916e-05 -0.00159544186820748)
(-0.0042399273182549 -0.00117392940153451 0.00304976361069343)
(0.000797811514348849 -0.0235400079380222 0.0130055416291849)
(-0.000651540507826169 -0.00730394347429837 0.00185682010939022)
(-0.000137571237662252 -0.00743184527768962 0.0016208883813557)
(-0.00353987713836274 -0.00638569166430442 0.00441709222442649)
(0.000144453006876536 -0.00612787212513495 0.00103211509006046)
(-0.000636458778127839 -0.00587653559880003 0.00220060294614207)
(-0.00432967847638975 -0.00441120424739598 0.00535223555739045)
(0.000164544851430542 -0.00478597195476251 0.0010411995349544)
(0.000260107662046306 -0.00479337800650192 0.00106108947955396)
(-0.000803728284929524 -0.00411811254681976 0.00157635803082025)
(-0.00173637818682918 -0.00123084297991985 0.00243321848103663)
(0.000114102419563993 -0.00359836543406384 0.00125674309102268)
(0.000314002482290024 -0.0036194775449738 0.00100658721778915)
(0.000191396794692155 -0.00350734898751225 0.00057410333122683)
(-0.00064181184610928 -0.00289612286105688 -0.000205430630355135)
(-0.000994018292343387 -0.00094987275474956 -0.00143678045210872)
(0.000227571019303358 -0.00263329596577789 0.00122467041009847)
(0.000339030376868129 -0.00263446059457119 0.000855051909457828)
(0.000173722615376577 -0.00267443222142975 0.000149880199641476)
(-6.30537012633061e-05 -0.00241308171032984 -0.000929835254340089)
(-0.00024628543457478 -0.000973786843662188 -0.00222813006242409)
(0.000257293250635439 -0.00183576871488783 0.00118063947881635)
(0.00029694909027017 -0.00184873485319215 0.000844173580663646)
(0.000220678695190359 -0.00194984274513067 0.000331943316816805)
(0.000226413053829213 -0.00170844141132493 -0.000384396350290241)
(-0.00715032123951458 0.00518182437919067 0.00381679597538329)
(-0.00247319876928786 0.0311345440011935 0.00284200618197672)
(-0.00238847227538799 0.00466507833551921 0.00882712518241845)
(-0.00253718061135966 -0.000982594035805818 0.00624915149029064)
(-0.00196883698511218 -0.00298810926785222 0.00448158609108031)
(-0.00370371118164351 -0.00765020709505487 0.00740948817343298)
(-0.00344490326696556 0.00144866946089988 0.00936063134037871)
(0.00186745950154113 -0.0349414864129993 0.0090426539804724)
(-0.000339643266678177 -0.00711823967201614 0.00110636245691785)
(-0.00407298399194497 -0.00723115446730363 0.00354132224434191)
(-0.00399299258441827 -0.0140144254431268 0.0084092705580536)
(-0.000279708345866783 -0.000818765008612272 -0.00331566612387097)
(-0.000659226311073812 -0.000686573280484771 -0.00297579218359309)
(-0.000142694401992943 -0.000856038988983517 -0.00167932340211005)
(-0.0013308116987656 -0.000238986936430752 -0.00126311790400451)
(-0.00166062023333409 -0.00110055722092657 0.00301306680293825)
(0.00378392862023871 -0.0127951751305006 0.00828472120684522)
(0.0111143882083133 -0.0294742695165911 0.0045908481357658)
(-0.000276251117613123 -0.00737414174829462 0.000553601951818205)
(-0.000140911491216417 -0.00769677445929934 0.00082317488014264)
(-0.00350424492769297 -0.00670911616006424 0.00214567485272748)
(0.000136233796353712 -0.0064969357286634 0.000782590808753475)
(-0.000945792207428629 -0.00655222087215218 0.00209858277285601)
(-0.00417264208144403 -0.00673025436196746 0.00553093491386419)
(0.000173347680184844 -0.0051281940461002 0.00078738291825484)
(0.000199767356729592 -0.00525066531646199 0.00110991682211253)
(-0.00122493309726739 -0.00494615177699365 0.00250268494851905)
(-0.00248989238300672 -0.00258017730613605 0.00473529110787805)
(0.000128465006196165 -0.00401167195279919 0.00101561434583369)
(0.000361137274876638 -0.00407330840299148 0.000908172903433692)
(0.000198279737426426 -0.00398786115677579 0.000935237111530379)
(-0.000817496980277048 -0.00350697838726917 0.00126190556667982)
(-0.00114155381453041 -0.0015730341493208 0.00106664061570759)
(8.50417717917006e-05 -0.00305136948249791 0.00124961948122288)
(0.000268783165608655 -0.0030926667618793 0.00106453960832352)
(0.000400959625053459 -0.00307348478080539 0.000808458783797551)
(0.000134654240831065 -0.00302595363529814 0.000386725607600779)
(-0.000375646885476153 -0.00263980254095018 -0.000263252972999096)
(-0.000783734588370334 -0.00109503775681112 -0.0013353891722601)
(0.000325644914961874 -0.00230367868817072 0.00105430452318504)
(0.000358531144654889 -0.00228777575921814 0.000698383678181647)
(0.000201738220655885 -0.00236387043217223 0.000140007603270128)
(0.000133761107815395 -0.0020438558117945 -0.000613421066681211)
(-0.000170817778603061 -0.000958216635399541 -0.00176714484899789)
(0.00029723089134222 -0.00162241773495438 0.00104141417211906)
(0.000292798926919722 -0.00163843587586262 0.00071738552912714)
(0.000259533540650805 -0.00168846536505967 0.00028376889978147)
(0.000198517393956175 -0.00143687487401656 -0.000385171857713778)
(0.000185895106218129 -0.0264201654669415 0.00119406997914077)
(-0.00158078407823671 0.00327441966907622 0.00893690622755998)
(-0.00150083491942194 -0.0174347423310623 0.00675827781192123)
(-0.00155100812140314 -0.00105655809035941 0.00401752240920611)
(9.66527589244036e-05 -0.00406546538877965 0.000945391407159468)
(-0.00116975673789726 -0.0129083534792173 0.00327639061775028)
(0.00465149341128817 -0.0263185627761053 0.00669490746768352)
(0.00461811287001825 -0.0325750237811522 0.00119203755620494)
(0.000154734508149908 -0.00495197184744372 0.00292886884329127)
(-0.00506244593681927 -0.00347395629820993 8.66120086096323e-05)
(5.05833653139795e-05 -0.0149838796384072 0.00439342221072685)
(-1.1517627328113e-05 -0.00081050345010011 -0.00327943083914944)
(-0.000220384761013532 -0.00079111141132526 -0.00291879987879822)
(-0.000231424787290314 -0.000909220477859475 -0.00165875567992602)
(-0.000616628598598552 -0.000561588134373991 -0.00194170914987995)
(-0.000976069890365165 -0.000752718103743699 0.000536423872128642)
(0.00199781780866786 -0.00364023572062437 0.00492526575171351)
(0.00717737306570001 -0.0157551740915824 0.0015802788584745)
(0.0184128923528402 -0.0320407455234103 0.00391675850234233)
(-8.53408171319721e-05 -0.00653563982609106 0.00103122702822002)
(-1.6071337942514e-05 -0.00763371923947555 0.000105772825671607)
(-0.00300585627473399 -0.00624803668985688 0.000364448946660769)
(0.000141094700000099 -0.00674393397298177 0.000322125022610256)
(-0.000891885607911996 -0.00690993162069291 0.00106445425155389)
(-0.00342194474583357 -0.00638598352933908 0.0023399844313982)
(0.000181083695356741 -0.00539599662054781 0.00052083084885794)
(0.000176856334629089 -0.00572132840848486 0.000948729954133552)
(-0.00133783756252183 -0.00597542841628511 0.00242184142376914)
(-0.000782711831104673 -0.00327708278439233 0.00337989176931689)
(0.000138774647839431 -0.00431588899683449 0.00076788160301277)
(0.000385126917487706 -0.00443629315224922 0.000768099154439806)
(0.000157118853464944 -0.00452645521583699 0.00112491102148449)
(-0.000933836016641609 -0.00448275423712242 0.00214452496443397)
(-0.000688781504788677 -0.00291536355857276 0.00230353017427524)
(9.51276667068111e-05 -0.00340764895947313 0.00103436891267344)
(0.000307953732716412 -0.00348033674367122 0.000897441205779249)
(0.000462632675315309 -0.00348375728936586 0.000793486629513435)
(0.000145229664475506 -0.00347196324161354 0.000770616805358782)
(-0.000418207562103457 -0.00312607206206679 0.000757664442095918)
(-0.000667142920081566 -0.0014731882512966 -1.52512053030445e-05)
(6.23781800045519e-05 -0.00262821117906311 0.0012557348394034)
(0.00021129231379486 -0.00268003834484069 0.00110716958030238)
(0.000383521988251965 -0.00270479287416172 0.000925943284936087)
(0.000414424841516738 -0.00266430902337993 0.000663972261639368)
(0.000172546744073608 -0.00271035012472705 0.000279476578241403)
(-1.40459418558308e-05 -0.00232842169016615 -0.000298080751670021)
(-0.000321387045041097 -0.00107999149146792 -0.00137736531442986)
(0.000378276095386181 -0.0020366391405748 0.000926980350261832)
(0.000362159702576316 -0.00203514875610499 0.000588556928425328)
(0.000304739514527918 -0.00206842707364548 0.000137992872715447)
(0.000261534070095969 -0.00171829755609818 -0.00052208580809937)
(-0.000159316397636447 -0.000969992370980301 -0.00168721922584221)
(0.000311821394599333 -0.00145364481555652 0.000912959354123232)
(0.000310273630318547 -0.00146985961872185 0.000602192014808202)
(0.000303447364575542 -0.00146423781903624 0.00019215130490896)
(0.000185641463298716 -0.00125049548233561 -0.000480767023941627)
(0.00121436318912723 -0.0258776235651552 -0.000202730508649148)
(0.00213962149982206 -0.0232411466524208 0.00218665494103318)
(0.00188636895058315 -0.019978369054637 0.00192694829089716)
(0.000189116206414467 -0.0040088193927417 0.000435036358934714)
(0.00212181216270871 0.00169634831832026 0.00445849068346908)
(-0.00450756020926482 0.00118299781864158 -0.00104438384442189)
(0.0097864984951488 -0.0256538145292886 0.00510882161181058)
(0.00676912993363022 -0.0272012170312235 0.00358883170471262)
(-0.00132058348460238 -0.0012214495989622 0.00825947750970692)
(-0.00467708264852057 -0.000803543057618202 0.00431849397259411)
(-0.00634588225171174 -0.00843852316822438 -0.000474592281623108)
(0.00011583573315354 -0.000773187457117783 -0.00330877755202351)
(-1.08547062300335e-05 -0.000809835671933828 -0.00302427601593829)
(-0.000205442956770913 -0.000943878160773773 -0.00170548209449792)
(-0.000299159390356532 -0.00069941622092154 -0.00255766635538173)
(-0.000543693206057601 -0.000597112744338512 -0.00136327442378965)
(0.000570288003651866 -0.00167567085006312 0.000822370644291839)
(0.00131413019413309 -0.00387209167218393 0.000670387864497325)
(0.00587184924355503 -0.0121626626332516 0.00452951440494104)
(0.00223312515355235 -0.0186966203172734 0.00146148283153002)
(-0.0002362736847262 -0.00600067541290263 0.00369889391351851)
(7.61193220455211e-05 -0.00740153437213552 0.000120130523450879)
(-0.00252984908762428 -0.00524861836876554 0.00191344936367381)
(0.000175178136754467 -0.00672701966928808 -0.000119691130745211)
(-0.000623437381900405 -0.00672225159012696 0.000208940342743997)
(-0.00411372358434317 -0.0069846252003983 -0.000342660803941726)
(0.000188859716642498 -0.00556191025661773 0.000201156115303737)
(0.000225670387931571 -0.00600967806403247 0.00047314224046179)
(-0.00115568796944283 -0.00632200792375235 0.00111549331301797)
(-0.000168703661003876 -0.000410848145482352 0.0019392958183416)
(0.000146358774793993 -0.00453068580048354 0.000519084428557354)
(0.000411066850772445 -0.00473735636693252 0.000569199768513618)
(0.000176806387172978 -0.00508440605380711 0.00100798091134237)
(-0.000456762369518467 -0.00533983737885743 0.00198975518038608)
(0.000258407270940954 -0.00357995531445705 0.00169162760776332)
(0.000103142692478746 -0.00367774560078194 0.000813394500903148)
(0.000337960777620748 -0.00378347795443144 0.000717134839022736)
(0.00050465755718369 -0.00384892129149482 0.000729041882376519)
(0.000180255728399708 -0.00400359006551046 0.000986704801859039)
(-0.000240624856765058 -0.00388626175452256 0.0013179757113177)
(2.31463507865157e-05 -0.00216257762299468 0.000700687907988365)
(6.99593218868073e-05 -0.00294054482757349 0.00106852209718247)
(0.000238549204268154 -0.00301132109229205 0.000933861109075245)
(0.000439620823934605 -0.00305313562350849 0.000802516904362412)
(0.000480884673181298 -0.0030289237341816 0.000680280854995092)
(0.000211905250890999 -0.00310612613788827 0.000554997615782804)
(5.94771343926485e-05 -0.00270885502570039 0.000265367275168039)
(-0.000140559011886842 -0.00126905596770237 -0.000707124481470844)
(4.59419727025594e-05 -0.00229591062472576 0.00127194226397651)
(0.000159529571672728 -0.00234665783577469 0.00114087353622537)
(0.00031929525137527 -0.00240174209496759 0.00100565121962587)
(0.00044300337322195 -0.00238810567135658 0.000815091072611946)
(0.000420453083325575 -0.00237592899552588 0.000546517128182185)
(0.000336445892816048 -0.00239709086116136 0.000191985981944663)
(0.000294039489306275 -0.00196449586961918 -0.00038202939126982)
(-0.000145744733505766 -0.00102583646140219 -0.001497909736101)
(0.00040153793850372 -0.00182266819753627 0.000810567975225518)
(0.000397583153457616 -0.0018235570316741 0.000491639315951511)
(0.000398946575841175 -0.00178566940718451 7.95534674657934e-05)
(0.00029471934433716 -0.00146003010237024 -0.000576295253178248)
(-0.000151777221570409 -0.000971384950490087 -0.00172386515621106)
(0.000325554692437552 -0.00131926883124485 0.000790718560785551)
(0.000340839780495306 -0.00131977091524023 0.000484171238935893)
(0.000337505512812852 -0.00127738559590624 7.58916353225945e-05)
(0.000192213973066529 -0.00111105993640374 -0.00059449198123862)
(0.00252338341975005 -0.0227123433163475 0.00140642046866869)
(0.00471129454718115 -0.0226383973065012 0.00209681390834414)
(-0.00351135939293418 0.00358440219875612 -0.00335303733896746)
(0.00353895884002391 0.0039650710407436 0.00397939746683265)
(-0.00178039051636683 0.00586027204835497 0.00991841142053721)
(-0.00379994189919501 0.00722300842351335 0.00612639330897441)
(-0.00164243732439152 -0.0167315588628012 -0.0022409463732809)
(-0.000379423393436845 -0.0134156283249123 -0.0116194542816598)
(-0.00208963398434334 -0.00427359045540375 0.013932350519103)
(-0.00579330942200823 -0.000290419101289166 0.0105506795229549)
(-0.00633042406669893 -0.00373886882929369 0.00371296110373042)
(0.000165113719417091 -0.000689611023577387 -0.00332671127803783)
(5.93203945649053e-05 -0.000762574683334803 -0.00308702298723183)
(-0.000139051537205487 -0.000930919596169028 -0.00173703713683112)
(-0.000203637901810902 -0.000722972405759275 -0.00286869136656221)
(-0.000485898746946232 -0.000541651956344652 -0.00223996961251562)
(3.48001637238537e-05 -0.000744519916026929 -0.00101005363732855)
(0.00073961388249652 -0.00190767240846491 -0.000250062242496112)
(-0.000874606548795818 -0.002605236659538 0.00252515087321278)
(0.00221252539144818 -0.0119657803400676 0.00136984627370968)
(-0.0029751534739471 0.0105970422846035 0.00403498301351637)
(-0.000464648637729655 -0.00803841288697037 0.00527929724924164)
(0.000171163635407609 -0.00698259531549973 0.000875304823337937)
(-0.00208760926945791 -0.00467993968135105 0.00529434929257748)
(0.000199050901884993 -0.00661307497270457 -0.000344858418197338)
(-0.000347545787797078 -0.00642182402439473 0.000509450283486882)
(-0.00255794355509994 -0.00605900216439473 0.00203944706966098)
(0.000197479308760864 -0.00555699428626822 -0.000117742431355182)
(0.000317473420860697 -0.00595211832890082 3.30219385324463e-05)
(-0.000982352099273701 -0.00609345746374617 7.12648557129694e-05)
(-0.000579743029353677 -0.00555554487059905 -0.001086733629759)
(0.000150902077666146 -0.00464991269076188 0.000259631085872372)
(0.000441190111112206 -0.00491918819132206 0.000279917157459792)
(0.000254890237930327 -0.00536229923272678 0.000512693127933526)
(-4.0603219448269e-05 -0.00549759039926829 0.000880787662148062)
(-0.000241761552224919 -0.00249840312529409 0.000949860804901495)
(0.000108741126577831 -0.00386580330722306 0.000590833700918033)
(0.000362103022307333 -0.00400701458798025 0.000518054132378875)
(0.000551367378638395 -0.00415901864314744 0.000575579581438875)
(0.000317372416307342 -0.00447972018129652 0.000892110656231924)
(0.000168739373923459 -0.00453293844521451 0.00117321839362181)
(0.000641209629040624 -0.00250724651507996 0.000642489988596717)
(7.59726033288131e-05 -0.00318249710035049 0.000873274154155378)
(0.000261688400899113 -0.00327259126730273 0.000754494652029918)
(0.00048669486913197 -0.00334061436698805 0.000667132256746696)
(0.000544303347179211 -0.00336785452034237 0.000650565790707665)
(0.000316313108384196 -0.00355562987100992 0.000704195955495733)
(0.000338089464406883 -0.00320537289569884 0.00059883745019159)
(0.000374602776726424 -0.0015308230708679 -0.000199292733276393)
(5.17141051137324e-05 -0.00257358593369249 0.00110672853630646)
(0.000180286108195337 -0.00263854133013379 0.000981122389385759)
(0.000360462327707128 -0.00270245885099776 0.000856847834884684)
(0.000506732633571571 -0.00269614413769656 0.000716266495685012)
(0.000493731215222464 -0.00270015744989131 0.000554580892955734)
(0.00041949992178058 -0.00273549362673781 0.000343957883896705)
(0.000437108862680438 -0.00222452132162731 -8.6589467287795e-05)
(1.12968792443401e-05 -0.00108164798711211 -0.00108719666148323)
(3.40713509025392e-05 -0.00202785632480861 0.00129250876671728)
(0.000119792404498548 -0.00207731751531584 0.00117548075846978)
(0.000248880303743276 -0.00213976006626607 0.00105973011303621)
(0.000393414263743318 -0.0021647021650113 0.000918959243547264)
(0.000469997591440505 -0.00213606696169951 0.000708905112233843)
(0.000473799456576822 -0.00213047001915369 0.000439090879224427)
(0.000490595104362602 -0.00206760240541442 8.43696038671886e-05)
(0.000398760790634004 -0.00164111090810922 -0.000514896209470192)
(-0.000132772432147929 -0.000982494176278284 -0.00159884077325365)
(0.000423574504119833 -0.00164754834248219 0.000699750584126405)
(0.000443468018753015 -0.00162560700670799 0.00038854603095765)
(0.000450227494056954 -0.00153542507120488 -1.69748114970567e-05)
(0.000289009907196379 -0.00126502974059866 -0.000672400782278407)
(-0.000132258934789964 -0.000951189876196694 -0.0017492822500423)
(0.000342145512232087 -0.00120288557973875 0.000673002340093991)
(0.00036858479891158 -0.00118370800728018 0.000366375300831321)
(0.000358836252117666 -0.00112353535979507 -4.00832758184857e-05)
(0.000203586567255679 -0.000997924555424189 -0.000688963924582443)
(-0.000402440413501043 -0.0298657617294762 -0.0150144319675193)
(0.000740126859353411 -0.0220192670118961 -0.00572593615359324)
(-0.000174828823327678 0.009137549263124 0.00588912631014428)
(-0.000938630420089208 0.00841147827673042 0.0082047729964302)
(-0.00300098649407761 0.00346690490839974 0.0108613016371986)
(-0.00782562593648498 0.00578896665306215 0.0138170052955054)
(0.00163190900507023 0.00411521358477407 0.00669431374426287)
(-0.00666633691996128 0.00414535948519673 0.00252858120653094)
(-0.000145673378139967 -0.0206311468905008 0.0047502877140069)
(-0.002690395038414 -0.0107141113999955 0.014369928371543)
(-0.0079750844029097 -0.00817185638709344 0.00993514039286556)
(0.000187613893588459 -0.000607773389445334 -0.00336074719645817)
(7.62480169556959e-05 -0.000689055853333112 -0.00309570049639882)
(-6.24039256818186e-05 -0.000874983490065776 -0.00174426224414706)
(-0.000200220687406509 -0.000696602173152613 -0.00295657941456557)
(-0.000486432135275123 -0.000590734706791057 -0.00253204317752388)
(-0.000353468463567769 -0.000515542029526828 -0.00166243811607054)
(0.000341935599546527 -0.000854749430426686 -0.000626517953779933)
(0.00104059290912849 -0.00244155587489266 0.00121037261339773)
(0.00192109481449357 -0.00308057180794491 0.00152629882055893)
(0.000352243322037875 0.00175288424024875 0.0020594297727716)
(-0.00130534982328063 -0.0247005258766995 0.00857014560694672)