/*--------------------------------*- C++ -*----------------------------------*\
  =========                 |
  \\      /  F ield         | OpenFOAM: The Open Source CFD Toolbox
   \\    /   O peration     | Website:  https://openfoam.org
    \\  /    A nd           | Version:  12
     \\/     M anipulation  |
\*---------------------------------------------------------------------------*/
/*   Windows 32 and 64 bit porting by blueCAPE: http://www.bluecape.com.pt   *\
|  Based on Windows porting (2.0.x v4) by Symscape: http://www.symscape.com   |
\*---------------------------------------------------------------------------*/
FoamFile
{
    format      ascii;
    class       volScalarField;
    location    "600";
    object      k;
}
// * * * * * * * * * * * * * * * * * * * * * * * * * * * * * * * * * * * * * //

dimensions      [0 2 -2 0 0 0 0];

internalField   nonuniform List<scalar> 
10228
(
6.24612147550406e-10
6.41046044579987e-10
9.6857245346533e-09
9.59468242301662e-09
1.00468528196033e-08
6.82028013579233e-10
1.02328196231285e-08
4.57367864399428e-08
2.4589711149177e-07
4.90577522834173e-08
2.51588560611454e-07
1.03562112677506e-08
4.98136603160686e-08
6.40576466135178e-10
1.05249763761156e-08
4.63472244922927e-08
1.03795577924542e-07
1.19535881379016e-06
1.28062697386735e-06
1.32497550923141e-07
1.29098617922258e-06
1.19699743931085e-06
2.54623769987183e-07
1.01715084019976e-08
5.08231925048003e-08
1.38804625686601e-07
6.23748826038272e-10
1.03597782015967e-08
4.67332371252111e-08
1.07504295141743e-07
1.9069922486659e-07
2.78999845989467e-06
5.47142736342348e-06
3.33036878083617e-06
2.76574313830066e-07
5.44741837053075e-06
1.29524032565018e-06
3.35363707875043e-06
1.19182439521404e-06
2.77129835795609e-06
2.49239985860925e-07
9.3990326678664e-09
4.98448917532441e-08
1.43009870191304e-07
2.8099218699073e-07
4.8816583068406e-10
9.58137975041767e-09
4.5602767467712e-08
1.08173630639246e-07
1.88477458264116e-07
2.83078702785593e-07
4.74910510838159e-06
1.05616826581208e-05
1.11198793729616e-05
6.03869448868324e-06
4.505751373411e-07
5.37970351230394e-06
1.0485204931155e-05
1.10821734603084e-05
3.36356048174987e-06
1.2566308523411e-06
6.04460793895233e-06
1.15164199574988e-06
2.73436992036041e-06
4.65658441795434e-06
2.27258197473613e-07
7.71913018127964e-09
4.51790631925487e-08
1.40286187067014e-07
2.88164643890345e-07
4.65473918207156e-07
3.49540687798533e-10
7.81826458374662e-09
4.15741471174518e-08
1.04312904161583e-07
1.85743592376604e-07
2.82773322746546e-07
4.03654433961169e-07
6.79458777249609e-06
1.54234597601658e-05
1.85621041619714e-05
1.68269491720139e-05
8.98419618035466e-06
6.77776013823326e-07
1.03105952930575e-05
1.09502333733913e-05
5.17921602608213e-06
1.84874046032729e-05
1.53055290400324e-05
1.67849333721346e-05
6.05861196212444e-06
3.26777457628648e-06
1.137026751079e-06
9.00809088565511e-06
1.04508136852031e-06
2.6225709993256e-06
4.5586083498089e-06
6.68314998815776e-06
1.85572148197538e-07
5.73007326718285e-09
3.70451508553023e-08
1.2735598542835e-07
2.83880770891577e-07
4.80804188502588e-07
6.90080402329562e-07
8.47653539733646e-11
4.91071940786138e-09
3.41385041310075e-08
9.43423858646576e-08
1.76505439196582e-07
2.78345259876387e-07
3.95281326342535e-07
5.29774779104434e-07
8.88841518386792e-06
1.99730320747909e-05
2.5253130377501e-05
2.6026079538975e-05
2.23284554810293e-05
1.19803335919888e-05
9.23948241841412e-07
1.50294019481934e-05
9.92152843601869e-06
1.82197743102917e-05
1.66107377048746e-05
1.05919508759282e-05
4.74167913637372e-06
2.51333495872607e-05
2.59459543186773e-05
1.9817211240296e-05
2.22832369337346e-05
9.03870591340799e-06
5.91780964019268e-06
2.98539618414753e-06
9.24814126573936e-07
1.20188498033992e-05
8.55353471926786e-07
2.37909894669814e-06
4.35126480025067e-06
6.53469882676031e-06
8.75332794591187e-06
1.21364350637102e-07
1.42272643759912e-09
2.84916543003682e-08
1.05497986730642e-07
2.61031780497325e-07
4.76845569115256e-07
7.12773466302634e-07
9.47244226131262e-07
8.20776392395309e-12
1.22415534652309e-09
2.10423935982027e-08
7.7161453094289e-08
1.58047060701025e-07
2.63188951057642e-07
3.86664758414794e-07
5.21936198576675e-07
6.71852680494324e-07
1.0966450706783e-05
2.42767477696607e-05
3.1465280685344e-05
3.41461951781998e-05
3.31442175664306e-05
2.76261337166748e-05
1.49111636104029e-05
1.19682006381082e-06
2.47458093463045e-05
1.94467085675795e-05
1.44638993373417e-05
1.76300076419737e-05
9.1808657536081e-06
2.56211848865953e-05
2.20841744584319e-05
1.61531679999821e-05
9.85729168267392e-06
3.97744680638992e-06
3.40235953927893e-05
3.12958399458602e-05
3.30539387821094e-05
2.40857620738146e-05
2.75772118631685e-05
8.88028164482039e-06
1.20698790513451e-05
5.50522054945638e-06
2.48369835110752e-06
6.3612268041551e-07
1.4971474492927e-05
5.4879105587191e-07
1.96080793497023e-06
3.94532238047742e-06
6.23099932134921e-06
8.56414982237362e-06
1.0816942091788e-05
3.10519858012824e-08
1.25166778879652e-10
6.3095600919068e-09
8.28648095105668e-08
2.23769269631449e-07
4.45199148747721e-07
7.11639494143066e-07
9.82244704833659e-07
1.22821000828579e-06
8.77208738537732e-11
6.22658216202407e-09
4.87197904843335e-08
1.28236943881771e-07
2.34499455411575e-07
3.65058916126342e-07
5.11384565021831e-07
6.61295416325926e-07
8.19567538605439e-07
1.30409090099151e-05
2.83643565134593e-05
3.72905399357279e-05
4.16377438579925e-05
4.25230865738591e-05
3.99718198520869e-05
3.2716317148832e-05
1.77964178656461e-05
1.48076567379052e-06
3.35761093021632e-05
3.07944486387585e-05
2.39539312227297e-05
2.36335967051242e-05
1.87194339144021e-05
1.34546337498946e-05
2.49146816835205e-05
1.65654699889529e-05
7.93927627570614e-06
3.26904075121436e-05
2.73647112994636e-05
2.15805780470698e-05
1.52543600662777e-05
8.58706851043151e-06
2.73530667155615e-06
4.23886231455465e-05
4.14622765245176e-05
3.70769194550615e-05
3.98706847711489e-05
2.8147534935182e-05
3.26693660967358e-05
8.40594205523134e-06
1.1916116533103e-05
1.50516693501414e-05
4.7837920066173e-06
1.79625534531497e-06
1.78675326818131e-05
1.71332311710938e-07
1.27818060027191e-06
3.2616619242739e-06
5.66045884767134e-06
8.17270829926701e-06
1.05940943797709e-05
1.28711621625369e-05
1.63343618022321e-09
4.52392233270451e-10
2.63046509550681e-08
1.86344326987709e-07
3.93471467017448e-07
6.72876972658695e-07
9.85905675014701e-07
1.27688832678346e-06
1.52352067547583e-06
4.58502100076593e-10
1.4343279276088e-08
8.1231057497461e-08
1.8980720333052e-07
3.2472220934989e-07
4.83092678083936e-07
6.48365650803825e-07
8.08887474165725e-07
9.73008354716366e-07
1.50639041854201e-05
3.22559264094952e-05
4.27763814830951e-05
4.86491651412338e-05
5.11070900839818e-05
5.0530698508399e-05
4.65244162252248e-05
3.76079377188298e-05
2.05972820157478e-05
1.77446490133051e-06
4.08951019010054e-05
3.26636837066809e-05
4.18975532357256e-05
2.9817180682012e-05
3.64742752019839e-05
2.26093864411216e-05
2.76287867224262e-05
2.27633233171768e-05
1.74644040607219e-05
1.18165952679135e-05
3.19219626080816e-05
2.36882635336165e-05
1.48691097371987e-05
5.91155481974217e-06
3.94774612502843e-05
3.24523341308383e-05
2.68403883565429e-05
2.06386025886434e-05
1.37682552003287e-05
6.45483249476248e-06
1.1480483445213e-06
5.09156528115946e-05
5.0379349078468e-05
4.84238714014529e-05
4.25293500563966e-05
4.64169082930915e-05
3.20194421877551e-05
3.75663089680312e-05
1.14245227111138e-05
7.61468292167934e-06
1.49134506206323e-05
1.79753159178862e-05
3.78618788931484e-06
2.06925540808694e-05
9.15908181735522e-09
3.87626489152687e-07
2.14733400148053e-06
4.71274613366742e-06
7.44677217157378e-06
1.01277579238854e-05
1.26177444476815e-05
1.48909290715909e-05
7.13030484872321e-09
7.37377179905868e-10
1.29160328978059e-08
1.36225740312924e-07
3.30370985086773e-07
6.06991700684249e-07
9.40493208679365e-07
1.28798376362878e-06
1.58752175438603e-06
1.82758771122653e-06
9.13737591192021e-10
2.4071488176587e-08
1.1996660215925e-07
2.62971339860272e-07
4.30112453503932e-07
6.13245419502002e-07
7.9443028388205e-07
9.61669934273633e-07
1.12883118596056e-06
1.70241754897626e-05
3.59583771812393e-05
4.79581481236414e-05
5.52460908457867e-05
5.91221908679739e-05
6.0114687738442e-05
5.8215856862417e-05
5.28145276674228e-05
4.23062861308444e-05
2.33085517282788e-05
2.07324148390702e-06
4.7746716555772e-05
5.02993168055561e-05
3.97940582155265e-05
4.09181889636599e-05
3.11681373005929e-05
4.98475959841851e-05
2.82122941780787e-05
3.53314380941369e-05
4.18425460572356e-05
2.05625540311365e-05
3.14451925540692e-05
2.66353096525305e-05
2.12853666971194e-05
1.54598020294278e-05
9.09420171037379e-06
3.0642665395631e-05
3.8671085729283e-05
2.18437986292344e-05
1.2347480148398e-05
2.4514531398732e-06
4.60004307199706e-05
3.73483379228393e-05
3.19155075084552e-05
2.58891085816684e-05
1.92164278648023e-05
1.14588571841078e-05
4.20207684486159e-06
5.08806519560949e-08
5.88761252980638e-05
5.99004193373694e-05
5.80505901577526e-05
5.49826751626815e-05
4.76861803557207e-05
5.27050078153736e-05
3.57062058920428e-05
4.22714894020947e-05
1.44137990796192e-05
1.06232286148691e-05
6.59938179033501e-06
1.78504963637596e-05
2.08281121184228e-05
2.85219839445227e-06
2.34212104271164e-05
1.80695530918569e-08
6.50898333795355e-07
3.14063942227947e-06
6.24826813480311e-06
9.26148228625493e-06
1.20817935149077e-05
1.46120742055438e-05
1.68456202870299e-05
8.3296086342421e-09
9.75091817606206e-10
1.32418985958453e-08
9.06495396577796e-08
2.65308795952713e-07
5.29692262000675e-07
8.60151722356814e-07
1.23791288877646e-06
1.60679984269491e-06
1.90696142559183e-06
2.13715302534101e-06
1.57171500235186e-09
3.52472071471847e-08
1.67092236523318e-07
3.4829605997058e-07
5.46732958428364e-07
7.5241376121197e-07
9.45941831554013e-07
1.11701621763509e-06
1.2857878858599e-06
1.89080494436866e-05
3.94749572389261e-05
5.28618213589723e-05
6.14736598538001e-05
6.66638237117791e-05
6.90318036553255e-05
6.87495337056618e-05
6.56015675718885e-05
5.88549545131256e-05
4.68164519224369e-05
2.5926037512542e-05
2.37580868277412e-06
4.64746423197321e-05
5.81437105708066e-05
5.4213297749251e-05
5.92342536093694e-05
4.91283249270881e-05
3.80502064451256e-05
4.88173338081717e-05
3.93699407156098e-05
2.90264548298811e-05
5.74812394884993e-05
2.58115254836443e-05
3.34880375329181e-05
4.05554823432578e-05
4.69293133692107e-05
1.75117524402256e-05
3.50835407293404e-05
3.03429851772611e-05
2.49577190426463e-05
1.89496986654043e-05
1.21460743695505e-05
4.04779171998613e-06
2.88316336569699e-05
3.73722837606845e-05
4.51603948761808e-05
1.93980683783372e-05
8.27876759722571e-06
9.62011542801721e-08
5.22689829845606e-05
4.2052732048415e-05
3.67976954741364e-05
3.09478109413519e-05
2.45187172290457e-05
1.74083913589859e-05
9.0920873721297e-06
1.63127302736351e-06
6.94440770377015e-08
6.63760463801228e-05
6.87582173785409e-05
6.8514628267748e-05
6.54269626359584e-05
6.11823368445794e-05
5.25693978659492e-05
5.87450842589385e-05
3.92081394775236e-05
4.67870054079803e-05
1.35952442496342e-05
1.73345222196573e-05
9.62162511416813e-06
5.5340743978229e-06
2.07140415427946e-05
2.35805734482375e-05
1.94313634314803e-06
2.60519087341406e-05
3.0534809917522e-08
9.61549819508354e-07
4.24514157323262e-06
7.83241030508217e-06
1.10840226442733e-05
1.40120737905996e-05
1.65477309236824e-05
1.87222409015903e-05
1.39830969823183e-08
7.2983104497817e-10
1.02399877016401e-08
6.4390769190729e-08
2.87906071599076e-07
2.07607979024936e-07
4.51322119861132e-07
7.66314615571889e-07
1.14434000425624e-06
1.55227533191593e-06
1.93426504288823e-06
2.23197407557336e-06
2.45024959520591e-06
2.24139422641305e-09
4.88902554534474e-08
2.21531625598695e-07
4.43626911313227e-07
6.71754888427909e-07
8.97292518233129e-07
1.10001868390015e-06
1.27318971440484e-06
1.4419891857538e-06
2.07084386615908e-05
4.28057935167671e-05
5.7503240230582e-05
6.73652320108335e-05
7.37894483127132e-05
7.74156311586826e-05
7.85099274132726e-05
7.70526429436885e-05
7.2704884269954e-05
6.46557598006635e-05
5.11426023589234e-05
2.84486503522528e-05
2.67997414669646e-06
5.27913509141745e-05
4.45002354782658e-05
5.67991803931729e-05
6.5546617347437e-05
6.79690583540806e-05
6.03367243678296e-05
6.77992967015404e-05
5.80029140688187e-05
4.73379382105203e-05
3.56020527258166e-05
5.6399165916706e-05
4.72356642600481e-05
3.7261560064339e-05
2.62108371179154e-05
6.48231089748389e-05
2.22473198669887e-05
3.07584042175106e-05
3.84968091016608e-05
4.55153175143111e-05
5.17513539535743e-05
1.23988371805402e-05
3.85411494130389e-05
3.38829993578878e-05
2.84839630803241e-05
2.23194625242257e-05
1.51204133252081e-05
5.80995208529126e-06
1.68466321145401e-07
2.65926962198576e-05
3.56006918765995e-05
4.3828559146531e-05
5.13921053907372e-05
1.65101134980523e-05
3.59194966729713e-06
1.32731184274265e-07
5.82902126982454e-05
4.65650270044155e-05
4.14843349073724e-05
3.57986329098123e-05
2.95670989622633e-05
2.28284850505912e-05
1.5421573841253e-05
6.80177642149325e-06
1.26243336805036e-06
6.03497798197485e-08
7.70973838459184e-05
7.34716054978905e-05
7.82110709538879e-05
7.68017743308785e-05
7.25232715006202e-05
6.70517277099648e-05
5.71922689358366e-05
6.45450960107951e-05
4.25245493317504e-05
5.11164770888288e-05
1.2578616915346e-05
1.64744289429988e-05
2.01766156665277e-05
8.52733902881646e-06
4.50592060034229e-06
2.34726654945769e-05
2.62301463893153e-05
1.42400365381297e-06
2.85848235657651e-05
4.47734306827032e-08
1.32816987281522e-06
5.42053010727694e-06
9.43422291042292e-06
1.28903733912802e-05
1.58926316274119e-05
1.84044724892087e-05
2.05144597489498e-05
1.10550564899571e-08
5.5917092732666e-10
8.07620093475687e-09
4.824197827617e-08
2.42068937750233e-07
1.65615521851948e-07
3.77855206695529e-07
6.71610272704896e-07
1.03411551475528e-06
1.44477831828359e-06
1.87466673323572e-06
2.26684079203084e-06
2.56002690333545e-06
2.76471030533456e-06
3.17225995140493e-09
6.47770195818799e-08
2.8260873623208e-07
5.46243406939679e-07
8.02407894722869e-07
1.0446627364199e-06
1.2547714281193e-06
1.42843309066107e-06
1.59568114442298e-06
2.24186092870595e-05
4.59496747970797e-05
6.18897783964359e-05
7.29416078937269e-05
8.05378363194282e-05
8.5341251896184e-05
8.76714269941753e-05
8.76200417931296e-05
8.50486168141046e-05
7.95376814760762e-05
7.02234358831181e-05
5.52878983648056e-05
3.08750087713224e-05
2.9839586303853e-06
5.06069443422597e-05
5.87830026142886e-05
6.40506318175661e-05
4.17595962445601e-05
5.47858238405727e-05
6.65582310323098e-05
7.25627444051868e-05
7.62066998426704e-05
7.73646026742992e-05
6.614023513668e-05
7.60396178659458e-05
6.65018527425926e-05
5.61713262769698e-05
4.4948757206505e-05
3.23990957091156e-05
5.47644739871031e-05
6.3684081621116e-05
4.51416466297339e-05
3.46869175193138e-05
2.27933650676683e-05
7.18861343037293e-05
2.67283378869818e-05
1.62771362416062e-05
3.54654595165651e-05
4.32606671954833e-05
5.02224987705784e-05
5.63181776694602e-05
6.00265273711163e-06
4.1815469188471e-05
3.72498993721648e-05
3.18568308798804e-05
2.55670660015233e-05
1.80141154921884e-05
7.6912707736942e-06
2.50578798170264e-07
2.26182726750497e-07
3.34516962706184e-05
2.40948021549134e-05
4.20322300393694e-05
5.00073250347635e-05
5.73719972745711e-05
1.32711597939372e-05
2.94179744874626e-06
1.27096932717586e-07
6.40700137515167e-05
5.08881054418181e-05
4.59740587794841e-05
4.044272578905e-05
3.43698004172511e-05
2.7866637950631e-05
2.093338339482e-05
1.33787133862188e-05
5.55183807578228e-06
1.08542164151004e-06
4.66184062280815e-08
8.49912503941931e-05
8.73253090643173e-05
8.01965704423395e-05
8.73006262901978e-05
8.47844547538648e-05
7.93492602838884e-05
7.26084967945274e-05
6.15611139620134e-05
7.01107010143639e-05
4.56541984254551e-05
5.52632651018545e-05
1.14533475950155e-05
1.54006222507743e-05
1.92648714389925e-05
2.29084579411749e-05
7.4210578675785e-06
3.70259734956373e-06
2.61230631543438e-05
2.87776187994737e-05
1.18117911218325e-06
3.10194007908996e-05
6.30502824339686e-08
1.7460634659883e-06
6.63729973563091e-06
1.10312596700368e-05
1.46570866911775e-05
1.76957344050913e-05
2.01766926189978e-05
2.22159856550351e-05
8.6026602255405e-09
4.19630675073586e-10
6.10215374564908e-09
3.80184292200287e-08
1.94541294950885e-07
1.32797115263926e-07
3.14033585766393e-07
5.8003283029317e-07
9.20507503138165e-07
1.31639602616425e-06
1.75242381852939e-06
2.20124406139543e-06
2.60185193111677e-06
2.88893591946384e-06
3.07895844129758e-06
4.18763286614261e-09
8.32553011642384e-08
3.49444852774699e-07
6.53866043793041e-07
9.35539904571602e-07
1.19269594891472e-06
1.40850008550914e-06
1.58100510506697e-06
1.74499864450796e-06
2.40321130765652e-05
4.89042880577085e-05
6.60231858855313e-05
7.82125676685386e-05
8.69318868085618e-05
9.28551665898236e-05
9.63306170689046e-05
9.75177107318353e-05
9.63980927131073e-05
9.27520896412723e-05
8.61064773837898e-05
7.55614462473212e-05
5.92544357106753e-05
3.32036809831148e-05
3.2858177485843e-06
4.75936782376759e-05
6.18344844868749e-05
5.64063786419787e-05
6.44674186945555e-05
7.09342617099397e-05
7.46411440838766e-05
3.81931410781855e-05
5.21303974308925e-05
6.45014668248358e-05
7.58779540839314e-05
7.92196677336663e-05
8.40183280103264e-05
8.63722313081281e-05
8.63984389949336e-05
7.16370598513296e-05
8.39768036987059e-05
7.4668790371752e-05
6.46011135602616e-05
5.37919113887024e-05
4.20506345277831e-05
2.85066648191419e-05
6.19737460523184e-05
5.26221333653605e-05
7.06854586446514e-05
4.26283279290688e-05
3.17749958559206e-05
1.89357763364032e-05
7.86783218464481e-05
3.10099253068681e-05
1.99999909071966e-05
8.5581845335806e-06
3.99506488377141e-05
4.77867454978666e-05
5.46828140828412e-05
6.06342334011813e-05
4.95698721574968e-06
4.0438848718892e-05
4.4904883721431e-05
3.50683230669862e-05
2.86812477598517e-05
2.08241470412444e-05
9.61666357527648e-06
3.57883289462453e-07
3.25707235883524e-07
2.14664346515323e-07
3.98525102471036e-05
3.10310184664009e-05
2.14591599158033e-05
4.81418902621544e-05
5.59206364619341e-05
6.31061399284449e-05
1.10774849250324e-05
2.50130214103427e-06
1.05506614616642e-07
6.96133274111552e-05
5.50256557707295e-05
5.02700000857523e-05
4.48815721908121e-05
3.89456398521695e-05
3.26031868693345e-05
2.59364484514661e-05
1.89284541981799e-05
1.1588292637556e-05
4.871546745982e-06
8.8019273428921e-07
3.61679787251737e-08
9.24806646104649e-05
9.59514130685322e-05
9.71484917150176e-05
8.65701744737068e-05
9.60608297983882e-05
9.24751700698401e-05
8.59105043854212e-05
7.78610091697795e-05
6.56774859263196e-05
7.54453941470171e-05
4.85949146532296e-05
5.9229882207531e-05
1.42043312694275e-05
1.02720117318874e-05
1.81170223683789e-05
2.19388214601433e-05
2.55267606066791e-05
6.39725117768975e-06
3.07200777065075e-06
2.86669678071506e-05
3.12231844155956e-05
9.5611316393726e-07
3.33546717290103e-05
8.38750526965724e-08
2.21525326355776e-06
7.86301706450835e-06
1.25998508938917e-05
1.63544478887626e-05
1.94165576125335e-05
2.18584770045712e-05
2.38206846258795e-05
6.39449344257431e-09
2.92443724872404e-10
2.88304932132144e-08
4.34601847451709e-09
1.47500687983587e-07
1.04716773880126e-07
2.57432141017184e-07
4.92740385247698e-07
8.06337650544087e-07
1.18242198588736e-06
1.60477656155408e-06
2.0630740230629e-06
2.5295391112056e-06
2.93715402285849e-06
3.21721705589883e-06
3.3904775254777e-06
5.40435781675457e-09
1.03532563066113e-07
4.19950992822047e-07
7.64031062905287e-07
1.06938530435889e-06
1.3397652692949e-06
1.55946605760296e-06
1.7291513925771e-06
1.88822655219578e-06
2.55426688838641e-05
5.16664271383591e-05
6.99020634635101e-05
8.31803420366834e-05
9.29815109029159e-05
9.9982928027932e-05
0.000104544728361449
0.000106865391995748
0.000107003958700357
0.000104863950767235
0.000100169858477238
9.24137299856535e-05
8.06714712590655e-05
6.30433828300425e-05
3.5432087571562e-05
3.58345956037865e-06
4.36883353144262e-05
5.31382876133391e-05
5.89294264853705e-05
7.23820717563017e-05
6.85324829804232e-05
6.19122821271468e-05
6.98537507588127e-05
7.7471788416023e-05
8.2318591966853e-05
8.47247709868968e-05
3.38717907197262e-05
4.89255967937741e-05
6.18593023114255e-05
7.37416657177675e-05
8.48264384681088e-05
9.14377633562315e-05
8.55316208422649e-05
9.4912954959757e-05
9.61339697192109e-05
9.51039750878043e-05
7.68332881516156e-05
9.16219344845209e-05
8.25274092664966e-05
7.267296626439e-05
6.21548724784214e-05
5.09567994767439e-05
3.87645647369277e-05
2.40900638241253e-05
6.8885021968291e-05
5.97369472631493e-05
5.00511516107599e-05
7.7412337636161e-05
3.97879935560693e-05
2.86409454560939e-05
1.61039483319387e-05
8.5204517977229e-05
3.5102655186489e-05
2.35999713775978e-05
1.11925119631698e-05
7.10979324798624e-06
4.42169911304333e-05
5.20777831084844e-05
5.88987270888197e-05
6.47005314652661e-05
4.22886371122303e-06
4.34476984202671e-05
3.81117733928877e-05
4.78073056096027e-05
3.16513070474857e-05
2.35317479285494e-05
1.15508286847191e-05
4.75254425586548e-07
4.55397357916842e-07
3.18594776609627e-07
1.78764451966816e-07
4.58706527432866e-05
3.73676698233459e-05
2.84232744345891e-05
1.89734215024595e-05
5.39625236124349e-05
6.15794402119193e-05
6.86001322723463e-05
9.53808060156868e-06
2.02095688948869e-06
8.14846351418918e-08
7.49238737090668e-05
5.43767860588479e-05
5.89808611072617e-05
4.91204578458577e-05
4.3304187094239e-05
3.70858950265996e-05
3.05806744122349e-05
2.38459500193791e-05
1.69305572283308e-05
1.00566241646291e-05
4.08557705017597e-06
6.71091030945319e-07
2.67937603383213e-08
0.000104140230476281
9.95870872766967e-05
0.000106461842383011
0.000106614257067646
9.26006209649489e-05
0.000104509426643537
9.98797380053148e-05
9.2209366952562e-05
8.28111103922945e-05
6.95400824707197e-05
8.05511525734864e-05
5.13437148267222e-05
6.3017897109948e-05
1.68263541364796e-05
1.29253720500821e-05
9.08115008847622e-06
2.07098680445423e-05
2.44939444490803e-05
2.80348369974496e-05
5.44882958320319e-06
2.50725153511279e-06
3.1105521547526e-05
3.35666737163221e-05
7.3509491525266e-07
3.5588386173947e-05
1.08170074122731e-07
2.71624176271895e-06
9.07748917274387e-06
1.4116987380974e-05
1.79750707264236e-05
2.1049622368236e-05
2.34438616876631e-05
2.53227386867059e-05
4.49122850499733e-09
1.91285729527048e-10
7.97983753737807e-08
2.06889090206602e-08
2.88535632981897e-09
1.05273819209249e-07
2.05546682985732e-07
4.09602019791084e-07
6.92750417053183e-07
1.04526792231279e-06
1.44922134574272e-06
1.89515093483724e-06
2.37444915085419e-06
2.85755197111986e-06
3.27135496478404e-06
3.54224325465347e-06
3.69738983800901e-06
6.70845004006159e-09
1.2508691454887e-07
4.92578585212392e-07
8.74929319596936e-07
1.20248492122341e-06
1.48421628702211e-06
1.70596716235911e-06
1.87127678204197e-06
2.02380145250482e-06
2.69448764612653e-05
5.4232426530443e-05
7.35233984065269e-05
8.78429332177473e-05
9.86879251433204e-05
0.000106734411583555
0.000112343790590978
0.000115733172543598
0.000117009034083052
0.000116157384220472
0.000113026216805712
0.000107303415416679
9.84596514778657e-05
8.5554245052311e-05
6.66550604177869e-05
3.75574834773264e-05
3.86997939982857e-06
4.89146588220687e-05
5.54339780168419e-05
3.89717351830759e-05
5.84044153456061e-05
6.53926417384523e-05
6.94959786548105e-05
7.98755799856503e-05
8.2379883839051e-05
7.48973585967139e-05
6.71309395557705e-05
7.49459317300955e-05
8.36729767628296e-05
8.96176871998001e-05
9.31274511787419e-05
9.43929939294987e-05
2.89632901076031e-05
4.52926447728358e-05
5.87255556388219e-05
7.10213826691299e-05
8.25805512346107e-05
9.34405261499533e-05
0.000103029583636956
9.84808789529351e-05
9.15041759113304e-05
0.000105358300755542
0.000105538891844058
0.000103497832120642
8.17300116262637e-05
9.89801775890416e-05
9.00906320379082e-05
8.04211736576123e-05
7.01097736619264e-05
5.92415532174399e-05
4.77484739663033e-05
3.51927454570415e-05
2.07096409919789e-05
7.55135365616868e-05
6.65295341543019e-05
5.70453520664986e-05
4.71193796752639e-05
8.3870494989091e-05
3.66903956619296e-05
2.55568778778707e-05
1.39588868583957e-05
9.14672136065874e-05
3.90034290260841e-05
2.70736910462952e-05
1.38187802960577e-05
9.31936254081223e-06
6.09758302893634e-06
4.82644317769981e-05
5.61345496361406e-05
6.28705623460921e-05
6.85157839548253e-05
3.43031190015208e-06
4.62743373333785e-05
4.09840881605032e-05
3.44692751163502e-05
5.05199501664945e-05
2.61223336203089e-05
1.3455123611488e-05
6.08830624968729e-07
5.9924012209132e-07
4.48661873549585e-07
2.67744868631084e-07
1.38424256708699e-07
5.15706305223627e-05
4.32611051040869e-05
3.46406274971844e-05
2.57313805983235e-05
1.67183400436935e-05
5.95157087951045e-05
6.69923796071821e-05
7.38587265747091e-05
8.10149562667099e-06
1.54924513210427e-06
6.01436426975858e-08
8.00042233395261e-05
5.82987289517105e-05
5.3166080246638e-05
6.27559702580792e-05
4.74551833432152e-05
4.13368050513107e-05
3.49422370357696e-05
2.8356538748823e-05
2.16560490916472e-05
1.49769220305732e-05
8.60218103959107e-06
3.26123274958003e-06
4.82322461109744e-07
1.88556011489167e-08
0.00011191727716575
0.000115303657734371
0.000106318490967332
0.000116583643897721
0.000115747682524256
9.82886262914708e-05
0.000112654060973299
0.000106999501285766
9.82462872909924e-05
8.74568413911115e-05
7.31460409568711e-05
8.54290327685521e-05
5.38971541930492e-05
6.66278793748949e-05
1.5426851506276e-05
1.93180562305439e-05
1.15835344150356e-05
7.88785792371835e-06
2.31787644722386e-05
2.69357007952007e-05
3.04351081794237e-05
4.53688992204593e-06
1.96856656249225e-06
3.34394919463559e-05
3.58063513811791e-05
5.32774874178218e-07
3.77178955091508e-05
1.34501249064878e-07
3.23304505016649e-06
1.02638131672848e-05
1.5567188321376e-05
1.95141856184869e-05
2.25892227684949e-05
2.49274442454559e-05
2.67171292468003e-05
2.94466273182512e-09
1.14204792861045e-10
1.57900365196185e-07
5.76247187798997e-08
1.37875631368756e-08
1.71055595701036e-09
6.98658055673711e-08
3.30435198831848e-07
5.80632493006335e-07
9.05227148702139e-07
1.28815238542427e-06
1.71716644835672e-06
2.18522083510445e-06
2.68515213416511e-06
3.18402373374653e-06
3.6018007634535e-06
3.86211074090832e-06
3.99224450536596e-06
8.09205161599335e-09
1.4744371098408e-07
5.66166107826812e-07
9.85391449522413e-07
1.3333366229668e-06
1.62442789280346e-06
1.84651057312875e-06
2.00573352636878e-06
2.15019517838106e-06
2.82342171188888e-05
5.65986426701605e-05
7.68834605718675e-05
9.21963296695474e-05
0.000104047578724962
0.000113109461998754
0.000119738601963672
0.000124157334242958
0.000126497258946097
0.000126797244166014
0.000124990016003774
0.000120886270089524
0.000114151385234181
0.000104243529562417
9.0210070422498e-05
7.00890567165207e-05
3.95742922445676e-05
4.1447387784072e-06
5.3880293644496e-05
6.1620517355692e-05
4.38292281691417e-05
6.60804895449759e-05
5.14730296382939e-05
3.36151185555724e-05
7.15353801443404e-05
6.33965167182663e-05
7.67610435795628e-05
7.94088599623039e-05
8.7004140446196e-05
9.05947506317591e-05
9.1928198660867e-05
8.09359598101385e-05
7.2064811265269e-05
7.97442912059143e-05
8.95410276140855e-05
9.65492891185073e-05
0.000101121018331189
0.0001034736333673
0.000103697215503734
2.50845059173267e-05
4.13210272886127e-05
5.51773565114926e-05
6.77961920688703e-05
7.97261072659794e-05
9.10682807708545e-05
0.000101739486029918
0.000110741425131251
0.00011412535373299
0.000105152732134194
9.71371447962509e-05
0.000115415173481186
0.000114611187815369
0.000111587170137845
8.63252385610795e-05
0.000106052992797915
9.73648892326773e-05
8.78660966625129e-05
7.77161214802632e-05
6.70503298309215e-05
5.59205769731903e-05
4.42209171094258e-05
3.15915214804086e-05
1.80666631584738e-05
7.30272149280884e-05
8.18686061113926e-05
6.36883323281784e-05
5.39568326311567e-05
4.38779439178719e-05
9.00634653857267e-05
3.34226297431621e-05
2.26666793049118e-05
1.19568433799958e-05
9.74673668698644e-05
3.04032238437709e-05
4.27081491530141e-05
1.64376463966491e-05
1.15716194243894e-05
8.02803154278053e-06
4.98859178500884e-06
5.20922136712777e-05
5.99566975113168e-05
6.65969812304861e-05
7.20773263362808e-05
2.64639868940924e-06
4.89161667832584e-05
4.36830347712824e-05
3.71305789403059e-05
2.85856391313209e-05
5.3039638993022e-05
1.53047677906657e-05
7.48891438089284e-07
7.62681168778926e-07
5.98714274321379e-07
3.77597608581208e-07
2.08080031399984e-07
1.02026276787635e-07
4.88078361362158e-05
5.69880727612892e-05
4.03641775304175e-05
3.17314209820312e-05
2.30318137533993e-05
1.45462904604779e-05
6.48155919163721e-05
7.21664949307084e-05
7.88856208312431e-05
6.64983876465619e-06
1.12265157199208e-06
4.23559948551299e-08
8.48560559519515e-05
6.20391134216694e-05
5.70244737904705e-05
5.14085155532693e-05
6.63521206120528e-05
4.5371954040048e-05
3.9057508162648e-05
3.25607807935447e-05
2.59689616597169e-05
1.93970809005697e-05
1.30321662746e-05
7.13523388502747e-06
2.45789104723537e-06
3.21719813512561e-07
1.2413315020413e-08
0.000119291285146745
0.000123705283121526
0.000126045158274216
0.000112674171429744
0.00012635034260198
0.000124559898234512
0.000103630656065901
0.000120496006271458
0.000113833302591741
0.000104020832502146
9.17943263116023e-05
7.6491765235201e-05
9.00795956512538e-05
5.62517137402974e-05
7.00598054273442e-05
1.39293576706746e-05
1.77950354474544e-05
2.16818150950172e-05
1.01874203534396e-05
6.68503834104475e-06
2.5531878348675e-05
2.92683255920004e-05
3.27294445716931e-05
3.64287101502146e-06
1.4601149255599e-06
3.56679002267877e-05
3.79400922890636e-05
3.56913585798348e-07
3.97379755083437e-05
1.6235128336571e-07
3.75440038171871e-06
1.14105428065892e-05
1.69468829741549e-05
2.09663382732999e-05
2.40301833678517e-05
2.63045931544153e-05
2.7999187517753e-05
1.73035154041695e-09
5.38660853918844e-11
2.56082417908154e-07
1.14898222347392e-07
3.85277369751325e-08
8.14255363190828e-09
8.25557825400942e-10
4.12140041369594e-08
4.71294400893017e-07
7.6395164902209e-07
1.12151529001323e-06
1.5314204636074e-06
1.98418376092961e-06
2.47401760297496e-06
2.99395054083828e-06
3.50644243917235e-06
3.92679479787409e-06
4.16836950100157e-06
4.27400272523688e-06
9.51614506302307e-09
1.702997003216e-07
6.39649491428653e-07
1.09419335051579e-06
1.46047429636779e-06