/*--------------------------------*- C++ -*----------------------------------*\
  =========                 |
  \\      /  F ield         | OpenFOAM: The Open Source CFD Toolbox
   \\    /   O peration     | Website:  https://openfoam.org
    \\  /    A nd           | Version:  12
     \\/     M anipulation  |
\*---------------------------------------------------------------------------*/
/*   Windows 32 and 64 bit porting by blueCAPE: http://www.bluecape.com.pt   *\
|  Based on Windows porting (2.0.x v4) by Symscape: http://www.symscape.com   |
\*---------------------------------------------------------------------------*/
FoamFile
{
    format      ascii;
    class       volScalarField;
    location    "600";
    object      nut;
}
// * * * * * * * * * * * * * * * * * * * * * * * * * * * * * * * * * * * * * //

dimensions      [0 2 -1 0 0 0 0];

internalField   nonuniform List<scalar> 
10228
(
2.12935173631254e-10
2.16522560430959e-10
3.26833066677105e-09
3.87712484178196e-09
4.11338007849819e-09
2.31826061088867e-10
3.41892356608189e-09
1.54690901309035e-08
3.70604036509343e-07
2.00060080400244e-08
3.78847696302854e-07
4.30705254413934e-09
2.05383888262551e-08
2.11944213592749e-10
3.50793484868209e-09
1.52727455038216e-08
3.41009262675833e-08
2.3100432667989e-06
2.70749430969687e-06
5.28670220224426e-08
2.75089935811069e-06
2.29537563579142e-06
3.86061862363375e-07
4.27617450995953e-09
2.14879749113884e-08
5.73863082575807e-08
2.09740427374295e-10
3.45439257148845e-09
1.53484085218748e-08
3.4918440976894e-08
6.31790674978416e-08
5.43705814199893e-06
2.26655268370553e-05
7.40573223179255e-06
1.11814045001415e-07
2.26823875741639e-05
2.81692002048675e-06
7.61577489340083e-06
2.29480268438902e-06
5.394293271273e-06
3.80417208417139e-07
3.98649991232736e-09
2.15716530190203e-08
6.134104264346e-08
1.1683747962433e-07
1.59734681394412e-10
3.21015878136886e-09
1.50949683250782e-08
3.51990819703591e-08
6.10117325961278e-08
9.25963105891901e-08
9.2051142020033e-06
4.99905907767323e-05
5.64452874691309e-05
1.37217097963491e-05
1.80589647152891e-07
2.26809806160347e-05
4.98860416216807e-05
5.69075004380783e-05
7.87201545827298e-06
2.77819674150262e-06
1.40253939641966e-05
2.23824720820473e-06
5.36163913129781e-06
8.96999446025651e-06
3.48226573952887e-07
3.2478701734112e-09
1.96984041533429e-08
6.19267874865785e-08
1.24439067496316e-07
1.93455805561643e-07
1.13571076128889e-10
2.60908436238156e-09
1.38462965134678e-08
3.42778616493016e-08
6.00657845778425e-08
9.10875268768193e-08
1.32722581644483e-07
1.29077800712279e-05
7.26481096097976e-05
0.000121570680481115
8.89294359555479e-05
2.03842729857858e-05
2.73612712212193e-07
4.95983925776633e-05
5.7245155135489e-05
2.21015697443623e-05
0.000121883654360141
7.24944140766815e-05
8.99833347538895e-05
1.45290514323314e-05
7.82118615121236e-06
2.52099666976462e-06
2.09709113029501e-05
2.04397500214843e-06
5.20362191475206e-06
8.83792242552437e-06
1.26872498639795e-05
2.8262712814361e-07
2.4985465945981e-09
1.59740177376638e-08
5.67530046047107e-08
1.26379635569943e-07
2.07990142406198e-07
2.87542846069566e-07
2.48391711307725e-11
1.59561639026414e-09
1.13741740125673e-08
3.12082921504054e-08
5.76088530475013e-08
8.97047858030571e-08
1.274631315381e-07
1.73841143373427e-07
1.66287166441873e-05
9.12455189545918e-05
0.000174277847814464
0.000189330969673702
0.000116904897217041
2.69594371911749e-05
3.72943511360918e-07
7.19503782668621e-05
4.83250683754075e-05
0.000121427638789379
9.08656209550578e-05
5.623857126268e-05
2.03585875674996e-05
0.000174214488307599
0.0001899549841069
9.10797538693011e-05
0.000118454665179541
2.17834410055821e-05
1.45549036937792e-05
7.17708534069359e-06
2.01068799106366e-06
2.7814515042064e-05
1.6754249718593e-06
4.75716973668617e-06
8.53584428754273e-06
1.2498200604568e-05
1.63902175797812e-05
1.81026192357044e-07
6.05722975686617e-10
1.29670711073343e-08
4.65460120420448e-08
1.1754010334227e-07
2.1265782094134e-07
3.08748892312376e-07
3.95452389193965e-07
2.07207781557243e-12
3.61398205929e-10
6.811365950179e-09
2.54450626591852e-08
5.18397384638869e-08
8.55061656427122e-08
1.24568256030409e-07
1.6846802129969e-07
2.20879880831883e-07
2.02002702135136e-05
0.000107639524348449
0.000216164489784938
0.000276877558592154
0.00024720713583808
0.00014140306107821
3.30212138709176e-05
4.84379203372462e-07
0.000172869606049346
9.03077237128832e-05
7.00873950180249e-05
0.000118794020211836
4.51173123686259e-05
0.000189510804228731
0.000119901380562257
8.99301318942887e-05
5.26952275443378e-05
1.69129816990063e-05
0.000276687785419213
0.000215832497992729
0.000248119301714917
0.000107457392983351
0.000143357026808103
2.19797474466985e-05
2.89145138644753e-05
1.36492392096258e-05
5.84365236761093e-06
1.29719915806231e-06
3.4129560699795e-05
1.06050444457173e-06
3.91726715914161e-06
7.79410630472653e-06
1.2053724043961e-05
1.61737925965895e-05
1.99578863127187e-05
3.74815991308544e-08
5.05905314014563e-11
2.60582658462309e-09
3.85768422976234e-08
1.00454282830345e-07
2.00990308778105e-07
3.17725628752134e-07
4.26498740402677e-07
5.13987292522996e-07
2.20152777916066e-11
1.83984789020126e-09
1.55468245094391e-08
4.17457608539279e-08
7.64266479937737e-08
1.1847204486213e-07
1.65029534470932e-07
2.13868866165046e-07
2.69522845328065e-07
2.37482223935754e-05
0.000122387014964499
0.000251130807692515
0.000347806723789358
0.000367606581378753
0.000296395794986113
0.000162968108398083
3.88202951063739e-05
5.99823500289821e-07
0.000274525053633776
0.000213769601613372
0.000168644266884805
0.000106533933557692
8.7904261159813e-05
6.57272028232362e-05
0.000186157495484489
0.000112274386493858
3.87329913034844e-05
0.00024792969466758
0.000145321237181048
0.000119400346019382
8.56942236209981e-05
4.53126455968789e-05
1.06041040192257e-05
0.000367305492160214
0.000346958021026301
0.000250642035016564
0.000297606271261008
0.000122215861204283
0.000165293300902405
2.10399235889189e-05
2.93311707884094e-05
3.55336530348369e-05
1.17226907231729e-05
3.9836857313676e-06
4.01081643267562e-05
2.50752199398659e-07
2.45664852067418e-06
6.4141793265346e-06
1.10209113437425e-05
1.56099119066691e-05
1.97221888061798e-05
2.34689696425282e-05
6.74124458650749e-10
1.35332758982441e-10
1.09569222446905e-08
8.61847659953943e-08
1.7757952302058e-07
3.04085936356569e-07
4.4125719154035e-07
5.55862324891312e-07
6.38595641914266e-07
1.16494082888718e-10
4.17008243044737e-09
2.54712076980177e-08
6.12767611599116e-08
1.05606154423084e-07
1.56998812794107e-07
2.09688203221815e-07
2.61953366819505e-07
3.2009963243577e-07
2.71425931248465e-05
0.000135936058312869
0.000281343277918371
0.000406079862442946
0.000468561087152439
0.000445310060107554
0.000338764291581291
0.00018235374131578
4.42658164948684e-05
7.19218406812654e-07
0.000343342473706003
0.000268391608837813
0.000364715043581123
0.000208186626389197
0.000248065550535779
0.000159466020819798
0.000121200635186496
0.000103704935346713
8.25372274317798e-05
5.71625485100821e-05
0.000244633648125791
0.000177863696473925
9.94318683884384e-05
2.58229863735512e-05
0.000297825403493443
0.000167767570244953
0.000145338313485801
0.000115540858397123
7.68419779188074e-05
3.16185098918887e-05
2.30899240322731e-06
0.000467178843191584
0.000445030942563441
0.000404797230074906
0.000280782931778591
0.000340299127520848
0.000135770332144895
0.000184994515844928
2.84961394639262e-05
1.8999282961894e-05
3.61978820111414e-05
4.17764572462623e-05
9.04056323542798e-06
4.57571390765512e-05
3.91083582081958e-09
5.66727274656396e-07
4.04719805987438e-06
9.13062305393444e-06
1.4315404974104e-05
1.90760406868364e-05
2.32117771505129e-05
2.68691603248956e-05
2.14199760284413e-09
1.62033326327175e-10
5.50550682434173e-09
6.34266725545691e-08
1.47848230262553e-07
2.74145891370835e-07
4.26047931093239e-07
5.781201411831e-07
6.92479690044225e-07
7.66785417111027e-07
2.26480352189541e-10
6.89273163271037e-09
3.72726953956933e-08
8.46406635213633e-08
1.40006285189805e-07
1.99729139184635e-07
2.57391319263784e-07
3.11701258914943e-07
3.71356055014966e-07
3.03790713901285e-05
0.000148386825995697
0.000308087035672523
0.000455265657745457
0.000552201063108883
0.000574211186228505
0.00051199781034706
0.000375921200546107
0.000199928549886224
4.93879041940426e-05
8.40425430712939e-07
0.000400104514483976
0.000462408824061638
0.000334759561682292
0.000357793565003045
0.000255859669575929
0.000442421332991334
0.00019669306397248
0.000241420383944583
0.000277855787592382
0.000142050909063121
0.000134686010104562
0.000118062445573873
9.7497720624547e-05
7.21761265500495e-05
3.92925372354838e-05
0.000236354111082807
0.00029502198602623
0.000162397637227912
7.56401944350332e-05
5.21598040872101e-06
0.000341001362220272
0.000187916781775374
0.000168308585515936
0.000142084598633531
0.000107872390493631
6.13966414603519e-05
1.60268783916019e-05
1.68553273323152e-08
0.000550063095503173
0.000572516903438937
0.000511877147271274
0.00045372372340582
0.000307491601141082
0.000377770956998492
0.000148243804591222
0.000202855992925387
3.55018624027141e-05
2.65615673889407e-05
1.62451533072397e-05
4.26527939375561e-05
4.767681778415e-05
6.55111936886825e-06
5.10533913842156e-05
7.44076824521642e-09
9.43422896108324e-07
5.83563300335322e-06
1.19609712664921e-05
1.7567795366701e-05
2.24862480008855e-05
2.66032471391758e-05
3.01042188697183e-05
1.66090846305884e-09
3.14335092440654e-10
5.8228888802462e-09
4.20723959362572e-08
1.17313673593232e-07
2.38125974420342e-07
3.89507713600247e-07
5.62539383845945e-07
7.22903619508357e-07
8.32859257250916e-07
8.97072499165721e-07
3.9123123137238e-10
1.00004908395494e-08
5.17464483550424e-08
1.12149890703837e-07
1.78313609802651e-07
2.45516386141066e-07
3.06840307935304e-07
3.62201880022857e-07
4.22980803264781e-07
3.34349858685565e-05
0.000159842843224478
0.000332074981411198
0.000497800957087696
0.000622432403623881
0.000682820410486756
0.00066576525391224
0.000569950807825609
0.000408968999835988
0.000215968673177675
5.41997098668614e-05
9.63117315666464e-07
0.000389575500410305
0.000543623815443783
0.000448267566873251
0.00056718851224481
0.000452093858721878
0.000318403537691908
0.000435572591299661
0.000344392928281973
0.000233811604157822
0.0005095169667884
0.000175295594007021
0.000228026895379123
0.000270398454255264
0.000304306973277321
0.000109230339114727
0.000147115553294433
0.000131289797367425
0.000111177987573442
8.56284033959985e-05
5.07820316728571e-05
8.69886711744103e-06
0.00022186837879513
0.000287573910646111
0.000338815881396172
0.000137463802730453
3.50585442211632e-05
2.91200501463542e-08
0.000378940795362269
0.000206174240261713
0.000188900772770476
0.000165593784787259
0.000135606277249859
9.69300474900529e-05
4.47311596981779e-05
2.52387441628006e-06
1.49064678731969e-08
0.00061981594739834
0.000680103626600021
0.000664008974159909
0.000570052198659545
0.000496095982860232
0.000331461440344112
0.0004111023487154
0.000159718387333197
0.000219143307913872
3.36822495951528e-05
4.20431149074026e-05
2.39994798627356e-05
1.34107368435808e-05
4.87466009436825e-05
5.31994854226176e-05
4.28245176462847e-06
5.60196514478292e-05
1.26641394806098e-08
1.38186784255629e-06
7.81208131932171e-06
1.48250901220494e-05
2.078143181746e-05
2.58148851640378e-05
2.98414059149134e-05
3.31563457845712e-05
4.39285040878614e-09
2.47413334080924e-10
4.3340895500302e-09
2.93180215335502e-08
4.14109947612252e-07
9.16486663231568e-08
2.02213750471051e-07
3.45921390026889e-07
5.19927641661034e-07
7.07248947469333e-07
8.71531018595296e-07
9.75455176287762e-07
1.02869350614242e-06
5.51255493026574e-10
1.38517001887511e-08
6.86208360218018e-08
1.4308592242297e-07
2.19482116674455e-07
2.93162487231113e-07
3.57050288432256e-07
4.12915453405474e-07
4.74347498691656e-07
3.63137307761821e-05
0.000170372937528153
0.000353760770555212
0.000535247429139307
0.000682533096576951
0.000774512931174478
0.000797605437279469
0.00074551297414219
0.000620977600766457
0.000438667451072892
0.000230674459305407
5.87285702447235e-05
1.08641578644408e-06
0.000436237409075042
0.000370050114640193
0.000530538786544144
0.00061217607783911
0.000672638204550344
0.00049007824730204
0.000658594039345663
0.000556346366384726
0.000433821304465373
0.000290356402342838
0.000503134562823943
0.000422787051149807
0.000322588559509276
0.000197865024879693
0.00056804130969748
0.000135420679393944
0.000203363993555192
0.000255467779383976
0.00029619758795472
0.000328074364146914
5.27893410245959e-05
0.000158555515399509
0.000143508130166742
0.00012382047390953
9.80406870309744e-05
6.12777612083665e-05
1.23669684258538e-05
5.19746503637608e-08
0.000200860440889744
0.000275027836566941
0.00033225504411313
0.000377319183114703
0.000102559012489443
5.8631999937074e-06
2.62776565700544e-08
0.000412683017396356
0.00022280074224491
0.00020752648093686
0.000186556436268288
0.00015985195273557
0.000126749435578659
8.4129047061586e-05
2.79776613224784e-05
2.31954212402135e-06
1.91882568985333e-08
0.000771138654847495
0.000679600300813638
0.000794648149473541
0.00074384033521241
0.000621300369982749
0.000533423996282835
0.000353130450883416
0.000441041546592592
0.000170263190753808
0.000234061042788571
3.12869112670294e-05
4.02157298709592e-05
4.82042644542425e-05
2.122378442192e-05
1.07975032499185e-05
5.44389677675201e-05
5.83664927725413e-05
3.11717315689565e-06
6.06843922365274e-05
1.85048192119714e-08
1.90077389550866e-06
9.89993293964852e-06
1.76654940877472e-05
2.39312085947442e-05
2.90073997507214e-05
3.28948622516331e-05
3.60266149313235e-05
3.7180081594502e-09
1.92225182883868e-10
3.43010435253614e-09
2.11162017866334e-08
3.70940468151711e-07
7.37603281253762e-08
1.69404171588347e-07
3.0278432503386e-07
4.68450847079742e-07
6.58303956965195e-07
8.55606232236364e-07
1.0222192313387e-06
1.11917129541685e-06
1.16079475706225e-06
7.84178029709413e-10
1.83532267054081e-08
8.76678195400171e-08
1.7647631889366e-07
2.6249698203985e-07
3.41559003253019e-07
4.07406470124652e-07
4.63291533254771e-07
5.24892652139097e-07
3.90132410586952e-05
0.000180050520275588
0.000373444888180795
0.000568613183278249
0.000734848932418004
0.000852874875173079
0.000909983852055536
0.000898376636542404
0.000815614252394335
0.000666393620509278
0.000465555241317179
0.000244213361537187
6.29938403446643e-05
1.20963556019076e-06
0.000414155430838203
0.000476861405609745
0.000596934654512296
0.000337048629599772
0.000508116424182677
0.000658449613567447
0.000671075141033053
0.000762122793869412
0.000786791066014128
0.000526962568441902
0.000738577082151164
0.000647908171933301
0.000538217549931228
0.000405096956466618
0.00024510675711065
0.000491350254936317
0.000562193146336
0.000403145113136505
0.000290974185907419
0.000146677921653011
0.00061962552450941
0.000157852694412431
6.75164535335708e-05
0.00022811403984629
0.000279982315880918
0.000319420155265038
0.000349569359925772
9.98128086277813e-06
0.000169068599335836
0.000154765778398909
0.00013552598515608
0.000109554020868915
7.10781390904561e-05
1.62690258085978e-05
7.69580149564512e-08
4.54968450619758e-08
0.000257847552205381
0.000174361249431295
0.000321203952480762
0.000371436589780975
0.000411518343029964
6.39412119447928e-05
5.60219720373473e-06
3.89650657038282e-08
0.000442960507448292
0.000238004897109595
0.000224450708663336
0.000205435680258666
0.000181167915804871
0.0001520392711218
0.00011646150255082
7.09104593841101e-05
2.30935934846641e-05
2.1318494830649e-06
1.55714368244203e-08
0.000849060798318922
0.000906255804422219
0.000731679647346548
0.000895391461953844
0.000814066732141842
0.000666905381421717
0.000566690375935777
0.000372796388683939
0.000468128220345389
0.000179949182885557
0.000247780599589653
2.86284606868225e-05
3.7780626893097e-05
4.63375716847448e-05
5.39446744461111e-05
1.84761012938339e-05
8.90478953343476e-06
5.9750879881375e-05
6.32084672264598e-05
2.62378577218692e-06
6.50710823497244e-05
2.61673283944155e-08
2.4912143522797e-06
1.20394469200718e-05
2.04655473457079e-05
2.69667527825401e-05
3.20156713370938e-05
3.57633594095648e-05
3.87156363117448e-05
2.95424690322127e-09
1.44862144152453e-10
2.59722042261501e-09
1.66961745222265e-08
3.02950962040373e-07
5.94987564261745e-08
1.41342336057277e-07
2.6171597427544e-07
4.1644996149827e-07
5.98069287016926e-07
8.00005193953237e-07
1.00561975876278e-06
1.17375450709917e-06
1.2631219539955e-06
1.29276341366998e-06
1.03367438299938e-09
2.36226030172721e-08
1.08564131736143e-07
2.11496893873202e-07
3.06272203339526e-07
3.9010070726896e-07
4.57379379343393e-07
5.1278502839782e-07
5.74003706263399e-07
4.15310670345023e-05
0.000188933925294664
0.000391347722274579
0.000598564785811289
0.000780981183540481
0.000920771692907824
0.00100638275425488
0.00103003455907001
0.000987271838162919
0.000877778202863484
0.000707148564720786
0.000490034403533508
0.000256717631100634
6.70114744389691e-05
1.33199564508804e-06
0.000377125482285321
0.000571128463084403
0.00045268547816793
0.000512768118507364
0.000654134670194286
0.000745298293788364
0.000284416947475154
0.000473488280894752
0.000635628807680841
0.00077242574757217
0.000722456816016494
0.000838898312355522
0.00089662035137292
0.000887501334805096
0.000559853979067363
0.000809008985829778
0.0007282799460239
0.000630672154522628
0.000511580150029614
0.000363945840162431
0.000181561519373179
0.000551280329158787
0.000473784258608034
0.000614228340030172
0.000376594729143886
0.000250451089144321
9.21935170966365e-05
0.000665502061599256
0.000177912370861079
8.07756385340966e-05
1.41905362759224e-05
0.000250342719461995
0.00030209959302236
0.00034044093604111
0.00036907850466392
9.43301103296903e-06
0.000165112252784854
0.000178721707329149
0.000146326715598756
0.000120237698948516
8.02820384126346e-05
2.01744778383524e-05
1.10932637184893e-07
6.51126552500512e-08
6.57150153583351e-08
0.00030640308260761
0.000237173584780423
0.000146308078531881
0.000361302683762408
0.00040609683027552
0.000442139956982955
5.34895558494357e-05
5.03416994372923e-06
3.50341419729438e-08
0.000470315741393261
0.000251965192371837
0.000239890606064068
0.000222525796505706
0.000200200902423328
0.000173760913116597
0.000142929146063094
0.000105701861622868
6.18537187482958e-05
2.10737996713892e-05
1.75687161888342e-06
1.22671672470997e-08
0.000916624722451698
0.00100214196102027
0.00102621598328429
0.000777615073082236
0.000984335268437047
0.000876341194043214
0.000707809752727933
0.000596552888913629
0.000390679551091898
0.000492770798504321
0.000188836484923355
0.000260440541094574
3.50865949442411e-05
2.58375288478026e-05
4.38062414230506e-05
5.20223305757127e-05
5.92854450597787e-05
1.60237463150105e-05
7.46947907775496e-06
6.4716400670932e-05
6.77525403574779e-05
2.14740188977779e-06
6.91982697678779e-05
3.4870214548676e-08
3.15420971693768e-06
1.41558637050257e-05
2.31785653465569e-05
2.98338723009483e-05
3.48403983166564e-05
3.84482614575368e-05
4.12218240671754e-05
2.19671516911924e-09
1.00228135040145e-10
1.2689553419178e-08
1.85038158414092e-09
2.30332099996343e-07
4.70157849284875e-08
1.16308665452985e-07
2.22728535267111e-07
3.64907011737266e-07
5.36437069031601e-07
7.30558314447922e-07
9.42835626563218e-07
1.15613926262716e-06
1.32524213193417e-06
1.40672221955941e-06
1.42356805168158e-06
1.33657631390024e-09
2.94101687458715e-08
1.30609060162797e-07
2.47303962979829e-07
3.50219706457511e-07
4.38273892181603e-07
5.0642710816944e-07
5.6083687190096e-07
6.21114606385701e-07
4.38640998334588e-05
0.000197068364023152
0.000407636104728539
0.000625564633446132
0.000822020922657774
0.000980289784717983
0.00108990209548876
0.00114364158254385
0.00113655546494246
0.00106615376058809
0.000933300509689596
0.000743946814570227
0.00051241431355362
0.000268291439056243
7.07914179539399e-05
1.45265101938343e-06
0.000318543579517644
0.000412321161941881
0.000531637143717137
0.000718579502934509
0.000625564802354018
0.000486829728687634
0.000544823523703787
0.000704128156379466
0.000819987114291973
0.000879326139502743
0.000211397818976561
0.000424475496464973
0.000602785499256781
0.000750269714929238
0.000873346842261182
0.000905556301912887
0.00076780801376943
0.000991189825905323
0.00101641374247326
0.000976528522620087
0.000589387052883907
0.000871447533604755
0.000799078777589434
0.000711951950357574
0.000606384652567305
0.000476141961062661
0.000311726261263195
0.000115185272983973
0.000603924786078507
0.00053515369829554
0.000450884474061483
0.000660425288904572
0.000344536763257154
0.000208207736415206
7.77061018965672e-05
0.00070660306275928
0.000196139389893291
9.29807556288343e-05
1.85432800086686e-05
1.33935367878796e-05
0.000270464411038225
0.000322148383887934
0.000359526502252512
0.000386817863714463
8.45042086986312e-06
0.000174610728002455
0.000156259830678854
0.000187575216820875
0.000130113740212196
8.88465249920486e-05
2.40635453318004e-05
1.47658615390759e-07
9.18667019035008e-08
9.73443242614459e-08
5.89696279297751e-08
0.000347753607708145
0.000288849795919144
0.000215401889580508
0.000129043567839843
0.000396459822126753
0.000437000342993104
0.000469739971759923
4.74748737388884e-05
4.11912683680846e-06
2.73536212879797e-08
0.000495168111001468
0.000254035955918297
0.000264828856503606
0.000238063881816994
0.000217327827688484
0.000192894082410148
0.000165079470016622
0.000133080100010101
9.59224744076521e-05
5.49069609114299e-05
1.80621007536133e-05
1.34042334945752e-06
9.07603657768155e-09
0.00108527129093251
0.000975863593290826
0.00113927704947912
0.00113274800060311
0.000818482104914131
0.00106326487311883
0.000931941183005455
0.000744722063233026
0.000623471635660946
0.000406947831295682
0.000515286035021762
0.000196971470807308
0.000272150105853196
4.09798876177877e-05
3.22177710482356e-05
2.30389950706306e-05
4.93777477820196e-05
5.72932919091251e-05
6.4264987383789e-05
1.37729275513803e-05
6.15074051680111e-06
6.93664977727452e-05
7.20207976756338e-05
1.6616319011977e-06
7.30776250684792e-05
4.51159466764233e-08
3.85850278746191e-06
1.62221309216569e-05
2.57610246146799e-05
3.25266193774711e-05
3.74838530059515e-05
4.09486933964947e-05
4.35433907913098e-05
1.5361060802877e-09
6.5216461299867e-11
3.58845342006039e-08
9.1186835629367e-09
1.22972684769019e-09
1.64423515061399e-07
9.30467300782241e-08
1.85441110126731e-07
3.1374455683548e-07
4.74190188145423e-07
6.58800652701667e-07
8.63751444207411e-07
1.0857119277328e-06
1.3063253564222e-06
1.47613097259655e-06
1.54886218204729e-06
1.55243056970704e-06
1.6595238895116e-09
3.55623172772439e-08
1.53293979205171e-07
2.83301976322507e-07
3.93875637567625e-07
4.85559268771939e-07
5.54011613396127e-07
6.06937340782305e-07
6.65711147672023e-07
4.6009925671305e-05
0.000204488621552671
0.000422438446611986
0.000649948895364022
0.000858730967928892
0.00103291212418814
0.00116294751739941
0.00124231891228728
0.0012662097874618
0.00123137056466547
0.00113652268451185
0.00098317174159219
0.000777328189682086
0.000532937025996765
0.000279014984831202
7.43416104649572e-05
1.56879953167034e-06
0.000348815350895006
0.00047622626752778
0.000237855491681526
0.000443634922319381
0.000582059070804218
0.000680485502956054
0.000790055703387716
0.000853001613428847
0.000673255377977367
0.000517365557916838
0.000573623952577983
0.000748305003773924
0.00088493810771519
0.000971559359908554
0.000999164890003098
0.000135833072696098
0.00036298461004751
0.000559627434104273
0.000719790360701867
0.000852023905538493
0.000962632002565362
0.0010732736891442
0.00096403531274452
0.000808167699345356
0.00112806120456472
0.00112294517469901
0.00105552277547514
0.000616011819167931
0.000927140093781992
0.000861759186030254
0.000783407458890265
0.000689419158236798
0.000575384352775848
0.00043374372239249
0.000258171377402359
9.7478259731932e-05
0.000650475342200359
0.000588637896166949
0.00051439442644692
0.000423852808172154
0.000701719469855257
0.000311166884637481
0.00018325216173264
6.90577800967771e-05
0.000743646098184267
0.000212742250885457
0.000104384908703165
2.27139222245082e-05
1.73079394401638e-05
1.2052906950553e-05
0.000288744292791425
0.000340366259774712
0.00037688329007981
0.000402954183884146
6.93673496075566e-06
0.000183321123767067
0.000165380374296578
0.000139208914166102
0.000195676263168782
9.67841285772371e-05
2.78110246453403e-05
1.90211770152398e-07
1.21259304942229e-07
1.37610512783566e-07
8.81805589170574e-08
4.61529368183222e-08
0.00038346844609771
0.000331645910608701
0.00026986322538566
0.000196664106510466
0.000116165071231784
0.000427577009480725
0.000464745091642542
0.000494758144181073
4.1340246543383e-05
3.15886216172485e-06
2.01395620117448e-08
0.000517847068758775
0.000267045369985909
0.000252257512393846
0.000276712753012443
0.000232826741661571
0.000209967576348973
0.000184250903182694
0.000155477455196989
0.000123008816147293
8.67357459875581e-05
4.812450883559e-05
1.46322659747615e-05
9.61799323913596e-07
6.36589455883189e-09
0.00115798542073401
0.00123753941976335
0.00102824039793434
0.0012618424572889
0.00122758084826777
0.000855038265206044
0.00113365252610889
0.000981857514650226
0.000778189450155561
0.00064778234098546
0.000421730365959104
0.000535922169521843
0.000204390719105955
0.000282992606890168
3.792595946867e-05
4.64013547067185e-05
2.91804365190015e-05
2.02051858502864e-05
5.45245754722649e-05
6.21938522350105e-05
6.89182330673554e-05
1.15630285889398e-05
4.85981789901551e-06
7.3726846770465e-05
7.60272583700684e-05
1.20957744614931e-06
7.67175988907398e-05
5.62043887706275e-08
4.57989254193474e-06
1.82136640178827e-05
2.81899565121996e-05
3.50484801254932e-05
3.99454265407048e-05
4.32638482878871e-05
4.56788441833632e-05
1.00431561113836e-09
3.90603846031511e-11
7.15430539777249e-08
2.59539358044112e-08
6.0871132925484e-09
7.29188512964721e-10
1.09218217124947e-07
1.4971718859245e-07
2.63108300755955e-07
4.10783352052624e-07
5.85491364732878e-07
7.81543594817065e-07
9.9653470788673e-07
1.22806569370473e-06
1.4556876854998e-06
1.62527395792047e-06
1.68873684385826e-06
1.67622955628585e-06
2.0023444025599e-09
4.19364562291961e-08
1.76251432313348e-07
3.19122028977585e-07
4.36766589269144e-07
5.31441968714265e-07
5.9966244130746e-07
6.5053930068742e-07
7.07287579457755e-07
4.79674806553732e-05
0.0002112240672362
0.000435855187971785
0.000671970915101003
0.000891664574124256
0.00107970450485403
0.00122730708123565
0.00132863641865528
0.00137924944494133
0.00137576203314353
0.00131604505587865
0.00119957713396892
0.00102816735664927
0.000807716877931366
0.000551792889229229
0.000288948756540953
7.76601324778246e-05
1.68018161100157e-06
0.000375935258840346
0.000521380372276838
0.000261735816260273
0.000630835578218626
0.000407275407508661
0.000154581461657695
0.000626381809981745
0.000471718860054914
0.000747569200889916
0.000817126268734471
0.000852324002729551
0.000941749841652837
0.000973536679060657
0.000715471544376916
0.000544833516518106
0.000599598685279746
0.000787647452165416
0.000941974802767472
0.00105171884029871
0.001108325867326
0.00110585065943392
0.000115132109682476
0.000300591141441728
0.000508497544951596
0.000681394771990567
0.000823399483958177
0.000941931236733249
0.00104177424355425
0.00114510435582093
0.00122519578103347
0.001015752561913
0.0008442763297921
0.00125056848626287
0.00121777555022804
0.0011259069513523
0.000640059306699917
0.000977080692464646
0.000917550813081353
0.000846444822889109
0.000761932340129152
0.000661163986881452
0.000539166507362143
0.000390136519898871
0.000226852829581592
8.69464895853712e-05
0.00063557564447478
0.000691916109264329
0.000568944661482482
0.000489907726478051
0.000394907775861096
0.000738852184128511
0.00028339853272769
0.000165082152408673
6.06076185375464e-05
0.000777193071465189
0.00011493851259707
0.000227884985986097
2.6860174448809e-05
2.12292226556768e-05
1.56346158236937e-05
9.99242870339645e-06
0.000305379444341991
0.000356942274247629
0.000392673482198126
0.000417616057215244
5.3580434705308e-06
0.000191290688734128
0.000173745792010119
0.000147566202547456
0.000104112133684761
0.000203062847573001
3.13747963909286e-05
2.34578047800581e-07
1.55302794379905e-07
1.84440120040028e-07
1.24701017171098e-07
6.92652471775649e-08
3.39227182258503e-08
0.000367878274324908
0.000414735008665504
0.00031371719791869
0.000250925095414203
0.000179775421356187
0.000104013614833734
0.000455348168753707
0.000489809418877763
0.000517544066007929
3.46630772879709e-05
2.28686569163566e-06
1.41432156946353e-08
0.000538611886815231
0.000279045311581803
0.000265280115604244
0.00024693215744838
0.000287706022980405
0.000225327864373542
0.000201185666112304
0.000174532606483728
0.000145114857196411
0.000112626155234249
7.74051169837338e-05
4.08647597858883e-05
1.11719796502632e-05
6.41316314945243e-07
4.18619807749249e-09
0.00122205025257595
0.00132349961525255
0.00137445832367765
0.00107481434130765
0.00137140304822758
0.00131224372563543
0.00088783475147627
0.00119669407329049
0.00102687235731866
0.000808642970505334
0.000669738084749739
0.000435128468063911
0.000554874150953464
0.000211124472421336
0.000293032584896465
3.4619863137663e-05
4.31543391749234e-05
5.13912319208438e-05
2.59580254691337e-05
1.72823530912763e-05
5.92956957671206e-05
6.6763449339516e-05
7.32741948249745e-05
9.34260782935392e-06
3.61920621702897e-06
7.78141263203732e-05
7.97823524111721e-05
8.13352547505289e-07
8.01180723640082e-05
6.79212767550361e-08
5.30165618073486e-06
2.01114680461246e-05
3.04681850944908e-05
3.73987385023231e-05
4.22247742639808e-05
4.53929985070161e-05
4.76260457307049e-05
5.89389138673591e-10
1.82156158029973e-11
1.16078698646231e-07
5.21363992657306e-08
1.73904783614293e-08
3.59012312398262e-09
3.48985319595302e-10
6.44603700338147e-08
2.13588030983268e-07
3.46714217300944e-07
5.09829580021716e-07
6.96895103023339e-07
9.03625131838926e-07
1.12852458602246e-06
1.3694207464868e-06
1.6031370631917e-06
1.77194294203681e-06
1.82263783118966e-06
1.79453251673376e-06
2.35457146576619e-09
4.84472652603471e-08
1.99156259422738e-07
3.54381862750215e-07
4.78426201099665e-07
5.75463036349181e-07
6.42817402122027e-07
6.91237957209774e-07