/*--------------------------------*- C++ -*----------------------------------*\
  =========                 |
  \\      /  F ield         | OpenFOAM: The Open Source CFD Toolbox
   \\    /   O peration     | Website:  https://openfoam.org
    \\  /    A nd           | Version:  12
     \\/     M anipulation  |
\*---------------------------------------------------------------------------*/
/*   Windows 32 and 64 bit porting by blueCAPE: http://www.bluecape.com.pt   *\
|  Based on Windows porting (2.0.x v4) by Symscape: http://www.symscape.com   |
\*---------------------------------------------------------------------------*/
FoamFile
{
    format      ascii;
    class       volScalarField;
    location    "600";
    object      omega;
}
// * * * * * * * * * * * * * * * * * * * * * * * * * * * * * * * * * * * * * //

dimensions      [0 0 -1 0 0 0 0];

internalField   nonuniform List<scalar> 
10228
(
2.93334415774853
2.96064319258036
2.96350813983652
2.47469008983647
2.44248103211299
2.94198163215907
2.99299455672107
2.95665653589876
0.663503597553425
2.45215098310825
0.664088928259793
2.4044775775588
2.42539279675091
3.02238242449047
3.00033405126374
3.03463607644713
3.04377591124882
0.517461655792538
0.472993412869158
2.50624199840298
0.46929604146232
0.521482157711472
0.659541370982463
2.3786467035682
2.36519228612206
2.41877600948943
2.97390843456781
2.99901588693287
3.04482624752959
3.07872551391626
3.01839252174946
0.513144863826844
0.2413986404445
0.449701484822663
2.47352033303656
0.240160712919639
0.459807277533698
0.440354018559083
0.519358114456519
0.513746327570746
0.655175371529528
2.35771550848452
2.31066630402846
2.33138962150574
2.40498329726222
3.05610419993074
2.9847058675185
3.02105751304886
3.07319465690437
3.08920022828655
3.05712723308697
0.515920281287553
0.21127341153641
0.197002794591893
0.440083238773198
2.49502197077574
0.237190075833876
0.210183141221574
0.194740119931415
0.427280726210336
0.452318884969043
0.430975982163691
0.514528507632361
0.509987683505014
0.519129018260417
0.65261589571955
2.37667448793753
2.29353925530468
2.2653554747599
2.31570880181079
2.40609950606438
3.07772629892005
2.99655492036684
3.0025463543276
3.04315669480242
3.09233607255872
3.10441322146061
3.04133952911207
0.526394758432675
0.212303662724429
0.152685697641174
0.189216866060244
0.440741555346097
2.47713641790772
0.207881642069604
0.191286639847059
0.234337021577539
0.151680754079185
0.211127012128726
0.186533800042447
0.416999828952513
0.41781061249641
0.451022710468382
0.429551713586614
0.511298507771291
0.503989536959001
0.515800900972315
0.526761123159711
0.656597083996988
2.29336258109869
2.31908787530369
2.2440395238172
2.24625407100867
2.31166815378968
2.39992200036377
3.41256773533604
3.07763158978861
3.00140512122358
3.02299098617712
3.06385963023852
3.10290312143972
3.10114243681814
3.04746487985544
0.534522018388889
0.21889329255424
0.14490155056531
0.137463403815176
0.190996750457555
0.444383668213614
2.47744822927689
0.208885655784181
0.205308109632551
0.150046352642124
0.182805526779927
0.188339615287435
0.232908060082877
0.144266701532219
0.136590016001243
0.21758086071174
0.188116161570843
0.4149347162871
0.406585283193731
0.415962196690143
0.459949097365777
0.432107113326369
0.51052926051207
0.500108063908482
0.509763844521032
0.522851171421583
0.534058068680546
0.670424257710346
2.34880711927163
2.19723128411419
2.26653116136666
2.22078910154788
2.2423138119467
2.30858631091537
2.39534328787845
3.96112726185701
3.38727566003355
3.08930598533613
3.03247251255776
3.04876269410822
3.07801138174501
3.10403926920519
3.09813218289182
3.0417106255399
0.542886337205856
0.225537486500521
0.145561746596996
0.123325976116749
0.134074679737967
0.195371539385522
0.451563157813996
2.47083288357145
0.143147253654531
0.215338265300615
0.206369481040377
0.148408207841905
0.203488755682007
0.135196433738267
0.184186156613643
0.179619084946633
0.187062323136948
0.235171235751034
0.122967464361463
0.145000591833555
0.133217926028534
0.224142438273616
0.192367353573001
0.404021095617924
0.417433234669537
0.403335340886544
0.425025000609839
0.490381663032928
0.438665900936044
0.51748114652507
0.500555069468352
0.506193042053441
0.516935620777796
0.529507830104086
0.541988361006677
0.828459471349524
2.47411472882944
2.42132770044612
2.14804542246507
2.22757321367142
2.21502793569627
2.23979254345338
2.30304245191035
2.38957271152932
3.98454539997751
3.38429181846274
3.13374544459249
3.07185547127727
3.06829439164568
3.08139288514158
3.09874572852234
3.09206023384252
3.04080916631707
0.549132006336739
0.231759525483051
0.148490502930993
0.119715178028616
0.115675531200696
0.134859605056002
0.200752880244002
0.45843077227726
2.46866898858589
0.122306175184122
0.144054385686015
0.14203821846545
0.22184102206576
0.212952519791611
0.204704189011038
0.133836575415232
0.147544515773053
0.204974519357402
0.131853538383025
0.188304970631177
0.180741335905063
0.178009198539957
0.189507109931868
0.257947929084524
0.115404272602211
0.119502285613321
0.147927778565201
0.133971252024395
0.230309999519076
0.197644828425473
0.39952341175129
0.406261196290598
0.423589134935968
0.408079690881968
0.45090287398206
0.445483680984464
0.683273415434911
0.520294453811869
0.50850806599386
0.513610777831476
0.52355889950765
0.537166258972807
0.548433201737714
2.42304838411072
3.34281394003908
2.40073356072367
2.16214924801986
2.21574796645809
2.21278557213407
2.23431072380504
2.29713054762819
2.38573609883853
3.93584024790839
3.43956732638239
3.18913254764056
3.09753974814673
3.07484171849469
3.07704669536246
3.09204638526071
3.08790638573115
3.03970469229328
0.554991342062689
0.23728749244189
0.152043374910511
0.119801964196314
0.109072416564876
0.11347306749862
0.137335656034044
0.206236172877333
0.465308982115705
2.46721285846169
0.119108776317675
0.121701583175871
0.114877502239379
0.143223324183513
0.147034826573887
0.141781843711213
0.227959091797767
0.219500867929505
0.211594266055967
0.206719181980303
0.130488846700546
0.133182116436499
0.149540685277193
0.228926071300451
0.132552363858892
0.193436276650222
0.184675242974834
0.178626010529598
0.17917622077449
0.204147270596657
0.497207501816227
0.108985356579418
0.113204148880695
0.11962500680277
0.151467006156673
0.136400315308619
0.235835338117784
0.203067149296042
0.400914752876484
0.400787910625456
0.411997879214095
0.430273821734715
0.418800000698807
0.452225696327977
2.34197553591902
0.683973590979371
0.530572996357678
0.516147266821695
0.52019291001859
0.530915093448828
0.543592348223228
0.554201504309523
3.32881084425849
4.55077481046686
2.34602068617911
2.14776741119003
2.23452782965404
2.2141192693024
2.20748216348818
2.22788253146304
2.29251742283539
2.383440882473
4.03451152542943
3.49230021699271
3.21861890817565
3.10691491441224
3.07209389150517
3.07038533288376
3.08646882946308
3.08522954838644
3.03975435627424
0.560391569285902
0.24232863625159
0.155664284993212
0.121349128593124
0.107066419856414
0.104690903242905
0.113703331705569
0.140493612998411
0.211607027385134
0.471948589612157
2.46689522727588
0.119335610640015
0.108776723514366
0.118873552156498
0.114362562566802
0.121817312405085
0.112669964730569
0.143433091174105
0.146348197765467
0.150590874567707
0.144754821822361
0.233470369562934
0.225603573795737
0.218316557154059
0.214195507135
0.23144857395875
0.129647270594313
0.131078657052511
0.13450810616523
0.163239666960443
0.469988947001109
0.134898084923943
0.19874934835508
0.189624952349406
0.182209112251795
0.178140372868967
0.18663654739987
0.262189351050638
3.01866887263268
0.107035221558004
0.104626464262567
0.113407270606258
0.121180957323459
0.155081245077135
0.139515774939745
0.24086137016317
0.208381762808667
0.406001209629984
0.399947354736763
0.406236965913642
0.418507082792579
0.436860367080686
0.435375732581866
0.458759149825209
2.4284526135421
0.689932729511176
0.538183162045115
0.522388023145516
0.527185232576745
0.537296996565721
0.549259048307156
0.55957672776472
5.01509193282196
3.10207749963617
2.27411150516158
2.15460844671457
2.26153344129887
2.22442034427398
2.2083047198382
2.20057994928845
2.22270272182021
2.28965627624323
2.38236377475462
4.01735566160841
3.52454771597719
3.22905710121138
3.10562995456102
3.06613140204756
3.06461728700934
3.08284735444034
3.08396029740266
3.03982562786664
0.565516896523303
0.246961055262817
0.159186401620287
0.12349044126681
0.107102109921742
0.101098037778507
0.103263925688024
0.115100402826275
0.14391055198983
0.216774272090478
0.478342736081575
2.46679053956172
0.119295598082489
0.106955782508059
0.120939594464526
0.104434861303754
0.108668419133097
0.119503089447277
0.112076229733626
0.114316925472336
0.124144628896555
0.112815162664389
0.147245717325961
0.14686003366945
0.149984150075696
0.154217016007856
0.16031949165545
0.238476081853326
0.231114570862988
0.224484356907069
0.221301553151345
0.239180552046377
0.465324008901159
0.129949269082606
0.129957142762769
0.133288896288116
0.141114009601306
0.236141225516951
3.30360537831067
0.137934430983054
0.203966955304573
0.194799073261852
0.186889930567812
0.180808128696499
0.179597470647813
0.203260712073603
0.646336844987652
4.65865405731481
0.107089929936031
0.101099618777623
0.103183286572943
0.114773634396652
0.123327619973526
0.158598833732737
0.142896493884074
0.245482941145214
0.213499585514921
0.403632311174093
0.412303471277891
0.400909735094209
0.412659980012348
0.42493304439269
0.443248149129884
0.453743894840252
0.465049461409139
2.4111239428683
0.695833414669817
0.54340724318026
0.528321260822085
0.533361836741241
0.542790475400585
0.554522497058779
0.56466538934162
3.1831489081328
2.94984523647159
2.3626617732365
2.19628630523527
0.695240655915501
2.26525913964641
2.23190618249149
2.21528543092499
2.20096011937425
2.19480755322473
2.21938749352354
2.28813596957624
2.3819044064877
4.06598075623168
3.52954906525851
3.22834343679974
3.10042318490173
3.06063609466772
3.06073442993323
3.08085084801398
3.08341502819609
3.03994263642391
0.570264696547603
0.251247610904718
0.16254838019584
0.125858114104646
0.108111165132919
0.0999539556315592
0.0984320363725955
0.103355200534702
0.117081331404251
0.147391286138346
0.221708994194333
0.484409040330908
2.46680339160775
0.121015185346228
0.120254618814358
0.107059430589712
0.107071510502022
0.101048465422088
0.123116511903952
0.102945506110109
0.104256839935409
0.109118518899983
0.122615008446687
0.112095590492043
0.111724481938571
0.115508002270823
0.132468267870243
0.114116892324894
0.164283032447876
0.151248034029008
0.15069144607782
0.15366538879874
0.157742754720085
0.234873876807124
0.243076687152304
0.236105085603995
0.230042433056233
0.227655101164012
0.246752052082863
0.469795982752349
3.2413170644985
0.132393895493114
0.129443958549753
0.13191239658534
0.136203266864156
0.16098159583734
0.612626154856076
5.05110430682481
0.141246938306311
0.208998527272543
0.19989899467333
0.191891706477122
0.184965516255994
0.18010719295412
0.183308552514136
0.243114545676069
0.544259729097614
3.14514132987044
0.0999786268802277
0.108110024980754
0.0984222652575271
0.103250349161218
0.116728196222761
0.125700621226669
0.161957907602588
0.146346974586542
0.249757737673546
0.218389512752033
0.40204086648213
0.409651372631072
0.418564952602486
0.401782210905299
0.417311344673714
0.431173963378884
0.449404189686987
0.456825329277219
0.471040781859543
2.41955515316451
0.698752164028322
0.547532002521766
0.534048063618357
0.53864280778996
0.547881980597614
0.559493830629886
0.569425126064602
2.97338144938118
2.90893689857734
2.35450589973612
2.2845954383097
0.652581636499226
2.24531975468491
2.23049528918166
2.2181144041383
2.2075219229548
2.19469790967696
2.19103912828657
2.21756813268145
2.28743081047476
2.38173913908047
4.0453313293927
3.52946218240698
3.2236314044868
3.09527879074151
3.05682712421073
3.05851324799081
3.07990059101268
3.08322727295677
3.04001425419102
0.574641036701638
0.255204343351791
0.165726671739776
0.128279839509161
0.109597813600164
0.100063038999554
0.0963439370887043
0.0975315232265547
0.104275540262365
0.119355406516784
0.150838030916454
0.226391783057238
0.490127425195749
2.46682449539986
0.12219312020088
0.123270623126074
0.107299235072717
0.123897837217577
0.107821399256475
0.101083256274843
0.108129090124667
0.0999926789431891
0.0983292846298156
0.125512207313397
0.102954207087599
0.102640861195124
0.104365467614624
0.110958022490621
0.132183608852895
0.111457098957242
0.113277940217106
0.111973691752153
0.119209604148013
0.155397382310812
0.116015450397472
0.169324559118054
0.241083993452245
0.155472497617695
0.154512141452115
0.157230212128932
0.161107305518478
0.601391025824804
0.247328417889174
0.24068563320344
0.235060684806624
0.23337405417657
0.253441011859682
0.472755459618825
3.25604549847162
4.9713936525135
0.129734395321983
0.138188973946346
0.130858383636754
0.134632199440156
0.139415406983192
0.207552521922725
0.525114940042649
3.26181748758348
0.144640464949341
0.213811169685241
0.204829198594523
0.1968632018456
0.18971240169407
0.183285790210786
0.179745091178824
0.188670521985319
0.240405984433264
0.509145533084054
2.99384101504179
0.100100311500036
0.0963583445625391
0.109606124392245
0.0974999539304274
0.104149268611915
0.118981286542824
0.128127280571209
0.165133343108121
0.149768157456168
0.253706061307819
0.223033059058601
0.400068579317203
0.407632787416457
0.415750561338433
0.424665792803322
0.401657132614614
0.41579841226585
0.437199639674037
0.455281073283598
0.450181232288159
0.476700243345975
2.40950399993545
0.700888490141561
0.551296066978411
0.539016107592661
0.543524346789998
0.552721016491345
0.56417218494305
0.57382462930864
2.9119638633319
2.89675869102122
2.34949397922304
2.27707425850259
0.64215440558647
2.23193093840036
2.22179422334675
2.21626834930114
2.21036760293226
2.20107612067863
2.19051555136757
2.18894273129998
2.21669174889646
2.28713934575008
2.38168748337086
4.05121084068223
3.52439149501707
3.21878733967125
3.09161062282575
3.05460271735625
3.0574052461084
3.07950062709683
3.08317329389817
3.04004769562796
0.578653879915975
0.258843338915637
0.16870721899643
0.130666837613125
0.111311115607763
0.100844940504833
0.0957196619890684
0.0946742125039777
0.0976408816567498
0.10566688639419
0.121765752883609
0.15419620684276
0.230815606456915
0.495492469925508
2.46683820679242
0.126201173013464
0.108267208664291
0.124603905718959
0.125724311570337
0.108439844182042
0.100149355910201
0.13428574287586
0.110098601241791
0.101476626051888
0.0982333309349478
0.109653152932338
0.10015317324267
0.0963308842765765
0.0973502073818374
0.127956686082087
0.103802065452429
0.102527593653254
0.102432163996776
0.105148550790308
0.115540912650673
0.15700829623787
0.11241784401574
0.11106771153597
0.115080099757656
0.113194170364455
0.126871062787076
0.20539162549309
0.118224009189961
0.174298870600077
0.247599291941893
0.603090987343556
0.159583825419693
0.158182091606888
0.160623498215967
0.164285464027211
0.525493630657769
0.244917309508126
0.251255901661292
0.239657692879183
0.238537896272721
0.2593873729789
0.476674720026451
3.22613162856628
5.00221093169546
3.26659509009907
0.130065630893603
0.130836739239446
0.146671052829987
0.133245315979475
0.137702715935986
0.142728877885329
0.20709622185336
0.496864859349852
3.01153699434461
0.148014028203549
0.218385941537217
0.209553850025818
0.201691547207477
0.194532788717496
0.187632455910594
0.18146367739451
0.17907399082255
0.187349974618548
0.231166036592624
0.501000030297384
2.94835620943578
0.100892614333057
0.0957463281657673
0.094666710806925
0.111327798894855
0.0975895438054517
0.105524161934216
0.121375135132453
0.13051819983903
0.168110887152296
0.153104433899111
0.257338589377753
0.227421898136906
0.404836413792809
0.397561693782529
0.413571714437154
0.421719312021475
0.430573820959596
0.39923567509909
0.411274700507506
0.442962950812354
0.460841530824599
0.445241837817418
0.482015978736127
2.40534948758315
0.702316415951088
0.555460071413147
0.543599256705654
0.548183880516335
0.557300104208363
0.568516655264432
0.577865855403708
2.91093425878155
2.91778076839671
2.27198643331627
2.34871472552772
0.640382682161664
2.22726843844899
2.21335306371686
2.21229123002479
2.20970719829482
2.20421379160452
2.19664403212877
2.18815874680418
2.18791904485415
2.21631500544867
2.28703080904378
2.3816757628641
4.04343377968761
3.52029816492115
3.21532818855446
3.08944124347738
3.05346982091834
3.05691325263735
3.07934949066984
3.08316282186678
3.04006141987784
0.582313759562907
0.262175146145168
0.171481531328194
0.132968421789539
0.113113314199213
0.101993236680209
0.0959212105327369
0.0934430800933651
0.0941475906816163
0.098357248873175
0.107328622921843
0.124220882697159
0.157434070683164
0.234980970886762
0.500513884248169
2.46684132153064
0.137150261765067
0.128875964947027
0.110845201810663
0.100729385489999
0.109552971526744
0.127174407146511
0.128213536530025
0.11002512499198
0.100390104346862
0.0963519303938905
0.16022772081429
0.11526129824036
0.102622412761582
0.0982868750402946
0.0971280072971749
0.100974133980493
0.111397145260781
0.0957565871633784
0.0945815327971518
0.0973898589594029
0.130361343663159
0.105137637036536
0.103278189311266
0.102075661465483
0.102500734831053
0.107020182306591
0.124354504429122
0.209141873783441
0.114062253373612
0.111625776769199
0.111006598120154
0.117215889422652
0.115482577765939
0.137559468006407
0.207241747287417
0.12058328426218
0.178967902396283
0.253815654841583
0.603588575372726
0.530837624190511
0.163485432189391
0.161657750630221
0.163823047034937
0.16726355614493
0.500432318856981
0.248826053916093
0.243900004417739
0.25487005383689
0.243258759573487
0.264858394075125
0.480013585922208
3.21860275019408
4.9571536637421
3.27286443279374
3.03146650644804
0.131905612843516
0.129367132507188
0.13195461975725
0.147031129254017
0.136110951477909
0.140913940227482
0.146038524282551
0.200907971952239
0.490627496931983
2.97893409739132
0.151309973409909
0.214051534013306
0.222713120790365
0.206333096272108
0.199257442338727
0.192260408215864
0.185248198392906
0.179184942133115
0.176502507184908
0.183157545012396
0.226196116714644
0.500656028721757
2.95214327410365
0.0959577861741824
0.102050212715557
0.0934468419526971
0.094120013463614
0.113137013514381
0.0982910554892918
0.107173864431239
0.123817154754699
0.132822578695992
0.170882056919461
0.156323181881078
0.260665743197656
0.231555659008052
0.410600299674224
0.401187656052635
0.394164331414463
0.419417024364233
0.427518538957946
0.436238115632485
0.395618837235308
0.407634093531353
0.448422834455794
0.466069174455678
0.442393357230807
0.486994290531446
2.3976017814397
0.703962628080845
0.559574399724838
0.547997899622728
0.552626466274378
0.561565065493504
0.572517942408144
0.581551832012121
2.92377496751797
2.93308967880842
2.22375396954262
2.26884822549948
2.34633921772024
0.640260118328806
2.20906938710183
2.20879835928053
2.20800776287713
2.2043221231567
2.19978735570407
2.1940929274813
2.18699738872036
2.18747340168471
2.21616850097634
2.28699705868687
2.3816780667407
4.04239437736319
3.51740055558508
3.21329374947673
3.08832762465776
3.0529558229327
3.05671497276932
3.07929855820425
3.08314657264292
3.04005943055333
0.585631818963578
0.265209996129169
0.174045234273051
0.135153600297372
0.114922983831989
0.103333487025769
0.0966026315978579
0.0931589879208373
0.0924088845637529
0.0943317856976944
0.099449151650024
0.109140052421469
0.126664197677089
0.160533498103827
0.23889419580139
0.50520137030163
2.46684125135358
0.140230808926732
0.116402604805096
0.163846270302881
0.131649724598461
0.112347088153958
0.102127052454339
0.101101200387704
0.0965764689563775
0.111246580490341
0.1297553316577
0.1306534209272
0.111816674138008
0.101270005685689
0.0958535885934003
0.0944718883478842
0.213227084779296
0.124778416271995
0.104936877751207
0.098669538447107
0.0969228101439459
0.0970677537220239
0.0959956297066309
0.102154846042485
0.113224242920686
0.0933976811978003
0.0939840111716463
0.0980536228354272
0.132676044652292
0.106758599108018
0.104542699977376
0.102655613940073
0.101693973578038
0.102959965684918
0.11008453033724
0.136315442134368
0.212453946643395
0.116089775680424
0.113022852567808
0.110898075744188
0.111169204890877
0.119521402201354
0.11791227625226
0.139462899843755
0.202133443021681
0.122998310392429
0.183336543934021
0.259364034347949
0.608383711076871
0.538444369592965
0.505901443855132
0.167152851093275
0.164923954781229
0.166817059819178
0.170033682972068
0.494513905974346
0.252422287091017
0.247817120591383
0.247608246374381
0.258181290609164
0.269903071963523
0.483805389519958
3.20080415886425
4.94180733080082
3.26037498497836
3.03632537510818
2.99925132074685
0.134484678067155
0.130443656080926
0.128363645871644
0.130839231697596
0.143918820575036
0.139192958170001
0.144148654417009
0.149282487703079
0.195971149281105
0.490444043705387
2.98634313211537
0.154493919471801
0.218310203074431
0.210761137466664
0.226791029957543
0.203821876321211
0.196872325575676
0.189644861610924
0.182383604831295
0.176052821008504
0.172673006498631
0.178748443313554
0.222879542731465
0.501479309786949
2.96197195455537
0.0966482609900297
0.0931717049921693
0.103398476835687
0.0923916002542852
0.0942892540948211
0.114952313002957
0.0993726546528053
0.108976607796176
0.126249831928913
0.13500961026209
0.173442670628001
0.159405670500202
0.263696680694729
0.235440353396772
0.406762326448718
0.416325263618797
0.396962341789942
0.390387793617178
0.425106738960837
0.433092658313227
0.441611846747127
0.392361731803164
0.405070025955301
0.453559231286042
0.470967283956091
0.440463631224528
0.491645933325783
2.39307377959013
0.705921595444403
0.563522702362772
0.552224630592781
0.556776942926345
0.565502104364218
0.576172606735842
0.584890658344001
2.93200931974705
2.92380103322977
2.20706772240039
2.22026898787758
2.26504132159882
2.34583502975879
0.639690038956079
2.20706254197263
2.20681936426209
2.20366074763948
2.20012191983731
2.19714736291666
2.19281959555475
2.18648900293336
2.18729866678326
2.21611916311142
2.2869819859467
2.3816812502769
4.04128860432204
3.51588389296065
3.21226386870012
3.08782020683262
3.05274408740355
3.05664209534203
3.07925000122194
3.08318578792908
3.04005787862063
0.588611632988194
0.267955462702407
0.176396800344716
0.137202857441664
0.116689147179759
0.104759646264555
0.0975620558166417
0.0934471857760894
0.0917145621555629
0.0921650991314902
0.0949739641856902
0.100774070017123
0.111024128996074
0.129059491525537
0.163485380445021
0.242565697653684
0.509583115324556
2.46683974593466
0.143323331285024
0.118187259498471
0.167455982124958
0.104750733513757
0.126383839262869
0.21745892550822
0.114204114813655
0.13439470431792
0.102680853475752
0.0971806475947577
0.102078716741013
0.0961983178810616
0.094427052044476
0.113122541974221
0.132269416400476
0.132996107502653
0.113681606368328
0.102496679141364
0.0961483378033506
0.0933602981016269
0.0937714460981703
0.217875847029186
0.137465885023838
0.108510566195054
0.0994962022834671
0.096825549225179
0.0966825148369558
0.0976598208867305
0.0967085877966636
0.0931486669311927
0.103521995490867
0.115053734622846
0.0922901662315879
0.0941151986455202
0.0991086963303846
0.134870687227663
0.1085406697889
0.106113893470055
0.103806053609739
0.101998717454479
0.101412555979011
0.103716711274927
0.113347289612591
0.139259984275603
0.207790599075704
0.114899328762725
0.118321578317404
0.111941172208608
0.110136725172825
0.111109344003663
0.121896459563097
0.117935083930999
0.137305450493514
0.197282844442874
0.125409464454072
0.264517289782171
0.187410982642006
0.611970947097774
0.545079752192201
0.513478017836188
0.499237165766637
0.170581925654892
0.167973092113269
0.169598876037379
0.172592325153655
0.493911388357413
0.255716402648569
0.251419238796519
0.251619803852885
0.274565875461498
0.261198144451088
0.4878045294691
3.19250435030447
4.91093010801365
3.24611735337975
3.02802348486956
3.00410436515963
3.00760912225152
0.132673874872831
0.137408397098331
0.128664216683712
0.126457742019195
0.128114363908327
0.139849869497664
0.142342928695141
0.14733586605185
0.152423003203817
0.191842135347974
0.490912770303143
2.99479239867607
0.157545828506865
0.222326306326356
0.21495947278439
0.208188824349522
0.230624718678802
0.201359712728789
0.194136634668823
0.186559872390266
0.178954534094108
0.172225366836203
0.168363110636971
0.174606040079831
0.22000496994975
0.501655432764143
2.96529566700496
0.0976156953409176
0.0934683181588384
0.0917053330049001
0.10483128769259
0.0921321727885005
0.0949213136257867
0.116722910309139
0.100690735385808
0.110854383975219
0.128636291040955
0.137060036455748
0.175791222246498
0.162342389704884
0.266438623126726
0.239085374932272
0.402351609978517
0.412357964174201
0.421897165812506
0.392457445022283
0.386812970764912
0.430585694599985
0.438388457779653
0.446670818422118
0.389920146661382
0.403435128589749
0.458373073289254
0.475544918674907
0.438817812636195
0.495992656036435
2.39028609475708
0.708156140973727
0.567364987002429
0.556215702431818
0.560616189554028
0.569101523613123
0.579485692057765
0.587896540394529
2.93583886583162
2.95713776434728
2.20611034491874
2.20380049189387
2.2154500971396
2.26804300318133
2.36559470856337
0.639369648597105
2.20655810498079
2.20340444925853
2.1997846613087
2.19749063663045
2.19580409067606
2.19225848831062
2.18628974953034
2.18723808442888
2.21609551002829
2.28699823391728
2.38168029020506
4.0415613632379
3.51515610646832
3.21179707473268
3.0876110363668
3.05266369820651
3.05660239668989
3.07930793832664
3.08316840323303
3.04005788247027
0.591268767056238
0.27041966361218
0.178535998272727
0.139103798817235
0.118378635410008
0.106203817327906
0.0986740713832066
0.0940851699842475
0.0916681670367715
0.0911221548431099
0.0924440787454381
0.0959157150010289
0.102238995886821
0.112929557231764
0.131383515898784
0.166286605994851
0.246006830495653
0.513679110421902
0.170968040323569
0.12025976046808
0.146333242977191
0.105529092877099
0.128494791113987
0.221404197236999
0.0982729544624982
0.108675405908633
0.139541567429319
0.2228409605663
0.116209192639628
0.103795531370036
0.137045530731695
0.0969647741177497
0.0945334189163975
0.0965829617855017
0.103381243624129
0.0934285896038127
0.0935401101998546
0.115055234195591
0.134673317194373
0.115541526448303
0.135213100238658
0.103900616145001
0.0969050118533176
0.0931643474512058
0.0921473399919743
0.0938294856874751
0.213513858029645
0.141133848374223
0.11231495858387
0.100669373178977
0.0968695131580067
0.0962928569397042
0.0971559015626225
0.0986662613722286
0.0934668232773342
0.0976946954795979
0.0916288059428388
0.104970122600522
0.116835527532657
0.0919917988809498
0.0947210785445711
0.100408847067897
0.136926694854107
0.110403490722279
0.107861632852322
0.105302896246828
0.10298367331942
0.101322506079911
0.10115385216106
0.104301314799027
0.114150802865968
0.137764663272633
0.203007266320662
0.113625362706324
0.11703801427752
0.120645758671954
0.110749695562297
0.109143336597045
0.110135817549029
0.12427716428268
0.11613121504832
0.133824506292312
0.192697126479989
0.127778286244171
0.269304709886708
0.615820060627307
0.191200704037601
0.550237405835287
0.519411781457906
0.504994836662682
0.497551206395059
0.173771743114085
0.170800837089731
0.172165995207181
0.174938356398268
0.493883547772046
0.258716803453583
0.254717004576314
0.255307079857139
0.278867698221087
0.491901570579549
0.263927512085769
3.1868734284807
4.89532847186856
3.23124748330002
3.01425699106073
2.99546181130858
3.01213344477139
3.01563607774666
0.130572137768324
0.135425006920389
0.140465143421357
0.126385978444399
0.123739948781275
0.124606084722363
0.135523359224481
0.145471521411489
0.15043150095832
0.155437599012966
0.187843466624763
0.490639374992566
2.9947625174394
0.160455255324993
0.226103494631851
0.218921785753038
0.212335866105787
0.205668150348216
0.234222616295172
0.198545572588597
0.190941010528296
0.182998954485989
0.175030413229701
0.167989706765015
0.16391288374302
0.170785409830891
0.217542767590789
0.502230001213164
2.96780581388503
0.0987345102525511
0.0941139663031967
0.0916667454570299
0.0910966290433776
0.106280879506157
0.0924006553241279
0.0958566442973523
0.118415883763454
0.102151262806638
0.112755163983852
0.130952810812174
0.138961663372076
0.177927458637993
0.165129891420444
0.268898875174656
0.242502232749779
0.39758732517271
0.407787738453241
0.417793400586172
0.427265078498622
0.387862240935221
0.383773683528978
0.435798164462772
0.443377900889823
0.451413254640517
0.388367671177042
0.402694373238265
0.462871840403822
0.479824205297839
0.438763024439599
0.500051972956713
2.38919053843879
0.710520273904389
0.571090774670961
0.559929554668726
0.564132224655147
0.572365389367445
0.582473350219974
0.590570397474671
2.9510659589547
2.91143612923146
2.20623425346863
2.20312084357587
2.19825999168993
2.21803832303274
2.29446168428478
2.39560718893061
0.643343419957258
2.20370316187432
2.19980729744495
2.19720843720386
2.19611674667654
2.19520613584776
2.19203835150045
2.18621991745766
2.18721997174059
2.21611171255147
2.28699767400933
4.04174786257808
3.51485085449415
3.21161791127631
3.08753132328139
3.05263844675118
3.05662068956516
3.07929230522201
3.08316912669374
3.04005785227368
0.59360153003194
0.272606271123022
0.180463451315377
0.140848437773535
0.119969311793836
0.10762085315185
0.0998568360098585
0.0949324061556936
0.0920314321212045
0.0907894736255376
0.0911036274674263
0.0930759475595091
0.0970519027485017
0.103780523586825
0.114821340715284
0.133621750243904
0.168937593268131
0.249227999721215
0.174330333487882
0.225166956236202
0.130815657787377
0.106814006516111
0.122437679309512
0.14921156686595
0.0982549318505756
0.109707576547551
0.141972513996906
0.227309272956435
0.0997484198296421
0.0948199613887761
0.11285384318924
0.143691536060241
0.21861482671233
0.118247269058519
0.105205325281498
0.0974727593504135
0.139565729438153
0.0936865087932538
0.0933440330520466