/*--------------------------------*- C++ -*----------------------------------*\
  =========                 |
  \\      /  F ield         | OpenFOAM: The Open Source CFD Toolbox
   \\    /   O peration     | Website:  https://openfoam.org
    \\  /    A nd           | Version:  12
     \\/     M anipulation  |
\*---------------------------------------------------------------------------*/
/*   Windows 32 and 64 bit porting by blueCAPE: http://www.bluecape.com.pt   *\
|  Based on Windows porting (2.0.x v4) by Symscape: http://www.symscape.com   |
\*---------------------------------------------------------------------------*/
FoamFile
{
    format      ascii;
    class       volScalarField;
    location    "600";
    object      p;
}
// * * * * * * * * * * * * * * * * * * * * * * * * * * * * * * * * * * * * * //

dimensions      [0 2 -2 0 0 0 0];

internalField   nonuniform List<scalar> 
10228
(
83333.3295766982
83333.3295767024
83333.3295765885
83333.3295767792
83333.3295767838
83333.3295767079
83333.3295765918
83333.32957634
83333.3295766696
83333.3295769718
83333.3295766721
83333.3295767892
83333.329576975
83333.3295767149
83333.3295765969
83333.3295763434
83333.3295759457
83333.3295764198
83333.3295768627
83333.3295772926
83333.3295768633
83333.3295764208
83333.329576676
83333.3295767954
83333.3295769782
83333.3295772943
83333.3295767223
83333.3295766034
83333.3295763493
83333.3295759496
83333.3295754171
83333.3295760234
83333.3295766168
83333.329577179
83333.329577743
83333.329576615
83333.3295768649
83333.3295771798
83333.3295764242
83333.3295760227
83333.3295766814
83333.3295768022
83333.3295769815
83333.3295772936
83333.3295777409
83333.32957673
83333.3295766105
83333.3295763569
83333.3295759564
83333.3295754225
83333.3295747868
83333.3295754881
83333.3295762006
83333.329576955
83333.3295776304
83333.3295783041
83333.329576616
83333.3295761988
83333.3295769514
83333.3295771782
83333.3295768672
83333.3295776294
83333.3295764298
83333.3295760261
83333.3295754888
83333.3295766878
83333.3295768099
83333.3295769852
83333.3295772908
83333.3295777347
83333.329578301
83333.329576738
83333.3295766168
83333.3295763653
83333.3295759661
83333.3295754312
83333.3295747917
83333.3295740759
83333.3295748507
83333.3295756418
83333.3295765363
83333.3295774245
83333.3295782021
83333.3295789636
83333.3295762011
83333.3295769482
83333.3295766184
83333.3295765328
83333.3295756422
83333.3295774196
83333.3295776238
83333.3295771749
83333.3295768702
83333.3295781982
83333.329576437
83333.3295760331
83333.3295754935
83333.3295748528
83333.3295766946
83333.3295768208
83333.3295769919
83333.3295772868
83333.329577724
83333.329578291
83333.3295789568
83333.3295767446
83333.3295766192
83333.3295763743
83333.3295759773
83333.3295754425
83333.3295748008
83333.3295740826
83333.3295733121
83333.3295741403
83333.3295749927
83333.3295759657
83333.3295770072
83333.3295780005
83333.3295788678
83333.3295796946
83333.3295756469
83333.3295762064
83333.3295765319
83333.3295774111
83333.3295769443
83333.3295766221
83333.3295759651
83333.3295770034
83333.329574995
83333.3295779932
83333.3295781882
83333.3295776132
83333.32957717
83333.3295768748
83333.3295788609
83333.3295764478
83333.3295760428
83333.3295755041
83333.3295748599
83333.3295741445
83333.3295766966
83333.3295768275
83333.3295770117
83333.3295772855
83333.3295777091
83333.3295782733
83333.3295789439
83333.3295796864
83333.329576755
83333.3295766131
83333.3295763813
83333.3295759906
83333.3295754574
83333.3295748147
83333.3295740944
83333.3295733194
83333.3295725065
83333.329573377
83333.3295742793
83333.3295753036
83333.3295764303
83333.3295775854
83333.3295786646
83333.3295796039
83333.3295804831
83333.3295759675
83333.3295750022
83333.3295756558
83333.3295765309
83333.3295762139
83333.329576997
83333.3295779797
83333.3295773986
83333.3295769384
83333.3295766282
83333.3295764292
83333.3295753049
83333.3295775796
83333.3295742834
83333.3295786541
83333.3295781701
83333.329578847
83333.3295775963
83333.3295771646
83333.3295768814
83333.3295795936
83333.3295764599
83333.3295760561
83333.3295755179
83333.3295748737
83333.329574153
83333.3295733829
83333.329576668
83333.3295768313
83333.3295770609
83333.3295772989
83333.3295776945
83333.3295782498
83333.3295789222
83333.3295796717
83333.3295804736
83333.3295766268
83333.3295763829
83333.3295760052
83333.3295754764
83333.3295748339
83333.3295741112
83333.3295733323
83333.3295725152
83333.3295716684
83333.3295725719
83333.329573516
83333.3295745786
83333.3295757502
83333.3295770099
83333.3295782532
83333.3295793971
83333.3295803946
83333.3295813164
83333.3295764268
83333.3295753099
83333.3295759703
83333.3295742928
83333.3295750141
83333.3295756669
83333.3295769858
83333.3295765282
83333.3295762225
83333.3295775655
83333.3295786362
83333.3295779587
83333.3295773806
83333.3295769283
83333.3295766345
83333.3295770061
83333.3295757519
83333.3295745815
83333.3295782431
83333.3295735214
83333.3295793832
83333.3295781442
83333.3295788239
83333.3295795766
83333.3295775758
83333.3295771636
83333.3295803814
83333.3295764479
83333.3295760677
83333.3295755343
83333.3295748918
83333.3295741691
83333.3295733933
83333.3295725789
83333.3295766892
83333.3295770208
83333.3295773728
83333.3295776942
83333.3295782249
83333.329578893
83333.3295796483
83333.3295804577
83333.3295813067
83333.329576396
83333.3295760196
83333.3295754999
83333.329574859
83333.3295741343
83333.3295733515
83333.3295725284
83333.3295716771
83333.3295708001
83333.3295717317
83333.3295727111
83333.3295738047
83333.3295750035
83333.3295763187
83333.3295776831
83333.3295789892
83333.3295801847
83333.3295812299
83333.3295821885
83333.3295757528
83333.3295764193
83333.329576996
83333.3295753151
83333.3295745884
83333.3295759698
83333.3295735325
83333.3295743073
83333.3295750288
83333.3295756782
83333.3295775432
83333.3295769686
83333.3295765196
83333.3295762213
83333.3295782226
83333.3295793615
83333.3295786091
83333.3295779303
83333.3295773548
83333.3295769071
83333.3295765958
83333.3295763176
83333.3295776752
83333.3295750063
83333.3295738086
83333.3295789754
83333.3295727172
83333.3295801679
83333.3295787926
83333.3295781122
83333.3295795506
83333.329580362
83333.3295775718
83333.3295812154
83333.3295764622
83333.3295760736
83333.3295755528
83333.3295749147
83333.3295741911
83333.3295734102
83333.3295725914
83333.3295717393
83333.3295768502
83333.3295773355
83333.3295774846
83333.3295777351
83333.3295782144
83333.3295788606
83333.3295796163
83333.329580433
83333.32958129
83333.3295821785
83333.3295760353
83333.3295755256
83333.3295748903
83333.3295741648
83333.3295733781
83333.3295725487
83333.3295716905
83333.3295708082
83333.3295699032
83333.32957086
83333.3295718696
83333.3295729897
83333.3295742074
83333.3295755507
83333.3295769871
83333.3295784267
83333.329579781
83333.329581019
83333.3295821047
83333.3295830951
83333.3295750092
83333.3295763112
83333.3295757484
83333.3295769744
83333.3295764022
83333.3295776567
83333.3295753171
83333.3295745961
83333.3295738168
83333.3295759613
83333.3295727293
83333.3295735489
83333.3295743254
83333.3295750449
83333.3295756863
83333.3295775135
83333.3295781923
83333.3295769433
83333.3295764961
83333.3295762143
83333.3295789497
83333.3295801433
83333.3295793305
83333.3295785744
83333.329577894
83333.3295773236
83333.3295768644
83333.3295766175
83333.3295755514
83333.3295769817
83333.3295784149
83333.329574211
83333.3295729942
83333.3295797643
83333.3295718759
83333.3295810013
83333.3295795163
83333.3295787557
83333.3295780936
83333.3295803339
83333.3295811947
83333.3295776393
83333.3295820903
83333.3295760885
83333.3295755719
83333.3295749412
83333.3295742202
83333.3295734354
83333.32957261
83333.3295717522
83333.3295708675
83333.3295771394
83333.3295774422
83333.3295775584
83333.3295777712
83333.329578221
83333.329578833
83333.3295795778
83333.3295803993
83333.3295812643
83333.3295821612
83333.3295830851
83333.3295755448
83333.3295749253
83333.3295742021
83333.3295734125
83333.3295725773
83333.3295717115
83333.3295708216
83333.3295699106
83333.3295689795
83333.3295699592
83333.329570995
83333.3295721371
83333.3295733701
83333.3295747289
83333.3295762029
83333.3295777309
83333.3295792269
83333.3295806219
83333.3295818953
83333.3295830156
83333.3295840342
83333.3295750079
83333.3295755471
83333.3295742147
83333.3295769667
83333.3295762927
83333.3295757337
83333.3295776249
83333.3295769435
83333.3295763732
83333.3295783898
83333.3295753111
83333.3295746006
83333.3295738264
83333.3295730029
83333.3295759387
83333.3295718885
83333.3295727469
83333.3295735695
83333.3295743462
83333.3295750597
83333.3295757008
83333.3295774742
83333.3295781541
83333.3295789143
83333.329576905
83333.329576469
83333.3295762216
83333.3295797348
83333.3295809748
83333.3295801095
83333.3295792922
83333.3295785335
83333.3295778563
83333.329577314
83333.3295769655
83333.3295768703
83333.3295747304
83333.3295761996
83333.3295777218
83333.3295792124
83333.3295733755
83333.3295721424
83333.3295806038
83333.3295710011
83333.3295818778
83333.3295794755
83333.3295802974
83333.3295787211
83333.3295781015
83333.329581165
83333.3295820692
83333.3295776648
83333.3295830016
83333.3295755931
83333.3295749678
83333.3295742536
83333.3295734691
83333.3295726377
83333.3295717728
83333.3295708808
83333.3295699666
83333.3295773016
83333.3295774974
83333.3295776023
83333.3295778055
83333.3295774211
83333.3295782224
83333.3295788116
83333.3295795372
83333.3295803571
83333.3295812291
83333.3295821346
83333.3295830674
83333.3295840242
83333.3295749499
83333.3295742408
83333.3295734529
83333.3295726142
83333.3295717413
83333.3295708432
83333.3295699239
83333.3295689863
83333.329568031
83333.3295690319
83333.3295700896
83333.3295712503
83333.3295724978
83333.3295738652
83333.3295753569
83333.3295769368
83333.3295785349
83333.3295800768
83333.3295815075
83333.3295828098
83333.3295839596
83333.3295850045
83333.3295742156
83333.3295749963
83333.3295755325
83333.3295747273
83333.3295761869
83333.3295733796
83333.3295776998
83333.3295769374
83333.3295762632
83333.3295757048
83333.3295783518
83333.3295775846
83333.3295768998
83333.3295763259
83333.3295791828
83333.3295752943
83333.3295745988
83333.3295738336
83333.3295730138
83333.3295721516
83333.3295759283
83333.3295710136
83333.3295719071
83333.3295727696
83333.329573594
83333.3295743656
83333.3295750836
83333.3295757121
83333.3295774273
83333.3295781076
83333.3295788715
83333.3295796958
83333.3295768591
83333.3295765497
83333.3295764376
83333.3295805717
83333.3295818507
83333.3295809389
83333.3295800685
83333.3295792477
83333.3295784909
83333.3295778352
83333.3295773304
83333.3295771107
83333.3295770128
83333.3295753546
83333.3295738672
83333.3295769298
83333.3295785231
83333.3295800606
83333.3295725029
83333.3295712562
83333.3295814894
83333.3295700955
83333.3295827933
83333.3295794312
83333.3295802532
83333.3295811264
83333.3295786943
83333.3295780947
83333.3295820385
83333.3295829802
83333.3295776689
83333.3295839457
83333.3295749942
83333.3295742845
83333.3295735077
83333.3295726743
83333.3295718022
83333.3295709025
83333.32956998
83333.3295690388
83333.3295773688
83333.3295775305
83333.3295776294
83333.329577836
83333.3295774714
83333.3295782198
83333.3295787867
83333.3295794956
83333.3295803079
83333.329581184
83333.3295820979
83333.3295830398
83333.3295840062
83333.3295849945
83333.3295742651
83333.3295734941
83333.3295726571
83333.3295717797
83333.3295708736
83333.3295699455
83333.3295689993
83333.3295680373
83333.3295670594
83333.3295680795
83333.3295691567
83333.3295703321
83333.3295715924
83333.3295729663
83333.3295744644
83333.3295760717
83333.3295777359
83333.3295793904
83333.329580972
83333.3295824335
83333.3295837601
83333.329584935
83333.3295860052
83333.3295742074
83333.3295733815
83333.3295747165
83333.3295749711
83333.3295755064
83333.3295761621
83333.3295738657
83333.3295753443
83333.3295769104
83333.3295725083
83333.3295784964
83333.3295776635
83333.3295768977
83333.329576219
83333.3295756588
83333.329578306
83333.3295791408
83333.329577533
83333.3295768441
83333.329576275
83333.3295800281
83333.3295745875
83333.3295752892
83333.3295738355
83333.3295730231
83333.3295721637
83333.3295712663
83333.3295759923
83333.329570108
83333.3295710335
83333.3295719314
83333.3295727967
83333.3295736165
83333.3295743896
83333.3295751024
83333.3295758829
83333.3295780557
83333.3295773829
83333.3295788213
83333.32957965
83333.3295805302
83333.3295768608
83333.3295766663
83333.3295765687
83333.329581456
83333.3295827659
83333.3295818134
83333.3295808954
83333.3295800211
83333.3295791991
83333.3295784536
83333.3295778106
83333.3295773758
83333.3295771816
83333.3295770873
83333.3295744634
83333.3295760659
83333.3295729687
83333.3295777263
83333.329579377
83333.3295809551
83333.329571597
83333.3295703383
83333.329582416
83333.3295691619
83333.3295837443
83333.3295793851
83333.3295802022
83333.329581079
83333.3295819981
83333.3295786626
83333.3295780828
83333.3295829487
83333.329583924
83333.3295777047
83333.3295849211
83333.3295743098
83333.3295735402
83333.3295727151
83333.3295718404
83333.3295709329
83333.329570002
83333.329569052
83333.3295680861
83333.3295774087
83333.3295775508
83333.3295776449
83333.3295778517
83333.3295775041
83333.3295782189
83333.3295787595
83333.3295794505
83333.3295802529
83333.3295811293
83333.3295820502
83333.3295830016
83333.3295839779
83333.3295849764
83333.3295859955
83333.3295735199
83333.3295727002
83333.329571824
83333.3295709128
83333.3295699761
83333.3295690206
83333.3295680499
83333.3295670652
83333.3295660664
83333.3295671041
83333.3295681981
83333.3295693855
83333.3295706557
83333.3295720353
83333.3295735358
83333.3295751536
83333.329576857
83333.32957859
83333.3295802924
83333.3295819088
83333.3295833973
83333.3295847446
83333.3295859411
83333.3295870358
83333.3295741868
83333.3295746944
83333.3295733765
83333.3295725113
83333.3295738579
83333.3295753241
83333.3295749304
83333.3295754654
83333.3295761254
83333.3295768784
83333.3295729681
83333.3295744562
83333.3295760496
83333.3295777024
83333.3295716034
83333.3295793475
83333.3295784557
83333.3295776178
83333.3295768449
83333.3295761625
83333.3295756123
83333.3295790918
83333.3295782509
83333.3295799835
83333.3295774729
83333.3295767904
83333.329576267
83333.3295809206
83333.3295738277
83333.3295745819
83333.3295753369
83333.329573028
83333.3295721747
83333.3295712795
83333.3295703491
83333.3295761
83333.3295701283
83333.3295691739
83333.3295710587
83333.3295719599
83333.3295728208
83333.3295736381
83333.3295744087
83333.3295752361
83333.3295760047
83333.3295787653
83333.3295780073
83333.3295773494
83333.3295795972
83333.3295804817
83333.3295814128
83333.3295769157
83333.3295767451
83333.3295766561
83333.3295823818
83333.3295837169
83333.3295827278
83333.3295817679
83333.3295808446
83333.3295799674
83333.3295791491
83333.3295784169
83333.3295778129
83333.3295774215
83333.3295772261
83333.3295771393
83333.3295735352
83333.3295751495
83333.3295768486
83333.3295720378
83333.3295785789
83333.3295802781
83333.3295818916
83333.3295706603
83333.3295693912
83333.32958338
83333.3295682025
83333.3295847289
83333.3295801452
83333.3295793357
83333.3295810226
83333.3295819475
83333.3295829068
83333.3295786318
83333.329578085
83333.3295838917
83333.3295848991
83333.3295777255
83333.3295859272
83333.3295735634
83333.3295727472
83333.3295718819
83333.3295709719
83333.3295700328
83333.3295690738
83333.3295680988
83333.3295671104
83333.3295774343
83333.3295775615
83333.3295778544
83333.3295776494
83333.3295775248
83333.3295782127
83333.3295787306
83333.3295794013
83333.329580192
83333.3295810655
83333.3295819911
83333.3295829515
83333.3295839381
83333.3295849475
83333.3295859773
83333.3295870256
83333.3295727263
83333.3295718676
83333.3295709575
83333.3295700154
83333.3295690509
83333.3295680706
83333.3295670772
83333.3295660717
83333.3295650536
83333.3295661074
83333.3295672155
83333.3295684124
83333.3295696903
83333.3295710739
83333.3295725752
83333.329574195
83333.3295759182
83333.3295777014
83333.3295794927
83333.3295812371
83333.3295828844
83333.3295843969
83333.3295857619
83333.3295869788
83333.3295880909
83333.3295741519
83333.3295733602
83333.3295746583
83333.3295752913
83333.3295738395
83333.3295725086
83333.3295716081
83333.3295729629
83333.3295744396
83333.3295760223
83333.3295748906
83333.3295754131
83333.3295760747
83333.329576835
83333.3295776657
83333.3295735303
83333.3295720382
83333.3295751369
83333.3295768281
83333.3295785522
83333.3295706674
83333.3295802467
83333.3295793038
83333.3295784064
83333.3295775607
83333.3295767825
83333.3295761098
83333.3295755982
83333.3295799319
83333.3295790345
83333.3295781882
83333.3295808743
83333.3295774166
83333.3295767545
83333.3295763239
83333.329581856
83333.3295730229
83333.3295738214
83333.3295746145
83333.3295754417
83333.3295721815
83333.3295712915
83333.3295703632
83333.3295694021
83333.3295761834
83333.3295691942
83333.3295701541
83333.3295682138
83333.3295710879
83333.3295719849
83333.3295728403
83333.3295736562
83333.3295745182
83333.3295753517
83333.3295760966
83333.3295795379
83333.3295787087
83333.3295779672
83333.3295773628
83333.3295804259
83333.329581362
83333.3295823376
83333.329576973
83333.3295768027
83333.3295767211
83333.3295833454
83333.3295836782
83333.3295847018
83333.3295826805
83333.3295817138
83333.329580786
83333.3295799085
83333.329579098
83333.3295783888
83333.3295778255
83333.3295774523
83333.3295772581
83333.3295771766
83333.3295741925
83333.329572575
83333.3295759109
83333.3295776916
83333.3295710765
83333.3295794808
83333.3295812223
83333.3295828672
83333.3295696948
83333.3295684177
83333.3295843796
83333.3295672196
83333.3295857464
83333.3295809573
83333.3295800824
83333.3295792845
83333.3295818861
83333.3295828534
83333.3295838484
83333.3295786039
83333.3295780836
83333.3295848662
83333.3295859051
83333.3295777345
83333.3295869653
83333.3295727683
83333.3295719138
83333.3295710137
83333.3295700721
83333.3295691043
83333.32956812
83333.3295671224
83333.3295661134
83333.3295774499
83333.3295775635
83333.3295781948
83333.3295778466
83333.3295776464
83333.3295775355
83333.3295786962
83333.3295793477
83333.3295801251
83333.3295809928
83333.3295819204
83333.3295828885
83333.3295838856
83333.3295849064
83333.3295859478
83333.3295870071
83333.3295880797
83333.3295718946
83333.3295710006
83333.3295700599
83333.3295690898
83333.3295681002
83333.3295670972
83333.3295660829
83333.3295650584
83333.3295640224
83333.3295650909
83333.3295662113
83333.3295674154
83333.3295686985
83333.3295700843
83333.3295715847
83333.3295732031
83333.3295749324
83333.3295767454
83333.3295785974
83333.3295804397
83333.3295822216
83333.3295838972
83333.3295854309
83333.3295868126
83333.3295880443
83333.329589182
83333.3295733317
83333.329574612
83333.3295741201
83333.329572496
83333.3295738087
83333.329575245
83333.3295744109
83333.3295759825
83333.3295729481
83333.3295716068
83333.3295706736
83333.3295720349
83333.3295735171
83333.3295751137
83333.329576796
83333.3295748745
83333.329575366
83333.329576015
83333.3295767792
83333.3295776182
83333.3295785123
83333.3295741831
83333.3295725713
83333.329571078
83333.3295758942
83333.3295776681
83333.3295794522
83333.3295697024
83333.3295811894
83333.329580201
83333.3295792519
83333.329578347
83333.3295774954
83333.3295767249
83333.3295760765
83333.3295756548
83333.3295808206
83333.3295798723
83333.3295789699
83333.3295781259
83333.3295818084
83333.3295773741
83333.3295767729
83333.3295763909
83333.3295828307
83333.3295721788
83333.3295730172
83333.3295738432
83333.3295747192
83333.3295755295
83333.3295712999
83333.3295703764
83333.3295694168
83333.3295684281
83333.3295762533
83333.3295682336
83333.3295692202
83333.3295701838
83333.3295672301
83333.3295711132
83333.3295720035
83333.3295728564
83333.3295737508
83333.3295746325
83333.3295754462
83333.3295761735
83333.3295803626
83333.3295794745
83333.3295786556
83333.3295779443
83333.3295773839
83333.329581303
83333.3295822849
83333.3295833002
83333.3295770171
83333.3295768484
83333.3295767733
83333.3295843449
83333.3295846627
83333.3295836294
83333.3295857199
83333.3295826235
83333.3295816501
83333.3295807196
83333.3295798453
83333.3295790486
83333.3295783662
83333.3295778312
83333.3295774709
83333.3295772804
83333.3295772037
83333.329573201
83333.3295749273
83333.3295715848
83333.3295767363
83333.3295785867
83333.329570087
83333.3295804271
83333.3295822066
83333.3295838801
83333.3295687029
83333.3295674203
83333.3295854139
83333.3295662151
83333.3295867981
83333.3295808836
83333.3295818137
83333.3295800144
83333.3295792314
83333.3295827876
83333.3295837928
83333.3295848217
83333.3295785728
83333.3295780729
83333.3295858719
83333.3295869437
83333.3295777319
83333.3295880311
83333.3295719339
83333.3295710454
83333.3295701141
83333.3295691434
83333.3295681498
83333.3295671427
83333.3295661248
83333.3295650966
83333.3295774574
83333.3295775597
83333.3295786532
83333.3295781659
83333.3295778302
83333.3295776379
83333.329577537
83333.3295792883
83333.3295800513
83333.3295809111
83333.3295818383
83333.3295828121
83333.3295838191
83333.3295848517
83333.3295859056
83333.3295869769
83333.3295880605
83333.3295891733
83333.3295710277
83333.3295701022
83333.3295691337
83333.3295681381
83333.3295671256
83333.3295661019
83333.3295650688
83333.3295640269
83333.3295629745
83333.3295640562
83333.3295651872
83333.3295663968
83333.3295676827
83333.3295690685
83333.3295705663
83333.3295721806
83333.3295739092
83333.329575736
83333.3295776271
83333.3295795397
83333.3295814276
83333.329583244
83333.3295849458
83333.3295864996
83333.3295878946
83333.3295891376
83333.329590313
83333.3295724734
83333.3295737689
83333.3295733067
83333.3295751909
83333.3295745729
83333.3295741036
83333.3295729222
83333.3295715977
83333.3295743699
83333.3295759301
83333.3295734924
83333.3295750778
83333.3295767515
83333.3295720233
83333.3295706735
83333.3295697096
83333.3295710762
83333.329572561
83333.3295741633
83333.3295758662
83333.3295776327
83333.3295749312
83333.3295753402
83333.3295759612
83333.3295767151
83333.3295775593
83333.3295784619
83333.3295794101
83333.3295731941
83333.329574914
83333.3295715821
83333.3295700894
83333.3295767166
83333.3295785612
83333.3295803972
83333.3295687107
83333.3295821724
83333.3295811422
83333.3295801469
83333.3295791904
83333.3295782796
83333.3295774313
83333.3295766834
83333.3295760973
83333.329575727
83333.3295807583
83333.3295817527
83333.3295798048
83333.3295789021
83333.3295780707
83333.3295827821
83333.3295773549
83333.3295768018
83333.3295764483
83333.3295838431
83333.3295721747
83333.3295712993
83333.3295730327
83333.3295739482
83333.3295748113
83333.32957561
83333.3295703858
83333.3295694312
83333.3295684431
83333.3295674302
83333.3295763148
83333.3295672491
83333.3295682593
83333.3295692499
83333.3295702093
83333.3295662249
83333.3295711315
83333.329572018
83333.3295729427
83333.3295738641
83333.3295747304
83333.3295755321
83333.3295762416
83333.3295802926
83333.3295812348
83333.3295794097
83333.3295786089
83333.3295779306
83333.3295774014
83333.329582223
83333.3295832459
83333.3295842993
83333.3295770511
83333.329576886
83333.3295768167
83333.32958538
83333.3295856809
83333.3295846126
83333.3295835699
83333.3295867729
83333.3295825553
83333.3295815765
83333.329580646
83333.3295797793
83333.329579
83333.3295783417
83333.3295778273
83333.3295774791
83333.3295772952
83333.3295772231
83333.3295721792
83333.3295739058
83333.3295757287
83333.3295705667
83333.329577617
83333.3295795284
83333.3295690715
83333.3295814146
83333.3295832288
83333.3295849291
83333.3295676871
83333.3295664014
83333.3295864839
83333.3295651908
83333.329587881
83333.3295808015
83333.3295817302
83333.3295827089
83333.3295799407
83333.3295791738
83333.3295837234
83333.3295847639
83333.3295858264
83333.3295785352
83333.3295780511
83333.3295869105
83333.3295880098
83333.3295777217
83333.3295891263
83333.3295710647
83333.3295701454
83333.3295691855
83333.329568188
83333.3295671714
83333.329566144
83333.3295651073
83333.3295640615
83333.3295774585
83333.3295775524
83333.3295792215
83333.3295786032
83333.3295781314
83333.3295778096
83333.3295776261
83333.3295775339
83333.3295799697
83333.3295808199
83333.3295817445
83333.3295827221
83333.3295837377
83333.3295847818
83333.3295858489
83333.3295869336
83333.3295880296
83333.329589155
83333.3295903062
83333.3295701292
83333.3295691749
83333.3295681808
83333.3295671621
83333.329566129
83333.3295650866
83333.3295640366
83333.3295629786
83333.3295619116
83333.329563005
83333.3295641448
83333.3295653582
83333.3295666451
83333.3295680289
83333.3295695219
83333.32957113
83333.3295728538
83333.3295746839
83333.3295765967
83333.3295785575
83333.3295805245
83333.3295824543
83333.3295843028
83333.3295860292
83333.329587602
83333.3295890054
83333.3295902726
83333.3295724549
83333.3295728883
83333.3295715797
83333.3295743225
83333.3295737381
83333.3295732917
83333.3295758704
83333.3295751437
83333.3295745551
83333.3295741619
83333.3295720015
83333.329573457
83333.3295706673
83333.3295750303
83333.3295766952
83333.3295741318
83333.3295725403
83333.3295758256
83333.329577585
83333.3295710674
83333.329569711
83333.3295700888
83333.3295687186
83333.3295715742
83333.3295731776
83333.3295748896
83333.3295766852
83333.3295785234
83333.3295750074
83333.3295753639
83333.3295759243
83333.3295766535
83333.3295774922
83333.3295784005
83333.3295793572
83333.3295803532
83333.3295738951
83333.3295721737
83333.3295757123
83333.329570565
83333.3295690744
83333.3295775951
83333.3295795014
83333.3295813834
83333.3295676948
83333.3295831938
83333.3295821239
83333.3295810859
83333.3295800828
83333.3295791204
83333.32957821
83333.3295773768
83333.3295766682
83333.3295761323
83333.3295757947
83333.3295806867
83333.3295816874
83333.3295827245
83333.3295797314
83333.3295788355
83333.3295780267
83333.3295837938
83333.3295773494
83333.3295768302
83333.3295764984
83333.3295848922
83333.3295712969
83333.3295721878
83333.3295703871
83333.3295731378
83333.3295740444
83333.3295749005
83333.3295756861
83333.3295694418
83333.3295684584
83333.329567445
83333.3295664107
83333.3295763703
83333.3295662429
83333.3295672741
83333.3295682888
83333.3295692759
83333.3295702272
83333.3295651998
83333.3295711451
83333.3295720998
83333.3295730565
83333.3295739654
83333.3295748236
83333.3295756142
83333.3295763037
83333.3295802175
83333.3295811577
83333.3295821502
83333.3295793453
83333.3295785672
83333.329577918
83333.3295774115
83333.3295831813
83333.3295842434
83333.3295853344
83333.329577077
83333.3295769174
83333.3295768534
83333.3295864522
83333.3295867344
83333.3295856298
83333.3295845507
83333.3295834977
83333.3295878569
83333.3295824751
83333.3295814932
83333.329580566
83333.32957971
83333.3295789491
83333.3295783109
83333.3295778127
83333.3295774787
83333.3295773046
83333.3295772368
83333.3295711291
83333.3295728512
83333.3295746783
83333.3295765879
83333.3295695228
83333.3295785466
83333.3295805126
83333.329568032
83333.3295824409
83333.3295842878
83333.3295860137
83333.3295666495
83333.3295653626
83333.3295875881
83333.329564148
83333.3295889942
83333.3295807106
83333.3295816357
83333.3295826172
83333.3295836392
83333.3295798601
83333.3295791094
83333.3295846914
83333.3295857669
83333.3295868643
83333.3295784902
83333.3295780233
83333.3295879762
83333.329589106
83333.3295777059
83333.3295902634
83333.3295701639
83333.3295692162
83333.3295682297
83333.3295672083
83333.3295661713
83333.3295651253
83333.3295640714
83333.3295630098
83333.3295774556
83333.3295775436
83333.3295798797
83333.3295791474
83333.3295785476
83333.3295780936
83333.3295777876
83333.3295776142
83333.3295775267
83333.3295807188
83333.3295816387
83333.3295826182
83333.3295836411
83333.3295846961
83333.3295857762
83333.3295868752
83333.3295879851
83333.3295891247
83333.3295902891
83333.3295692018
83333.3295682208
83333.3295672033
83333.3295661639
83333.3295651121
83333.3295640531
83333.3295629875
83333.3295619152
83333.3295608352
83333.3295619387
83333.3295630856
83333.3295643013
83333.3295655876
83333.3295669674
83333.3295684537
83333.3295700534
83333.3295717691
83333.3295735958
83333.3295755176
83333.3295775081
83333.329579532
83333.3295815491
83333.3295835181
83333.3295853967
83333.3295871462
83333.3295887324
83333.3295901517
83333.3295715674
83333.3295724427
83333.3295728658
83333.3295734164
83333.3295719736
83333.3295706535
83333.3295749766
83333.3295742831
83333.3295737282
83333.3295733522
83333.3295758142
83333.3295766313
83333.3295751134
83333.3295745827
83333.3295742415
83333.3295710495
83333.3295725101
83333.3295740897
83333.3295697072
83333.3295757734
83333.3295775256
83333.3295748531
83333.3295731502
83333.3295715572
83333.329576641
83333.3295784729
83333.3295700825
83333.3295687218
83333.3295690751
83333.329570559
83333.3295677032
83333.3295721601
83333.329573874
83333.3295756845
83333.3295775611
83333.3295794614
83333.3295750833
83333.3295754039
83333.3295759161
83333.3295766029
83333.329577424
83333.3295783302
83333.329579293
83333.3295802978
83333.3295813377
83333.3295728426
83333.3295746647
83333.3295711247
83333.3295765693
83333.3295695219
83333.3295680353
83333.3295785229
83333.3295804843
83333.3295824086
83333.3295666571
83333.3295842524
83333.3295831442
83333.3295820653
83333.3295810187
83333.329580009
83333.3295790451
83333.3295781437
83333.3295773367
83333.3295766712
83333.3295761707
83333.3295758592
83333.3295816113
83333.3295806067
83333.3295826562
83333.3295837342
83333.3295796546
83333.3295787727
83333.3295779914
83333.3295848424
83333.3295773479
83333.3295768545
83333.3295765436
83333.3295859778
83333.3295703863
83333.3295713095
83333.329572292
83333.3295694447
83333.3295732376
83333.3295741413
83333.3295749887
83333.3295757589
83333.3295684701
83333.3295674606
83333.3295664248
83333.3295653713
83333.3295764208
83333.3295652167
83333.3295662668
83333.3295673029
83333.329568315
83333.3295692934
83333.3295702406
83333.3295641564
83333.3295712247
83333.3295722135