/*--------------------------------*- C++ -*----------------------------------*\
  =========                 |
  \\      /  F ield         | OpenFOAM: The Open Source CFD Toolbox
   \\    /   O peration     | Website:  https://openfoam.org
    \\  /    A nd           | Version:  12
     \\/     M anipulation  |
\*---------------------------------------------------------------------------*/
/*   Windows 32 and 64 bit porting by blueCAPE: http://www.bluecape.com.pt   *\
|  Based on Windows porting (2.0.x v4) by Symscape: http://www.symscape.com   |
\*---------------------------------------------------------------------------*/
FoamFile
{
    format      ascii;
    class       surfaceScalarField;
    location    "600";
    object      phi;
}
// * * * * * * * * * * * * * * * * * * * * * * * * * * * * * * * * * * * * * //

dimensions      [0 3 -1 0 0 0 0];

internalField   nonuniform List<scalar> 
29052
(
-2.98929022612549e-09
9.84329484846669e-08
-9.54244632053629e-08
-1.18541909593719e-07
-4.71586121380519e-09
1.20263762914065e-07
-2.62386290508492e-09
2.03342566014855e-07
-1.02286198919325e-07
-3.09440864890051e-09
1.15676091936135e-07
-2.08000992104554e-07
1.43611993290361e-07
-4.86952480779049e-09
-2.6040093686476e-07
-1.30756987763947e-07
-5.39110188536107e-09
1.31451792301192e-07
-1.28420247955843e-07
-3.4866587140459e-09
2.49563658533562e-07
-2.78354837287762e-09
2.82273473927185e-07
-7.6148337487467e-08
1.79917188882886e-10
2.14905260272679e-07
-2.01707790919594e-07
-1.94206197786227e-09
9.94856081893002e-08
-3.05559105982764e-07
-2.62631063302951e-07
2.77529855165431e-07
4.85752124469894e-10
1.60341721725352e-07
-4.37090183239249e-09
-2.91606866788558e-07
1.27668459708735e-07
-6.28740269070446e-10
-3.89354761650103e-07
-1.46007611207985e-07
-4.82907200764259e-09
1.45414865629878e-07
-1.42990804325112e-07
-3.91692727366326e-09
2.74838954484365e-07
-1.02742984425975e-07
-3.46767896460155e-09
3.52987205843094e-07
-3.69034364183766e-09
3.29070177358256e-07
-4.31130714480803e-08
3.94799038810016e-09
2.4247636873376e-07
-1.07675539338381e-07
4.0638188451684e-09
1.31196588428722e-07
-2.37504911810446e-07
1.28602968734474e-09
6.79044481349768e-08
-3.747476246858e-07
1.81596874927489e-07
7.51452701844412e-09
-3.20013322156421e-07
-1.55135583522218e-07
6.52509489438573e-09
3.27352134292521e-07
-2.98219502167049e-07
3.14376775105669e-07
1.68352212922119e-09
1.79909662057819e-07
-3.75371645009318e-09
-3.26531043577893e-07
1.46978593070628e-07
2.39955804041799e-09
-4.41575338113289e-07
9.38450403942036e-08
5.71006828950222e-09
-4.87610863197998e-07
-1.54650064897517e-07
-4.17440405835081e-09
1.54000102862997e-07
-1.59926602137919e-07
-2.97965143093728e-09
3.04383712707005e-07
-1.18146378912499e-07
-3.606781556396e-09
3.93133979482113e-07
-6.75944037748935e-08
-6.92327191564359e-09
4.23810276514036e-07
-7.19051509074879e-09
3.51475389624201e-07
-1.52150831161531e-08
7.68395692026522e-09
2.14205098816193e-07
-2.25331916794054e-08
6.96329764718745e-09
7.76753417615528e-08
-6.11164221872864e-08
3.87029847178691e-09
4.394050504753e-08
-2.17402059827651e-07
6.45090538845962e-09
3.5023178165718e-08
-4.16235879994771e-07
1.27609138246376e-08
1.2349712988145e-07
-1.02845026782121e-07
2.13148950075509e-07
-3.68511485631405e-07
1.16047633085033e-08
7.44933190197786e-08
9.32150847360366e-09
-3.06104460157582e-07
-1.82076383206532e-07
7.62191561124393e-09
3.77207250963627e-07
-5.26731428183927e-08
1.04056192561481e-08
3.09715923623754e-07
-3.3609403854811e-07
3.54561083911384e-07
3.15002746232336e-09
1.94132685721742e-07
-2.77615308556744e-09
-3.49766100894606e-07
1.68521912305398e-07
4.74659546433421e-09
-4.97382095261024e-07
1.10693977072391e-07
1.03375411790846e-08
-5.56915287819444e-07
5.61816707214458e-08
1.1468113265726e-08
-5.48812665325799e-07
-1.58302250928204e-07
-3.03956436871912e-09
1.57158063604618e-07
-1.70986806553555e-07
-1.51625451046927e-09
3.23560447605014e-07
-1.33895389974106e-07
-3.91035206708729e-09
4.38587510651656e-07
-8.17775936594665e-08
-7.97924647776201e-09
4.75952536071415e-07
-3.57563070876486e-08
-1.05327933613143e-08
4.62918024585366e-07
-6.75431802613207e-09
3.54072592872743e-07
4.16451329468557e-09
7.60269242586025e-09
1.5967810524353e-07
3.17128801824857e-08
8.17196498924773e-09
1.22862596695864e-08
3.46924569967779e-08
5.51085613813202e-09
-1.79028047073714e-08
-4.78633942923466e-09
4.34962819358514e-09
-1.77024298118577e-08
-1.69034224353771e-07
8.45527570947107e-09
8.73616089770445e-09
-4.33421286471773e-07
1.48636444915777e-07
-1.22234729033548e-07
1.74506284817744e-08
1.47509661662442e-08
1.74995626636601e-08
4.67361323048597e-08
1.08624423617512e-08
-8.69440485134296e-11
-3.36080034549616e-08
9.03099777465866e-08
-3.55044570651621e-07
1.62610817342984e-08
2.47300981546187e-07
-4.18803101068161e-07
1.55196702205873e-08
-2.0949473714371e-09
1.19663626266149e-08
-2.55423732513142e-07
-2.08766527416208e-07
7.64122248842234e-09
4.29465749423319e-07
-6.63238700047167e-08
1.0164038370683e-08
3.62007818576591e-07
1.45432866826166e-08
9.47176071606125e-09
2.57537463171906e-07
-3.63532716052321e-07
3.83625739286765e-07
6.11738582764637e-09
2.03006492223186e-07
-2.62944339612209e-09
-3.61505074277629e-07
1.8669139538011e-07
1.99872405402953e-09
-5.33676032597328e-07
1.29337456530953e-07
1.44376907427795e-08
-6.30801730403584e-07
6.64178961156402e-08
1.81616562862012e-08
-6.3006189804451e-07
2.43811896100608e-08
1.56096120108259e-08
-5.80376079416866e-07
-1.52410159278368e-07
-2.33519183370539e-09
1.51676320618644e-07
-1.73135506213939e-07
5.24282086201919e-09
3.23520891358272e-07
-1.43889617633115e-07
-3.6958248967823e-09
4.67257576999471e-07
-9.45691481132311e-08
-9.32118274484551e-09
5.34512809003934e-07
-4.57789902141411e-08
-1.191776831815e-08
5.23126383956848e-07
-1.17810154093997e-08
-1.20905464691445e-08
4.8002915102778e-07
-9.0495244526793e-09
3.47884123439297e-07
1.52289642541363e-08
5.37364739000983e-09
9.93527492024218e-08
5.91088148942854e-08
8.1988605815938e-09
-4.64877580469839e-08
8.22888451219869e-08
6.11242029116386e-09
-7.09221781852658e-08
8.16013856639606e-08
3.34413420655786e-09
-7.07434520577101e-08
4.49138582492934e-08
4.84313695735762e-09
-5.27245154317067e-08
-1.12385120997055e-07
1.06419961460464e-08
-9.33228303375099e-09
-4.34742876765988e-07
5.93259982315129e-08
1.92206973314915e-08
1.8509440165906e-08
1.95246547495656e-09
-4.00510216047515e-08
1.70307851767784e-08
1.76479452957062e-07
-1.41444129917746e-07
2.09596086808762e-08
1.20517442789889e-08
-6.42756221989924e-08
7.57437610962992e-08
1.46703260896581e-08
7.67571018462697e-08
-2.194653695711e-08
8.04999205115012e-09
-6.62689497990198e-08
2.58776932536743e-08
4.48681891551464e-10
-2.97383627785309e-07
2.02404614232697e-08
1.09283400485672e-07
-4.05491647907013e-07
2.29850295273595e-08
2.78551092682268e-07
-4.57871246482702e-07
1.79482237590928e-08
-4.56869886628177e-08
1.22374294478518e-08
-1.92765902484336e-07
-2.30246669000052e-07
8.23690094154534e-09
4.69438882219746e-07
-7.87865363094413e-08
8.12010819649845e-09
4.15732263678597e-07
1.16889796721644e-08
7.15755821258273e-09
3.06852674394616e-07
5.01157059203613e-08
6.21376580208239e-09
1.94792260698948e-07
-3.79970418965786e-07
3.96268029214861e-07
1.97537864938365e-08
2.38395988106037e-07
2.71065796752801e-09
-3.96105906870186e-07
2.0517838931343e-07
-1.50482309734409e-08
-5.49634457750473e-07
1.48465552771948e-07
1.46005013334379e-08
-6.82328580593069e-07
7.91705934440618e-08
2.49908779624315e-08
-7.16837424960303e-07
2.98248062094267e-08
2.36061904028103e-08
-6.67863504702123e-07
1.5269646805665e-09
1.93382669621454e-08
-5.90586543747404e-07
-1.33595014659506e-07
-7.3394282396573e-09
1.38574765104313e-07
-1.4965763843174e-07
9.79859402503603e-09
2.96797457567513e-07
-1.47350658162164e-07
1.45038046336411e-09
4.65717601691408e-07
-1.01822135504461e-07
-1.10904100963036e-08
5.70778824666211e-07
-4.98078973811443e-08
-1.5671918640434e-08
5.88122693030373e-07
-1.7441786749727e-08
-1.56417187641408e-08
5.4410219677733e-07
3.46324655100259e-09
-1.4583658708383e-08
4.82086487697866e-07
-8.1855172752796e-09
3.35224512882172e-07
2.08602424485322e-08
3.13308981761048e-09
4.09403756572164e-08
7.04959196478575e-08
7.16870177335755e-09
-9.85607230656607e-08
1.04011357817773e-07
6.259846003807e-09
-1.16442406211012e-07
1.21549780473697e-07
3.76967330326163e-09
-1.13439319319427e-07
1.20529491622888e-07
2.40613210531733e-09
-9.95655657634844e-08
8.93532543548273e-08
5.30476375255078e-09
-7.07583500125378e-08
-5.62540832838591e-08
1.09057397284241e-08
-2.04831082505804e-08
-4.25178323916781e-07
8.76917697736369e-08
-2.09658546910545e-08
1.89707096032811e-08
7.44077001282179e-08
2.05226078951885e-08
2.19719083579635e-08
-7.46346156672083e-08
1.80147714968456e-08
8.91286670692515e-08
-7.67419398332377e-08
3.04323766373402e-08
1.47580320935031e-08
6.82467027484885e-09
-4.61373647787831e-08
2.41827471368339e-08
2.05573401618748e-07
-1.59932760375946e-07
2.3613053208967e-08
1.23985454815266e-08
1.24333024790433e-07
-1.17994557753838e-07
7.97422216662516e-09
-1.17194813034285e-07
1.2246581527721e-07
1.31253210742734e-08
1.04393444193933e-07
-8.21840596251403e-08
5.96900332865238e-09
-1.01296668563794e-07
7.79244863361763e-08
-5.07125376491245e-08
2.0443484861613e-08
-2.25073878530369e-07
5.41509965946337e-09
-3.40427764272435e-07
2.89570696027822e-08
1.32925399866752e-07
-4.49495325067222e-07
3.01685008141708e-08
3.13689015110755e-07
-4.91477995600773e-07
2.10118452781096e-08
-6.81506056959009e-08
1.11430140985175e-08
-1.28901810118403e-07
-2.5035196044736e-07
1.15091492474633e-08
4.95968352199599e-07
-8.95502025887603e-08
6.05158386411145e-09
4.59183711866136e-07
1.06233708631254e-08
4.50984202223684e-09
3.5797143235812e-07
5.36349834520656e-08
3.69815770196953e-09
2.3831548749429e-07
6.64178448894761e-08
3.78466491235717e-09
1.31191607870224e-07
-3.60269507624987e-07
4.00509942702911e-07
6.81970341047085e-08
2.24719405842143e-07
-3.74028887466304e-10
-3.55193957036839e-07
2.59290888342954e-07
-3.18101031071374e-08
-6.38589017228448e-07
1.75997720859531e-07
-5.951199699939e-09
-7.05079248815905e-07
9.43852371184056e-08
2.89928972257585e-08
-7.80733039199753e-07
3.65171110290748e-08
3.20654174237724e-08
-7.61771028262881e-07
3.66187362002209e-09
2.75263326194703e-08
-6.7971116055672e-07
-1.33074301270744e-08
2.09547704899274e-08
-5.87307656352586e-07
-1.06403939046792e-07
9.90750146569597e-08
-8.56796740296559e-08
-1.14530201750857e-08
2.45455895803339e-07
-1.30319981999253e-07
3.49008828090526e-09
4.25051849367621e-07
-1.02187846453193e-07
-1.05789252351005e-08
5.67393232765877e-07
-5.26567536647684e-08
-2.08359909951883e-08
6.28619973313381e-07
-1.93246408651165e-08
-2.10464481455572e-08
6.12875922612903e-07
-1.10264166247462e-09
-1.86454641407909e-08
5.49296406493608e-07
1.22563797193242e-08
-1.47050062368413e-08
4.76360385675356e-07
-7.89188283488876e-09
3.20529964363675e-07
2.25756468810422e-08
1.58626565361117e-09
-1.32604218854255e-08
7.34738034727613e-08
6.03390768492234e-09
-1.45236163016391e-07
1.11128647342466e-07
5.6892601956085e-09
-1.5674858440894e-07
1.38625920669286e-07
4.10797769088524e-09
-1.50048282088004e-07
1.54050673324818e-07
2.06578484337603e-09
-1.35961886960083e-07
1.54859788285981e-07
1.24054955153345e-09
-1.13061918457755e-07
1.30416089640699e-07
4.75630074171474e-09
-7.85051669892373e-08
-2.99286228649366e-09
1.10664082343961e-08
-2.63787386696966e-08
-4.09876840006214e-07
1.45116592037292e-07
-1.37975063746926e-07
1.83136567492496e-08
1.19588584091405e-07
-9.10064916627439e-08
1.72091574180306e-08
9.96495541926038e-08
-1.74641903470581e-08
2.18093175978035e-08
-8.22336192473552e-08
1.03505424255362e-07
2.40824377062825e-08
9.30176793706331e-08
2.10952996419729e-08
2.38853964802908e-08
-1.37549886847016e-07
1.30080088891053e-08
1.44906237080768e-07
-1.17349638606053e-07
9.15868823357602e-08
1.14443012503175e-08
-8.46492079486079e-08
3.57322095502415e-08
2.29707345086335e-08
1.82012312107314e-08
-5.47217812867243e-08
3.37197079003087e-08
2.49849973352632e-07
-1.90972208522829e-07
2.80557566294488e-08
8.49651579333257e-09
1.62721014972617e-07
-1.59971740302653e-07
1.13754470925554e-08
1.45361690274459e-07
-1.64653560130991e-07
4.83171398650681e-09
-1.44204526251503e-07
1.62602082238374e-07
1.12199928981937e-08
1.1502677358383e-07
-1.35992993528983e-07
3.69834810501223e-09
-1.18152771115054e-07
1.25460335320666e-07
-5.45650272072787e-08
2.9246867389451e-08
-2.58173445130501e-07
-7.70916789993932e-08
1.82054348724414e-08
-1.51405985810028e-07
1.63145270722827e-08
-3.80429105907389e-07
3.79621147992219e-08
1.7868436232698e-07
-4.95159869096997e-07
3.11300813079304e-08
3.65910262770688e-07
-4.82926324064061e-07
-7.870316871297e-08
9.35260490826944e-09
-6.81076604011971e-08
-2.6640565284435e-07
4.97459614897718e-08
4.98366012725588e-07
-1.02423719348795e-07
8.00461208169804e-09
4.94206374962686e-07
8.94012775904153e-09
8.29746427879302e-10
4.01314642985867e-07
5.87907843662762e-08
-7.05035489634343e-11
2.83614195033365e-07
7.31534595006993e-08
7.98531584809763e-10
1.67046193337576e-07
7.2448736449602e-08
1.51766656824249e-09
7.10711503698485e-08
2.90108292661908e-07
-2.62907518126255e-08
1.46646712028764e-07
-2.53446364424128e-07
9.16879203267477e-08
-5.66274659257478e-07
2.26587905207902e-07
-1.30953917614841e-07
-7.40208963579063e-07
1.19406730987668e-07
1.79169994537482e-08
-8.13387914244915e-07
4.56625525689869e-08
3.78087110614097e-08
-8.32166407812953e-07
6.48504108975689e-09
3.47673907145677e-08
-7.75457514337354e-07
-1.37175634587453e-08
3.06008556079508e-08
-6.75673447103291e-07
-2.19055355388438e-08
2.18851900862419e-08
-5.76228336102929e-07
-9.38437117004314e-08
1.81470597620411e-07
-9.15271947634158e-08
-1.18877223103514e-08
3.52365780387768e-07
-9.41966176687362e-08
-1.08022783670101e-08
5.19447359137935e-07
-5.38598938362168e-08
-2.61215751626434e-08
6.26502603321997e-07
-2.04182260363296e-08
-2.86870619619968e-08
6.56673273922292e-07
-2.04387971816801e-09
-2.49008260088877e-08
6.21190835211685e-07
1.02539959834532e-08
-2.05106887097927e-08
5.44846497762752e-07
1.63434015834582e-08
-1.46621078712966e-08
4.66787073849417e-07
-7.73153974574326e-09
3.05447398618269e-07
2.28226661680704e-08
3.60595166153938e-10
-6.32161380766975e-08
7.21696845785375e-08
5.05062627107475e-09
-1.87302420257912e-07
1.10487073581762e-07
5.06763634346114e-09
-1.93232796986555e-07
1.42545459307547e-07
4.0172863509116e-09
-1.82572131008129e-07
1.67132344790622e-07
2.54912507059849e-09
-1.66760568251924e-07
1.82301443470307e-07
8.59421752061214e-10
-1.45421791549242e-07
1.86362825525649e-07
2.21559290082619e-10
-1.17099120294154e-07
1.68789349273578e-07
3.98334940456071e-09
-8.03271699595763e-08
4.69657449192464e-08
1.14033732509622e-08
-2.95506488804247e-08
-3.91746912269888e-07
-1.87666933916929e-07
1.31636581876907e-08
1.90562588633121e-07
1.68422306135943e-07
1.70578730583293e-08
-1.92488855616431e-07
1.66485063820977e-07
-1.54943212670492e-07
2.4194369750053e-08
1.32083887246368e-07
-1.53602912588711e-07
1.48802458412757e-08
1.35752334266215e-07
-9.71656906972703e-08
1.99545955154101e-08
1.09172222249228e-07
-8.8634163990495e-09
2.34708950159957e-08
-1.55272857359829e-07
1.67495520205372e-07
1.96510343370023e-08
-8.25501678087754e-08
1.1428047989149e-07
3.16459019376304e-08
1.27977305447421e-07
1.22078179111941e-08
3.1121421050385e-08
-1.68594193294221e-07
9.10248603739551e-09
1.91878898315634e-07
-1.36842648579385e-07
1.47159838916744e-07
7.87325795390445e-09
-1.31849461748669e-07
1.0586685339292e-07
1.85875047167333e-08
-8.58529513121351e-08
3.76711248664566e-08
3.27474663296145e-08
4.95557049869121e-08
-7.946317541479e-08
5.13134327295799e-08
3.20154824096083e-07
-3.05962834775278e-07
1.13363247248486e-07
5.46541953151143e-09
-1.7993016932194e-07
1.95528623591769e-07
8.32236968800109e-09
1.78488862700217e-07
-1.9740527832288e-07
1.01166716376498e-08
1.51806014894865e-07
-2.0648384329577e-07
2.66751629136548e-09
-1.56198399982845e-07
1.98839664605074e-07
9.4620172287436e-09
1.16510760515483e-07
-1.84470155646423e-07
1.66651151739327e-09
-1.24285780957406e-07
1.69598431677449e-07
-5.37163676079103e-08
-2.88643334745422e-07
3.68265584887332e-08
-8.56931637713828e-08
2.63802203396911e-08
-1.74159460819873e-07
-8.97496961544057e-08
1.51260874569087e-08
-8.11390556109943e-08
4.61777041589951e-08
-4.21891031740552e-07
3.79424744580528e-08
3.12135551576917e-07
-5.31184168866887e-07
-8.23361402827374e-08
7.43362943897059e-09
-1.11266195687367e-08
-1.75859469002247e-07
-2.26212054778245e-08
4.46798661373661e-07
-1.24887593738388e-07
4.58478907204804e-09
5.32494177952311e-07
7.8338632051352e-10
-1.67122355087554e-09
4.42061783588564e-07
6.19954702492098e-08
-5.44789821420511e-09
3.24243157552256e-07
8.13051584726441e-08
-4.0827773318662e-09
2.05162305379508e-07
8.09304212494386e-08
-1.13075098832248e-09
9.90068615576052e-08
7.29124790755804e-08
-2.48753654707741e-10
1.51056094206994e-08
2.27275358214643e-07
-2.00788476119998e-07
1.42989385294063e-07
-3.04733200831425e-07
-1.39489922325105e-07
-5.92412459105643e-07
1.4967000394055e-07
-7.17569182480867e-08
-8.00171085283659e-07
6.25376745884169e-08
3.09896794496055e-08
-8.69116832126362e-07
1.04895872387261e-08
4.13639179492866e-08
-8.49238080863744e-07
-1.36641176989928e-08
3.94973412394432e-08
-7.7069906259085e-07
-2.38072729772449e-08
3.26555486300743e-08
-6.62632054796945e-07
-2.589280070925e-08
2.27921668948804e-08
-5.61676133861536e-07
-9.32027459804846e-08
2.62792212775984e-07
-8.53369225779529e-08
-1.3514286544483e-08
4.40381921372625e-07
-6.02844038291043e-08
-2.66481511489524e-08
5.8028738700773e-07
-2.28347073801061e-08
-3.63816924180771e-08
6.57008467555596e-07
-1.79249043544127e-09
-3.39875157832447e-08
6.67560197774892e-07
9.96756907149512e-09
-2.79850111092566e-08
6.18678876744848e-07
1.59101544345195e-08
-2.14557914980865e-08
5.35715869180446e-07
1.79111589103096e-08
-1.47842019583875e-08
4.55900617958561e-07
-7.63446626142846e-09
2.90709175578881e-07
2.23702406667315e-08
-5.01137869418903e-10
-1.0863449388118e-07
6.87354218811664e-08
4.24785831711983e-09
-2.25365936356277e-07
1.05990926112255e-07
4.50560937444991e-09
-2.26581704461307e-07
1.39329864797719e-07
3.69896106590407e-09
-2.12128061117422e-07
1.68402707885783e-07
2.69872951745382e-09
-1.93832395161686e-07
1.91505607834665e-07
1.3877552061937e-09
-1.72365407964973e-07
2.07854966212545e-07
-5.04098404446201e-11
-1.46510633711394e-07
2.15826213196668e-07
-5.37424560970777e-10
-1.15578254023224e-07
2.04581650471046e-07
3.04309805202865e-09
-7.86593472612394e-08
9.30267048361854e-08
1.16954192693875e-08
-3.05476429395382e-08
-3.72900972853207e-07
-2.31043554335259e-07
2.07390290760138e-07
1.27329237448421e-08
-2.12340489485344e-07
2.1817696684018e-07
1.85478259687821e-08
-2.10164398607665e-07
8.76912388587465e-09
2.28826918356588e-07
1.91725753084663e-07
2.32316309851813e-08
-2.17095307459875e-07
1.75672932263109e-07
1.53190488548204e-08
-2.41281876465392e-07
1.83696215315045e-07
-1.63942898337353e-07
3.10746097368236e-08
1.34236059678825e-07
-2.10132890073668e-07
1.26889531088423e-08
1.49913053638636e-07
-1.68289443670401e-07
1.73961937123162e-08
1.48680041905006e-07
-9.68158794350084e-08
2.1222642207054e-08
1.10811992300209e-07
1.71301538444809e-08
2.42885814737205e-08
-1.90526041444852e-07
1.45715320217562e-08
2.20697853919273e-07
-1.652173531644e-07
1.84800754238733e-07
2.84923977194156e-08
-6.73827797804986e-08
1.15675206027227e-07
4.51230624445698e-08
2.1777193455951e-07
-3.00672196890444e-08
3.86907267739851e-08
-1.82150718731158e-07
5.77163123308096e-09
2.34081649332515e-07
-1.44222313482322e-07
1.98637807981301e-07
4.67050078014768e-09
-1.54614708453903e-07
1.69128234793167e-07
1.35411429651014e-08
-1.40744418787222e-07
1.16144506536062e-07
2.7149332820767e-08
-7.33535887990025e-08
2.83410690300001e-08
4.44680069547713e-08
1.21743066740137e-07
-1.71339032450538e-07
1.07063719817606e-07
4.53089983299646e-07
-3.99095970558411e-07
-3.37913467587308e-08
5.55813319488124e-09
-2.10926887984113e-07
2.06625559567523e-07
3.23612289798469e-09
-1.87292404692042e-07
2.24775227838532e-07
7.65393279396711e-09
1.81549687295273e-07
-2.31104468039197e-07
8.94942743850239e-09
1.50193361540809e-07
-2.44608493699355e-07
9.20916322732859e-10
-1.5885014117742e-07
2.32431525305568e-07
7.96127842265451e-09
1.13093104327043e-07
-2.28362068410871e-07
6.40804577604768e-11
-1.23962780421956e-07
2.10627183645058e-07
-9.08405488487356e-08
-1.94818272793546e-07
3.3912497364201e-08
-4.35771438212539e-08
-3.20159126563239e-07
4.11906183589764e-08
-1.0086944722003e-07
2.2310616729203e-08
-9.41345940512043e-08
-9.43933368437661e-08
1.21418860757903e-08
-1.52851044988785e-08
1.55086579077991e-07
-4.47120899739298e-07
-5.15436841167395e-08
-8.15535213384495e-08
5.60638037468282e-09
4.19654726215908e-08
-2.08705772028523e-07
3.20149158728707e-07
-1.74480470725266e-07
-1.14673509985826e-08
5.51934223169515e-07
-2.96951420935605e-08
-9.38664298413026e-09
5.09634789008146e-07
5.75996473134005e-08
-1.20000101702292e-08
3.68209531663392e-07
8.69290772673944e-08
-9.77162634663066e-09
2.41222754933718e-07
9.04260856932559e-08
-5.64367518579232e-09
1.29192524297013e-07
8.21816727120979e-08
-2.92244765910772e-09
3.54114237545047e-08
7.04964851757429e-08
-1.38619438099382e-09
-3.65991999398726e-08
1.93035464646316e-07
-2.41496338549028e-07
-3.20064640674719e-07
1.52126447339125e-07
-1.36792480698887e-07
-6.74774475838577e-08
-4.5733186984213e-07
1.1786366366301e-07
-6.06727968863324e-08
-7.21382916210489e-07
8.49084200933506e-08
1.42105535180156e-08
-8.68243121336084e-07
1.85952226490783e-08
4.27618998523274e-08
-8.8909356713698e-07
-1.24713767722311e-08
4.64805292823966e-08
-8.43742030998714e-07
-2.56912426504343e-08
4.34084335726959e-08
-7.55733682712097e-07
-2.81872596208228e-08
3.41931981051565e-08
-6.45842718822746e-07
-2.70767425501061e-08
2.33413095351876e-08
-5.46261771237225e-07
-8.32630088151067e-08
3.32558497228652e-07
-7.3582715794532e-08
-1.64742488160468e-08
5.03819387604927e-07
-3.32257537642566e-08
-3.73682252689648e-08
6.14480564559464e-07
-5.59083127107727e-09
-4.24948712614293e-08
6.71113869109977e-07
9.36995513259002e-09
-3.74099488532311e-08
6.6762025062596e-07
1.70243921040243e-08
-2.99195690449454e-08
6.1016635601904e-07
1.84959930845772e-08
-2.22601335281277e-08
5.24696951687314e-07
1.83980866443387e-08
-1.49051999086717e-08
4.44774379693286e-07
-7.4508651240035e-09
2.76569657774775e-07
2.16015307748077e-08
-9.60083513316026e-10
-1.49559276525952e-07
6.42550032680029e-08
3.5640536946627e-09
-2.5989029425691e-07
9.96953491573223e-08
3.97775935141079e-09
-2.57178503207545e-07
1.3261168242922e-07
3.37510114734922e-09
-2.39302399207831e-07
1.63129849491399e-07
2.65901559327455e-09
-2.18250532621805e-07
1.90162365064453e-07
1.64403436193583e-09
-1.95592446518237e-07
2.130886850293e-07
5.06504548720714e-10
-1.70682779053015e-07
2.31520972691414e-07
-6.82756740752365e-10
-1.4251661504388e-07
2.43446793840901e-07
-1.07771165465632e-09
-1.10769232266145e-07
2.37769900082297e-07
2.20084743277648e-09
-7.48441339426523e-08
1.35126427801942e-07
1.17675411904006e-08
-2.98273450936056e-08
-3.5484915820025e-07
1.18798742224471e-08
2.1052753769981e-07
-2.70124909805518e-07
-2.45895881775791e-07
2.40134639185063e-07
8.54579562330693e-09
-2.61424067901663e-07
2.35745696971418e-07
1.77973387639765e-08
-2.37589001155161e-07
2.60878450007034e-07
1.31298554250633e-08
-2.28629706469055e-07
2.39242567885672e-07
2.64132231090785e-08
-2.18353459880709e-07
5.59854907812125e-09
2.62668822783076e-07
2.1035285843902e-07
3.04522729697754e-08
-2.32836441219321e-07
1.99429927832251e-07
2.12688726860442e-08
-2.72562289635684e-07
1.7416572766935e-07
1.36136325086364e-08
-2.85881008424711e-07
1.93435917738295e-07
-1.59306060524185e-07
4.03653558496557e-08
1.30702428960402e-07
-2.61461217490239e-07
1.07639165395603e-08
1.52500692720631e-07
-2.32611585912822e-07
1.4938886798068e-08
1.64249876262126e-07
-1.75290580013194e-07
1.85458670115044e-08
1.54861255143608e-07
-7.89652399594167e-08
2.00426820719375e-08
8.98698383847545e-08
1.05477884277392e-07
1.70260056657391e-08
-2.05457581008972e-07
2.15320114294905e-08
2.42556022574071e-07
-2.06148872634106e-07
9.72434234556796e-09
2.6827733796684e-07
-1.64224255544095e-07
1.93728278022358e-07
4.13098425085766e-08
-1.53634365169048e-08
9.42281222909099e-08
5.79292960719144e-08
5.19382952227263e-07
-1.98740910028713e-07
-3.37425372007871e-09
-1.8537641840512e-07
3.02452901456133e-09
2.73131252067413e-07
-1.4424296621117e-07
2.46444969096623e-07
2.1008032788336e-09
-1.63582501470017e-07
2.27510386750291e-07
8.9979793617786e-09
-1.67226862538247e-07
1.86042530512018e-07
2.00292100162685e-08
-1.41920919386537e-07
1.17983407442855e-07
3.58276635213871e-08
-3.14448236442746e-08
-2.01402089729665e-09
6.1693183215859e-08
2.78166126705728e-07
-3.41054887194129e-07
-1.20970002175925e-07
2.75110391727462e-07
-3.24562267457499e-07
5.32481297643874e-09
-2.38631549227068e-07
2.06589778698045e-07
3.51084487515267e-09
-2.13813840286624e-07
2.31280761147516e-07
1.54741482996063e-09
-1.86691662873033e-07
2.51573627144974e-07
6.92516941948667e-09
1.77524173106439e-07
-2.61985954225563e-07
7.91721176773823e-09
1.44147092914771e-07
-2.79603124058344e-07
-3.80083087289924e-10
-1.55612162778528e-07
2.637800464675e-07
6.72012669301878e-09
1.07123702034281e-07
-2.68148008744456e-07
-1.09682963929047e-09
-1.19577904864332e-07
2.48668004273744e-07
-1.09106710269376e-07
3.00551553150528e-08
-1.05920681459725e-07
-9.0225829844082e-08
-2.15091126379766e-07
3.76617382557767e-08
-1.10282835441722e-08
-3.45788618282714e-07
3.57655891008041e-08
-1.06785028341535e-07
1.84507496263837e-08
-1.9355407930994e-08
-9.37550183379127e-08
9.59734857497987e-09
4.62947021165548e-08
3.43326508085205e-07
-4.04093146392431e-07
7.55027456230407e-09
-7.79298266921052e-08
4.18320593402356e-09
9.08276983602811e-08
-1.7785910520859e-07
4.03271814360533e-07
-1.18478545388165e-07
-1.35839009286162e-08
6.00997793231909e-07
2.92244904439598e-08
-1.87659573573153e-08
4.53950362825886e-07
8.52477239148262e-08
-1.79658608285176e-08
2.85546316841531e-07
9.73963181953533e-08
-1.22815750059634e-08
1.59849795629555e-07
9.22195879702632e-08
-6.90958267159096e-09
5.79886979950589e-08
7.99547765333025e-08
-3.65457616198995e-09
-2.37603018660865e-08
6.65227861411913e-08
-2.02206715378465e-09
-8.36804744311637e-08
1.70843838648398e-07
-1.87358541196647e-07
-2.26320256903172e-07
1.55507500098121e-07
-6.5987166174238e-08
-6.04326071491283e-08
-4.44241918277119e-07
2.10847431958256e-07
1.585269214712e-07
-9.83633278245326e-09
-6.6670870423532e-07
1.03059879900599e-07
2.25333809395094e-08
-8.32756699773967e-07
3.18134853699099e-08
4.06368809914484e-08
-8.97968454778558e-07
-9.17940840313337e-09
5.09678106567638e-08
-8.84401215715242e-07
-2.67719246921779e-08
5.40536439815303e-08
-8.27623205947451e-07
-3.10502435375038e-08
4.62467452330718e-08
-7.36724453842906e-07
-2.95171714699669e-08
3.53162574244667e-08
-6.28296113988948e-07
-2.67806660896156e-08
2.36528557479689e-08
-5.31369358912119e-07
-7.35418803479321e-08
3.89631339484599e-07
-5.8128440662085e-08
-2.12828279787228e-08
5.4586185630277e-07
-1.95917157359009e-08
-4.20817545327968e-08
6.33721157836401e-07
5.17057482802157e-09
-4.56590192427261e-08
6.74177119699611e-07
1.67895559685044e-08
-3.96681400870988e-08
6.6059974369753e-07
1.98166423428343e-08
-3.11816061615923e-08
5.99263656507359e-07
1.93990089464645e-08
-2.28402649801012e-08
5.13231096436697e-07
1.83386883086155e-08
-1.48602018800557e-08
4.33819138200886e-07
-7.22360020843856e-09
2.63325655217597e-07
2.04618264514727e-08
-9.72464144708516e-10
-1.8634739644649e-07
5.93687423137615e-08
3.01024037945759e-09
-2.91201739567244e-07
9.25592261415734e-08
3.65131555859498e-09
-2.85342263331889e-07
1.24208089167848e-07
3.22421838536144e-09
-2.64516381211232e-07
1.5460115236874e-07
2.48471904783904e-09
-2.40615974824889e-07
1.83010801032993e-07
1.70056629779273e-09
-2.16162335859239e-07
2.09032068387125e-07
8.39779835047219e-10
-1.91126781171066e-07
2.32693202171998e-07
-1.02440324240143e-10
-1.64499897912653e-07
2.53607618720226e-07
-1.0825806140003e-09
-1.3547290822646e-07
2.69231679226426e-07
-1.44604417017351e-09
-1.03971877477514e-07
2.68345832117564e-07
1.63925099024111e-09
-6.97386918005877e-08
1.73404441724399e-07
1.16021784207222e-08
-2.82526711743563e-08
-3.38199521989762e-07
-3.05597198763195e-07
1.68116394149286e-08
2.38668182710836e-07
8.16511960246881e-09
-2.77897081128965e-07
2.39691458211448e-07
1.09227729170839e-08
2.06142049005618e-07
-3.06097490342085e-07
-2.48898189126702e-07
2.68655391126614e-07
5.534643908787e-09
-2.77800335528237e-07
2.72150444930257e-07
1.23527510128481e-08
-2.82767906626202e-07
2.57181332352985e-07
2.51045605337217e-08
-2.46881243647913e-07
2.98794432413818e-07
8.41344075601e-09
-2.56807488836341e-07
2.84901537691635e-07
1.88260197952933e-08
-2.35548860927807e-07
2.52641874334911e-07
3.85413015508092e-08
-2.17870579255072e-07
3.07054835490204e-09
2.93638527262737e-07
2.22629685102341e-07
3.96672260762786e-08
-2.36282293370751e-07
2.18167737726439e-07
2.87773260282502e-08
-2.94270584855669e-07
1.97708144026316e-07
1.91579516128478e-08
-3.23307109433775e-07
1.67588734676956e-07
1.20988446577241e-08
-3.26947663445244e-07
1.89729184204721e-07
-1.23912218241028e-07
4.905759070702e-08
1.24141871558834e-07
-3.0809015879129e-07
9.16419440524123e-09
1.48650040454975e-07
-2.91151453354088e-07
1.28749863522163e-08
1.67081522181649e-07
-2.46357112584332e-07
1.63199487114416e-08
1.72337670365206e-07
-1.65136601773281e-07
1.76283907091278e-08
1.43536673659357e-07
-1.4055842873225e-10
1.13513804443839e-08
-3.74089476439547e-08
4.64545588602375e-07
-9.18789072790796e-09
-2.12824239636346e-07
3.06348083458207e-08
2.55529732012596e-07
-2.23279650785252e-07
1.42968523137441e-08
2.94038684984306e-07
-2.10300932124294e-07
5.75974962402017e-09
3.1225447402611e-07
-1.46638915037808e-07
1.90070759605715e-07
6.06576670270775e-08