/*--------------------------------*- C++ -*----------------------------------*\
  =========                 |
  \\      /  F ield         | OpenFOAM: The Open Source CFD Toolbox
   \\    /   O peration     | Website:  https://openfoam.org
    \\  /    A nd           | Version:  12
     \\/     M anipulation  |
\*---------------------------------------------------------------------------*/
/*   Windows 32 and 64 bit porting by blueCAPE: http://www.bluecape.com.pt   *\
|  Based on Windows porting (2.0.x v4) by Symscape: http://www.symscape.com   |
\*---------------------------------------------------------------------------*/
FoamFile
{
    format      ascii;
    class       volVectorField;
    location    "600";
    object      U;
}
// * * * * * * * * * * * * * * * * * * * * * * * * * * * * * * * * * * * * * //

dimensions      [0 1 -1 0 0 0 0];

internalField   nonuniform List<vector> 
10228
(
(-6.09601813986974e-07 -1.00939066505144e-05 1.36677906605722e-05)
(-1.43235308490932e-06 -1.08480592768363e-05 1.51106867769504e-05)
(-2.30773414503633e-07 -1.09319203523783e-05 4.95178895672416e-05)
(-1.95790860398087e-07 -4.18038683078447e-05 1.73629354752661e-05)
(-1.08647014477126e-06 -4.54127609557227e-05 1.87049739760194e-05)
(-1.39487101316789e-06 -1.09743539572679e-05 1.53593340249547e-05)
(-8.31183830765465e-07 -1.17300036937905e-05 5.38648594730577e-05)
(-1.41492408483343e-06 -1.00721921125749e-05 7.94964512590461e-05)
(-1.7447948301996e-07 -4.31129162977539e-05 5.81954089168267e-05)
(2.16162711706299e-07 -7.7479125347257e-05 1.84520343802893e-05)
(3.14295497629721e-07 -4.57629105811725e-05 6.20622579467053e-05)
(-9.5333475366993e-07 -4.50930625275058e-05 1.86973105079006e-05)
(-3.42450655952386e-07 -8.48599727363727e-05 1.85065111014576e-05)
(-1.24986324444797e-06 -1.08933844622272e-05 1.51991112005239e-05)
(-5.28452370423732e-07 -1.17328957939097e-05 5.3666087801832e-05)
(-5.11032443458385e-07 -1.13577217056487e-05 8.83107764881243e-05)
(-1.92009232823459e-06 -6.66306295489432e-06 9.46796079553181e-05)
(-8.43313824346014e-07 -2.21325217043604e-05 7.68638275583769e-05)
(1.51344640239943e-07 -6.60573689109381e-05 3.88803169770453e-05)
(1.20834399806765e-06 -0.00010392228891926 1.31943013859012e-05)
(1.33346795049442e-06 -7.16576748325964e-05 4.18680066701205e-05)
(1.73150091725158e-06 -2.51379977445242e-05 8.51450314470439e-05)
(1.60454028217235e-06 -4.40773141795925e-05 6.09608126190701e-05)
(-5.22325078048457e-07 -4.55916546416652e-05 1.91609199515021e-05)
(1.20727667471754e-07 -8.47772885695478e-05 1.86182037407591e-05)
(9.02009431216816e-07 -0.000116902093710531 1.53450986736237e-05)
(-1.11293507045201e-06 -1.14536462191275e-05 1.59653101202499e-05)
(-1.59381351257868e-07 -1.21413105850427e-05 5.44132060901342e-05)
(1.59321189174605e-07 -1.20057158622446e-05 8.83146721560037e-05)
(-8.67661261121043e-07 -1.03167091971715e-05 0.000109681698624824)
(-2.03942410623399e-06 -3.97121637000445e-06 9.55730479815574e-05)
(-1.59190974793629e-06 3.2862520377535e-06 6.36188658178774e-05)
(1.88649108436642e-07 -9.23083748311153e-06 2.20301974559113e-05)
(1.03546453116986e-06 -6.26308250936373e-05 8.76761147080277e-06)
(2.21323146535673e-06 -0.00011603079227493 7.06073368564495e-06)
(2.61150876329627e-06 -1.21180185022769e-05 2.55039772374415e-05)
(3.59306790890567e-06 -6.94282342286441e-05 4.09929445454963e-05)
(2.23909116366988e-06 -7.10412619576643e-05 1.12366339120673e-05)
(3.27240740161526e-06 -2.36548469943759e-05 8.38961177722987e-05)
(1.43523432066841e-06 -1.05482320435978e-07 7.65470031335531e-05)
(2.71511970230187e-06 -4.38336479403526e-05 6.18278735658156e-05)
(-2.41496019737025e-07 -4.59670628540239e-05 1.97967083750714e-05)
(9.14574305826021e-07 -8.558676638176e-05 1.93518254546595e-05)
(2.00794031770904e-06 -0.000117625073920795 1.6055050669014e-05)
(2.84364441557479e-06 -0.000133533616199642 9.93364093667508e-06)
(-1.10257218840884e-06 -1.11756236495645e-05 1.57467023566047e-05)
(2.79145362089856e-07 -1.2387511592774e-05 5.50365270611592e-05)
(3.37900552957224e-07 -1.28817544375035e-05 8.92652715942588e-05)
(-2.95687750644018e-07 -1.20697433497556e-05 0.000110241166132931)
(-2.04858176691616e-06 -7.64247786183508e-06 0.000116047349001185)
(-1.96096787401915e-06 -5.29381517517153e-07 8.53368047078431e-05)
(-1.7264532064889e-06 2.08404778770117e-05 3.23280538235545e-05)
(1.11374004867737e-08 3.01311743603046e-05 -9.88802224283769e-06)
(7.8519047950718e-07 1.40343170193859e-05 -2.07134168063344e-05)
(1.49478099170181e-06 -4.11742953633585e-05 -1.45381262606659e-05)
(2.04612181472836e-06 -0.000115025362523783 1.8509555831045e-06)
(5.16702862980104e-06 -9.71732888803628e-06 2.39533246636733e-05)
(2.54205948745771e-06 2.88247237744432e-05 -6.17543864876475e-06)
(2.86731230760307e-06 1.18446086789982e-05 -2.01610072780179e-05)
(4.99410311268757e-06 -6.89827802362052e-05 1.04440345082067e-05)
(5.41642592255763e-06 -6.87498781139252e-05 4.18525054453312e-05)
(2.88259272753718e-06 -5.12998470017621e-05 -1.28969255939133e-05)
(4.6047653256914e-06 -2.28689526689606e-05 8.44521948462821e-05)
(3.36777699219441e-06 5.91760392839699e-07 7.58623400599093e-05)
(4.31177314635989e-07 1.77212671830907e-05 4.90436654327662e-05)
(3.65515517859386e-06 -4.37325450792015e-05 6.27235276814378e-05)
(-6.3778304032296e-07 -4.59360253517599e-05 2.03906125531207e-05)
(1.19414353860832e-06 -8.55424121624903e-05 2.01454909482566e-05)
(3.30321846280806e-06 -0.000118931728481488 1.73421885315055e-05)
(4.12647069008895e-06 -0.000135255368843455 1.07001403176925e-05)
(3.63414332220913e-06 -0.000136368183300692 4.11401656094245e-06)
(-1.0034947259751e-06 -1.1634309638451e-05 1.67866886898697e-05)
(1.20967345405957e-06 -1.21399536999318e-05 5.45161728035055e-05)
(2.66048600564004e-07 -1.30973646106535e-05 8.94935921959156e-05)
(-4.11886483253577e-07 -1.33113614943267e-05 0.000111421172075888)
(-1.43420214111234e-06 -9.39015232669465e-06 0.000117578701276911)
(-2.58131319900059e-06 -2.83022950743264e-06 0.000111000574803733)
(-1.17785154560277e-06 3.78843989530691e-06 6.83339235629869e-05)
(-1.43083772960909e-06 3.04473181194097e-05 -5.36550782926771e-06)
(-3.46984855441877e-08 5.01433778207193e-05 -4.30622960442829e-05)
(5.41885576895068e-07 5.30309948504706e-05 -4.84869651639953e-05)
(8.20536819343663e-07 3.87892933766048e-05 -4.55441823245311e-05)
(1.50503501279075e-06 -1.20338113384943e-05 -2.86957226949051e-05)
(1.61321981507889e-06 -0.000104222794536043 -3.35047017097852e-06)
(5.04763356807214e-06 3.11042815627966e-05 -8.16696134507337e-06)
(5.43090218336029e-06 1.47748865429548e-05 -2.22840902559988e-05)
(7.29724524638833e-06 -8.03859759842612e-06 2.40195565306129e-05)
(2.6015732476602e-06 5.27386325214088e-05 -4.84894413294008e-05)
(2.16272810106016e-06 4.95671876002478e-05 -3.94328454302997e-05)
(2.4497829626233e-06 3.69639146017207e-05 -4.60981611657543e-05)
(5.3927475612245e-06 -4.91837299695584e-05 -1.41242370015194e-05)
(7.366543320227e-06 -6.83087390628457e-05 1.0933246124339e-05)
(6.73465879634901e-06 -6.87974744827964e-05 4.37717504849768e-05)
(3.03565704437821e-06 -2.28379990134331e-05 -2.75834666559204e-05)
(5.1740173248419e-06 -2.25000114258216e-05 8.54677881294107e-05)
(4.50334017763677e-06 1.39307768884366e-06 7.63274650022394e-05)
(2.32492375985753e-06 1.81672579369008e-05 4.92676053291895e-05)
(-2.74416789398649e-07 2.7964128031806e-05 1.31523117657373e-05)
(5.28869048862907e-06 -4.373702953119e-05 6.30829114613464e-05)
(-1.00429746023572e-06 -4.85073596466012e-05 2.40407425291482e-05)
(-7.25095451564706e-07 -8.48923349964462e-05 2.08760883430666e-05)
(3.88688488563921e-06 -0.000119044921730266 1.84518414088951e-05)
(5.8225666911968e-06 -0.000137419556560961 1.22291491362049e-05)
(5.54562704055504e-06 -0.000138632002541134 4.84670543032071e-06)
(4.06294982104654e-06 -0.000128094008938371 -1.5581223653182e-06)
(-1.68287116151636e-06 -1.10459594845687e-05 1.70654173820269e-05)
(3.23320031578337e-06 -1.12049911611542e-05 5.30083935869707e-05)
(2.07877522047944e-07 -1.2611131436059e-05 8.80183924592876e-05)
(-1.16273655214364e-06 -1.36941246098423e-05 0.000111523545839745)
(-1.77608793857147e-06 -1.11517897861863e-05 0.000119292828386839)
(-2.55161862655014e-06 -4.29179206768163e-06 0.000113095267356965)
(-3.14591572146712e-06 2.24522670152452e-06 9.7878794017178e-05)
(-8.77864600528897e-07 7.14556785001444e-06 4.80919679215207e-05)
(-9.00326356233484e-07 3.47503815061523e-05 -4.39694976824755e-05)
(1.04576158624337e-07 5.90286524234271e-05 -7.5316745649182e-05)
(4.69130058756695e-07 7.15454897816871e-05 -7.46169199706039e-05)
(4.82414750980552e-07 7.39650917671053e-05 -6.94682996197146e-05)
(6.52227283849896e-07 6.34179672509409e-05 -5.86224556195821e-05)
(1.18418913240589e-06 1.96020164588918e-05 -3.65588166235634e-05)
(1.4248598747844e-06 -8.67790922543918e-05 -7.14808491085725e-06)
(4.50902292745946e-06 5.17451103223724e-05 -4.18437692268264e-05)
(7.04273981313931e-06 3.34465072077508e-05 -9.07706007903874e-06)
(4.91980189079999e-06 5.58205450556746e-05 -5.13406463746044e-05)
(4.64147687712206e-06 4.03455369106315e-05 -4.8637712476931e-05)
(7.80933198822644e-06 1.72918686967326e-05 -2.32402475780996e-05)
(8.86150947030748e-06 -7.88283790939348e-06 2.62031826266231e-05)
(2.37305459666349e-06 7.18485572573126e-05 -7.49214003907449e-05)
(1.94718184481725e-06 7.41165369426148e-05 -7.04587970826156e-05)
(1.87403423277366e-06 5.8760706009691e-05 -7.19027481496491e-05)
(1.87717173406086e-06 6.18029620998443e-05 -5.94790293220815e-05)
(5.06760410143431e-06 -2.03577193843269e-05 -2.9021713026348e-05)
(8.03212680766673e-06 -4.83041739153845e-05 -1.43745648888539e-05)
(9.35134333204778e-06 -6.91369401417219e-05 1.32947421803098e-05)
(7.66676976912962e-06 -7.01809381501356e-05 4.731901262423e-05)
(2.68566876021384e-06 8.66456096832828e-06 -3.59054002202452e-05)
(5.36985934562956e-06 -2.32178133911374e-05 8.68391916742726e-05)
(4.65073658450138e-06 1.69365108663145e-06 7.77330883152308e-05)
(3.18066059569292e-06 1.87805632866521e-05 5.01118206717868e-05)
(1.282706802138e-06 2.83326924616788e-05 1.38366920528918e-05)
(-5.06249301289015e-07 3.29808014600669e-05 -2.47138982365305e-05)
(1.37184603505544e-05 -4.25893574717193e-05 6.31743330080369e-05)
(-3.85914703607209e-06 -5.00201730163351e-05 2.87344774384427e-05)
(-7.9783867859869e-06 -8.683856833512e-05 2.54368609152416e-05)
(1.80972424431448e-06 -0.000118180367254836 1.86529274259897e-05)
(7.12185675125169e-06 -0.00013835463772696 1.35293882745959e-05)
(7.53179378362737e-06 -0.000141526599837332 5.66238518492601e-06)
(5.94733700150389e-06 -0.000130486225915228 -1.34138614646435e-06)
(3.6946272387408e-06 -0.00011209229563564 -7.11429419639582e-06)
(-1.58492395105508e-06 -1.00815696154645e-05 1.36836734628533e-05)
(7.52656502141399e-07 -6.80962434904052e-06 4.97563418727521e-05)
(8.86662280523979e-07 -1.19557034123612e-05 8.36139581311574e-05)
(-2.54231393153905e-06 -1.30625965118654e-05 0.000109742022040334)
(-3.34964875204282e-06 -1.20544571195813e-05 0.000119563132616422)
(-3.44962586832225e-06 -5.82504249231219e-06 0.000115153361122427)
(-3.78578116209626e-06 1.38998734131059e-06 0.000100556098141109)
(-3.24371721104829e-06 5.85578519776972e-06 8.03380899751882e-05)
(-7.12004965738766e-07 8.86000895935293e-06 2.65559703050932e-05)
(-5.76063549130567e-07 3.62575953482054e-05 -8.04089964405043e-05)
(2.66265926884043e-07 6.17750264000751e-05 -0.000105631274226047)
(5.27680495990003e-07 7.92827421461336e-05 -9.91511134928525e-05)
(4.26187465966923e-07 9.01659075461012e-05 -9.09101026868243e-05)
(2.77502318888114e-07 9.33099515286705e-05 -8.04391376194556e-05)
(4.11365523972159e-07 8.73872408707992e-05 -6.46754959759826e-05)
(8.75312102910716e-07 5.10859206977518e-05 -4.04376741175959e-05)
(1.23023767025505e-06 -6.54747739423023e-05 -1.02812629823773e-05)
(4.50334528578902e-06 7.480448008939e-05 -7.82415907523858e-05)
(3.95552921191228e-06 6.07655713477289e-05 -7.46628742025802e-05)
(6.34742086056052e-06 5.43360700094352e-05 -4.35307420534685e-05)
(7.10222961915567e-06 5.91627485648616e-05 -5.34274975426252e-05)
(8.50978604029753e-06 3.47914736092671e-05 -8.12311155041544e-06)
(3.86205668541098e-06 7.77616633771937e-05 -7.36270045945775e-05)
(3.5365002797468e-06 6.56120151179559e-05 -6.21376927947175e-05)
(6.83931224295979e-06 4.36099437200071e-05 -5.04840085288925e-05)
(1.01712513118194e-05 1.81134873561495e-05 -2.19792755056433e-05)
(1.03566741213634e-05 -1.10918539966497e-05 3.30227405961107e-05)
(1.79799529651161e-06 9.09251146261098e-05 -9.21357211673477e-05)
(2.2409180919029e-06 7.97365246138586e-05 -9.96395913929209e-05)
(1.24098777779605e-06 9.37375013743662e-05 -8.16356971023009e-05)
(1.65556222901603e-06 6.1708005072185e-05 -0.000102507360717976)
(1.26899902402893e-06 8.59699047848825e-05 -6.55893458537588e-05)
(7.35153562634488e-06 -1.89598090332076e-05 -3.00858758300074e-05)
(4.16012584154818e-06 1.15255262005577e-05 -3.75088807273407e-05)
(1.05628016682327e-05 -4.94423793712648e-05 -1.30202426815857e-05)
(1.00664705434361e-05 -7.33783809278992e-05 1.96803105925447e-05)
(1.60890846021192e-05 -6.85673101152455e-05 5.24310070338149e-05)
(2.10763603439792e-06 4.06096144682771e-05 -4.017700221086e-05)
(1.04258030430549e-05 -2.56152502780561e-05 8.79907960230752e-05)
(4.24392867197302e-06 5.07275664924935e-07 8.14841687290839e-05)
(3.01863848245583e-06 1.89930131951402e-05 5.20528995595366e-05)
(1.8198434470916e-06 2.91059628484109e-05 1.48668731253234e-05)
(6.29425221805129e-07 3.35863683998354e-05 -2.39573506666602e-05)
(-6.58474812275509e-07 3.49762243278985e-05 -6.12412630065274e-05)
(4.13628394465952e-06 -2.17358021411546e-05 6.04522793024613e-05)
(-8.60576228059548e-06 -3.92620980902588e-05 1.9829274571856e-05)
(-2.80173867186959e-06 -8.61737402266212e-05 2.98684135804329e-05)
(-1.17479125392694e-05 -0.000117585058770835 1.92046276193545e-05)
(5.85414523046341e-06 -0.000138557292578352 1.38834233897501e-05)
(8.99939655957282e-06 -0.000143490194547654 6.79107687177884e-06)
(7.93184113791647e-06 -0.000133808074679794 -1.1014642865895e-06)
(5.42822160806043e-06 -0.000113958234782598 -7.84313327932086e-06)
(3.34134178004806e-06 -9.1916540191764e-05 -1.18602975150265e-05)
(-2.00888322257419e-06 -8.74978063919046e-06 3.97846039920552e-05)
(-9.9463902640281e-07 -9.65383846268233e-06 7.48869082297268e-05)
(-3.97919608378154e-06 -1.15147390651578e-05 0.000105338130553379)
(-5.81746701007611e-06 -1.17822651599045e-05 0.000117802666809617)
(-5.64340408838894e-06 -6.8212107494711e-06 0.000115797676129621)
(-5.03558151596253e-06 6.04090296199496e-07 0.000103044438610739)
(-4.51693258513843e-06 5.37287116630499e-06 8.3529782713926e-05)
(-3.25913331844154e-06 7.84476307999125e-06 6.07792124904363e-05)
(-8.23280761408864e-07 9.34580431352156e-06 5.33037723654379e-06)
(-4.26546753594864e-07 3.59091119569247e-05 -0.00011415795435517)
(3.53740086791386e-07 6.11973463244008e-05 -0.000133567837304017)
(5.95705303914967e-07 8.10143393265396e-05 -0.000122069024873686)
(4.74691764929462e-07 9.65653324866139e-05 -0.000110350853025003)
(2.35234041283204e-07 0.000106445998656293 -9.91712481926807e-05)
(7.06889451836834e-08 0.000111495349960962 -8.50538096073788e-05)
(1.83212640371989e-07 0.000110538175809217 -6.64492998461423e-05)
(6.09944134483996e-07 8.15097176877567e-05 -4.16428269118988e-05)
(1.11744221574289e-06 -4.25022962981643e-05 -1.28818048326244e-05)
(3.49856443852334e-06 9.44257548458252e-05 -9.56607444728088e-05)
(4.19561127098283e-06 8.24005991716672e-05 -0.000103261565109626)
(6.55713157033808e-06 7.82345499056388e-05 -8.10620959903413e-05)
(3.42710383980592e-06 6.35211515521795e-05 -0.000105598642569497)
(5.611789857624e-06 6.33635946972814e-05 -7.70022139608647e-05)
(7.7215526444865e-06 5.63510722410611e-05 -4.37549051238339e-05)
(5.78575120417321e-06 8.18200300633023e-05 -7.63678584957133e-05)
(9.22623016343938e-06 6.16479767932119e-05 -5.38347613196691e-05)
(1.02364942724008e-05 3.31728994499956e-05 -2.1465197782729e-06)
(2.66985563876365e-06 9.78355294636261e-05 -8.48443442016662e-05)
(2.38360153614049e-06 9.0130405291361e-05 -6.82345066413582e-05)
(5.27818310165443e-06 6.95873477079141e-05 -6.45964531614617e-05)
(9.14635436158469e-06 4.54684302489715e-05 -5.07914575805991e-05)
(1.29117943138786e-05 1.46941146328757e-05 -1.54333088375557e-05)
(1.83784237977226e-05 -2.12221118225049e-05 4.97476650974061e-05)
(1.09894507652692e-06 0.000107513956599175 -0.000100592813784564)
(1.7781091243613e-06 9.74490332848134e-05 -0.000111722271319794)
(2.11504009768267e-06 8.15169155930039e-05 -0.000122673599531259)
(6.29640794883045e-07 0.000112117350939016 -8.62688077847083e-05)
(1.43989236480853e-06 6.126385642084e-05 -0.000130835619807855)
(6.99250464119223e-07 0.000109403165474875 -6.74106759329701e-05)
(9.76330819040155e-06 -1.95597399239954e-05 -3.00310956921011e-05)
(5.80929588609971e-06 1.35162769064982e-05 -3.91076530070345e-05)
(2.98248745202801e-06 4.39841521712967e-05 -4.19638309766597e-05)
(1.07052815948009e-05 -5.4488611614078e-05 -8.18427243533464e-06)
(1.1053517405917e-06 -8.05088408149324e-05 3.22886639149732e-05)
(1.50159615037158e-06 7.1659921173424e-05 -4.18163912963114e-05)
(2.23537010115711e-06 -2.15057018905864e-05 8.44860684337504e-05)
(3.40291515323435e-06 -4.25155592734114e-06 9.06934783435769e-05)
(1.82626876008261e-06 1.77705248479664e-05 5.75004346174326e-05)
(1.13497874706552e-06 2.95325816511933e-05 1.68930198865739e-05)
(7.43705619537916e-07 3.46208137647029e-05 -2.29970624090279e-05)
(1.36149013870673e-07 3.56367594845262e-05 -6.07869008965286e-05)
(-8.39830219466376e-07 3.49964837065828e-05 -9.52811942237921e-05)
(-1.24201631085047e-05 -3.13560367833668e-05 4.99287759874448e-05)
(-2.52086818593039e-05 -6.157973627997e-05 2.21049218832406e-05)
(-2.09803448491523e-05 -0.000105919865686972 7.98887415590409e-06)
(-2.86705031463468e-06 -0.000138207499152029 1.1102758868595e-05)
(8.35463187775486e-06 -0.000144618190764292 7.92532602214359e-06)
(9.57732305283291e-06 -0.000136469606795794 -4.48182513458814e-07)
(7.18145650775934e-06 -0.000117192440597587 -8.1128443696933e-06)
(4.6446085807225e-06 -9.31632201351027e-05 -1.3124291119386e-05)
(2.96611434960251e-06 -6.95890977949236e-05 -1.4276905357715e-05)
(-1.31456767558613e-06 -1.07642174617273e-05 6.15640407828293e-05)
(-4.47584935286616e-06 -9.9624049180706e-06 9.72735478874522e-05)
(-8.24858991535096e-06 -1.06648351429786e-05 0.000114456292379739)
(-8.7192937956291e-06 -7.44770380528561e-06 0.000114568358855949)
(-7.58227824251151e-06 -1.28596911900882e-07 0.000104116533860616)
(-6.27416207283853e-06 5.27068678349677e-06 8.64977352363512e-05)
(-4.77652674829103e-06 7.40383833517182e-06 6.42987247411764e-05)
(-3.26244490206859e-06 8.64982726522617e-06 4.10018286291259e-05)
(-9.11480776701417e-07 9.29024370721968e-06 -1.48612174166246e-05)
(-3.71407536831305e-07 3.4491213235682e-05 -0.000144867090496757)
(3.66277492348806e-07 5.87449611356524e-05 -0.000159106606712356)
(6.2469299737319e-07 7.93474760337575e-05 -0.000143367430957208)
(5.40175421861968e-07 9.73514817702993e-05 -0.000128326691049995)
(2.97139850389051e-07 0.000111139888089263 -0.000115472651431895)
(3.39964859578576e-08 0.000121201858086689 -0.000102099724760883)
(-1.05249971254086e-07 0.000128894069405357 -8.55645816917859e-05)
(5.64306496695271e-09 0.000132570383387746 -6.55316788111974e-05)
(3.98102495562068e-07 0.000110218435312675 -4.11449374465833e-05)
(1.02621237416332e-06 -1.93169503237961e-05 -1.4036541585694e-05)
(3.34189169205583e-06 0.000100596398596613 -0.000115428877775061)
(5.25662425810545e-06 9.84962960316807e-05 -9.89424884119988e-05)
(2.33653713447458e-06 0.000111433564937822 -0.0001040556116446)
(6.13218142469217e-06 8.56501636792966e-05 -0.000106665258338377)
(3.87590042088361e-06 8.38885269127709e-05 -0.000126518761420573)
(8.60508705810274e-06 8.12931837828267e-05 -8.27199480531122e-05)
(2.92201130656704e-06 6.28998726600226e-05 -0.000134280528874079)
(4.89105129021708e-06 6.59983479106735e-05 -0.000108561518291628)
(6.85267319608301e-06 6.56267405458326e-05 -7.8348417831196e-05)
(9.03671558287144e-06 5.59967372057767e-05 -3.95718615674323e-05)
(4.11145944105192e-06 0.000102525680690838 -8.79576074516503e-05)
(7.66709314233042e-06 8.52997263719151e-05 -7.80008509190146e-05)
(1.17803522562712e-05 6.1422593913397e-05 -5.02535362937361e-05)
(1.18208349024171e-05 2.4377951606902e-05 1.5755492763389e-05)
(1.57304586238953e-06 0.000116508729571092 -8.93794175315469e-05)
(1.32924345519598e-06 0.000113902707986748 -7.00105803904249e-05)
(3.56615249144412e-06 9.47131921241832e-05 -7.10422695661727e-05)
(7.07565507299271e-06 7.27655357015046e-05 -6.63369393522641e-05)
(1.14527260275565e-05 4.38062235228159e-05 -4.74439842136781e-05)
(1.73134932689797e-05 3.41938587444808e-07 5.08492899452952e-06)
(1.01621931798462e-05 -3.42625044642574e-05 6.73854727951703e-05)
(1.1443423758533e-06 0.000112308452282179 -0.000117004719192806)
(4.90417091041173e-07 0.000122460291780732 -0.000103524376938681)
(1.77200243184697e-06 9.82343423287321e-05 -0.000129756857969757)
(1.96484324373729e-06 7.98880179647972e-05 -0.000144131027974903)
(1.30492452944546e-07 0.000129696890203807 -8.67813301168521e-05)
(1.22663207969491e-06 5.88954789654464e-05 -0.00015685076103653)
(2.19921586621564e-07 0.000131797962514487 -6.65578520871647e-05)
(7.63521995536695e-06 1.40448978951914e-05 -4.0148479293154e-05)
(1.08322481991397e-05 -2.2862422429373e-05 -2.79711976962877e-05)
(3.9945697413543e-06 4.6686331013122e-05 -4.39106868947141e-05)
(1.84932251542171e-06 7.56194069507908e-05 -4.3741570955044e-05)
(1.23378884775604e-06 -6.58321436285646e-05 3.58727211993525e-06)
(9.09704334580245e-07 0.000101278883947616 -4.15506320083574e-05)
(-9.91936017567308e-06 -2.94070288331866e-05 7.26275780875088e-05)
(-1.20876131792744e-06 -1.50969067484713e-05 0.000104416746716149)
(-5.16801485387064e-07 1.14374309092566e-05 7.30342177863332e-05)
(-5.38213887630327e-07 2.83796140153929e-05 2.27933791711731e-05)
(-3.70055911982338e-07 3.53017662326229e-05 -2.13193340051637e-05)
(-1.04510805210762e-08 3.68451808828317e-05 -6.03279160248591e-05)
(-4.0898241099258e-07 3.5625132585374e-05 -9.50876626447828e-05)
(-8.59051715902355e-07 3.38382190723554e-05 -0.000126644604718377)
(-2.76234684812126e-05 -4.52379543380378e-05 4.73232079834037e-05)
(-2.91312606727118e-05 -5.58869552929307e-05 2.15923609499159e-05)
(-9.37513965434062e-06 -7.28279986745266e-05 1.38785156048172e-05)
(-4.52337496343346e-06 -0.000127547506386254 3.06981771706013e-06)
(6.70502648979276e-06 -0.000144176023998226 8.8236111784524e-06)
(1.02996497527803e-05 -0.000138189658278071 9.31692408552937e-07)
(9.06166266833626e-06 -0.000120253173054474 -7.81263517924166e-06)
(5.98186735218167e-06 -9.58669483712762e-05 -1.39321754355092e-05)
(3.84973797774819e-06 -7.00638509155042e-05 -1.52932000216667e-05)
(2.59867838480607e-06 -4.6820071992259e-05 -1.46537497985348e-05)
(-1.30170886463806e-06 -9.50817747289635e-06 8.20092739320348e-05)
(-7.49849272695533e-06 -9.97048088984198e-06 0.00011030768793748)
(-1.13643472389444e-05 -8.11831234045197e-06 0.00011289504642036)
(-1.08747092921782e-05 -1.24709800300324e-06 0.000103608476515957)
(-9.00721686343973e-06 4.81606869959669e-06 8.80265496699294e-05)
(-6.93220810366492e-06 7.41728332923676e-06 6.75708826081007e-05)
(-4.93091080093587e-06 8.44045511003006e-06 4.45974156999205e-05)
(-3.20326731256474e-06 8.82911332556047e-06 2.19782716901885e-05)
(-9.62075112651284e-07 8.88628112940055e-06 -3.3719578482314e-05)
(-3.35046421324287e-07 3.24058902208774e-05 -0.000172554675957409)
(3.44300405261691e-07 5.52604796260387e-05 -0.000182346782284206)
(6.09320701491607e-07 7.57547000503937e-05 -0.000163082595783382)
(5.71501351733138e-07 9.48191693597472e-05 -0.000145065095160715)
(3.71929296719572e-07 0.000110870304931084 -0.000130184941188714)
(1.03609614767098e-07 0.000123902925073214 -0.000116430290687296)
(-1.27545568971759e-07 0.000135025322154503 -0.000101357419615261)
(-2.29807439315782e-07 0.000145460076507019 -8.33889930863956e-05)
(-1.19943381181765e-07 0.000153272637596768 -6.28770170227808e-05)
(2.39956676350575e-07 0.000136830118510295 -3.94999584816599e-05)
(1.01868977327561e-06 3.31813997302014e-06 -1.35968612356619e-05)
(3.2116641920587e-06 0.000101033588205911 -0.000133583508353708)
(2.2601490721657e-06 0.000115837530870391 -0.000120562056863944)
(4.98243556763762e-06 0.00010437323949631 -0.00011912294355021)
(3.60421491663086e-06 0.000116080142106801 -0.00010755680002976)
(7.00732581997385e-06 0.000102373393874443 -0.000101524073459497)
(1.29301407415165e-06 0.000126654066555215 -0.000106833220111281)
(8.11737270154898e-06 8.87410254164435e-05 -0.000109392553429783)
(5.6925188601224e-06 8.6877821506747e-05 -0.000130436167787025)
(3.53396355047065e-06 8.20187744347677e-05 -0.000148207367395894)
(1.10506000566678e-05 8.25552530485408e-05 -8.14241854653891e-05)
(2.44769627153056e-06 6.03902735109211e-05 -0.000160669107159571)
(4.22004239837059e-06 6.51945008939195e-05 -0.000137852252847306)
(6.02881970918881e-06 6.82968306867148e-05 -0.000111017720761618)
(8.11945822494955e-06 6.60535846971884e-05 -7.60892830344511e-05)
(9.71312206836937e-06 4.9224166227997e-05 -2.24958331073189e-05)
(5.4514714110891e-06 0.0001070356515608 -9.06361647123328e-05)
(2.51941035545928e-06 0.000121702589391109 -9.26977321514047e-05)
(9.70651295987227e-06 8.67609685327178e-05 -7.70784284218757e-05)
(1.43949228762191e-05 5.59818333913461e-05 -3.89057366532674e-05)
(9.5302596822315e-06 -5.36614594180783e-06 6.45254380252458e-05)
(6.71927993510482e-07 0.000134320303874581 -8.97796370710572e-05)
(4.6759224295539e-07 0.0001366473164737 -6.91114364732331e-05)
(2.00343811453534e-06 0.000119025475568723 -7.29855185990814e-05)
(4.75551569653669e-06 9.89794540123812e-05 -7.36752373185779e-05)
(8.73413523286553e-06 7.3980146172116e-05 -6.63664380111088e-05)
(1.24507798848727e-05 3.53169860502559e-05 -3.56394600474729e-05)
(9.28875068388934e-06 -2.47083961047915e-05 4.42421218460585e-05)
(-2.91892695021353e-05 -3.87151821728596e-05 6.87179613910257e-05)
(1.21842832445306e-06 0.000111994849253565 -0.00013173893739994)
(5.60169735038796e-07 0.000125234315093912 -0.000117914299896741)
(1.786199038198e-08 0.000136423832223945 -0.000102761152438265)
(1.72717971954316e-06 9.5700162253884e-05 -0.000146574944114515)
(1.8005979587465e-06 7.63137031770997e-05 -0.000164088695281106)
(-2.43424372634118e-07 0.000146462350309343 -8.46200382022409e-05)
(1.06128623842759e-06 5.54589229183872e-05 -0.000180618100491239)
(-1.63170205266736e-07 0.000152931058019449 -6.39285039547717e-05)
(5.29251984647389e-06 4.83307797841018e-05 -4.56198416571291e-05)
(9.22045873588805e-06 1.25748597758729e-05 -4.00750785031345e-05)
(9.8943852547526e-06 -2.76305595209991e-05 -2.26691168371161e-05)
(2.32145536243161e-06 7.90599796187674e-05 -4.59106195141601e-05)
(8.76168479899815e-07 0.000105889505258882 -4.34748016018657e-05)
(3.17581045458523e-06 -6.21854060477526e-05 2.06239553914862e-05)
(4.13696173257564e-07 0.000128985018513314 -3.99543502244824e-05)
(-4.09225227794633e-06 -2.30267944674379e-05 9.52276950949783e-05)
(-4.02401058266338e-06 -5.99551201271406e-06 0.00010577213090223)
(-2.86070689035135e-06 2.18910990765677e-05 4.21569124785021e-05)
(-2.29421241747566e-06 3.43701481492559e-05 -1.57570849887855e-05)
(-1.42102854065217e-06 3.77283672854211e-05 -5.9364409786552e-05)
(-7.12739929267966e-07 3.68194081789051e-05 -9.52962450951508e-05)
(-7.64133983072199e-07 3.44923955613599e-05 -0.000126759604108898)
(-8.3025712321723e-07 3.19459298695724e-05 -0.000155264824606522)
(-3.15204758433241e-05 -4.52934454483878e-05 4.98328293786987e-05)
(-2.15883921294708e-05 -2.64246911658964e-05 1.93432991462844e-05)
(-1.1079593249565e-05 -6.43795833535478e-05 2.01434631571037e-05)
(4.16254642178923e-06 -0.000113391567405365 7.87605331361413e-06)
(8.27552364756566e-06 -0.000139051231320816 9.65465704183661e-06)
(1.07898451320763e-05 -0.000138389557500332 2.79380293446138e-06)
(1.06930044862023e-05 -0.000122511003049927 -6.85186617756795e-06)
(7.66210393538025e-06 -9.85772151871709e-05 -1.41379888803987e-05)
(4.85859857000887e-06 -7.20510027307018e-05 -1.63948187012807e-05)
(3.1540058578104e-06 -4.65225772869952e-05 -1.54673758656948e-05)
(2.27886383127303e-06 -2.45547341407941e-05 -1.40710280223092e-05)
(-1.67102330412902e-06 -8.9915311909343e-06 9.76868843243086e-05)
(-1.00541956391376e-05 -8.58374355053022e-06 0.000113466535644966)
(-1.33442823952609e-05 -3.70749154381439e-06 0.000103794710322982)
(-1.22219043191965e-05 3.62063108926601e-06 8.82852250912649e-05)
(-9.90854100321639e-06 7.06220023151525e-06 6.95024071552126e-05)
(-7.32143225528204e-06 8.39312363595282e-06 4.79231469591691e-05)
(-4.99855588186128e-06 8.75217301680005e-06 2.55802001399751e-05)
(-3.08394026610389e-06 8.59692044597973e-06 4.12023057104967e-06)
(-9.98960701528627e-07 8.18680440844155e-06 -5.1135875555465e-05)
(-3.33178980718621e-07 2.99858396640047e-05 -0.000197422408715173)
(3.12428397221478e-07 5.12525058098665e-05 -0.000203461472020774)
(5.6622845055542e-07 7.10926718376826e-05 -0.00018127254602319)
(5.62171771527406e-07 9.03433646045739e-05 -0.000160682016551768)
(4.17939439337059e-07 0.00010752982678077 -0.000143723175159656)
(1.87641952887464e-07 0.000122397430621212 -0.000128956571048548)
(-5.37318977196879e-08 0.000135493384964714 -0.000114310901731208)
(-2.36644631105161e-07 0.00014806638004126 -9.80876314319278e-05)
(-3.10389659708375e-07 0.000161089439923065 -7.94550695358623e-05)
(-2.11910201900522e-07 0.000172514274437444 -5.91101769335225e-05)
(1.33398869969863e-07 0.00016126037311014 -3.71225340317703e-05)
(9.4628756704976e-07 2.47436531645814e-05 -1.2832224205178e-05)
(4.75945460883115e-06 0.00010446050749485 -0.000137648939941346)
(2.2508283671931e-06 0.000115144283839498 -0.000135367853570006)
(3.05376788340325e-06 9.82211000707957e-05 -0.000150553193971231)
(1.26407188356796e-06 0.000129031570555841 -0.000121288088125941)