/*--------------------------------*- C++ -*----------------------------------*\
  =========                 |
  \\      /  F ield         | OpenFOAM: The Open Source CFD Toolbox
   \\    /   O peration     | Website:  https://openfoam.org
    \\  /    A nd           | Version:  12
     \\/     M anipulation  |
\*---------------------------------------------------------------------------*/
/*   Windows 32 and 64 bit porting by blueCAPE: http://www.bluecape.com.pt   *\
|  Based on Windows porting (2.0.x v4) by Symscape: http://www.symscape.com   |
\*---------------------------------------------------------------------------*/
FoamFile
{
    format      ascii;
    class       volScalarField;
    location    "400";
    object      k;
}
// * * * * * * * * * * * * * * * * * * * * * * * * * * * * * * * * * * * * * //

dimensions      [0 2 -2 0 0 0 0];

internalField   nonuniform List<scalar> 
10116
(
3.68164642784174e-05
3.89164281021711e-05
3.78667206732637e-05
0.000164955748476925
4.0926331004527e-05
3.99955378680224e-05
0.000171077681905132
3.92052917068538e-05
0.000165362524744874
0.000259019494473592
4.2780824209808e-05
4.20466265248964e-05
0.0001767160909159
4.13953886125058e-05
0.000171498250734032
0.000267695351675954
3.96623659790582e-05
0.000165621313162138
0.000258936650302707
0.000332079023326946
4.44818887875274e-05
4.39495337219814e-05
0.000181891832087484
4.35073391505784e-05
0.000177167442353803
0.0002756838034858
4.18671923428846e-05
0.000171749161408236
0.000267587020589519
0.000342774315037254
3.8692122560276e-05
0.000164508395331506
0.000257808488276742
0.000331735876143217
0.0003941274001018
4.60443554626234e-05
4.56886404544592e-05
0.000186635669870738
4.54712172589447e-05
0.000182352097526496
0.00028303535216941
4.3989528410134e-05
0.000177434327855125
0.000275565511819396
0.00035262752662096
4.08430578573459e-05
0.00017058268433292
0.000266394970689448
0.000342390034004564
0.000406535904808085
3.66546717265988e-05
0.000161235378256178
0.000254940896687875
0.000329706188200183
0.000393498148852857
0.0004492731123729
4.74797616421411e-05
4.72844792444159e-05
0.000190976607803756
4.72616141461384e-05
0.000187101579988557
0.000289787127385424
4.59750463264047e-05
0.000182619606712639
0.000282909623355344
0.000361705189791616
4.29096729195758e-05
0.000176239293112087
0.000274328986454246
0.00035222147247607
0.000417977879971871
3.87008236366244e-05
0.000167191994003977
0.000263412706771981
0.000340262501327735
0.00040585135934932
0.000463186856787197
3.41274989056743e-05
0.000155971732536832
0.000249819952137694
0.000325477547150156
0.000390725872896668
0.000448308912504744
0.000499501537596953
4.87968954617575e-05
4.87504827843787e-05
0.000194940912859158
4.89020817368836e-05
0.000191447280340311
0.000295972830166525
4.77827721602677e-05
0.000187367613982123
0.000289655395952198
0.00037005141252379
4.48556290180886e-05
0.000181386376391947
0.000281635695474711
0.000361283650533265
0.000428528677981183
4.06639743592923e-05
0.000172757345910195
0.000271251208066227
0.000350020050073358
0.000417261328744634
0.000476028679303688
3.60457276144302e-05
0.00016175257428358
0.000258114640514702
0.000335874753119826
0.000402953598814481
0.000462152886284974
0.000514765014142737
3.1388859628277e-05
0.000149288490047977
0.000242506367538918
0.000318768137721023
0.000385348393037458
0.000444832662765909
0.000498250327299931
0.000545948020962903
5.00024238476727e-05
5.00958892046402e-05
0.000198552016625318
5.04084009626807e-05
0.000195415883451959
0.000301624158649803
4.94375354363317e-05
0.000191711874989589
0.000295836073610048
0.000377704591435138
4.66252628950905e-05
0.000186098120783039
0.000288349059720347
0.000369617350328251
0.000438237439857632
4.25234862435643e-05
0.00017780944587185
0.000278473394807442
0.00035902121839469
0.000427788277822114
0.000487880001674594
3.78870277126597e-05
0.000167168995842056
0.000265795638282659
0.000345495714455932
0.000414266827704183
0.000474951994306236
0.000528864617650159
3.31674055559235e-05
0.000154847901387888
0.000250562088688097
0.000328939406378591
0.000397379964050576
0.000458526093303096
0.000513431761298389
0.000562439194620417
2.84713658686827e-05
0.000141575226036878
0.000233352030398524
0.000309690288777775
0.000377233725984259
0.000438433237083392
0.000494171648537053
0.00054450413913797
0.000589348535379856
5.1101533182933e-05
5.13274329863995e-05
0.000201830711532515
5.17907608605924e-05
0.00019903089188094
0.000306770778167779
5.09559362402843e-05
0.000195679281715231
0.00030148303333702
0.00038470068544561
4.82436258774067e-05
0.000190409235336322
0.000294501274773155
0.000377259826040758
0.000447146390227978
4.42121132027373e-05
0.000182432556212682
0.000285111516717767
0.000367302307761655
0.000437477213609659
0.000498793491568375
3.96300182478348e-05
0.000172073815870412
0.00027287475861689
0.000354377354730302
0.000424713238767302
0.000486770412873843
0.000541886552007332
3.48760760378001e-05
0.000160067725981326
0.000258025968833023
0.000338356645210315
0.000408523761651783
0.000471207800897228
0.000527479763264919
0.000577684528920489
3.01001741767882e-05
0.000146871538736042
0.000241115760831828
0.000319570253929934
0.000388997570330873
0.00045189853977488
0.000509181337766958
0.000560904155869865
0.000606968963147965
2.53638797891222e-05
0.000132939101362253
0.000222628256050647
0.000298518669032251
0.000366577032786714
0.000429077547266564
0.000486908665464723
0.000539964531494103
0.000587785654801296
0.000630180549310998
5.20983033944179e-05
5.24503582180454e-05
0.000204795398666303
5.30562719855459e-05
0.000202313070881996
0.000311440210758103
5.234868119838e-05
0.000199293260336071
0.000306625770346682
0.000391073699216292
4.97273875367448e-05
0.000194346396708838
0.000300123009535752
0.000384246521128779
0.000455294901878226
4.57543159884654e-05
0.000186662013109468
0.000291196370326048
0.000374898429467248
0.000446368915623099
0.000508814242721622
4.12157643710581e-05
0.00017655897255253
0.000279383231893651
0.000362552596084232
0.000434332375970437
0.000497656047470369
0.00055388608856502
3.64892945147323e-05
0.000164792027732491
0.000264905773412931
0.000347054754058291
0.000418821655490316
0.000482927778358569
0.000540461355920023
0.000591774536583234
3.16662877401405e-05
0.000151860557618097
0.000248311744673648
0.000328720651552599
0.000399899011494287
0.000464382941990873
0.000523094759201107
0.000576091825072267
0.000623269477374786
2.68325682645105e-05
0.000137940799617642
0.000230056608090001
0.000308048005910262
0.000378004586363267
0.000442239307627728
0.000501663895925048
0.000556176593919473
0.000605308239939524
0.000648848512147563
2.20918707250772e-05
0.0001233824133456
0.000210462798155186
0.000285456498515684
0.000353641492280427
0.000417021216735859
0.000476488497505726
0.000532003206756843
0.000582899606539486
0.000628537240574527
0.000668726669124104
5.29958036728619e-05
5.34690836207249e-05
0.000207462223613437
5.42104897068315e-05
0.00020528083814466
0.000315657821315544
5.36233898901996e-05
0.000202574507040418
0.000311291678758241
0.000396855758584924
5.10876764262035e-05
0.00019793268652925
0.000305243172147034
0.000390611154060134
0.000462720369680686
4.71669264171162e-05
0.000190524213574207
0.000296757450870814
0.000381843824328414
0.000454502112889293
0.00051798429524492
4.26617096847714e-05
0.000180660860055281
0.000285350362875515
0.00037005414419458
0.000443162382167742
0.000507652314395448
0.000564910359559667
3.79615966111619e-05
0.000169103106843228
0.00027123161720751
0.000355064417301186
0.000428309030151049
0.000493727703076198
0.000552426417223288
0.00060476619558494
3.31393898759508e-05
0.000156377314356672
0.000254945155062777
0.000337175023248088
0.000409978521156977
0.000475929336232577
0.00053596314656899
0.000590136512376294
0.000638344190765423
2.82465345575494e-05
0.00014267088851711
0.000236941383586688
0.000316875562036926
0.000388597114414673
0.000454448198026667
0.00051535650986478
0.000571216895748672
0.000621547036245449
0.000666128632738391
2.33917506790682e-05
0.00012805965120388
0.000217513394530613
0.000294580824337464
0.000364669502719054
0.00042980845501651
0.000490910960164816
0.000547940187422149
0.000600221865244637
0.000647102037933339
0.000688371687074277
1.8713950820622e-05
0.00011290586608537
0.000196903892023523
0.000270612894233165
0.000338599286604872
0.000402532482673792
0.000463206610142176
0.000520682335426245
0.000574368415424363
0.000623373533942258
0.000667018185701327
0.000705129173980188
5.37951013819584e-05
5.43872340382551e-05
0.000209845090954088
5.52580822836177e-05
0.000207950371123885
0.000319446623767833
5.47858494005469e-05
0.000205541359541492
0.00031550600901137
0.00040207739268064
5.2332282898511e-05
0.000201188637605321
0.000309888784036814
0.000396385644552094
0.000469458415962834
4.84612214939765e-05
0.000194041960882791
0.000301822812907455
0.00038817145687755
0.000461913908477192
0.000526343715013914
4.39848004183163e-05
0.000184405819017187
0.000290804510930721
0.000376914601708741
0.000451240503073793
0.000516800499798493
0.000575003450657852
3.93015943031553e-05
0.000173043296485291
0.000277031693891277
0.000362416290261976
0.000437021167352644
0.000503647964699778
0.000563420239068153
0.000616708221898672
3.44894830283799e-05
0.000160486933359044
0.000261043720148767
0.000344962408745648
0.000419268937640102
0.000486574988384811
0.00054782939025062
0.000603089389438233
0.000652251571565596
2.95689959628065e-05
0.000146956144064325
0.000243288008186466
0.000325033279102908
0.000398394356051213
0.000465746669310097
0.000528030771080649
0.00058513751758228
0.000636573368076555
0.000682118333755969
2.46445425468937e-05
0.000132504148055375
0.000224047065470114
0.000303034636094657
0.000374893348056286
0.000441672711532694
0.000504301568109303
0.00056274171220492
0.00061630385620925
0.000664317516293835
0.000706565905088312
1.98392667578565e-05
0.00011723637617973
0.000203535262211484
0.000279280355808969
0.000349168053179026
0.000414879137604209
0.00047722279997639
0.000536262885871097
0.00059139930586868
0.000641727992931224
0.000686555372163581
0.000725687790394043
1.53123549781487e-05
0.000101530615400421
0.000181977900962372
0.000254051503100241
0.000321545774597333
0.00038577207144413
0.000447344782881424
0.000506327818344791
0.000562273353187771
0.000614355822327929
0.000661612345733366
0.000703360250755428
0.00073943978016138
5.44953645407565e-05
5.52070476632636e-05
0.000211955402738306
5.62029368025657e-05
0.000210335661741774
0.000322827513948063
5.58409123968402e-05
0.000208209977177743
0.000319291787475707
0.000406766032506022
5.34671188743721e-05
0.000204132459263884
0.000314084824032315
0.000401600041542427
0.000475542889517341
4.96451212040209e-05
0.000197235440972345
0.000306418917088603
0.000393912730173478
0.000468639804674423
0.000533930857054221
4.51961849376514e-05
0.000187816280680076
0.000295772867483788
0.000383165756785099
0.000458602867602296
0.000525140246136821
0.000584207543824624
4.05260128003775e-05
0.000176639401158721
0.000282333437015085
0.000369141300032603
0.000444993411391458
0.00051272818065294
0.000573486059442008
0.000627646246685853
3.57153575671693e-05
0.000164239663750238
0.000266635084593935
0.000352111762458564
0.000427803136399685
0.000496357094264861
0.000558735423254136
0.000614997110081105
0.000665041442571951
3.07883655252372e-05
0.000150840247341042
0.000249121208266563
0.000332548545723467
0.00040742756169486
0.00047616860644402
0.000539724369905019
0.000597982019858758
0.000650439376486271
0.000696877254479546
2.58063312475566e-05
0.000136536638590879
0.000230069876023998
0.000310847983154202
0.000384351621570379
0.00045265579368224
0.000516703218739301
0.000576452390248343
0.00063119829299406
0.000680256740068162
0.000723409836942354
2.09271901339211e-05
0.000121360890077575
0.000209680603665822
0.000287312176930908
0.000358967531681835
0.000426336127369527
0.000490239131615394
0.000550740768961799
0.000607228509372393
0.000658779268583424
0.000704682514413723
0.000744736849350842
1.62581814004106e-05
0.000105485067118574
0.000188145170366353
0.000262211943873405
0.000331597718404352
0.000397614937627798
0.000460886186595291
0.000521475731060279
0.000578928447488099
0.000632405429374394
0.000680930481808571
0.000723806743649792
0.000760852776340164
1.19817517013402e-05
8.92989931210021e-05
0.000165711262002905
0.000235817841845159
0.000302547244688084
0.000366828285084876
0.000429065523353299
0.000489242820357467
0.00054696778854082
0.000601575584393029
0.000652158989632936
0.000697730600888332
0.000737612132076021
0.000771658241208809
5.50939176118058e-05
5.59282447436768e-05
0.000213802124962652
5.70475038009653e-05
0.000212448340900291
0.000325819096429882
5.67926627268402e-05
0.000210594344336669
0.000322669860375422
0.000410948122759293
5.449707679485e-05
0.00020678012319186
0.00031785410847094
0.00040628232501219
0.000481005967545316
5.07244590176906e-05
0.000200122475758274
0.000310570271867739
0.000399097292409535
0.000474713151095372
0.000540782689664647
4.63037035031879e-05
0.000190911941769513
0.000300281072870085
0.000388838158335985
0.000465284258970261
0.000532709695690015
0.000592563334703805
4.16459716845649e-05
0.000179913443048675
0.000287163092009905
0.000375269914659612
0.000452260501855953
0.000521006950462425
0.000582665589513282
0.000637624141504859
3.68335168139743e-05
0.000167662897823052
0.000271745798357349
0.00035865254110923
0.000435614491897485
0.000505313129662397
0.000568722644471667
0.000625904389334329
0.00067676061672621
3.18918155230182e-05
0.000154382798045615
0.000254468319481814
0.000339448860437692
0.000415727752204619
0.000485748429171806
0.000550475711710834
0.000609793400995485
0.000663192662419864
0.000710456083329546
2.68875339269284e-05
0.000140172601909113
0.000235603054803389
0.000318046399816296
0.000393074123998081
0.000462790319548297
0.000528150682371454
0.000589110131953188
0.000644949129124371
0.000694972584014218
0.000738964136469933
2.19296378732119e-05
0.000125120574568746
0.000215344764355617
0.000294736260225795
0.00036803453435811
0.000436944407334211
0.000502298213685837
0.000564159111080064
0.000621900731377265
0.000674580578907772
0.000721474285824577
0.000762379785960058
1.71779508300625e-05
0.000109260464371833
0.00019387070414448
0.000269775580414904
0.000340919164102316
0.000408605578174739
0.000473462893685836
0.000535554675529443
0.000594416311605425
0.000649192427138858
0.000698887103468393
0.000742786503393189
0.000780701112925275
1.27471254394073e-05
9.28488662533638e-05
0.000171370517382158
0.000243422480200763
0.000312026389969371
0.00037810581138531
0.000442065719451508
0.000503886827591747
0.000563168140012241
0.000619233025058924
0.000671160522096665
0.00071795008840149
0.000758908961564824
0.000793868768437594
8.80686210469809e-06
7.62557991440949e-05
0.000148121591567404
0.000215944299916407
0.00028165911327586
0.00034576741545506
0.000408457112901537
0.000469600476438482
0.000528779548439443
0.00058541147746329
0.000638755719415863
0.000687874269863198
0.00073177057268162
0.000769773578199712
0.000801757457352004
5.55860905804285e-05
5.65458447587097e-05
0.000215392173517323
5.77913682093152e-05
0.000214297511733996
0.000328437985859085
5.76434361984357e-05
0.000212706187756744
0.000325658839687447
0.00041464788558183
5.54261252982788e-05
0.000209145439876926
0.000321217297170087
0.000410458650869813
0.000485878090218626
5.17038765747775e-05
0.000202718729057945
0.000314299279929094
0.00040375286690247
0.000480166183734246
0.000546934714314438
4.73131250243842e-05
0.000193710141921678
0.000304352961722289
0.000393960761396415
0.000471318056491328
0.000539545574582528
0.000600110240075013
4.2669244042813e-05
0.000182884549637159
0.00029154536718981
0.000380831573439435
0.00045885616187835
0.000528521701040271
0.00059099922517546
0.000646684455730896
3.78551210140465e-05
0.000170778221371014
0.000276401132494253
0.000364613898444373
0.000442736171006669
0.000513480156720888
0.0005778316190622
0.000635854580402344
0.00068745431284001
3.28958639765176e-05
0.000157611894068723
0.000259354985644847
0.000345762246443436
0.000423326423371041
0.000494521552049795
0.000560323833991141
0.000620614386775401
0.000674879058437506
0.000722902555655456
2.78614805028636e-05
0.000143483048015438
0.000240673517872186
0.000324655950996888
0.000401090199398886
0.000472109146079145
0.000538679560491273
0.000600754133378141
0.000657600037705847
0.000708513362229972
0.000753280202906795
2.28516906440402e-05
0.000128488315965764
0.000220545124377019
0.000301576013021585
0.000376397267107094
0.000446735250862989
0.000513433280121052
0.000576552814743515
0.000635453899212507
0.000689176080070031
0.00073698416775673
0.000778678192422377
1.80202486808663e-05
0.000112716240918475
0.000199143403869109
0.000276767517279588
0.000349544917078619
0.000418783458667769
0.000485117020749438
0.000548607627463618
0.00060878012026097
0.000664761533071682
0.000715535888141558
0.00076037574950463
0.000799091040290009
1.34993372615202e-05
9.62563035227834e-05
0.000176642283534028
0.000250473827211107
0.000320818029765729
0.000388572665757441
0.000454141052589586
0.000517498744875762
0.000578236335933879
0.000635663734954298
0.000688842911562515
0.000736753598613496
0.000778685892751569
0.000814462886903024
9.3935582991272e-06
7.93715258441567e-05
0.000153230718673797
0.000222947633243442
0.000290510904711278
0.0003564193716661
0.000420851416407079
0.000483671815152785
0.000544451332237034
0.000602595224581471
0.000657350759137955
0.000707766511262181
0.000752832962957238
0.000791864119941786
0.000824709868620753
5.85755067122198e-06
6.24295095936395e-05
0.00012920537751567
0.000194448717892305
0.000258924593460155
0.000322649290132927
0.000385585974807392
0.000447492142691551
0.00050789612105242
0.000566215521204947
0.000621803782066547
0.000673893801753477
0.000721535784480029
0.000763730830861218
0.000799818244565331
0.000829698066941282
5.59639893717761e-05
5.70479060567688e-05
0.000216731774156468
5.84261356589694e-05
0.000215889882154731
0.000330699347255128
5.83922245584393e-05
0.000214554688334178
0.000328275324501724
0.000417887561476156
5.62563264671402e-05
0.000211239949577115
0.000324192887105546
0.000414153146746617
0.000490187773745736
5.25870006572808e-05
0.000205037588849338
0.000317626212444637
0.000407905289037248
0.00048502923947085
0.00055242070855173
4.82287286406745e-05
0.000196225879281411
0.00030801031880352
0.00039856072891243
0.000476735721633664
0.000545683203584592
0.000606886337109655
4.36014770131545e-05
0.000185569394408286
0.00029550322105065
0.00038585431589726
0.000464812832280859
0.00053530861414427
0.000598526157893167
0.000654868631752854
3.87877714824147e-05
0.000173604187447179
0.000280624805450666
0.000370023998754433
0.00044920059548569
0.000520894439956671
0.000586101944098852
0.000644889910697975
0.000697166587527628
3.38116998038586e-05
0.000160548736710509
0.000263805409243084
0.000351516496231331
0.00043025516465346
0.000502523320401653
0.000569307626463278
0.000630487098576238
0.000685543227323215
0.00073426297212165
2.8744414910361e-05
0.000146497324675602
0.000245305943925998
0.000330703198913483
0.000408429733786537
0.000480644943473507
0.000548326547403116
0.000611424580115121
0.000669194734622466
0.00072092576305107
0.000766406524052792
2.36908664228461e-05
0.00013154582575015
0.000225308121777707
0.000307855847576559
0.000384083415705672
0.000455739540716699
0.00052367788819636
0.000587958126621795
0.000647927650357309
0.000702609923586377
0.000751261040752881
0.000793684092043569
1.87822153755184e-05
0.000115812071110646
0.000203979843493065
0.00028320868181031
0.000357501315038087
0.000428178376129708
0.000495880552863955
0.00056066794638697
0.000622054667028212
0.000679150525346246
0.000730921106222762
0.000776628522801644
0.000816085061353961
1.41861459250331e-05
9.93720267431945e-05
0.00018149138954963
0.000256992573881812
0.000328954407302624
0.000398266493188094
0.000465331944684261
0.000530121116294177
0.000592215532373406
0.000650910872939524
0.000705250881327769
0.000754195280874974
0.000797020671034652
0.000833549549493518
9.97845330492026e-06
8.23906817030532e-05
0.000158009651735841
0.000229444217100982
0.000298722656189098
0.000366306609159734
0.000432364307110865
0.000496752069571787
0.000559029122612592
0.000618588459921331
0.000674663790221943
0.000726286806449286
0.000772428299872245
0.00081238482632157
0.000845997342436145
6.26950764401272e-06
6.50778543230472e-05
0.000133731445480244
0.000200805602662217
0.000267096153565875
0.000332616572356808
0.00039731062074559
0.000460923152764674
0.000522968061221839
0.000582849351913569
0.000639908468948868
0.000693366648627652
0.00074226107616238
0.000785579943163482
0.000822647078857704
0.000853337248995328
3.27695819897004e-06
4.78608545162137e-05
0.000108944443196486
0.000171324480642788
0.000234364361654877
0.000297520775245588
0.00036051300462825
0.000422985620645492
0.000484414577629908
0.000544189236465542
0.000601676797357623
0.00065621032412159
0.000707015360712266
0.000753139521435302
0.000793585708503766
0.000827707491945111
0.000855436224737784
5.62376181992727e-05
5.74143236137325e-05
0.000217828696404216
5.89368717950987e-05
0.000217230609150413
0.000332618308377665
5.90293742529066e-05
0.000216146106322991
0.000330534407749486
0.000420687751702745
5.69861529697321e-05
0.000213072621411256
0.000326797350757581
0.000417388005984592
0.000493961462573193
5.33754662725639e-05
0.000207090140353035
0.00032056923296829
0.000411578433592861
0.000489330762117965
0.000557272656757433
4.9053736419998e-05
0.000198471915777578
0.00031127278557743
0.00040266337446691
0.000481567155485488
0.000551156280951913
0.000612928309761892
4.44465743019657e-05
0.000187982296672098
0.000299057577527088
0.000390364494712788
0.000470161444208506
0.000541402494637126
0.000605284325149634
0.000662217062175741
3.96366584428005e-05
0.000176156819897784
0.000284438763136245
0.00037490978060805
0.00045503909487138
0.000527591210923851
0.000593572185345514
0.000653051599888371
0.000705940660758748
3.46468891247262e-05
0.000163211305822784
0.000267842296236316
0.000356738542499281
0.000436544956614683
0.000509788557093012
0.000577465420478308
0.000639452908066466
0.000695228895672915
0.000744582665168167
2.95477737418983e-05
0.000149236401088644
0.000249523485141023
0.000336214504753872
0.000415122731705496
0.000488431473456432
0.000557128648046156
0.000621161810997915
0.000679776576801347
0.000732255498596078
0.000778390276761838
2.44480158211504e-05
0.000134325106446433
0.000229657555784686
0.000313600758305246
0.000391121212261128
0.000463988753164313
0.000533066590960614
0.000598412753645097
0.000659363013560703
0.000714926565416647
0.000764352288544865
0.000807446633770961
1.94735552983595e-05
0.000118599451280672
0.000208405867809135
0.000289121630415577
0.000364814156298044
0.000436819549308199
0.00050578536134324
0.00057176974510309
0.000634276498875368
0.000692399304117545
0.000745087250997448
0.000791594194586738
0.000831735788885593
1.48010788876971e-05
0.000102174758466915
0.000185935381164924
0.000262996958097662
0.000336459626452742
0.000407215416729135
0.000475668893245538
0.00054178617249164
0.000605138980303476
0.000665008957678334
0.000720421997289832
0.000770319503701235
0.000813967895135568
0.000851192166347914
1.05137714816762e-05
8.51426950835212e-05
0.000162409259845559
0.000235450388191386
0.000306323335862095
0.000375464446374386
0.000443034846229834
0.00050888273241271
0.000572555806637477
0.000633434449383366
0.000690737952852282
0.000743479926046043
0.000790611247556203
0.000831414939757954
0.000865731352881855
6.6897927896044e-06
6.76843461703513e-05
0.000137975391789919
0.000206707212263286
0.000274679656779721
0.000341869804102777
0.000408202111424556
0.000473408424634475
0.00053698824737717
0.00059833188507128
0.000656768358949789
0.000711505827471123
0.000761564898152013
0.000805914024606736
0.000843859235671151
0.000875266157975822
3.52391348472357e-06
5.00096030861167e-05
0.00011284940979689
0.000176983132595023
0.000241804235145268
0.00030674567242995
0.000371505141171372
0.00043570922159782
0.000498816224225815
0.000560199455653146
0.000619212699640504
0.000675177837767
0.000727309406149351
0.000774642326018547
0.000816166548931484
0.00085121973534565
0.000879707429318413
1.32809237663752e-06
3.27910684365408e-05
8.73635920984116e-05
0.000146532044798083
0.000207953819529273
0.000270398483804807
0.000333282444828351
0.000396141484575316
0.000458403917696015
0.000519434941537774
0.000578588172098401
0.000635215864721973
0.000688648057283186
0.000738112621063479
0.000782659726303688
0.000821297629840218
0.000853398076148062
0.000878927141130718
5.76623869571675e-05
0.000218710545710518
5.92957294084039e-05
0.00021832452769852
0.000334212893574148
5.95370100596367e-05
0.000217484353738165
0.000332450942614544
0.000423068136051222
5.76050519230963e-05
0.000214649272061538
0.000329045583121909
0.000420183768471822
0.000497223429896942
5.40672556534885e-05
0.000208884860522752
0.000323144515601764
0.000414794260831364
0.000493097126590817
0.000561520216146677
4.97893702935688e-05
0.000200458700036217
0.000314157940192011
0.000406292082036456
0.000485840551579195
0.00055599666821397
0.000618270907519453
4.52073501171648e-05
0.000190135253994156
0.000302227287689005
0.000394386635053925
0.000474931408144276
0.00054683661695679
0.000611310229059698
0.000668768689789356
4.04056141856851e-05
0.000178449642873999
0.0002878629568076
0.000379296566470185
0.000460281639050577
0.000533604468036554
0.00060027975327974
0.000660379809283079
0.000713818649698408
3.54062320915442e-05
0.000165614870532878
0.000271486581324801
0.000361454072397762
0.00044222585505005
0.000516351262952855
0.000584834752489871
0.000647552362597831
0.000703978985312373
0.000753906142553091
3.02792156025407e-05
0.000151717692617513
0.000253347802730317
0.000341215486898577
0.00042119864158864
0.000495502000265969
0.000565122634657634
0.00063000584959886
0.000689388391754951
0.000742547535000817
0.000789277840794428
2.51344164733291e-05
0.000136847412643088
0.000233615544010375
0.000318835649951881
0.00039753902097163
0.000471514992174898
0.000541634521719741
0.000607955036578476
0.000669801469702041
0.000726170346802686
0.000776304475261208
0.00082001367629065
2.01025690387163e-05
0.000121124790355356
0.000212444576363417
0.000294529699886656
0.000371509930371759
0.000444736735464258
0.000514864200108633
0.000581948582797
0.000645484062546751
0.000704549509419422
0.000758079367309433
0.000805320741296264
0.000846092962886758
1.53518773505073e-05
0.000104686281208756
0.000189996511366132
0.000268507404112649
0.000343357514563275
0.000415446858423832
0.000485182381240325
0.000552526350920371
0.000617041069097946
0.00067799467210914
0.00073439629725857
0.000785171040997802
0.000829577404658788
0.00086744395348742
1.09880216293347e-05
8.76064076592312e-05
0.000166433012328726
0.000240981465070045
0.000313334405474996
0.000383918977897828
0.000452892181340785
0.00052009484511512
0.000585063599395675
0.000647166190281438
0.000705607438070112
0.000759383227559448
0.000807426300676713
0.000849009636747585
0.000883976214841185
7.07600015281027e-06
7.0067216192065e-05
0.000141893557442581
0.000212163630629256
0.000281700020871396
0.000350441345664419
0.000418297356521931
0.000484987989406066
0.000549998729951745
0.000612706274641926
0.000672426816993254
0.000728354503967914
0.000779492137553809
0.000824788288909948
0.000863535357310642
0.000895598450478841
3.78480855076133e-06
5.21710977354771e-05
0.000116534888288614
0.000182253516193955
0.000248712931424797
0.000315312028015865
0.000381717170458287
0.000447537375023232
0.000512212837001431
0.000575101666322827
0.000635543923996619
0.000692849792826928
0.000746221327313966
0.000794677141656623
0.000837187340854413
0.000873071516951184
0.000902226151997564
1.43790827682013e-06
3.44106778736188e-05
9.06133945556112e-05
0.000151447061959568
0.00021461234316764
0.000278824085312508
0.000343480034196157
0.000408091236539375
0.000472065165008938
0.000534748436608521
0.000595479308747189
0.000653597593224015
0.000708423058081964
0.000759173167151262
0.000804885632145598
0.000844555734419652
0.00087753920619999
0.000903776823036756
2.81647151638179e-07
1.79147115697285e-05
6.46617084694693e-05
0.000120046064332306
0.000179610463977702
0.000241234991211579
0.000303897711891203
0.000366995800319961
0.000429919287103741
0.00049202144359662
0.000552643892635465
0.000611133172719959
0.000666841420533751
0.00071910475284433
0.000767158728321774
0.00081005965369497
0.000846824430471069
0.000876845915543513
0.00090012353550653
5.95244481595115e-05
0.000219197402802392
0.000335508846125236
5.98842906352962e-05
0.000218571434252202
0.000334042344863937
0.000425049407902089
5.80934408419076e-05
0.000215972663050289
0.000330951956400967
0.00042255998510242
0.00049999581193553
5.4651313970411e-05
0.000210426981161242
0.000325366606111711
0.000417573073431942
0.000496352533518087
0.000565190414450748
5.04331675686881e-05
0.000202194087700217
0.000316681431211707
0.000409468375107021
0.000489581981885488
0.000560233982512968
0.000622946562352155
4.58843779835398e-05
0.000192037956651886
0.000305029164715246
0.000397943423959471
0.000479150220670223
0.000551642457438002
0.000616638527495265
0.000674560628570356
4.10969034542756e-05
0.000180493801062221
0.000290915400235523
0.00038320793977593
0.000464956663147288
0.000538966767759342
0.000606260661258913
0.000666913349901455
0.000720841585172219
3.60933398043603e-05
0.000167772142308974
0.000274757171170553
0.000365687250625869
0.000447326669041984
0.000522244350008447
0.000591452142179739
0.000654825039145912
0.00071183548610943
0.000762277311466146
3.09434879650534e-05
0.000153955725444247
0.000256798752414008
0.000345730580866274
0.000426686144122676
0.000501889139319692
0.000572344713763892
0.000637996149701142
0.000698072380672313
0.000751846176522002
0.000799114964573862
2.57577712979892e-05