/*--------------------------------*- C++ -*----------------------------------*\
  =========                 |
  \\      /  F ield         | OpenFOAM: The Open Source CFD Toolbox
   \\    /   O peration     | Website:  https://openfoam.org
    \\  /    A nd           | Version:  12
     \\/     M anipulation  |
\*---------------------------------------------------------------------------*/
/*   Windows 32 and 64 bit porting by blueCAPE: http://www.bluecape.com.pt   *\
|  Based on Windows porting (2.0.x v4) by Symscape: http://www.symscape.com   |
\*---------------------------------------------------------------------------*/
FoamFile
{
    format      ascii;
    class       volScalarField;
    location    "400";
    object      nut;
}
// * * * * * * * * * * * * * * * * * * * * * * * * * * * * * * * * * * * * * //

dimensions      [0 2 -1 0 0 0 0];

internalField   nonuniform List<scalar> 
10116
(
1.49245400170226e-05
1.57758257296827e-05
1.58991695329222e-05
0.000244205334413466
1.6590570076384e-05
1.67930953874748e-05
0.000251453010136742
1.71427024360561e-05
0.000250069630968524
0.00068873753868966
1.73423675977005e-05
1.76541794856553e-05
0.000257980847763516
1.81004270281917e-05
0.000257618282346407
0.000704154412157365
1.78972786168124e-05
0.000257735347140983
0.000696503932847596
0.00120949756152132
1.80319297039071e-05
1.845318900018e-05
0.000263871077916852
1.90237991583252e-05
0.00026447774457239
0.000718150872578997
1.88922108889774e-05
0.000265544428371511
0.00071209463678308
0.00123379188131038
1.76900914512541e-05
0.000262288373128971
0.000705752325126307
0.00121516324859166
0.00173304817907812
1.86653162416238e-05
1.91833801294107e-05
0.000269207466863711
1.98824114934413e-05
0.000270510653794327
0.000730815486887871
1.98499048114e-05
0.000272746608677937
0.000726282178778064
0.0012558266759284
1.86735296347434e-05
0.000270257831933978
0.000721533411130612
0.00123957044999275
0.00176647770555921
1.6766457770722e-05
0.000260860391911396
0.000710357013900075
0.0012200372820843
0.00173485080836962
0.00222634132496412
1.92471973768281e-05
1.9853423882809e-05
0.000274045830915913
2.06653781313835e-05
0.000275960040586161
0.000742279460781158
2.0745740365699e-05
0.000278959165747724
0.000739073199146444
0.00127577446122499
1.96183940458478e-05
0.000277729162700711
0.000735949333512533
0.001261707446337
0.00179672533667919
1.7702417142695e-05
0.000268840830728229
0.000726236844824056
0.00124452758166473
0.00176834026217372
0.00226873967698736
1.55696573645207e-05
0.000254381766062993
0.000706202603050752
0.00121902831533641
0.00173278707627989
0.00222409541454261
0.00267678543154521
1.97811355272173e-05
2.04689573984498e-05
0.000278430379832419
2.13826764462141e-05
0.000280897994448161
0.000752652331736767
2.15615662097549e-05
0.00028455382516045
0.000750641235049749
0.00129382026778053
2.05080806145611e-05
0.00028406341343215
0.000748899952064305
0.00128173627398048
0.00182407254958291
1.86003763241537e-05
0.000276435446665665
0.000740806012892138
0.00126675993996123
0.00179862401240075
0.0023070384173352
1.64447860527145e-05
0.000262255377875803
0.000722019817333239
0.00124348489993178
0.00176624510357101
0.00226649378265178
0.0027277615609203
1.43011798005003e-05
0.000245201871811675
0.000693700261328959
0.00120837970596165
0.00172301575434413
0.00221483690190305
0.00267150679788171
0.00308205676429639
2.02698303111637e-05
2.10338597331526e-05
0.000282398364326969
2.20413218996459e-05
0.000285371932369995
0.000762027524510389
2.23082585625823e-05
0.000289620254223563
0.000761106015916978
0.00131012995209129
2.13171487009251e-05
0.000289751651606684
0.000760598547190656
0.00129985124652389
0.00184878109385992
1.94509341164032e-05
0.000282773050595378
0.000753853165298074
0.00128686410405535
0.00182599601091453
0.00234161396141098
1.72847985594272e-05
0.000269844420576935
0.000736588365988363
0.00126571564911991
0.00179650194850564
0.00230476368820367
0.00277375121226023
1.51114748315539e-05
0.000252890880858983
0.000709298784001045
0.0012326256296368
0.00175627720577574
0.00225708141856894
0.00272243514267396
0.00314111542264947
1.29703214032453e-05
0.000234665391245567
0.000675385019166835
0.00118782132092062
0.00170279177751258
0.00219569711653151
0.00265636658713266
0.00307494729651138
0.0034445425183269
2.07153828842652e-05
2.15509535659849e-05
0.000285981475157133
2.26457702881199e-05
0.000289420363776119
0.000770486529863515
2.29934248622478e-05
0.000294209887492144
0.000770563394117104
0.00132484996322742
2.2057063035657e-05
0.000294899937230532
0.000771178313277755
0.00131622211814737
0.00187108347197029
2.02233319124506e-05
0.000288448903590909
0.000765625893933484
0.00130504174747118
0.00185072405502568
0.0023728099015686
1.80799716429385e-05
0.000276085415202128
0.000749596876352044
0.00128581051411912
0.00182384470255301
0.00233930366731978
0.00281521547806037
1.58899495757134e-05
0.000260359329511314
0.00072371330670596
0.00125469186954339
0.00178637122424376
0.00229520465376991
0.00276834364421983
0.00319434162185153
1.37123029481265e-05
0.000242104854560559
0.00069065427712485
0.00121167430195779
0.00173565032272305
0.0022375646663704
0.00270703045016238
0.00313392866272695
0.00351114306377805
1.15563983412701e-05
0.000222917466692537
0.000652954047297854
0.00115896673839562
0.00167161628601718
0.00216480303223346
0.00262897473407984
0.00305558648600913
0.0034363368737342
0.0037681247547289
2.11194478554351e-05
2.20224386195326e-05
0.000289206737903621
2.31991253584474e-05
0.000293075785091872
0.000778100410432604
2.36218934854201e-05
0.000298362613824249
0.000779095987453684
0.00133810930834239
2.27354443895893e-05
0.000299562772647713
0.000780739159871692
0.00133099673022991
0.00189118472465256
2.09287637185991e-05
0.000293582541415401
0.000776269779723196
0.00132146752201239
0.00187304291901512
0.00240093016910705
1.88034182150565e-05
0.000281656067876681
0.000761322324298453
0.00130397533579129
0.00184854389205201
0.00237046433960558
0.00285257886817265
1.66249233353579e-05
0.000266496449831025
0.000736550076490806
0.00127463303977911
0.0018135667025461
0.00232960655804845
0.00280972321663192
0.00324227765800719
1.44257382045544e-05
0.000249402869076461
0.000704794305087674
0.00123340523675974
0.0017653943109907
0.00227535873553342
0.00275268741265009
0.00318703922113925
0.0035711159886561
1.22255383978211e-05
0.000230072958012031
0.000667853202119235
0.00118227150350512
0.0017038564573246
0.00220604225625597
0.002679085956434
0.00311421577174434
0.00350284303978538
0.00384170506761645
1.0065568039054e-05
0.000209736859685408
0.000626875384630322
0.00112304119828567
0.00163015323298646
0.00212165485913471
0.00258788226928387
0.00302150106320551
0.00341390958128553
0.00375911034769518
0.00405672225601013
2.14832710537431e-05
2.24501709599964e-05
0.000292097089497241
2.37038141194732e-05
0.000296365917392638
0.000784930842487809
2.41970984195777e-05
0.000302111885829211
0.000786775582272227
0.00135002138001185
2.3357373348246e-05
0.000303780945856141
0.000789364569519059
0.00134430469423468
0.00190926500737412
2.15749195487038e-05
0.000298230394185402
0.00078588739015109
0.00133629090727872
0.00189315839048271
0.00242624161532609
1.94630787703124e-05
0.000286689420609352
0.000771918993707964
0.00132038862277499
0.00187083608994661
0.00239855167597304
0.00288621621004939
1.72957395344428e-05
0.000271913482441383
0.000748104955778552
0.00129265538491956
0.00183813212621772
0.00236064068358602
0.00284700626802919
0.00328542337242278
1.50967778940752e-05
0.000255427417756835
0.000717377078716266
0.00125303893649591
0.00179227694611855
0.00230946431203205
0.00279383297537048
0.00323485663236917
0.0036250779499049
1.2869759276341e-05
0.000237174194980746
0.000681642814130319
0.00120352039989744
0.00173305443473112
0.00224328201490105
0.00272425514454141
0.00316699179546424
0.00356267689488099
0.00390792057378037
1.06577970880348e-05
0.000216573875928609
0.000641346318199294
0.00114567006549641
0.0016615736391314
0.00216200748549981
0.00263713109929029
0.00307942031262191
0.00347999409369938
0.003832583867983
0.00413670668764656
8.52525824561163e-06
0.000194932329064404
0.000596927144677737
0.00108033954166065
0.00157883753754361
0.00206626198365337
0.00253263227070691
0.00297125979811904
0.0033743288186333
0.00373419670846807
0.0040469659793106
0.0043138666004263
2.18072865074479e-05
2.28356744393304e-05
0.000294671604624446
2.41618784636686e-05
0.000299314344916934
0.000791030739569816
2.47216499699042e-05
0.000305486236382032
0.000793664423849636
0.00136068577416394
2.39264107024224e-05
0.000307588721904118
0.000797127072759664
0.00135625985069416
0.00192548247179537
2.21669497477763e-05
0.000302434124507543
0.000794562867486579
0.0013496421896056
0.00191125100069551
0.00244897762273181
2.00667396690536e-05
0.000291244361291941
0.000781491782316939
0.00133520047003354
0.0018909272543601
0.00242383294642434
0.00291645633786393
1.79062558407516e-05
0.000276798300404872
0.00075854116382967
0.00130893792074573
0.00186030366994222
0.0023886137581812
0.0028805701582831
0.00332422305509559
1.57118515600796e-05
0.000260665083528526
0.000728674191190786
0.0012707783839431
0.0018165611714531
0.00234023189388448
0.00283090299362833
0.0032778911574022
0.00367360126765486
1.34722670215075e-05
0.000243079749652753
0.000693912196061329
0.00122271750010432
0.00175944817163708
0.002276894682777
0.00276496293062314
0.00321449889411697
0.00361649719108869
0.00396745632503862
1.12285840925136e-05
0.000223455243741847
0.00065472593394523
0.0011663149321204
0.00169004247114781
0.00219846114705051
0.00268153847278782
0.00313156794115072
0.00353942687233192
0.00389864181646761
0.0042086544759476
9.03788090903401e-06
0.000201437674587944
0.000610903400805241
0.001102167752432
0.00160924828845151
0.00210547726580207
0.00258070467056621
0.00302808879111151
0.00343956316402132
0.00380718887461426
0.00412683160221081
0.00439967095258978
6.97649949606442e-06
0.000178376900681256
0.000562677785146773
0.00103049501540774
0.00151746342030102
0.00199835536291453
0.00246291435306953
0.00290443940970658
0.00331593125107442
0.0036898570182162
0.00401981760025306
0.0043033745749696
0.00454268387828234
2.20911572511729e-05
2.31798902487462e-05
0.000296945240335701
2.4575019631839e-05
0.000301940797074549
0.000796445266379118
2.51977383664342e-05
0.000308509963937263
0.000799816092022164
0.00137018807387091
2.44452613147841e-05
0.00031101529227421
0.000804089656642244
0.00136696182111061
0.00193997592169409
2.27084815525785e-05
0.000306228189771746
0.000802369505799934
0.00136163563104697
0.00192747917082974
0.00246934174500421
2.06193729970965e-05
0.000295362883794715
0.000790125810366907
0.00134854078609798
0.00190899772088512
0.00244654137118765
0.00294358561685486
1.84641726663519e-05
0.000281215934313056
0.00076796640853296
0.00132363070232253
0.00188028658672539
0.00241379245831792
0.00291074388605533
0.0033590654979973
1.62703192947999e-05
0.000265375691892639
0.000738867781710722
0.00128680231100249
0.0018384796454084
0.00236796591233499
0.00286427523277717
0.00331658961126561
0.00371719502602498
1.40278673934274e-05
0.000248116992653278
0.000704889509279816
0.00124005400189604
0.00178329246455641
0.00230722163172372
0.0028016404092252
0.00325725167510539
0.00366488795279984
0.00402095068480904
1.17578889047035e-05
0.000229245497457114
0.000666632398388185
0.00118496587994493
0.00171578228977831
0.00223137317767561
0.00272156888367607
0.00317851168951346
0.00359287557072534
0.0039580171520351
0.00427331080673837
9.53348028848985e-06
0.000208043314247148
0.000623829347390938
0.00112209579940208
0.00163681620210227
0.00214091876479858
0.0026240694428107
0.00307927336811138
0.00349824253590111
0.00387278825594086
0.00419860446520351
0.00447683809671174
7.40741271667805e-06
0.000184503645143185
0.000576032017306298
0.00105139226801608
0.00154667409731507
0.00203618446033501
0.00250950224796556
0.00295979577356407
0.00337985825755944
0.00376187099866282
0.00409914676409623
0.0043890477259371
0.00463372415657285
5.46630801578395e-06
0.000159996323404192
0.000523616825483518
0.000972712247696701
0.00144524186257654
0.00191714831094933
0.00237799524513506
0.00282065190784818
0.0032382995476934
0.00362408584525408
0.00397116725780604
0.00427412327665952
0.00453146875047336
0.00474595675462204
2.23337980720598e-05
2.34827011882501e-05
0.000298928723365309
2.4944310440437e-05
0.000304261001013978
0.000801212046600604
2.56272073058017e-05
0.000311203469752393
0.000805276249149944
0.00137860325676481
2.49161615486087e-05
0.000314085455060291
0.000810306556759917
0.00137649722574292
0.00195286710468331
2.3202189933548e-05
0.000309641887997617
0.000809370819885208
0.00137237116113772
0.00194198140449486
0.00248751347431458
2.11246169283655e-05
0.000299079319888946
0.000797894112554829
0.0013605236501106
0.00192520560060505
0.00246688070678989
0.00296785367812191
1.89743965987739e-05
0.000285208537657927
0.000776465957047712
0.0013368631060527
0.00189825988665665
0.00243640905771995
0.00293781342192439
0.00339028850603267
1.67797432685322e-05
0.000269631869656109
0.000748070106187819
0.00130126016476972
0.00185823489357894
0.00239293070579224
0.00289427748301721
0.00335134092515471
0.00375630464328974
1.45306375801259e-05
0.000252632109089952
0.000714781700675957
0.00125570931112529
0.00180481471220018
0.00233456111556794
0.00283466152379414
0.00329569717725915
0.0037083611979086
0.00406897242569757
1.22505320367376e-05
0.000234061314399002
0.00067723750162203
0.00120179728086109
0.00173903684177903
0.00226107429343745
0.0027576423290306
0.00322076023231329
0.00364092934436877
0.00401136151734417
0.00433137258235118
9.99012431236146e-06
0.000213724885652802
0.000635331192538166
0.0011400991009811
0.00166174689180854
0.00217292767523332
0.00266317341035307
0.00312536159107512
0.00355101601248755
0.00393173873450696
0.00426308276238306
0.00454616318370198
7.82647143745303e-06
0.000190774212596942
0.000588515570875539
0.00107049451395339
0.00157317074837232
0.00207039071720678
0.00255154790733869
0.00300967684561652
0.00343738300895535
0.00382660246066159
0.00417040775843976
0.00446602272967875
0.00471560082565808
5.8154793098786e-06
0.000165687168562275
0.000536230810632443
0.000992533270475342
0.00147305285594182
0.00195333581791987
0.00242278791608627
0.00287416203275197
0.00330046209522362
0.00369458744401385
0.0040493993893775
0.00435920798333989
0.00462236538817997
0.00484165981416472
4.0284007114926e-06
0.000139688260470614
0.00047901563811122
0.000905766042785862
0.0013608403104751
0.00182132406216453
0.00227660730612376
0.00271893273550496
0.0031410861369001
0.00353644208449053
0.00389865009344497
0.00422148777550129
0.00450023176889718
0.00473405187833274
0.00492616398579741
2.25333150217458e-05
2.37420153950532e-05
0.000300628608066928
2.52695696991867e-05
0.000306286253901505
0.000805361878791178
2.60111118555634e-05
0.000313583193000374
0.000810083099181743
0.0013859954399208
2.53409245724105e-05
0.000316820024925298
0.000815824065676865
0.00138494107308063
0.00196426216067114
2.36501952372215e-05
0.000312700102803963
0.000815621400573462
0.00138193568030392
0.00195487969420594
0.00250365049498907
2.15851547474841e-05
0.000302422589432302
0.000804860056961688
0.00137124877546037
0.00193968961118997
0.00248502988203545
0.00298947927146428
1.94405621129039e-05
0.000288810147487955
0.000784112172958374
0.00134874809475111
0.00191438042829528
0.00245666644398959
0.00296202787122824
0.00341818571127827
1.72451010888978e-05
0.000273476039706955
0.0007563663497986
0.00131427988323841
0.00187600356411247
0.00241535618398049
0.00292119406457153
0.00338248225755775
0.00379131663716674
1.49881438460233e-05
0.000256706496796808
0.000723706586244451
0.00126983200731128
0.0018242130793565
0.00235917280671416
0.00286435036491029
0.00333022262267728
0.00374736255061925
0.00411201922529632
1.26942953446381e-05
0.000238357594728564
0.000686777503231949
0.00121698994287903
0.00176002690058998
0.00228785436823321
0.00279012463973761
0.00325875554371499
0.00368410037384459
0.00405924701476774
0.00438346197880712
1.0410189857959e-05
0.000218308774084391
0.000645514175696747
0.00115633080563317
0.00168427046567571
0.00220182069260895
0.00269842198286441
0.0031668488135078
0.00359846587577284
0.00398469790804792
0.00432097811893199
0.0046083930330852
8.2102206734615e-06
0.000196247175189886
0.00059957684109956
0.00108775057499479
0.00159713900149023
0.00210129592885437
0.00258947841044904
0.00305460882282813
0.00348913154996629
0.00388477506757337
0.00423441163205828
0.00453515239143725
0.00478914797433995
6.15865195409181e-06
0.000171589701820134
0.000548221769803721
0.00101070395881047
0.00149830300174796
0.00198607878984801
0.00246323768020971
0.00292240544656698
0.00335642612929849
0.00375798278704768
0.00411968552337299
0.00443562055966695
0.004704033157542
0.00492774696042242
4.29676482029712e-06
0.000144854419930174
0.000490757525716239
0.000924378988754668
0.00138703508521207
0.00185560081180405
0.00231928429714698
0.0027702221543864
0.00320104135795491
0.00360489861627477
0.00397517784270873
0.00430536520035331
0.00459049149081541
0.00482959953502202
0.00502597863412162
2.67807708881142e-06
0.00011711517500672
0.000427693172708443
0.000827871993529957
0.00126229474218762
0.00170898654572198
0.0021569658692001
0.00259769113594079
0.00302324877198844
0.00342665736476218
0.00380178248335642
0.00414277423519268
0.00444390654626442
0.00470096460573648
0.00491361869041093
0.00508549731807303
2.26865075378585e-05
2.39528180744324e-05
0.000302047920809505
2.55471262559605e-05
0.000308022837332271
0.000808919641536931
2.63489974267015e-05
0.000315660914864938
0.000814267963853053
0.00139241931183842
2.57204941856445e-05
0.000319235777405488
0.000820681079239621
0.00139235778280101
0.00197425323469392
2.40541506498941e-05
0.000315423476592464
0.000821167776310038
0.00139040444034211
0.00196628027773254
0.0025178901169901
2.20028964480174e-05
0.000305416863207614
0.000811078037701482
0.00138080281842028
0.00195257085621849
0.00250114601728804
0.00300865398560964
1.98653323019771e-05
0.000292049111973142
0.000790967368932086
0.00135938444921559
0.00192878568781254
0.00247474243995501
0.00298360532545931
0.00344301369633875
1.76699419126821e-05
0.000276941959001338
0.000763827738069395
0.0013259726303114
0.00189194023748778
0.00243544300494685
0.00294527245023686
0.00341030651202213
0.00382256623107199
1.5405386633222e-05
0.000260383357620381
0.000731749005708553
0.00128254790045487
0.00184166057062968
0.00238128247949758
0.00289098771992692
0.00336116296607483
0.0037822777375921
0.00415052270814274
1.30966150277153e-05
0.000242227718031134
0.000695376999741646
0.00123069126316433
0.00177894537082913
0.00231196468272013
0.00281933288916149
0.00329287991771078
0.00372283226911108
0.00410217153034305
0.00443012378800792
1.07924903905269e-05
0.000222363607114534
0.000654650949301886
0.00117097279406102
0.00170459989636502
0.00222787623038416
0.00273016876874392
0.00320416637502047
0.00364109846889159
0.00403223815794604
0.00437291639913642
0.00466419609803555
8.55739020910479e-06
0.000200727089366333
0.000609294762841118
0.00110328796735715
0.00161879213852739
0.00212920000508666
0.00262368126093235
0.00309506863894552
0.00353567032053573
0.00393703877622737
0.00429187683233814
0.00459719958382572
0.00485515311357608
6.47199611840591e-06
0.000176760033447259
0.000558775833358307
0.00102711018755954
0.00152115104237076
0.00201567566348547
0.00249974681953561
0.00296588364274932
0.00340679170427297
0.00381496956165982
0.00418281524407419
0.00450422855287734
0.00477736796336124
0.00500508004672358
4.56430218349653e-06
0.000150332742121765
0.000502115208250766
0.000941492204954002
0.00141085209245522
0.00188664188067358
0.00235785133174251
0.00281649361066641
0.00325504926616965
0.00366648515200103
0.00404395693341972
0.0043807028909815
0.00467154933021193
0.00491546206183754
0.00511579602417064
2.86642832013536e-06
0.00012165036818048
0.000438451098163334
0.000845104936182353
0.00128663653388821
0.00174106244876996
0.00219719078127499
0.00264637508042208
0.00308055686219722
0.0034925565392499
0.00387600069445123
0.00422476978664465
0.00453285810019675
0.00479583131857262
0.00501326740664931
0.00518890383569843
1.47869605758683e-06
9.16721444531842e-05
0.000367649616585075
0.000736358422033877
0.00114680246614223
0.00157753721286732
0.00201672482067056
0.00245481271058161
0.00288302152646102
0.00329369420724993
0.00368038053313304
0.00403745357290104
0.00435951678099642
0.00464124948250665
0.00487883467267753
0.00507236925959945
0.00522587303063428
2.27974310013246e-05
2.41066672741492e-05
0.000303187363645242
2.57704491753636e-05
0.000309471570913328
0.000811906145281293
2.66365071556834e-05
0.000317442077527406
0.000817855824063626
0.00139792180232695
2.60541742385891e-05
0.000321344508544828
0.000824909418321962
0.00139880242216133
0.0019829198135741
2.44148066802818e-05
0.000317828495263933
0.000826049180368767
0.00139784213271987
0.0019762754072981
0.00253035274079453
2.23792599502605e-05
0.000308082118528212
0.000816594048545688
0.00138926073161279
0.00196395517760217
0.00251536660739013
0.00302554667904564
2.02503919069645e-05
0.00029494866625833
0.000797084688963607
0.00136885789161822
0.00194159588912553
0.00249079307789181
0.00300273715292783
0.00346499795035467
1.80566486476572e-05
0.000280057414951421
0.00077051513113643
0.00133643528320495
0.00190618032395997
0.00245336686986942
0.00296672909001102
0.00343506955676512
0.00385034650570742
1.57859029120077e-05
0.000263696047113811
0.000738979039367891
0.00129396569587285
0.00185730847557598
0.00240108709728529
0.00291481779533383
0.00338880893245331
0.00381344117416226
0.00418485700221796
1.34626161764528e-05
0.000245716159555882
0.000703121115503116
0.00124302431608177
0.00179596049397514
0.00233362531997121
0.00284554191561073
0.00332346374989197
0.00375750808908483
0.00414056581148735
0.00447183043761195
1.11374437316873e-05
0.00022600504565798
0.000662876304818977
0.00118417129138906
0.00172292164665301
0.00225133727844127
0.00275872072998465
0.00323768765321018
0.00367935143304226
0.00407485513161991
0.00441944264781837
0.00471415860656681
8.87237857166453e-06
0.000204536792940204
0.000617977616646307
0.00111728990197079
0.00163833356443798
0.00215436808281878
0.00265449485060038
0.00313147230455861
0.00357749296550612
0.00398395932724128
0.00434342961268052
0.00465283679306662
0.00491432342151919
6.75253688969088e-06
0.000181107655159808
0.000568024067953329
0.00104185596871045
0.00154178955282722
0.0020424062352571
0.00253268122911755
0.00300505117745116
0.00345210326489438
0.00386617969280976
0.00423949882605828
0.00456580254641298
0.00484317460255219
0.00507447805498233
4.80917347050028e-06
0.000155137416997948
0.000512157438708319
0.000956930829787504
0.00143241176552291
0.00191471657431744
0.00239268272748555
0.00285821952113554
0.00330368052652638
0.00372186974736653
0.00410574864398184
0.00444834612750289
0.00474431778853787
0.00499256686704831
0.00519649531794068
3.05858410060637e-06
0.000126629636566145
0.00044896784369087
0.000861011931140926
0.00130881280928603
0.00177014623209821
0.0022335766757277
0.00269033181671581
0.00313221644673037
0.00355187739042472
0.00394273596344373
0.0042984411914896
0.00461274857645145
0.00488104027647261
0.00510284594878058
0.00528199688449863
1.59013495846377e-06
9.5446255478278e-05
0.000377232719500961
0.000751904171264778
0.00116902126827645
0.00160709550806385
0.00205414044763023
0.00250049145598155
0.00293723497835398
0.00335653214381424
0.00375171028799876
0.00411689497949983
0.00444642509744993
0.00473471753863898
0.00497776356230809
0.00517560081855086
0.00533238961900062
5.80714456872227e-07
6.32291974817588e-05
0.000295864766722209
0.000627181122602222
0.00101041906094589
0.0014235198677899
0.00185288332951499
0.00228767343874555
0.00271810589633955
0.0031357164067392
0.00353345220955809
0.0039054236143452
0.00424649694323537
0.00455169344392599
0.00481603767429697
0.00503605128048634
0.00521222252834333
0.00534894880614082
2.42108223171883e-05
0.000304083598776877
2.59273618179279e-05
0.000310625840580668
0.000814344397508062
2.68655741525848e-05
0.000318924811090374
0.000820866065271416
0.00140254422886075
2.63371380903903e-05
0.000323150617477337
0.000828533709483959
0.00140432208604431
0.00199032994164328
2.47312460000113e-05
0.000319926374507699
0.000830297538755932
0.00140430403233724
0.00198494468299364
0.00254114149015195
2.27148469765234e-05
0.000310434165302249
0.000821446734496131
0.0013966870419093
0.00197393473598126
0.00252781170178787
0.00304030411558561
2.05969901533212e-05
0.000297527806449697
0.000802509040899045
0.00137724222572435
0.00195291599153216
0.00250495505233985
0.00301959146150806
0.0034843355946819
1.84069687864092e-05
0.000282844640496433
0.000776480123008383
0.00134575162206136
0.00191884211821938
0.00246928183326254
0.00298575390029932
0.00345699584455451
0.0038749128935477
1.61318204150383e-05
0.000266671459071056
0.000745456126666554
0.00130417973462139
0.00187128913483444
0.0024187590543353
0.00293605400959502
0.0034134142418293
0.00384114456744011
0.00421534751202669
1.37958657711464e-05
0.000248855985267336
0.000710078785650916
0.00125409502213829
0.00181121914267093
0.00235302816452609
0.00286899071745116
0.00335079351934494
0.00378845962919848
0.00417480290002844
0.00450899136519856
1.1450115703056e-05
0.000229281609161604
0.000670276626453932
0.00119604672322901
0.001739398193934
0.00227241628274615
0.0027843443265104
0.00326773534311128
0.003713602271985
0.00411297654482029
0.00446102836993117
0.00475878874856258
9.15897908745531e-06
0.000207926633211479
0.000625777208484023
0.00112990246296128
0.00165594235460044
0.0021770323199457
0.00268221348130439
0.0031641803620875
0.00361502638175137
0.0040260256491055
0.0043896125917214
0.00470265046598083
0.00496728038048425
7.00382300560947e-06
0.000184766059405047
0.000576212363077109
0.00105512401990623
0.00156041081315973
0.00206651994246921
0.00256236161265782
0.00304030482194054
0.00349283604408109
0.0039121644094511
0.00429035527892148
0.00462101559286927
0.00490216464511094
0.00513667941342974
5.02610132680113e-06
0.000159161526943333
0.000520892035266957
0.000970785206625817
0.00145188200378359
0.00194008039561811
0.0024241191965208
0.00289582793606163
0.00334745283866313
0.00377165914991698
0.00416124345153585
0.00450905705686774
0.00480961030559325
0.0050617513698079
0.00526891833978064
3.23516047459849e-06
0.000131059386759843
0.000458384372683379
0.00087535736270544
0.0013288975716663
0.00179647028300017
0.00226646330732673
0.00272999930609661
0.00317876384514366
0.00360525437357146
0.0040027170216969
0.00436460380777292
0.00468446787223736
0.0049575373380404
0.00518330239874102
0.00536566401124734
1.70786230696259e-06
9.97842869109748e-05
0.000386791824918513
0.00076644124813754
0.00118932067026746
0.00163394355032782
0.00208802896351642
0.00254177887036262
0.00298614811247274
0.0034131384460086
0.00381588577948642
0.00418830369091532
0.00452450309564087
0.00481867514415658
0.00506664940383804
0.00526844249687321
0.00542833379611262
6.28735555951807e-07
6.60780948884433e-05
0.000304020204841217
0.000640738219669709
0.00103020810081129
0.00145021002776603
0.00188710790519304
0.00232993000421184
0.00276876628012042
0.00319498611211515
0.00360132877200783
0.00398166999847728
0.00433062906794244
0.00464297426751098
0.00491348845047672
0.00513852951891691
0.0053185567422796
0.00545813409161246
1.18255680099614e-07
3.29243961604329e-05
0.000209323376790613
0.0004953081538638
0.000848132315245397
0.00124254857230348
0.00166174683626683
0.00209311136614839
0.00252575579620901
0.0029503569315601
0.00335915865232487
0.00374575780516627
0.00410482511130499
0.00443170858573282
0.00472181675313617
0.00497048181639371
0.00517453431670794
0.0053348352867456
0.00545613838363515
2.60273699218221e-05
0.000311518273406201
0.000816289972527828
2.70222815576886e-05
0.000320095496804893
0.000823317614559436
0.00140632875001786
2.65604299253822e-05
0.000324649237052005
0.000831570945795672
0.00140895745803456
0.0019965411674936
2.49984073735366e-05
0.000321720349484337
0.000833936554860215
0.0014098369247102
0.00199235618763122
0.00255034379007563
2.30085860111288e-05
0.000312483399234896
0.000825667327352469
0.00140313680038474
0.00198258901433863
0.00253858472991343
0.00305305298651572
2.09054302983302e-05
0.000299801510433942
0.000807277936935582
0.00138460090673466
0.00196283711695572
0.00251734762138448
0.00303431487420845
0.00350119840554369
1.87218890008594e-05
0.000285321578000903
0.000781766104229111
0.00135399367628697
0.00193002861816599
0.00248332281687351
0.00300251348516645
0.00347628210975636
0.00389649030912064
1.64448966021117e-05
0.000269331157457318
0.000751230158520008
0.00131327136716848
0.00188371795337385
0.00243444937581572
0.00295488350001219
0.00343520126852634
0.00386564309695933
0.00424228010368021
1.40985137595223e-05
0.000251673157862691
0.000716307794474449
0.0012639949408248
0.00182484976548097
0.00237034109242938
0.00288988810776558
0.00337511907580795
0.00381597591417996
0.00420520748432159
0.00454196279990295
1.17340803473388e-05
0.000232226710765782
0.000676919858086698
0.00120670198557251
0.00175417145366499
0.0022912978563511
0.00280727143842246
0.00329458925693163
0.00374417766115069
0.0041469723843737
0.00449808184059223
0.0047985282494244
9.41743768583501e-06
0.000210967097144881
0.000632784609447333
0.00114124372385632
0.00167177457519151
0.00219739578751713
0.00270709302456901
0.00319350473051756
0.00364863878507451
0.00406365904256379
0.00443089399816049
0.00474714819930641
0.00501456394388261
7.22959869473537e-06
0.000187894121243006
0.000583533197969451
0.00106706184630803
0.0015771857865097
0.0020882362280476
0.00258906713551991
0.00307198891335948
0.00352940147025914
0.00395340024577675
0.00433591983035223
0.00467045158576494
0.0049549598993848
0.00519233487724875
5.21809955603062e-06
0.000162577622699785
0.000528563965344085