/*--------------------------------*- C++ -*----------------------------------*\
  =========                 |
  \\      /  F ield         | OpenFOAM: The Open Source CFD Toolbox
   \\    /   O peration     | Website:  https://openfoam.org
    \\  /    A nd           | Version:  12
     \\/     M anipulation  |
\*---------------------------------------------------------------------------*/
/*   Windows 32 and 64 bit porting by blueCAPE: http://www.bluecape.com.pt   *\
|  Based on Windows porting (2.0.x v4) by Symscape: http://www.symscape.com   |
\*---------------------------------------------------------------------------*/
FoamFile
{
    format      ascii;
    class       volScalarField;
    location    "400";
    object      omega;
}
// * * * * * * * * * * * * * * * * * * * * * * * * * * * * * * * * * * * * * //

dimensions      [0 0 -1 0 0 0 0];

internalField   nonuniform List<scalar> 
10116
(
2.46684080289412
2.46683937620765
2.38167915593664
0.675479710028109
2.46684296055528
2.38166561584907
0.680356468240723
2.28699598870675
0.661265920633474
0.376078665563058
2.46683873864376
2.38168115142711
0.684996938524253
2.28698408871966
0.665706832496565
0.38016569527101
2.21611155685982
0.64260224683711
0.371766242932853
0.274559481467041
2.46684018393712
2.3816768863936
0.689320836233518
2.28699529407819
0.669876562355935
0.383880064777718
2.21610866980698
0.646781265423312
0.375774520362006
0.277821827351628
2.18722004162014
0.627204299485341
0.365295981462906
0.272996962776557
0.227418605472037
2.46684036137273
2.38167831457462
0.693278206749089
2.28700715071431
0.674103200627138
0.38728702011324
2.21610777623832
0.650546412713207
0.379419349491712
0.280793148752212
2.18721680669061
0.631184980328681
0.369206701422209
0.276216679743024
0.230139278593039
2.18619056140802
0.618090684732786
0.358891221877535
0.270242715564327
0.226819589877391
0.201798846985037
2.46684027355081
2.38167882394126
0.696878354855742
2.28699488805213
0.678002436842445
0.390401651529544
2.21611981621152
0.65464637529706
0.382789720533874
0.283518130190747
2.18721638577025
0.634572514453613
0.372755261758212
0.279162553489434
0.232633152902714
2.18618866139388
0.6218995587504
0.362709092287651
0.273406958865939
0.229509765756524
0.204160425052494
2.19192356688865
0.61314037932345
0.353751106351756
0.266997528322658
0.225489835563361
0.201569100666007
0.186604997064935
2.46683995439073
2.38167884349941
0.700142394578094
2.28699535625915
0.681554457932032
0.393239770457575
2.21610859319903
0.658461062248849
0.385877277222855
0.286014542930751
2.18721731502461
0.638541845992683
0.376065847912524
0.281870504773407
0.23492962386785
2.18619094853945
0.62494643141455
0.366156866096768
0.276311271797931
0.231989190552219
0.206337560626119
2.19192438861071
0.616775051835854
0.357489689781703
0.27010762506103
0.228141381963231
0.203906531675661
0.188713347059948
2.19484406644401
0.608839112625685
0.34958379152739
0.263797990108863
0.223647631814104
0.200842175956025
0.186505356338604
0.177137561931809
2.46683978504417
2.38167839094607
0.703091949907432
2.28699536226502
0.684776115958717
0.395817931699514
2.21610912826935
0.661942223286647
0.38869233381847
0.288295516663997
2.18721854171178
0.642267679066254
0.379108086368811
0.28435357608549
0.237041281584436
2.18619249795843
0.628806194570073
0.369400047152861
0.278989224474666
0.234276677092992
0.208352021176289
2.19192763990854
0.619501398193241
0.360846913358469
0.272964717388275
0.230596369822352
0.206074052943976
0.190667647232574
2.19484900882524
0.612311131433142
0.353253233108218
0.266860755179589
0.226262666704175
0.203150001382678
0.188592834866986
0.179057156118769
2.19511644958611
0.603306799035933
0.345509633433076
0.260721274591829
0.221538376544969
0.19967837721442
0.186032925926264
0.177077551786245
0.1710963160548
2.46683990677036
2.38167804636786
0.705747501377908
2.28699488697729
0.687687933510097
0.398152032874761
2.21610902010285
0.665100970545922
0.391250136768374
0.290373020435048
2.18721893297476
0.64567404498114
0.381884798499364
0.286623223268551
0.238977254049027
2.18619332334242
0.632460563869628
0.372390117649988
0.281448703440629
0.236381654208082
0.210212158689424
2.19192922591298
0.623262970064655
0.364028676246425
0.275606203899397
0.232866996939372
0.208083465038788
0.192484929210705
2.19485127197041
0.614795430153273
0.356530640575685
0.26967309936698
0.228689175075986
0.2053009957623
0.190539842972989
0.180846195337632
2.19512173051142
0.606644335994941
0.349112093876516
0.263742701659663
0.224122085674826
0.201959990952089
0.188095903293742
0.178977959052138
0.172869334038145
2.19479106206845
0.596360183590331
0.340955473010634
0.25757311158515
0.219294963714506
0.198206275988018
0.185208575477294
0.176713876032141
0.171050067673534
0.167239831568776
2.46684022002074
2.38167802958593
0.708128033775449
2.28699449508457
0.690309746397422
0.400257096105309
2.21610859564203
0.667956543823098
0.393566101333451
0.292258410264511
2.18721863028617
0.648766851071277
0.384408807654882
0.288690807724529
0.240745864718144
2.18619296407863
0.635807606983524
0.37512264155109
0.283698557264832
0.238312166310534
0.211923799062785
2.19192935559213
0.626860176965311
0.366971022623169
0.278036390821935
0.234959190224204
0.209940322305449
0.194170297882014
2.19485490421041
0.618364814379251
0.359657519384207
0.27227817201289
0.230938103849351
0.207300145464531
0.192353948859022
0.18251815513757
2.19512424883346
0.608896594415438
0.352318035036846
0.26651472018732
0.226521071810792
0.204092187635637
0.190030570415371
0.180760820654832
0.174530729148716
2.1947964491521
0.599552423759547
0.344471820094573
0.260556060936072
0.221852365989099
0.200467287683911
0.187251885188778
0.178592825508666
0.17280484254202
0.168895972160126
2.19479622405428
0.58827243590214
0.335733071221643
0.254181680023347
0.216937576863589
0.196554691702276
0.184122942206943
0.176072487028166
0.170742543895961
0.167203721742274
0.164844085180682
2.46684052630004
2.38167823826378
0.710250909964636
2.28699438130914
0.692660073569442
0.402147302958663
2.21610826886637
0.670528094200626
0.395654981893596
0.293962573082688
2.18721838558272
0.651563862807195
0.386694797225332
0.29056742547679
0.242355235073984
2.18619245882425
0.6388490820817
0.377608108476917
0.285749025342107
0.240076115751416
0.213492461745324
2.19193017652708
0.630162283879503
0.369663611339339
0.280261536498897
0.236879320721458
0.211649521451108
0.195726972079476
2.19485246846861
0.621900412311044
0.36255824147728
0.274678326059255
0.233013189880082
0.209149874654445
0.194037654018127
0.18407557475278
2.19512998790003
0.612218201671454
0.355385142105455
0.269085830797077
0.228747304954654
0.206077805036016
0.191837934226514
0.182430499846939
0.176091162614081
2.19479898194182
0.601544736048084
0.347603434929468
0.26329056164227
0.224226721692653
0.202581839914903
0.189173363918354
0.180365764308821
0.174460680714132
0.1704560315805
2.19480165421141
0.59129777612741
0.339151232896019
0.257125356775229
0.219472368922324
0.198800632236085
0.186153415086922
0.177936147649691
0.172477840215693
0.168842238088816
0.166405727805155
2.19511835084351
0.579205443382699
0.329862519704688
0.250488743397459
0.214461132670858
0.19481192891236
0.182895328113657
0.175239585496988
0.170217085025223
0.166936447811822
0.164819321217756
0.163456416086327
2.46684067564232
2.38167846466504
0.712132040077401
2.28699446389101
0.694755779852767
0.403835916593528
2.21610812657094
0.672833453892334
0.397530744141235
0.29549613901688
2.18721828147891
0.654083271843876
0.388757068511016
0.292263790267932
0.243813393702358
2.1861925995857
0.641600749249947
0.379860203966243
0.287610642188789
0.241681447548805
0.214923856440461
2.19192560145426
0.633165284983286
0.37211461145318
0.282290644864193
0.238634512265516
0.213216220433376
0.197158257846231
2.1948527181049
0.625160256519571
0.365216427402065
0.276878134950433
0.234919263136334
0.210853664798146
0.195593305529474
0.185519506867429
2.19512531012005
0.615682511775614
0.358244772910338
0.271457567349599
0.230803643845762
0.207917424617763
0.193517542453292
0.183987008865845
0.177550998065171
2.19480477306468
0.604559385445545
0.350603447478482
0.265828598245445
0.22643142462135
0.204553452925654
0.190972097756713
0.182030710495241
0.176019317710275
0.171928378757725
2.19480411277543
0.592978467797578
0.3421997722315
0.259822306779293
0.221824808817777
0.200900849271432
0.188064267295413
0.179699665720213
0.174125325494634
0.170397165876537
0.167884037315566
2.19512371954644
0.581998260352966
0.333170943136347
0.253391877228052
0.216975873570766
0.197047550378637
0.184919570774322
0.177096156309952
0.17194023707861
0.168556910115536
0.166363796331254
0.16494137816531
2.1948478584119
0.569191498521704
0.323414049330034
0.246533461396434
0.211896886801758
0.193044780024257
0.181632293597176
0.174328931308622
0.169567252941563
0.166498544332465
0.164587653353156
0.163443883050872
0.162775971204268
2.46684064221503
2.38167856149577
0.713786159692904
2.28699458411622
0.696612262336454
0.405335466950209
2.21610811195761
0.674888987443154
0.399206505921187
0.296868758576238
2.18721813548526
0.656342193887714
0.390609208112296
0.293790240034752
0.245128243190809
2.18619290281801
0.644079962459888
0.381892525667603
0.289293788434866
0.243136118805727
0.216223962574006
2.19192819025174
0.635883149118403
0.374336420356198
0.28413360629143
0.240232276123233
0.214645970152508
0.198467997832125
2.19484585270533
0.628127284430766
0.367637742846623
0.278885416744174
0.236662546301751
0.212416017328283
0.197023881829467
0.186851446350201
2.1951233359375
0.618894905478697
0.360869821629774
0.273633144305009
0.232693974865657
0.20961327681251
0.195070437666143
0.185430572414542
0.178909483606815
2.19480015470226
0.607940011395466
0.353418805340272
0.268172632171664
0.228469289133797
0.206381823010335
0.192645839961411
0.183584837619098
0.177478652789196
0.173311564628812
2.19480992350875
0.595591364303335
0.345122554169692
0.262326526371079
0.22400955171302
0.202859744936866
0.189854911201579
0.181359216689426
0.175680532367179
0.171868062703668
0.16928556560914
2.19512596666166
0.583344341137551
0.336118530721224
0.256049596731407
0.219308393465797
0.199136994069757
0.186823993152517
0.178854133142322
0.173581020509768
0.170104644263176
0.167837318388496
0.166353313044279
2.19485291589123
0.571723485661823
0.326622765252142
0.249394970697459
0.214394046541534
0.19527451730104
0.183656415119344
0.176186389519821
0.171287788827611
0.168109281152699
0.166115174936582
0.164912023939146
0.164198979186301
2.19192765331609
0.558131532156585
0.316474287948795
0.242433301732917
0.209340216694742
0.19134058799198
0.180431615341153
0.173450264811549
0.168905865712892
0.16599374575545
0.164223500873956
0.163245315056437
0.162775508933824
0.16259276708691
2.46684050039522
2.38167850858917
0.715227772546209
2.28699462096519
0.698243745311714
0.406657760342312
2.21610814042867
0.6767094997502
0.400694619661308
0.298090201617302
2.18721799056135
0.658356252607008
0.392264021337688
0.295156660989935
0.246307578427524
2.18619273279667
0.646302982624283
0.383718147772843
0.290808568200074
0.244447835595446
0.217398898638592
2.19193103762335
0.638332138244804
0.376342008476031
0.285800366869311
0.241680295768946
0.215944651974364
0.199660562470447
2.1948509122686
0.630813665418597
0.369833460698985
0.28070930595703
0.238250044177305
0.213842149704532
0.198333081728387
0.188073711240289
2.19511801965706
0.621821515523706
0.36326247514711
0.275619396350844
0.234423803687432
0.211169144363125
0.196499004607806
0.186762374617388
0.180166594830155
2.19479808419679
0.611097293221129
0.35600844179582
0.270324395487279
0.230343729688363
0.208068414201115
0.194194512145504
0.18502713331891
0.178837126975086
0.174603317250976
2.19480540488336
0.598871292631306
0.347888376292075
0.264642302725478
0.226029785312638
0.204677184156001
0.191522546927656
0.182910272563215
0.177138600649276
0.173251047308831
0.170607381937299
2.19513163075226
0.585428197500623
0.338948829972141
0.258518105989349
0.221474483371871
0.201085573309426
0.188608902346785
0.180510028884688
0.175133181374086
0.171573093854712
0.169237691604484
0.167697408815678
2.19485255486382
0.572721348889395
0.32942323659518
0.252010240966682
0.216708303567842
0.197356747583374
0.185559084477338
0.177944245512424
0.172926994186218
0.169652435499301
0.167582438924357
0.16631946327927
0.165557082074759
2.19193032253663
0.560386583095394
0.319583496479883
0.245253723418444
0.211822942205202
0.193569281798129
0.182461583416519
0.175316082339757
0.170633118564594
0.167605459186582
0.165743226972689
0.164697369601397
0.164181949680019
0.1639662427573
2.18619316583205
0.545899840739563
0.309220784840041
0.238410681915418
0.206974404790763
0.189843983636903
0.179414830042425
0.17271500331959
0.168342899682875
0.165536848470014
0.163840227798294
0.162945934335085
0.162607307858934
0.16260353667075
0.16275492648307
2.46684034403216
2.38167837977611
0.7164726434464
2.28699455104593
0.699664150787874
0.407814169640186
2.21610812019581
0.678308635490203
0.402006707727136
0.299169732914506
2.18721795804653
0.660139585325263
0.393733539722909
0.296372646351516
0.247359084722486
2.18619237837851
0.648284817434272
0.385349476740202
0.292164731439365
0.245624416253035
0.218454898321111
2.19192892420189
0.640528018377542
0.378143950727544
0.28730072066183
0.242986328210616
0.217118344726138
0.200740726253998
2.19485649617563
0.633234501030773
0.37181589222093
0.282359304099489
0.239689120874973
0.215137753980943
0.199525207347355
0.189189385935693
2.19512317259869
0.62447233605552
0.365432878614776
0.277424849223103
0.235999642791791
0.21258982841805
0.197806652447431
0.187984601835413
0.181323370910467
2.1947923848653
0.613977036169359
0.358370354193852
0.272289755221674
0.232059745739993
0.209616502293684
0.195619865801121
0.186358227990316
0.180094412889402
0.17580232874601
2.19480323613488
0.601965497171734
0.350438849175439
0.266769625251668
0.22788867560174
0.206354544517503
0.193066486284975
0.184350782167993
0.178496775596698
0.174543051864636
0.171845953392251
2.19512717403219
0.588562308155762
0.341658065276366
0.260804271193357
0.223477923990128
0.202893565476328
0.190271678551935
0.182058837884619
0.176590225154221
0.172955665893291
0.170559569493698
0.168969570701107
2.19485558276338
0.57435853947662
0.332139919720551
0.254440239924409
0.218856916494101
0.199297706199855
0.187341596976402
0.179599961659145
0.174478981816221
0.171119697153258
0.168981183294584
0.167662667949215
0.166854531238438
2.19193053319912
0.56096783490936
0.322209538664018
0.247821159725046
0.214120928404638
0.195648162471529
0.184367532308503
0.177079722282779
0.172277390789689
0.169150251870547
0.167207644286043
0.166099328989677
0.165535800168223
0.165280988136048
2.18619326213848
0.547939965397103
0.312233049203195
0.241186392113693
0.209447408943416
0.192077611412328
0.181457450871712
0.174596760908483
0.170085691296683
0.167160103161009
0.165363861731034
0.164391748045926
0.163998335355483
0.163960617065567
0.164089409975155
2.1872225768608
0.53306080608305
0.302098293263496
0.234877758170314
0.205122135747334
0.188795687678524
0.178763132191046
0.172265338438507
0.167996800580314
0.165238441119789
0.163555854336407
0.162667276442144
0.162365202096016
0.162462578409813
0.162775806377935
0.163149838658389
2.46684022555632
2.38167825929687
0.717541023211199
2.28699443818413
0.700889206866977
0.408816068091518
2.21610802160031
0.679699887539068
0.403153923615453
0.300116177593383
2.18721794616756
0.661705123698593
0.395029074395035
0.297447360055305
0.248290221908504
2.18619237164844
0.650039087338614
0.386798193509136
0.293371681794172
0.246673500702642
0.21939825921081
2.19192635636024
0.642485412300309
0.379754233854478
0.288644202919869
0.24415796236811
0.218173269298475
0.201713570258456
2.19485263827251
0.635404754887086
0.373597233789328
0.283844880026331
0.240987288125312
0.216308818849853
0.20060500388101
0.190202157037374
2.19512727738939
0.626861267513244
0.367392792202017
0.279058549396705
0.237428533198365
0.213880776063589
0.198997530449761
0.189100278354625
0.182381820322866
2.19479722313122
0.616586014474
0.360513519232789
0.274076700064506
0.233623487147988
0.211030537001927
0.196924954934665
0.187580044448877
0.181251424375739
0.17690855435657
2.19479727009853
0.604791746652101
0.352766835856143
0.26871337175433
0.229590936564947
0.207894587259874
0.194488046981283
0.185680800817111
0.179754199557922
0.175742471449208
0.172998895906116
2.19512508842636
0.591579833845716
0.344165271612259
0.262906063350022
0.225321740617673
0.20456232464858
0.191811544469938
0.183498001603627
0.177948400982012
0.174248121282667
0.171798628691196
0.170165249350869
2.1948532106827
0.576962837832445
0.334780234351456
0.256695160456355
0.220844484309953
0.201098241173581
0.189001827412427
0.181148792415146
0.17593684100444
0.172502879434943
0.170303374205771
0.168935132930501
0.168086369731988
2.19192744641621
0.562186059852973
0.324801787612836
0.250209351435251
0.216253611994992
0.197584611652958
0.186151629856142
0.178739687779108
0.173833795482893
0.170620200874244
0.16860674932437
0.167441610038458
0.166832590067835
0.166540702988192
2.18619471361911
0.548055470419873
0.314688041986029
0.243702726261225
0.211732085727887
0.194157997292498
0.183372166552731
0.176372517832288
0.171742138720507
0.168714295647353
0.166832585343935
0.165792299665993
0.165347349513529
0.165271304325331
0.165369639141017
2.18721940471083
0.534958136965914
0.305008804950981
0.237610258874276
0.207592545781917
0.191042298679062
0.180826637418821
0.17417151339377
0.169764131816359
0.16688329748235
0.165095034648715
0.164119391977173
0.163751227096688
0.163804748536755
0.164093995418356
0.164454242363208
2.2161134346418
0.522087214188118
0.296326823915717
0.232664522488352
0.204363321996737
0.188598261149615
0.178761624259863
0.172308713745122
0.168023226043872
0.165221542202581
0.163482224715885
0.162530741783882
0.16217746053742
0.162270854922573
0.162658864615357
0.163179660151649
0.163692500702406
2.46684015387546
2.38167818723332
0.718462319092876
2.28699435520286
0.701940435140167
0.409675810819767
2.21610791189308
0.680899356526959
0.404147525791504
0.300937971639385
2.18721777354698
0.663066010918099
0.396161497855553
0.298389536200311
0.249108138005266
2.18619245982691
0.65157826764734
0.388075238843746
0.294438423308952
0.247602515474785
0.22023516633592
2.19192844307735
0.644217576553064
0.38118424464615
0.289840031683225
0.245202722026193
0.219115686489842
0.202584317738978
2.19485008024361
0.63733902938708
0.375189213477343
0.285175325432293
0.242152059984151
0.217361489977869
0.201577525545135
0.191116148310552
2.19512818885931
0.6290025205308
0.369154026497478
0.280529693670587
0.238717758835148
0.215047825664953
0.200076301993355
0.190113064407163
0.183344709291053
2.19479932936694
0.618937248431114
0.362449111500407
0.275693972133196
0.235041708125143
0.212315728850231
0.198113728207211
0.188695474077241
0.182310114125634
0.177923084295004
2.19480176472533
0.607352814557986
0.35487980610919
0.270481035973357
0.231142462820367
0.209301582938969
0.195789998730903
0.186901936576894
0.180911540490366
0.1768491389666
0.174065248587
2.19511913237263
0.594345608768893
0.346456124792999
0.264827192303728
0.227010446482537
0.206094732054346
0.193229631824161
0.184827203158948
0.17920631544987
0.175448339222905
0.172952190910811
0.171281176803468
2.19485171209349
0.579844093455325
0.337238537764733
0.258770467633866
0.222673919534323
0.202759942830504
0.19053921360173
0.182588153269228
0.177296365077726
0.173796780349412
0.171543530674973
0.170131519714236
0.169247263060369
2.19192862319553
0.564165873478713
0.327337152869024
0.252431205460371
0.218226687186825
0.199380225980301
0.187812381509722
0.180291828823752
0.175295735344114
0.17200673805077
0.169930934492003
0.168715027833698
0.168064949528484
0.167739845778263
2.18619094240793
0.548821146639609
0.317108075702583
0.246047447592079
0.213851451960303
0.196094007546904
0.185162387449261
0.178041864401841
0.173308466735881
0.170192535574778
0.168236785236417
0.167136258001443
0.166643821682076
0.166530556705293
0.166599082634204
2.18721884687694
0.534506360483761
0.30731686852148
0.24007473623435
0.209869321900633
0.193130826088615
0.182757151729104
0.17596655613001
0.171440338338596
0.168455106779385
0.166576804797282
0.165526477105193
0.165100023452368
0.16511111954789
0.165370313770261
0.165707435486097
2.21610968677025
0.523955631737675
0.299150640872767
0.235379905257501
0.206843315606885
0.190869597289524
0.180856738204031
0.174249434268427
0.169825100103279
0.166898284196544
0.165048111956108
0.164001715158891
0.163571721148855
0.163608983998911
0.163962498161131
0.16446781063459
0.164974334617973
2.2869972684867
0.518606430929331
0.295282175928837
0.233635929905081
0.205809478034392
0.18995062164086
0.179872331689438
0.173163475986565
0.168648292295508
0.165651122155504
0.163745860360953
0.162649670675604
0.162168504178531
0.162162199664051
0.162511130359448
0.16308365107849
0.163730169137523
0.164317732882706
2.38167816861927
0.719244795149237
2.28699432764512
0.702853720380751
0.410407309974573
2.2161078606209
0.681929866148094
0.405000226808767
0.301643347386535
2.18721759841153
0.664239089924041
0.397142058742367
0.299207548359076
0.249819600003816
2.18619214144988
0.652915411691779
0.389191224251904
0.295373545386041
0.248418573482431
0.220971645350256
2.19193069383333
0.645736592301443
0.382444688132716
0.290897008309783
0.246127971063683
0.219951774026809
0.203358244443373
2.19485224688886
0.639050367301726
0.376602969295426
0.286359674200739
0.243190905396636
0.218301967712353
0.202447992336816
0.191935785637322
2.19512591424171
0.630910462226876
0.370728043484626
0.281847378262265
0.239874679985502
0.21609702904246
0.201047967556724
0.191027076391577
0.184215405431957
2.19480698275924
0.62104460338498
0.364188543917137
0.277150505258153
0.236321499878304
0.213477759195305
0.199190733746257
0.189708109453131
0.183273233525166
0.178847921885952
2.19480358136484
0.60966061336451
0.356788299904042
0.272081047189541
0.232549795695906
0.210580564965641
0.196976111222728
0.188016911803632
0.181970631662981
0.177864093894291
0.175045320974943
2.1951233616461
0.596852984168628
0.348536014520314
0.266574577530807
0.228549749193723
0.207494989256584
0.194528570537312
0.186047819894627
0.180364352627353
0.176555917323962
0.174019174702802
0.172315628958806
2.19484823000087
0.582536197910549
0.339489156017802
0.260668251943396
0.224349555006943
0.204285775360171
0.191954966932106
0.183917639389264
0.178555837325324
0.174998763253274
0.172698467454539
0.171248266721499
0.170333240340316
2.1919282280851
0.566588265971843
0.329733486368647
0.254479472599354
0.220043024354592
0.201036946165364
0.189349691645227
0.181733866595557
0.176659041910534
0.173304238050738
0.17117377222037
0.169913090578921
0.169226752815442
0.168872511533328
2.18619182441514
0.550424523700519
0.319515371824468
0.248233557150743
0.215812583018764
0.197888179667684
0.186827521514121
0.179601432335948
0.174778743000702
0.171586605405656
0.169566488067331
0.168412867254104
0.167877696814174
0.167730410824151
0.167771857112894
2.18721766922195
0.534621883440202
0.3095514722981
0.242373731767707
0.211980236007335
0.195072163998821
0.184559509597933
0.177651323325613
0.173022834266849
0.169948139896427
0.16799259436736
0.166877576074783
0.166399292046273
0.166370565195978
0.16659945549779
0.166912883214736
2.21610871984906
0.522838809100504
0.301285810043076
0.237791894208242
0.209121843790762
0.192976084120289
0.182812200945452
0.176072505850749
0.171529615313449
0.168496436760532
0.16655213513287
0.165424917569793
0.164928901923597
0.164916106166712
0.165234906567688
0.165717195825777
0.166206829919647
2.28698419106163
0.520757717541839
0.298050567405336
0.236363396642138
0.208319409446143
0.192264623726277
0.182013987250517
0.175151715202458
0.170496574015054
0.167371130215807
0.165349887901291
0.164151623181723
0.163584330813756
0.163510095772778
0.163811442777993
0.164357474509101
0.164995740145825
0.165583477405877
2.38167969099607
0.544116632615955
0.308908204429316
0.242366420572426
0.21177174922964
0.194145320825864
0.182878465755903
0.175335056822744
0.170214114820214
0.166766752298152
0.164518544622172
0.163153413676951
0.162453064978876
0.162263546650918
0.162471092892844
0.162974070445891
0.163652297702766
0.164362322061196
0.164974469527077
2.28699435779735
0.703642198596073
0.411016743334793
2.21610786296679
0.682831956194082
0.405727193195891
0.302240431262386
2.18721763936476
0.665249254892574
0.397984030195165
0.299909683356852
0.250431005418842
2.18619183029496
0.654067986369282
0.390157505646517
0.296185371593793
0.249128412178255
0.221613421943395
2.19192815865758
0.647055453810607
0.383546036909511
0.291823559181646
0.24694073171227
0.220687525577322
0.204040534213947
2.19485451046682
0.640550330696882
0.377849004362901
0.28740658916507
0.244111045451068
0.21913638496006
0.203221667183148
0.192665639142951
2.19512590061767
0.632597794835024
0.37212588095309
0.28302047970179
0.240906615980188
0.217034516856692
0.20191771469273
0.191846728442933
0.184997658914978
2.19480490985426
0.622921402383835
0.365742999072148
0.278455207178027
0.237470088470939
0.214522575493465
0.200160900481287
0.190622029965314
0.18414413029215
0.17968575691286
2.1948049626262
0.611728826195454
0.35850336181588
0.273522123941946
0.233819875035146
0.211737095949048
0.198050821492331
0.189029226931324
0.182934168446481
0.178789317608021
0.175940446846226
2.1951248445159
0.599111907900187
0.350414697886803
0.268156317653613
0.2299460630395
0.208767858611568
0.195712023141218
0.187162436675355
0.181424198577068
0.177571785565624
0.174999839942542
0.173268249212206
2.19485011945575
0.584982867857389
0.34153357823949
0.262394660042689
0.225876941512321
0.205679852796798
0.193251723292336
0.185138549529346
0.179715447410631
0.176108162487445
0.173766873280466
0.172283528555534
0.171341951455349
2.19192921889522
0.569157353854876
0.331939637054647
0.25635390971917
0.22170671323903
0.202557883321881
0.1907649903865
0.183065549557832
0.17792196417309
0.174509773347806
0.172331575110882
0.171031732948807
0.170313733886314
0.169934194627118
2.18619271536672
0.552445971416555
0.321821148192175
0.250254561616537
0.217618313111566
0.1995429127876
0.188368058504815
0.181049468951338
0.176149173009842
0.172890956452479
0.170814861046075
0.169614694024672
0.169041693041694
0.168864165991148
0.16888168265353
2.18721426789469
0.535737846325506
0.311799665711057
0.244524370101944
0.213933960448671
0.196870049667391
0.186234147893736
0.179223405815825
0.174506557885301
0.17135489113608
0.169332798210181
0.168161566173266
0.167637396087056
0.167572422083649
0.167773102466461
0.168064563454676
2.21610684513456
0.522106207592653
0.303367694959717
0.240048410092849
0.211232931983679
0.19493142017858
0.184634685307455
0.177780258858533
0.173135547606062
0.170011528036389
0.167986908146043
0.166790423940677
0.166237047627107
0.166179288867472
0.16646466143531
0.166922466450171
0.167393549676937
2.28700717368183
0.519105050909766
0.300013696447106
0.238759250776677
0.21061639457592
0.194404226935829
0.184007238829522
0.177013881559907
0.172239626727936
0.169005403860223
0.166885916477216
0.165601018595877
0.164960200311868
0.164827122219964
0.165085372776654
0.165603250978675
0.166224484022348
0.166800723760175
2.38166628498341
0.546781961931815
0.311656859961459
0.245154792532746
0.214353947196892
0.196530551029977
0.185088599401246
0.177388336515959
0.172123789014707
0.168543403720414
0.166173330430678
0.164698799033519
0.163903409313763
0.163635187527233
0.163782353480171
0.164245086019451
0.164903660841002
0.165611731885749
0.166230471645445
3.68516441843931
0.804146758922158
0.375832190840432
0.271553620809226
0.227600590969304
0.203785697879925
0.189196243545962
0.179666520116836
0.17325851877688
0.168928443549044
0.16604979654835
0.164218928222455
0.163162760973681
0.162690753390946
0.162667715317676
0.162993339584961
0.163575650877349
0.164300203861344
0.16502540965497
0.16561953856989
2.21610790843142
0.683621955410869
0.406335100511095
0.302735515720617
2.18721771688427
0.666140602101129
0.398703903131828
0.300504265589102
0.250948446659235
2.18619206547132
0.655062948458016
0.390988028341076
0.296882329458712
0.24973842657421
0.222165949977747
2.19192566944164
0.648192376588553
0.38449978361635
0.292627972816917
0.247647703881728
0.22132867031198
0.20463625328521
2.19485167505948
0.641851716095186
0.378937708860044
0.288324398283422
0.244919349460182
0.219870693896659
0.203903737241608
0.193310290480568
2.19512581305032
0.634075779223108
0.373357807902839
0.284057544379279
0.24182070802194
0.217866358345692
0.202690779023669
0.192576581703774
0.185695472470572
2.19480438151785
0.624580120121603
0.367123256296657
0.279616835381753
0.238494691258448
0.215456232651322
0.201029366705215
0.191441622568332
0.184926554982329
0.180439793050927
2.19480280664187
0.613569679340512
0.360035871059739
0.274813036847134
0.234959821816002
0.212777043129625
0.199018989337304
0.18994290864148
0.183805464981227
0.17962749724758
0.176752754178394
2.1951262419407
0.601135142491376
0.352102852822532
0.269580928206684
0.2312062244067
0.20991887486422
0.196784358033429
0.188174477208426
0.182388474083019
0.17849787338197
0.175895503434081
0.174139803897899
2.19484918081457
0.587186961687676
0.343380262878617
0.263957406857307
0.227262380998921
0.206947074783679
0.194433115963692
0.186253417132156
0.180776776355032
0.177125776561339
0.174748904506692
0.173236903825515
0.172272490784419
2.19192707562473
0.571523084795544
0.333946540414908
0.258059434764279
0.223223104283331
0.203947213957233
0.192061033636262
0.184288256789392
0.179084660854159
0.175622510529507
0.173402780220467
0.172068883223113
0.171323422896432
0.17092205343832
2.18619628736204
0.554645479445849
0.323973864121358