/*--------------------------------*- C++ -*----------------------------------*\
  =========                 |
  \\      /  F ield         | OpenFOAM: The Open Source CFD Toolbox
   \\    /   O peration     | Website:  https://openfoam.org
    \\  /    A nd           | Version:  12
     \\/     M anipulation  |
\*---------------------------------------------------------------------------*/
/*   Windows 32 and 64 bit porting by blueCAPE: http://www.bluecape.com.pt   *\
|  Based on Windows porting (2.0.x v4) by Symscape: http://www.symscape.com   |
\*---------------------------------------------------------------------------*/
FoamFile
{
    format      ascii;
    class       volScalarField;
    location    "400";
    object      p;
}
// * * * * * * * * * * * * * * * * * * * * * * * * * * * * * * * * * * * * * //

dimensions      [0 2 -2 0 0 0 0];

internalField   nonuniform List<scalar> 
10116
(
83333.3354633733
83333.3355276563
83333.3354633522
83333.3354623548
83333.3355937812
83333.3355275582
83333.3355266633
83333.33546326
83333.3354621787
83333.3354592014
83333.3356617615
83333.3355936221
83333.3355928887
83333.3355273682
83333.3355264219
83333.3355237064
83333.3354630784
83333.3354619755
83333.3354588962
83333.3354526995
83333.3357314116
83333.335661599
83333.3356609352
83333.3355933662
83333.3355926228
83333.3355901698
83333.3355270804
83333.3355261272
83333.3355233246
83333.3355176976
83333.3354628028
83333.3354617243
83333.3354585644
83333.3354524239
83333.3354424887
83333.3358025832
83333.3357312522
83333.3357306302
83333.3356613225
83333.3356606808
83333.3356584153
83333.335592997
83333.335592282
83333.3355897783
83333.3355846376
83333.3355266835
83333.3355257719
83333.3355229083
83333.3355173438
83333.3355082504
83333.335462414
83333.3354614193
83333.3354582513
83333.3354520916
83333.3354423331
83333.3354287942
83333.3358751713
83333.3358024233
83333.3358018341
83333.335730963
83333.335730384
83333.3357282733
83333.3356609044
83333.3356603292
83333.3356580463
83333.335653289
83333.3355924955
83333.3355918557
83333.335589335
83333.3355842749
83333.3355758785
83333.3355261547
83333.335525345
83333.3355224803
83333.3355169016
83333.3355080102
83333.3354955478
83333.3354618917
83333.3354610357
83333.3354579446
83333.3354517781
83333.3354421267
83333.3354287745
83333.3354120372
83333.3359491055
83333.3358750082
83333.3358744477
83333.3358021205
83333.33580159
83333.3357996058
83333.3357305081
83333.3357300242
83333.3357279169
83333.3357234893
83333.3356603258
83333.3356598617
83333.3356576014
83333.3356529423
83333.3356451327
83333.3355918405
83333.3355913312
83333.3355888424
83333.3355837975
83333.3355756212
83333.3355640613
83333.3355254732
83333.3355248189
83333.3355220391
83333.3355164364
83333.3355076733
83333.335495442
83333.3354799704
83333.3354612196
83333.3354605385
83333.3354576047
83333.3354514987
83333.3354419201
83333.3354287381
83333.3354121141
83333.3353926236
83333.3360243318
83333.335948937
83333.3359484051
83333.3358746906
83333.3358742022
83333.3358723226
83333.3358016333
83333.3358012207
83333.3357992552
83333.3357951096
83333.3357298673
83333.3357295244
83333.3357274689
83333.3357231473
83333.3357158568
83333.3356595686
83333.3356592654
83333.3356570757
83333.3356524529
83333.3356448796
83333.3356340961
83333.3355910144
83333.3355906819
83333.3355883043
83333.3355832591
83333.33557524
83333.3355639308
83333.3355495259
83333.3355246244
83333.3355241589
83333.3355215464
83333.3355160099
83333.3355073099
83333.3354952731
83333.335479975
83333.3354619396
83333.3354603864
83333.3354599006
83333.3354571794
83333.3354512371
83333.3354417591
83333.3354287362
83333.3354122434
83333.3353927555
83333.3353709216
83333.3361008028
83333.3360241561
83333.3360236528
83333.3359486033
83333.3359481557
83333.3359463672
83333.3358741731
83333.3358738212
83333.3358719754
83333.3358680699
83333.3358009386
83333.3358006917
83333.3357988033
83333.3357947664
83333.3357879314
83333.335729024
83333.3357288687
83333.335726919
83333.3357226431
83333.3357155969
83333.3357055014
83333.3356586192
83333.3356585162
83333.3356564696
83333.3356518831
83333.3356444777
83333.3356339537
83333.3356204796
83333.3355900055
83333.3355898776
83333.3355876857
83333.3355827307
83333.3355747814
83333.3355637042
83333.3355495058
83333.3355326808
83333.335523601
83333.3355233405
83333.3355209491
83333.3355155806
83333.3355069582
83333.3354950828
83333.3354799739
83333.3354620021
83333.3354417634
83333.335459389
83333.3354591045
83333.3354566303
83333.3354509301
83333.3354416322
83333.3354287751
83333.3354124368
83333.3353929976
83333.3353710888
83333.3353473087
83333.3361784753
83333.3361006188
83333.336100143
83333.3360238052
83333.3360233982
83333.336021691
83333.3359480561
83333.3359477608
83333.3359460202
83333.3359423218
83333.3358734296
83333.3358732637
83333.335871515
83333.3358677198
83333.3358612826
83333.3358000201
83333.3357999833
83333.3357982289
83333.335794244
83333.3357876573
83333.3357781681
83333.335727968
83333.3357280336
83333.3357262562
83333.3357220517
83333.335715172
83333.3357053408
83333.3356926884
83333.3356574701
83333.3356575889
83333.3356557492
83333.3356512825
83333.3356439523
83333.3356336908
83333.3356204402
83333.3356046509
83333.3355888076
83333.3355888975
83333.3355869386
83333.3355821669
83333.3355743038
83333.3355634
83333.3355494334
83333.3355327166
83333.3355138168
83333.3355223988
83333.3355223485
83333.3355202084
83333.3355150829
83333.3355066401
83333.335494913
83333.3354799882
83333.3354621155
83333.3354418586
83333.3354197664
83333.3354582291
83333.3354581408
83333.3354559321
83333.3354505298
83333.335441514
83333.3354288669
83333.3354127218
83333.3353933838
83333.3353714214
83333.3353475138
83333.3353221926
83333.3362573084
83333.3361782817
83333.3361778333
83333.3361002498
83333.3360998832
83333.3360982499
83333.3360232286
83333.3360229885
83333.3360213423
83333.3360178233
83333.3359472666
83333.3359471747
83333.3359455483
83333.3359419616
83333.335935867
83333.3358724434
83333.3358725062
83333.3358709148
83333.3358671825
83333.3358609914
83333.3358520287
83333.3357988706
83333.3357990725
83333.3357975138
83333.3357936325
83333.3357871982
83333.3357779831
83333.3357660537
83333.3357266964
83333.3357269988
83333.3357254472
83333.3357213915
83333.3357145849
83333.3357050355
83333.3356926215
83333.3356777414
83333.335656119
83333.3356564686
83333.3356548726
83333.3356506082
83333.3356433904
83333.3356332954
83333.3356203188
83333.3356046677
83333.3355869111
83333.3355874174
83333.3355877298
83333.3355860284
83333.3355815039
83333.3355738359
83333.3355630614
83333.335549317
83333.3355327617
83333.3355138839
83333.3354932122
83333.335521019
83333.3355211739
83333.3355193014
83333.335514467
83333.335506299
83333.3354947803
83333.3354800353
83333.3354623046
83333.3354420563
83333.3354198901
83333.3353962885
83333.3354569086
83333.3354570043
83333.3354550647
83333.3354499983
83333.335441347
83333.3354290381
83333.3354131659
83333.3353940111
83333.3353720637
83333.3353479971
83333.3353224769
83333.3352959983
83333.3363372609
83333.3362571035
83333.3362566844
83333.336177894
83333.3361775684
83333.3361760046
83333.336099644
83333.3360994581
83333.3360978982
83333.336094536
83333.3360223948
83333.3360223735
83333.3360208575
83333.3360174515
83333.3360116502
83333.3359462175
83333.3359463704
83333.3359449205
83333.3359414107
83333.3359355582
83333.335927047
83333.3358712095
83333.3358715265
83333.3358701496
83333.3358665465
83333.3358604935
83333.3358518172
83333.3358405163
83333.3357974911
83333.3357979424
83333.3357966252
83333.3357929175
83333.335786565
83333.3357776317
83333.3357659542
83333.3357518774
83333.3357252112
83333.3357257549
83333.3357244564
83333.3357206191
83333.3357139554
83333.3357045512
83333.3356924464
83333.3356777377
83333.335660957
83333.3356545672
83333.3356551476
83333.3356538135
83333.3356498014
83333.3356427965
83333.3356328384
83333.3356201009
83333.3356046563
83333.3355869596
83333.3355675036
83333.3355858382
83333.3355863672
83333.3355849354
83333.335580698
83333.3355733018
83333.3355627476
83333.3355491892
83333.3355328253
83333.3355140122
83333.3354933046
83333.3354711578
83333.3355194718
83333.3355198139
83333.3355182111
83333.3355136985
83333.3355058751
83333.3354946685
83333.3354801769
83333.3354626357
83333.3354424491
83333.3354201976
83333.3353964723
83333.3353717081
83333.3354554427
83333.3354556945
83333.3354540147
83333.3354493012
83333.3354410754
83333.335429202
83333.3354137199
83333.3353948599
83333.3353730454
83333.3353488938
83333.3353231183
83333.3352963607
83333.3352690859
83333.336418292
83333.3363370421
83333.3363366588
83333.3362566958
83333.3362564148
83333.3362549209
83333.3361772587
83333.3361771278
83333.3361756495
83333.336172427
83333.3360987669
83333.3360988146
83333.3360974
83333.3360941514
83333.3360886018
83333.3360212858
83333.3360215242
83333.3360202017
83333.3360168867
83333.3360113239
83333.3360031965
83333.3359449056
83333.3359453263
83333.3359441071
83333.3359407457
83333.3359350226
83333.3359268083
83333.3359160451
83333.3358697326
83333.3358703105
83333.3358691882
83333.3358657777
83333.3358598273
83333.3358514115
83333.335840382
83333.3358270049
83333.3357958872
83333.3357965882
83333.3357955332
83333.3357920569
83333.3357858775
83333.3357770657
83333.3357657212
83333.3357518393
83333.3357359066
83333.3357235179
83333.3357242989
83333.3357232647
83333.3357196864
83333.3357132504
83333.3357040057
83333.3356921165
83333.3356776669
83333.3356609795
83333.3356425698
83333.3356528224
83333.3356536234
83333.3356525572
83333.3356488276
83333.3356420965
83333.3356323745
83333.3356198159
83333.335604614
83333.3355870344
83333.3355675762
83333.3355466798
83333.3355840861
83333.33558481
83333.3355836464
83333.3355797191
83333.3355726508
83333.3355624049
83333.3355491002
83333.3355329271
83333.3355142382
83333.3354935156
83333.335471296
83333.3354479861
83333.3355177827
83333.3355182735
83333.3355169254
83333.3355127483
83333.3355053189
83333.3354945166
83333.3354803879
83333.3354631291
83333.3354430958
83333.3354208159
83333.3353969152
83333.3353719591
83333.3353463556
83333.3354538674
83333.3354542202
83333.3354527733
83333.3354484105
83333.3354406537
83333.3354292972
83333.3354143201
83333.3353958845
83333.3353743442
83333.3353502428
83333.3353242737
83333.3352971614
83333.3352695222
83333.3352417743
83333.3365003694
83333.3364180558
83333.3364177163
83333.3363366125
83333.336336384
83333.3363349669
83333.3362560299
83333.3362559588
83333.336254563
83333.3362514686
83333.3361763384
83333.336176456
83333.3361751381
83333.3361720296
83333.3361666959
83333.3360975997
83333.3360979214
83333.3360967162
83333.3360935737
83333.3360882585
83333.3360804551
83333.3360198998
83333.3360204189
83333.3360193416
83333.3360161915
83333.3360107525
83333.3360029316
83333.335992623
83333.3359433382
83333.3359440306
83333.3359430779
83333.3359399249
83333.3359343287
83333.335926347
83333.3359158769
83333.3359030997
83333.3358680217
83333.3358688565
83333.3358680048
83333.3358648373
83333.3358590828
83333.3358507891
83333.3358400793
83333.3358269268
83333.3358117395
83333.3357940688
83333.335795012
83333.3357942239
83333.3357910128
83333.3357850745
83333.3357764501
83333.3357652832
83333.3357517041
83333.3357359008
83333.335718382
83333.3357216283
83333.3357226328
83333.3357218637
83333.335718565
83333.3357124073
83333.3357034105
83333.3356917128
83333.3356775086
83333.3356609902
83333.3356426153
83333.3356228049
83333.3356509029
83333.3356519009
83333.3356510954
83333.3356476633
83333.3356412485
83333.3356318344
83333.3356195358
83333.3356045534
83333.3355871331
83333.3355677157
83333.3355467868
83333.3355247307
83333.335582192
83333.3355830674
83333.3355821529
83333.3355785444
83333.3355718438
83333.3355619799
83333.3355490179
83333.3355331324
83333.3355146243
83333.3354939398
83333.3354716234
83333.3354481825
83333.3354239998
83333.3355160044
83333.3355165681
83333.3355154397
83333.3355115929
83333.335504591
83333.3354942658
83333.3354806028
83333.3354637417
83333.3354439811
83333.3354217862
83333.33539776
83333.3353725412
83333.3353466718
83333.3353205213
83333.335452252
83333.3354526123
83333.335451333
83333.3354473017
83333.3354400371
83333.3354292651
83333.3354148997
83333.335397022
83333.3353759084
83333.3353520242
83333.3353260016
83333.3352985792
83333.3352704783
83333.3352422808
83333.3352143446
83333.3365834767
83333.3365001141
83333.3364998224
83333.3364176008
83333.3364174357
83333.3364161019
83333.3363359145
83333.3363359126
83333.3363346072
83333.3363316349
83333.3362550656
83333.3362552589
83333.3362540395
83333.3362510594
83333.3362459108
83333.3361751133
83333.3361755197
83333.3361744272
83333.3361714398
83333.3361663363
83333.3361588049
83333.3360961415
83333.3360967569
83333.3360958113
83333.3360928481
83333.3360876537
83333.3360801657
83333.3360702387
83333.3360182465
83333.3360190473
83333.3360182482
83333.3360153211
83333.3360100317
83333.3360024179
83333.3359924235
83333.3359801514
83333.335941528
83333.3359424843
83333.3359418099
83333.3359389109
83333.3359335251
83333.3359256852
83333.3359155013
83333.3359029828
83333.3358884352
83333.3358660902
83333.3358671708
83333.3358665894
83333.3358636914
83333.335858188
83333.3358501066
83333.335839561
83333.3358267167
83333.3358116948
83333.3357949408
83333.3357920514
83333.3357932194
83333.3357926938
83333.3357897598
83333.3357841028
83333.3357757373
83333.3357647829
83333.3357514181
83333.3357358441
83333.3357183959
83333.3356995175
83333.3357195641
83333.3357207654
83333.3357202495
83333.3357172377
83333.3357113895
83333.3357026975
83333.3356912706
83333.3356772845
83333.3356609831
83333.3356426921
83333.3356228766
83333.3356019093
83333.3356488413
83333.3356499931
83333.3356494241
83333.3356462918
83333.3356402224
83333.3356311719
83333.3356192131
83333.3356045073
83333.3355873082
83333.3355679888
83333.3355470272
83333.335524888
83333.3355019334
83333.3355802132
83333.3355811602
83333.3355804543
83333.3355771542
83333.335570848
83333.3355614246
83333.3355488976
83333.3355333936
83333.3355151666
83333.3354946112
83333.3354722461
83333.3354486319
83333.3354242541
83333.3353994638
83333.3355142099
83333.3355147367
83333.3355137566
83333.3355102133
83333.3355036571
83333.3354938641
83333.3354807602
83333.3354644147
83333.3354450599
83333.3354230936
83333.3353990634
83333.3353736168
83333.3353473912
83333.3353209001
83333.3352944615
83333.3354507023
83333.3354509305
83333.3354497044
83333.3354459557
83333.3354391846
83333.3354290495
83333.3354153892
83333.3353981991
83333.3353776675
83333.3353541772
83333.3353282866
83333.3353006922
83333.3352721566
83333.3352433863
83333.3352149176
83333.3351870397
83333.3366676762
83333.3365832186
83333.3365829652
83333.3364996348
83333.3364995377
83333.3364982843
83333.3364168677
83333.3364169491
83333.3364157442
83333.3364128871
83333.3363349038
83333.3363351842
83333.3363340733
83333.336331216
83333.3363262262
83333.3362537814
83333.3362542792
83333.3362533026
83333.3362504599
83333.3362455344
83333.3362382308
83333.3361735833
83333.3361742965
83333.3361734788
83333.3361706854
83333.3361657028
83333.3361584928
83333.336148881
83333.3360944047
83333.336095312
83333.3360946562
83333.3360919303
83333.336086906
83333.3360796042
83333.336070008
83333.3360581569
83333.3360163417
83333.3360174134
83333.3360169004
83333.3360142372
83333.3360091715
83333.3360017217
83333.3359919804
83333.3359799989
83333.3359659879
83333.3359394913
83333.3359406965
83333.3359402964
83333.3359376702
83333.3359325448
83333.3359249316
83333.3359149276
83333.3359026876
83333.3358883499
83333.3358722567
83333.335863957
83333.3358652629
83333.3358649419
83333.3358623193
83333.3358570984
83333.3358492819
83333.3358389746
83333.3358263277
83333.3358115624
83333.3357949201
83333.3357768257
83333.3357898591
83333.3357912225
83333.3357909432
83333.3357882861
83333.3357829309
83333.3357748681
83333.3357641958
83333.3357510687
83333.3357357151
83333.3357184083
83333.3356995531
83333.3356795215
83333.3357173593
83333.3357187141
83333.3357184228
83333.3357156918
83333.3357101709
83333.335701827
83333.335690736
83333.3356770406
83333.3356609679
83333.3356428265
83333.335623035
83333.3356020242
83333.3355801384
83333.3356466942
83333.3356479232
83333.3356475472
83333.3356446978
83333.3356389909
83333.3356303494
83333.3356188028
83333.3356044672
83333.3355875593
83333.3355684137
83333.3355474739
83333.3355252354
83333.3355021422
83333.3354785309
83333.3355782181
83333.3355791218
83333.3355785575
83333.3355755342
83333.3355696323
83333.3355606955
83333.335548683
83333.3355336617
83333.3355158285
83333.3354955215
83333.3354732105
83333.335449458
83333.3354248256
83333.3353997744
83333.3353746132
83333.335512497
83333.3355128397
83333.3355118855
83333.3355085959
83333.3355024834
83333.3354932631
83333.3354807988
83333.3354650819
83333.335446269
83333.3354246855
83333.3354008134
83333.3353752604
83333.3353486979
83333.3353217527
83333.3352949
83333.3352683991
83333.3354493319
83333.3354492802
83333.3354479345
83333.3354443688
83333.3354380647
83333.3354285982
83333.3354157201
83333.335399336
83333.3353795384
83333.3353566198
83333.3353310593
83333.3353034906
83333.3352746533
83333.3352453179
83333.3352161644
83333.3351876746
83333.3351600661
83333.3367528553
83333.336667458
83333.3366671903
83333.3365827336
83333.3365826882
83333.3365814847
83333.3364988664
83333.3364990391
83333.3364979338
83333.336495172
83333.3364158078
83333.3364161917
83333.3364152027
83333.3364124655
83333.3364076078
83333.3363335576
83333.3363341597
83333.3363333117
83333.3363306101
83333.3363258341
83333.3363187162
83333.3362521781
83333.3362529967
83333.3362523118
83333.3362496789
83333.3362448815
83333.3362378979
83333.336228542
83333.3361717631
83333.336172779
83333.3361722634
83333.3361697213
83333.3361649267
83333.3361578889
83333.3361486213
83333.3361371143
83333.3360924075
83333.336093593
83333.3360932313
83333.336090779
83333.3360859913
83333.336078875
83333.3360695065
83333.3360579697
83333.3360444041
83333.3360142045
83333.3360155289
83333.3360152937
83333.3360129077
83333.3360081094
83333.3360008988
83333.33599136
83333.3359796252
83333.3359658631
83333.3359503266
83333.33593725
83333.3359386809
83333.3359385401
83333.3359361874
83333.3359313445
83333.3359240033
83333.3359142546
83333.3359022251
83333.3358881286
83333.3358721964
83333.3358547645
83333.3358616489
83333.3358631479
83333.3358630671
83333.3358607122
83333.3358557851
83333.3358482702
83333.3358382532
83333.3358258643
83333.3358113091
83333.3357948597
83333.3357768285
83333.3357575918
83333.3357875294
83333.3357890428
83333.3357889777
83333.3357865838
83333.3357815383
83333.3357738109
83333.3357634724
83333.3357506473
83333.3357355345
83333.3357184134
83333.3356996316
83333.3356795938
83333.3356586283
83333.3357150706
83333.3357165034
83333.3357163915
83333.3357139186
83333.3357087301
83333.3357007686
83333.3356900709
83333.335676741
83333.3356609668
83333.3356430341
83333.3356233239
83333.3356022751
83333.3355802989
83333.3355577162
83333.3356445265
83333.3356457222
83333.3356454746
83333.3356428729
83333.3356375294
83333.3356293313
83333.3356182615
83333.3356043824
83333.3355878616
83333.3355689858
83333.3355481566
83333.3355258613
83333.3355025981
83333.3354787903
83333.3354547394
83333.3355763008
83333.3355770077
83333.3355764719
83333.335573677
83333.3355681713
83333.335559752
83333.335548322
83333.3355338796
83333.335516557
83333.3354966292
83333.3354745092
83333.3354507228
83333.335425857
83333.3354004654
83333.3353749779
83333.3353496533
83333.3355109877
83333.3355109819
83333.335509878
83333.3355067432
83333.3355010451
83333.3354924218
83333.3354806602
83333.3354656739
83333.335447535
83333.3354264897
83333.3354029494
83333.3353774641
83333.3353506825
83333.3353232857
83333.3352958796
83333.3352688936
83333.3352425246
83333.3354481697
83333.3354478197
83333.3354461398
83333.3354425912
83333.3354366714
83333.3354278736
83333.3354158304
83333.3354003521
83333.335381429
83333.335359256
83333.3353342245
83333.3353068969
83333.3352779631
83333.3352481883
83333.3352183371
83333.3351890531
83333.3351607576
83333.3351335973
83333.3367526627
83333.336752324
83333.3366669866
83333.3366669321
83333.3366657198
83333.3365819377
83333.3365821844
83333.3365811528
83333.3365784329
83333.3364977529
83333.3364982528
83333.3364973896
83333.3364947592
83333.3364899984
83333.3364143948
83333.3364151197
83333.336414418
83333.3364118556
83333.3364072044
83333.3364002298
83333.3363318774
83333.3363328154
83333.3363322784
83333.3363298051
83333.3363251696
83333.3363183644
83333.3363092095
83333.336250273
83333.3362514055
83333.3362510364
83333.3362486703
83333.3362440768
83333.3362372601
83333.3362282547
83333.3362170254
83333.336169674
83333.3361709758
83333.3361707629
83333.3361685053
83333.3361639599
83333.3361571276
83333.336148071
83333.3361368916
83333.3361236933
83333.3360901722
83333.3360916145
83333.336091535
83333.3360893649
83333.3360848511
83333.3360779861
83333.3360688427
83333.3360575318
83333.3360442394
83333.3360291643
83333.3360118594
83333.3360134104
83333.3360134346
83333.3360113201
83333.336006805
83333.3359998733
83333.3359906023
83333.335979103
83333.3359655634
83333.3359502234
83333.3359333558
83333.3359348335
83333.3359364558
83333.33593655
83333.3359344573
83333.3359299012
83333.3359228599
83333.3359134072
83333.3359016567
83333.3358877834
83333.3358720456
83333.3358547304
83333.3358361595
83333.3358592061
83333.3358608504
83333.335860975
83333.3358588681
83333.3358542346
83333.3358470436
83333.3358373566
83333.3358252816
83333.335810991
83333.3357947367
83333.3357768314
83333.3357576238
83333.3357374412
83333.335785117
83333.3357867073
83333.335786809
83333.3357846507
83333.3357799104
83333.3357725416
83333.3357625804
83333.3357501176
83333.3357353161
83333.3357184252
83333.3356997748
83333.335679753
83333.3356587408
83333.3356370454
83333.3357127686
83333.3357141677
83333.3357141686
83333.3357119154
83333.3357070519
83333.3356994948
83333.3356892414
83333.3356763472
83333.3356609557
83333.3356433116
83333.3356237594
83333.3356027225
83333.335580646
83333.3355579222
83333.3355348432
83333.3356424308
83333.3356434452
83333.3356432195
83333.3356408151
83333.3356358202
83333.3356280865
83333.3356175476
83333.3356042052
83333.3355881699
83333.3355696738
83333.3355490693
83333.3355268094
83333.3355034064
83333.3354793535
83333.335455048
83333.3354307496
83333.3355745815
83333.3355749169
83333.3355742452
83333.3355715883
83333.3355664505
83333.3355585629
83333.3355477665
83333.3355339892
83333.3355172897
83333.3354978743
83333.3354760935
83333.3354524222
83333.3354274249
83333.3354016994
83333.3353757837
83333.3353500692
83333.3353247607
83333.3355097054
83333.335509329
83333.3355078567
83333.3355047116
83333.3354993481
83333.3354913135
83333.3354802963
83333.3354661233
83333.3354487785
83333.3354284224
83333.3354053878
83333.3353801602
83333.3353533415
83333.335325605
83333.3352976298
83333.3352699923
83333.3352430704
83333.3352169982
83333.3354471812
83333.3354466979
83333.3354445146
83333.335440769
83333.3354350733
83333.3354268722
83333.3354156771
83333.3354011728
83333.3353832436
83333.3353619784
83333.3353376711
83333.3353108021
83333.3352820008
83333.3352519964
83333.3352215642
83333.3351914511
83333.3351622565
83333.3351343394
83333.3351077789
83333.3367521757
83333.3367520594
83333.336750701
83333.3366661671
83333.3366664308
83333.336665403
83333.336662617
83333.3365807704
83333.3365813724
83333.336580611
83333.3365780449
83333.3365733172
83333.3364962671
83333.3364971302
83333.3364965835
83333.3364941515
83333.3364895941
83333.3364827145
83333.3364126317
83333.3364137093
83333.336413341
83333.3364110303
83333.3364065363
83333.3363998604
83333.3363908578
83333.3363298832
83333.3363311473
83333.3363309417
83333.3363287539
83333.3363243385
83333.336317702
83333.3363088958
83333.3362978853
83333.3362480897
83333.3362495169
83333.3362494602
83333.336247391
83333.3362430605
83333.3362364658
83333.3362276676
83333.3362167693
83333.3362038652
83333.3361673405
83333.3361689045
83333.3361689788
83333.3361670092
83333.3361627459
83333.3361561764
83333.3361473653
83333.3361364106
83333.3361234912
83333.3361087893
83333.3360877254
83333.3360893962
83333.336089577
83333.3360876778
83333.3360834487
83333.3360768693
83333.3360680049
83333.3360569547
83333.3360438809
83333.3360290224
83333.3360126183
83333.3360093386
83333.3360110801
83333.3360113355
83333.3360094746
83333.3360052404
83333.3359986075
83333.3359896385
83333.335978432
83333.3359651413
83333.335950001
83333.3359332809
83333.3359152684
83333.335932284
83333.3359340476
83333.3359343399
83333.3359324823
83333.3359282053
83333.3359214781
83333.3359123526
83333.3359009221
83333.3358873358
83333.335871817
83333.3358546531
83333.3358361529
83333.3358166277
83333.3358566839
83333.3358584009
83333.3358586806
83333.3358567893
83333.3358524375
83333.3358455838
83333.3358362601
83333.3358245444
83333.3358105779
83333.3357945783
83333.3357768368
83333.3357576968
83333.3357375082
83333.3357165678
83333.3357827003
83333.3357842539
83333.335784453
83333.3357824881
83333.3357780382
83333.3357710399
83333.3357614943
83333.3357494497
83333.335735029
83333.3357184429
83333.3356999892
83333.335680037
83333.3356589852
83333.3356371986
83333.3356149594
83333.3357105439
83333.3357117644
83333.335711772
83333.3357096835
83333.3357051246
83333.3356979836
83333.3356882154
83333.3356758218
83333.3356608952
83333.3356436326
83333.3356243347
83333.3356033929
83333.3355812555
83333.3355583654
83333.3355350937
83333.3355116972
83333.3356405407
83333.3356411928
83333.3356408274
83333.3356385326
83333.3356338562
83333.335626592
83333.335616624
83333.3356038887
83333.3355884332
83333.335570429
83333.3355501739
83333.3355280757
83333.3355046241
83333.3354803434
83333.3354557152
83333.3354311051
83333.3354067268
83333.3355731324
83333.3355730112
83333.3355719951
83333.3355693232
83333.3355644808
83333.3355571128
83333.3355469805
83333.3355339358
83333.3355179608
83333.3354991863
83333.3354778941
83333.335454501
83333.335429529
83333.3354035671
83333.3353772137
83333.3353509834
83333.3353252239
83333.3353000854
83333.3355086272
83333.3355080526
83333.3355060327
83333.3355026562
83333.3354974661
83333.3354899492
83333.3354796781
83333.335466372
83333.3354499206
83333.3354303918
83333.3354080321
83333.3353832529
83333.3353565997
83333.3353287106
83333.335300271
83333.3352719469
83333.3352442786
83333.3352175895
83333.3351919524
83333.3354466646
83333.3354458579
83333.3354432818
83333.335439183
83333.3354334478
83333.335425665
83333.3354152535
83333.3354017435
83333.3353848922
83333.3353646737
83333.335341274
83333.3353150788
83333.3352866438
83333.3352566491
83333.3352258475
83333.3351950115
83333.335164861
83333.3351359463
83333.3351085647
83333.3350827401
83333.336751302
83333.3367515289
83333.336750342
83333.3367474014
83333.3366649445
83333.3366655875
83333.3366648558
83333.3366622333
83333.3366574581
83333.3365792087
83333.3365801975
83333.3365797854
83333.3365774458
83333.3365729279
83333.336566078
83333.336494415
83333.3364956485
83333.3364954607
83333.3364933096
83333.3364889314
83333.3364823378
83333.3364734316
83333.3364105415
83333.3364119592
83333.3364119398
83333.336409938
83333.3364056817
83333.3363991901
83333.3363905225
83333.3363796731
83333.3363276017
83333.33632917
83333.336329288
83333.3363274116
83333.3363232752
83333.3363168772
83333.3363082854
83333.3362975989
83333.3362849189
83333.336245656
83333.3362473515
83333.3362475881
83333.3362458145
83333.3362417755
83333.3362354574
83333.3362269194
83333.3362162556
83333.3362036286
83333.3361892212
83333.3361647923
83333.3361665873
83333.3361669239
83333.3361652264
83333.3361612501
83333.3361549735
83333.3361464529
83333.3361357767
83333.3361230903
83333.3361086169
83333.3360925827
83333.3360851022
83333.336086963
83333.336087373
83333.3360857222
83333.3360817695
83333.3360754887
83333.3360669328
83333.3360561872
83333.3360433887
83333.3360287426
83333.3360125103
83333.3359949522
83333.3360066856
83333.3360085659
83333.3360090134
83333.336007377
83333.336003409
83333.3359970818
83333.3359884382
83333.3359775582
83333.3359645725
83333.3359496755
83333.3359331313
83333.3359152245
83333.3358962411
83333.3359296587
83333.3359314904
83333.3359319279
83333.3359302688
83333.3359262529
83333.3359198443
83333.3359110699
83333.3358999957
83333.3358867442
83333.3358715047
83333.3358545357
83333.3358361463
83333.3358166528
83333.335796345
83333.3358541639
83333.3358558402
83333.335856203
83333.3358544814
83333.3358503894
83333.3358438767
83333.3358349435
83333.3358236307
83333.3358100438
83333.3357943646
83333.335776852
83333.3357578303
83333.3357376571
83333.3357166714
83333.3356951466
83333.3357803828
83333.335781745
83333.335781932
83333.335780101
83333.3357759162
83333.3357692908
83333.3357601904
83333.3357486152
83333.3357346425
83333.3357184399
83333.3357002658
83333.3356804589
83333.3356594135
83333.3356375292
83333.3356151529
83333.3355925372
83333.3357085454
83333.3357093973
83333.3357092477
83333.3357072355
83333.3357029468
83333.3356962197
83333.3356869659
83333.3356751287
83333.3356607449
83333.3356439574
83333.3356250189
83333.3356042798
83333.3355821654
83333.3355591376
83333.3355356311
83333.3355119906
83333.3354884344
83333.3356389708
83333.3356391307
83333.3356384179
83333.3356360807
83333.3356316531
83333.3356248429
83333.335615465
83333.3356033908
83333.3355885988
83333.3355711945
83333.3355514147
83333.3355296161
83333.3355062499
83333.3354818294
83333.3354568821
83333.3354318713
83333.3354071262
83333.3353828135
83333.3355719793
83333.3355714993
83333.3355699325
83333.3355670332
83333.3355623357
83333.3355554222
83333.3355459479
83333.3355336766
83333.3355185069
83333.3355004897
83333.3354798301
83333.3354568792
83333.3354321075
83333.3354060711
83333.3353793716
83333.3353525991
83333.3353262385
83333.3353005909
83333.3352757535
83333.33550819
83333.335507149