/*--------------------------------*- C++ -*----------------------------------*\
  =========                 |
  \\      /  F ield         | OpenFOAM: The Open Source CFD Toolbox
   \\    /   O peration     | Website:  https://openfoam.org
    \\  /    A nd           | Version:  12
     \\/     M anipulation  |
\*---------------------------------------------------------------------------*/
/*   Windows 32 and 64 bit porting by blueCAPE: http://www.bluecape.com.pt   *\
|  Based on Windows porting (2.0.x v4) by Symscape: http://www.symscape.com   |
\*---------------------------------------------------------------------------*/
FoamFile
{
    format      ascii;
    class       surfaceScalarField;
    location    "400";
    object      phi;
}
// * * * * * * * * * * * * * * * * * * * * * * * * * * * * * * * * * * * * * //

dimensions      [0 3 -1 0 0 0 0];

internalField   nonuniform List<scalar> 
28903
(
-1.66981062208775e-05
1.86718232986289e-08
7.65870716222245e-09
-1.67375893668123e-05
4.77455277518512e-08
-8.25851805472774e-09
-1.90282122056216e-05
6.06613353803501e-08
3.53381746530424e-08
-3.13832355418087e-06
2.52196034990754e-08
-6.82583173131052e-08
-1.67769581918448e-05
7.02179597385308e-08
-3.0838468837326e-08
-1.90964953548148e-05
1.01844070681162e-07
1.41911633722263e-08
-3.09562130481765e-06
3.33356059806586e-08
-8.4292601935877e-08
-2.09398643069768e-05
1.13500767924379e-07
5.16089383509746e-08
-4.7993753866617e-06
4.28875341587008e-08
-3.8076651650251e-08
-8.66695049447754e-07
1.43199886512679e-08
-1.22381554333286e-07
-1.6808142156553e-05
7.67311355898873e-08
-4.55532096333209e-08
-1.91401695599814e-05
1.33362472658691e-07
-1.94669759309979e-08
-3.06298273437958e-06
3.70292546653797e-08
-1.00507091851662e-07
-2.1023789224053e-05
1.60285217153599e-07
2.54856009751552e-08
-4.74947162470908e-06
5.75629381889032e-08
-5.99359241015268e-08
-8.31350140792702e-07
1.71708063518695e-08
-1.3680878423794e-07
-2.3189419573229e-05
1.69675558726351e-07
6.82172469728247e-08
-5.57130203953463e-06
6.7643549530618e-08
-3.70357242855632e-08
-1.56733084154389e-06
2.84023107209408e-08
-9.60097846404433e-08
-2.46608716473073e-07
1.33936518945205e-08
-1.72473831265356e-07
-1.68329482960036e-05
7.83612698649683e-08
-5.35611564050947e-08
-1.91729489315834e-05
1.49168277507423e-07
-3.96526498871273e-08
-3.03465245242496e-06
3.72084731636273e-08
-1.11089586169227e-07
-2.10709865921138e-05
1.99479318907031e-07
-1.89246514176325e-08
-4.71429601911592e-06
6.637961209212e-08
-8.3991390633889e-08
-8.00904714371054e-07
1.87090669243425e-08
-1.49660749849744e-07
-2.32909562387835e-05
2.23304097246316e-07
3.85233736872495e-08
-5.51044376434874e-06
8.60188756132328e-08
-6.38323762833537e-08
-1.52832862791699e-06
3.58929242349415e-08
-1.17660151204397e-07
-2.12876555917928e-07
1.51564583116806e-08
-1.85696938356326e-07
-2.50706679717486e-05
2.31150487421814e-07
8.28494070923236e-08
-6.44414007152246e-06
9.59487127716061e-08
-2.98056117830885e-08
-1.88571700420634e-06
4.55012776511938e-08
-1.05848478511041e-07
-6.61563799132647e-07
2.49286261182668e-08
-1.4692299967826e-07
6.94500762924337e-08
1.12099224109552e-08
-2.17315197859488e-07
-1.68548514139975e-05
8.00274754275065e-08
-5.81244694333861e-08
-1.9202310964837e-05
1.57762598492791e-07
-5.00368200600404e-08
-3.00800049315904e-06
3.69871588361956e-08
-1.17200760318771e-07
-2.11034414813188e-05
2.25717568285031e-07
-4.40928111389158e-08
-4.68719269749728e-06
7.01061624420232e-08
-9.96550339415495e-08
-7.72354808092e-07
1.93093748516214e-08
-1.58948804510676e-07
-2.3348345000999e-05
2.70827104187469e-07
-1.39653608740941e-08
-5.46822616097456e-06
9.93825840267782e-08
-9.41518491227093e-08
-1.49681319634293e-06
3.99563541892772e-08
-1.36753530128898e-07
-1.81480178604587e-07
1.56702709616741e-08
-1.96727380760629e-07
-2.51908416076188e-05
2.92602780971665e-07
5.08769953735608e-08
-6.37674907835949e-06
1.17789677066088e-07
-6.06353361926123e-08
-1.83791783401529e-06
5.60127597920071e-08
-1.31749810542165e-07
-6.25345901205525e-07
2.86864560587328e-08
-1.67406872765661e-07
1.01267806628827e-07
1.24382291370703e-08
-2.29952535667014e-07
-2.6340632892413e-05
2.98912659785686e-07
9.58063732400819e-08
-7.15240049738175e-06
1.25816319933095e-07
-2.06388854565586e-08
-2.24209616936756e-06
6.44280425810072e-08
-1.06397870404376e-07
-8.24501503882739e-07
3.63846629846804e-08
-1.62858457400769e-07
-2.14814588583903e-07
2.14711214716744e-08
-1.93166365907065e-07
2.80349260610926e-07
8.91703131980804e-09
-2.56718792008752e-07
-1.68763412695974e-05
8.24035339051251e-08
-6.09103534628494e-08
-1.92309868623061e-05
1.64765608227329e-07
-5.60583013956515e-08
-2.98270940507894e-06
3.71015583266336e-08
-1.2051553758333e-07
-2.11330482822774e-05
2.43772394294315e-07
-5.63950728061701e-08
-4.66352461929412e-06
7.24347322909105e-08
-1.09151644106946e-07
-7.44375218006292e-07
1.98465548913768e-08
-1.6502653902411e-07
-2.33856975318729e-05
3.0720924618032e-07
-4.41390172584661e-08
-5.43690646429427e-06
1.07831770247653e-07
-1.13136430171615e-07
-1.46875589391505e-06
4.21039434592675e-08
-1.50506017151536e-07
-1.51128055840291e-07
1.57482771592249e-08
-2.05049207113525e-07
-2.52609621998427e-05
3.48457401609868e-07
-7.51589670645681e-09
-6.3304257501799e-06
1.35685916138437e-07
-9.6597771077696e-08
-1.80041602059662e-06
6.31448959873771e-08
-1.54843583196576e-07
-5.92617331396632e-07
3.06037503846408e-08
-1.84414990819491e-07
1.31962732970233e-07
1.27701355104712e-08
-2.40192298272567e-07
-2.64788790576467e-05
3.69061656362832e-07
6.18081944956277e-08
-7.0813725907489e-06
1.51720784475214e-07
-5.40758073753608e-08
-2.18829517292557e-06
7.71238353814307e-08
-1.35546410462695e-07
-7.81509643444925e-07
4.19010903597883e-08
-1.87954847367065e-07
-1.80806820774152e-07
2.41400146862731e-08
-2.13115754622402e-07
3.097393016025e-07
9.82410640926288e-09
-2.69165851267178e-07
-2.71336501915205e-05
3.7295063540572e-07
1.07541497238727e-07
-7.67676503830711e-06
1.56619474898979e-07
-1.05968921506567e-08
-2.50180625211171e-06
8.31601825757351e-08
-1.01020873661263e-07
-1.01287802189502e-06
4.80626031070687e-08
-1.68664016248325e-07
-2.98963526227334e-07
3.0694353653929e-08
-2.1310618234586e-07
7.21202028158305e-08
1.75167097537118e-08
-2.34827091407396e-07
4.40041726681224e-07
6.35442915030911e-09
-2.90651741147995e-07
-1.68989353452604e-05
8.5420065766497e-08
-6.28257298981368e-08
-1.92601370105068e-05
1.71530839857121e-07
-5.99822494105525e-08
-2.95894237737335e-06
3.74988250426061e-08
-1.22175790831068e-07
-2.11634149466339e-05
2.58297929394952e-07
-6.31534219092767e-08
-4.6421424993089e-06
7.45801174344625e-08
-1.14919144529765e-07
-7.16575543394749e-07
2.04011410977039e-08
-1.6871603949775e-07
-2.34179779929255e-05
3.3500613656968e-07
-5.89514669373506e-08
-5.41055080542201e-06
1.13997044069408e-07
-1.24315479790179e-07
-1.44190786942948e-06
4.38691573436793e-08
-1.60021938523389e-07
-1.21204444124945e-07
1.59153719649919e-08
-2.10865854558964e-07
-2.53060200907635e-05
3.9404136813579e-07
-4.17694494395166e-08
-6.29659039208398e-06
1.49120066000234e-07
-1.19264816024326e-07
-1.76822396221208e-06
6.78309450329778e-08
-1.71055718159949e-07
-5.61696222307489e-07
3.16922094196489e-08
-1.97371044069689e-07
1.62116175250012e-07
1.28542303368105e-08
-2.48056803822883e-07
-2.65623739200887e-05
4.33019182300134e-07
-1.06794602430403e-09
-7.03321338977052e-06
1.74141456845452e-07
-9.41350383356819e-08
-2.14645358981613e-06
8.72109023019617e-08
-1.62502876700662e-07
-7.43316375063812e-07
4.64395550503432e-08
-2.08872445759919e-07
-1.48488646802155e-07
2.53345914589425e-08
-2.29297635823202e-07
3.38611014479025e-07
1.00496140974097e-08
-2.7911368874988e-07
-2.72883194610338e-05
4.51901325079282e-07
7.18702223036142e-08
-7.60416385968627e-06
1.86935451528941e-07
-4.60019463377177e-08
-2.44429768337695e-06
9.83060480331627e-08
-1.3276427098094e-07
-9.65468455002043e-07
5.70279669950955e-08
-1.98080254981916e-07
-2.59432558913819e-07
3.45457322738997e-08
-2.37891156367013e-07
1.03907073736506e-07
1.94471560791154e-08
-2.54524831295402e-07
4.66718587154473e-07
7.67272897520815e-09
-3.03514929522412e-07
-2.76972459154662e-05
4.52021389281721e-07
1.19185619139376e-07
-8.09528900179316e-06
1.87937259841311e-07
1.92923850569064e-10
-2.68053039971304e-06
1.00777558957374e-07
-9.23660072731722e-08
-1.15136137809626e-06
6.05630659647045e-08
-1.66508395656455e-07
-4.09624751334068e-07
3.91459714710598e-08
-2.2211377587169e-07
3.39217770328243e-08
2.50269892543493e-08
-2.58278361432735e-07
2.83405737352734e-07
1.25717773262277e-08
-2.71861585940847e-07
5.71289860234526e-07
4.80197314783013e-09
-3.20269716577636e-07
-1.69234391935954e-05
8.88713043645765e-08
-6.43669876410475e-08
-1.9290216949852e-05
1.78390143381629e-07
-6.28855229888294e-08
-2.93693002720867e-06
3.8119542419365e-08
-1.22955863283519e-07
-2.11954235496017e-05
2.71011083661839e-07
-6.74690559374156e-08
-4.62292315920689e-06
7.6771539934363e-08
-1.18473316990991e-07
-6.88947101267513e-07
2.09865086357133e-08
-1.70790819958813e-07
-2.34503839272379e-05
3.57744867888149e-07
-6.70485517881455e-08
-5.38731134810539e-06
1.19186432170948e-07
-1.31000309104629e-07
-1.41552123791928e-06
4.55326224092894e-08
-1.66436801423448e-07
-9.14020034770014e-08
1.61516869461461e-08
-2.14669794658425e-07
-2.53429719662522e-05
4.30811468413029e-07
-5.88507972159729e-08
-6.26860288155765e-06
1.59716479081313e-07
-1.3266211225213e-07
-1.73811007535186e-06
7.15389825033069e-08
-1.82099086276932e-07
-5.3152243493766e-07
3.26695146325367e-08
-2.069492796304e-07
1.92008184412764e-07
1.30394319961978e-08
-2.53796981317151e-07
-2.66164483778252e-05
4.86670050037415e-07
-3.85482487081087e-08
-6.99849190388264e-06
1.92339494395981e-07
-1.19708565820394e-07
-2.11105923274523e-06
9.49259423667962e-08
-1.81754027045349e-07
-7.07994442076656e-07
4.99812708517151e-08
-2.2466582388373e-07
-1.17131613962763e-07
2.60155991872455e-08
-2.41889385211848e-07
3.67285558158848e-07
1.01233919239063e-08
-2.86854968120899e-07
-2.73843699172406e-05
5.23703679943502e-07
5.38269930326824e-09
-7.55580042817677e-06
2.13726484311975e-07
-8.90155576859668e-08
-2.39990326929009e-06
1.11298093789203e-07
-1.62617527618699e-07
-9.23270966620059e-07
6.40570749235142e-08
-2.2231744661315e-07
-2.22162482387725e-07
3.70959318453042e-08
-2.57903391704544e-07
1.34793815125932e-07
2.02445064006515e-08
-2.70379251571674e-07
4.93228693650955e-07
7.97306194036302e-09
-3.13596813703835e-07
-2.78666856220568e-05
5.39288792490769e-07
8.20991639875745e-08
-8.02243479311133e-06
2.22849754049603e-07
-3.68853940946424e-08
-2.62092870817407e-06
1.18611502230486e-07
-1.25903963084884e-07
-1.10090692549686e-06
7.16424171722479e-08
-1.97831891997081e-07
-3.657155283671e-07
4.394831607912e-08
-2.51391314184659e-07
7.06590116903828e-08
2.78625617178618e-08
-2.83042656035459e-07
3.12867777450005e-07
1.55749975567499e-08
-2.91888411907782e-07
5.95409929715054e-07
5.81235654371396e-09
-3.33447134020956e-07
-2.82152094860566e-05
5.3399640978781e-07
1.31914905085544e-07
-8.49038336647476e-06
2.1940927513019e-07
1.22512589003917e-08
-2.83465199960513e-06
1.16670664851498e-07
-8.13220554528315e-08
-1.25386528651801e-06
7.15549022434486e-08
-1.58323079174902e-07
-5.00882633264766e-07
4.62689807087028e-08
-2.21357857414481e-07
-3.42751329365809e-08
3.05120954510936e-08
-2.69550245009097e-07
2.76168660853818e-07
1.77916458983247e-08
-2.98962476804609e-07
4.53130858435424e-07
9.27924546051096e-09
-3.0494693773427e-07
6.86708947929952e-07
4.32787657880306e-09
-3.4673496040689e-07
-1.69501983460877e-05
9.25993583160359e-08
-6.5843968351191e-08
-1.93214201202494e-05
1.85425278026716e-07
-6.53548640047395e-08
-2.91680714241355e-06
3.88883189185167e-08
-1.23377232493525e-07
-2.12290738612317e-05
2.82777308907481e-07
-7.07308371391096e-08
-4.60599787008879e-06
7.90859591389615e-08
-1.20779433948232e-07
-6.6160274117483e-07
2.16077011453532e-08
-1.71907327339886e-07
-2.3484491476286e-05
3.77292396942454e-07
-7.21659819691465e-08
-5.36672995475792e-06
1.23895951199733e-07
-1.35169046407469e-07
-1.38951044341521e-06
4.71106393865905e-08
-1.7060674740828e-07
-6.16371717730847e-08
1.64887274398343e-08
-2.17044185833249e-07
-2.53784784050925e-05
4.61471755762338e-07
-6.82171338599156e-08
-6.24435494943751e-06
1.68623060190721e-07
-1.40733816402522e-07
-1.70884519306376e-06
7.47984000424349e-08
-1.89529705952362e-07
-5.01578040457908e-07
3.36201428046323e-08
-2.13849740080563e-07
2.21843628388344e-07
1.32952111113619e-08
-2.5780043075392e-07
-2.66594137794297e-05
5.31232391934247e-07
-5.74581523785643e-08
-6.9699883101986e-06
2.07406488685536e-07
-1.35047648230222e-07
-2.07838367561333e-06
1.01230526360337e-07
-1.95030677053398e-07
-6.73971940573423e-07
5.28782866921919e-08
-2.36329714849108e-07
-8.62363038201422e-08
2.671948465488e-08
-2.51524821672064e-07
3.958936069594e-07
1.02821760403211e-08
-2.92687224652652e-07
-2.74474854120886e-05
5.84564680845283e-07
-3.4784186358544e-08
-7.52155828712003e-06
2.36336481851066e-07
-1.16788355299124e-07
-2.36261725040315e-06
1.22030032584364e-07
-1.84096785033871e-07
-8.84343382969748e-07
6.96426562628559e-08
-2.4034070170647e-07
-1.86438977398876e-07
3.89688086865507e-08
-2.73343136376233e-07
1.65159276619398e-07
2.06947410454613e-08
-2.8282627466771e-07
5.1980833699498e-07
7.95855478211817e-09
-3.21393251861497e-07
-2.79740685295571e-05
6.18543702207217e-07
1.25611930580441e-08
-7.97488765870481e-06
2.53938316558658e-07
-8.23714109794578e-08
-2.57532084508575e-06
1.34393041164241e-07
-1.57714258635385e-07
-1.05614944863362e-06
8.09375319280445e-08
-2.24253969989082e-07
-3.24373384271189e-07
4.86158048838625e-08
-2.75178986275827e-07
1.0614707244779e-07
2.95779624536965e-08
-3.02724887381966e-07
3.41851448232488e-07
1.62659070072673e-08
-3.07656104989135e-07
6.19525222871255e-07
6.12405437589646e-09
-3.438362168011e-07
-2.83986665214861e-05
6.29191154391106e-07
9.360971371301e-08
-8.41804528339653e-06
2.59113923314052e-07
-2.64888199236355e-08
-2.77388992948438e-06
1.3736036705836e-07
-1.16390251762344e-07
-1.20171266453709e-06
8.49039456645649e-08
-1.91315157512809e-07
-4.54632299094714e-07
5.35055581947566e-08
-2.53636561913077e-07
6.41097583333108e-09
3.52206990403121e-08
-2.99434639570635e-07
3.10488574289705e-07
2.22518854338099e-08
-3.24038496563863e-07
4.80567163975e-07
1.1609207350372e-08
-3.25121270343231e-07
7.08288792453926e-07
5.06822892494909e-09
-3.60095002756568e-07
-2.87822169229988e-05
6.15957351101767e-07
1.47518870682198e-07
-8.91955496023496e-06
2.50812355743998e-07
2.63106338075244e-08
-3.0019240210945e-06
1.30707217202211e-07
-6.83529942819031e-08
-1.35487984943735e-06
8.08841005102465e-08
-1.46896844025757e-07
-5.8121758646886e-07
5.2131443345233e-08
-2.13675843043181e-07
-1.03350517667633e-07
3.41645147927087e-08
-2.69953890333057e-07
2.35044906800352e-07
2.1765529219655e-08
-3.13087461240964e-07
4.70793662610317e-07
1.31885947974822e-08
-3.36121190488596e-07
5.98452942205099e-07
8.0254494579973e-09
-3.34970346581911e-07
7.93184275166004e-07
4.56049363843144e-09
-3.7077980077101e-07
-1.69793418016843e-05
9.66210625653228e-08
-6.74734183514607e-08
-1.93537179476276e-05
1.92628288145883e-07
-6.77242840865522e-08
-2.89861963797223e-06
3.97470597920437e-08
-1.23776935141161e-07
-2.12641261566206e-05
2.94066007351348e-07
-7.35847845119675e-08
-4.5914790580109e-06
8.14879545975981e-08
-1.22470906329813e-07
-6.34653507435618e-07
2.22440571947592e-08
-1.72570175236371e-07
-2.35205606229666e-05
3.94824257193645e-07
-7.59804214480758e-08
-5.34881654989465e-06
1.28367226574292e-07
-1.37920867386302e-07
-1.36395014109526e-06
4.86605719122537e-08
-1.73391412829059e-07
-3.18937284161269e-08
1.68502604127822e-08
-2.18500464727326e-07
-2.54150749807683e-05
4.87907306407003e-07
-7.4015215254819e-08
-6.22323529480453e-06
1.764605981936e-07
-1.45844702107101e-07
-1.68010030803582e-06
7.78064899965148e-08
-1.94609338788416e-07
-4.71889764320759e-07
3.50193062764145e-08
-2.18824414930319e-07
2.51742522201281e-07
1.35717804957367e-08
-2.60514418588053e-07
-2.66991650119866e-05
5.68990399230002e-07
-6.77628659047236e-08
-6.94554972834985e-06
2.20246038939649e-07
-1.44279284388652e-07
-2.04688265162955e-06
1.06739303854797e-07
-2.04174430329641e-07
-6.4062536683767e-07
5.54100254099982e-08
-2.44665191881875e-07
-5.55563631213457e-08
2.75440527854341e-08
-2.58777424723135e-07
4.24574569229174e-07
1.04905829224057e-08
-2.96971770832819e-07
-2.74968995053145e-05
6.35819978008021e-07
-5.51656729168253e-08
-7.49372990228672e-06
2.55642391942836e-07
-1.33516029464163e-07
-2.32836058105577e-06
1.31162604780483e-07
-1.99233942216228e-07
-8.47157592406867e-07
7.42922180953699e-08
-2.5363117319431e-07
-1.51439871072268e-07
4.05607134825507e-08
-2.85169631073282e-07
1.95281330939103e-07
2.11914792560352e-08
-2.92556000405647e-07
5.46502195517631e-07
8.01419539807653e-09
-3.27395352579532e-07
-2.80454383109486e-05
6.85834886848281e-07
-2.98989446255779e-08
-7.94207623900999e-06
2.80665368206097e-07
-1.11919899692514e-07
-2.53726851465865e-06
1.48025113343897e-07
-1.80835755629657e-07
-1.01497880342176e-06
8.86939984582953e-08
-2.44318119513527e-07
-2.85073125349479e-07
5.26729499104384e-08
-2.9334440953496e-07
1.40721522359051e-07
3.08859713140261e-08
-3.18109193679212e-07
3.70563294366008e-07
1.64298579068914e-08
-3.20009735021816e-07
6.43803434431519e-07
6.30810455625749e-09
-3.51979559687188e-07
-2.85167931297016e-05
7.15423281013148e-07
2.12643971901658e-08
-8.37192512230876e-06
2.94579138256235e-07
-7.4193087685004e-08
-2.72784592668691e-06
1.55980752074937e-07
-1.50000000288573e-07
-1.15561056486568e-06
9.6473255273052e-08
-2.19350098229986e-07
-4.1110889833538e-07
6.03384473449814e-08
-2.79499028142988e-07
4.59202606679235e-08
3.78176852509374e-08
-3.22927768063879e-07
3.4383047409631e-07
2.4001526137291e-08
-3.43802281400663e-07
5.07521805810031e-07
1.26641119043866e-08
-3.41151072080567e-07
7.29990334816112e-07
5.17360212514168e-09
-3.70711115506755e-07
-2.89797383601562e-05
7.18564934517484e-07
1.08198487618871e-07
-8.84811806284985e-06
2.95561963482367e-07
-1.42447862440219e-08
-2.94049148986432e-06
1.54368730287055e-07
-1.0492388866439e-07
-1.3016316500426e-06
9.65094023576457e-08
-1.81240154018436e-07
-5.33538644802657e-07
6.21450228687538e-08
-2.47630840030716e-07
-6.0019205794148e-08
4.13293743199758e-08
-3.03076147191931e-07
2.73566389478352e-07
2.7378133167835e-08
-3.4308181017222e-07
5.02908117256854e-07
1.67368619547804e-08
-3.61280341371422e-07
6.23688161786296e-07
9.78038307965941e-09
-3.55068345020805e-07
8.12248296623722e-07
4.94009927845375e-09
-3.84099083040123e-07
-2.94323706239023e-05
6.95342489504126e-07
1.67920513667703e-07
-9.42293973452457e-06
2.82290112992957e-07
4.36078945873337e-08
-3.19807352926193e-06
1.42927125499411e-07
-5.32519428513892e-08
-1.47385420983622e-06
8.85684018817995e-08
-1.3323871314332e-07
-6.68747096707838e-07
5.73790135335507e-08
-2.02345875656875e-07
-1.75145944967471e-07
3.81804385050014e-08
-2.63441108693999e-07
1.79721368616668e-07
2.59626789264904e-08
-3.1590564276261e-07
4.51213903382235e-07
1.77475304670828e-08
-3.54538239337635e-07
6.38064928511508e-07
1.22855693232997e-08
-3.71049746020685e-07
7.28751349693752e-07
8.58964471239939e-09
-3.62867704175596e-07
8.94151044948831e-07
5.25948484026563e-09
-3.92803734304106e-07
-1.70109778162332e-05
1.01107588539121e-07
-6.94705320311426e-08
-1.93868492459438e-05
2.00038495530085e-07
-7.02794700785434e-08
-2.8823967186703e-06
4.06659130540326e-08
-1.24359990185114e-07
-2.13001813753367e-05
3.05130848934311e-07
-7.64389760865573e-08
-4.5794146408774e-06
8.39303533751049e-08
-1.23973218205692e-07
-6.08183382041937e-07
2.28723527790435e-08
-1.73119689557456e-07
-2.35583320873871e-05
4.11140617567018e-07
-7.92973111083564e-08
-5.33362947493715e-06
1.32684339650122e-07
-1.39969042674033e-07
-1.33893743780832e-06
5.01759604347698e-08
-1.75413542191222e-07
-2.19963428280154e-09
1.72048732765353e-08
-2.19468792010714e-07
-2.5453471064224e-05
5.11462501356572e-07
-7.82316268444044e-08
-6.20519388713942e-06
1.83582699376127e-07
-1.49237578710645e-07
-1.6519029378821e-06
8.06372989273169e-08
-1.98094721315366e-07
-4.42354102123416e-07
3.63534429047069e-08
-2.22428990520415e-07
2.81772636268339e-07
1.38345929588411e-08
-2.62364895684568e-07
-2.67389968891848e-05
6.01753853803016e-07
-7.40072621662923e-08
-6.92454947088661e-06
2.31472443030859e-07
-1.50029548040841e-07
-2.0161113278709e-06
1.11687398510622e-07
-2.10495625550313e-07
-6.07494535756742e-07
5.77849204693858e-08
-2.50505708110469e-07
-2.49638325119201e-08
2.83340528767781e-08
-2.64178763461051e-07
4.53436719787113e-07
1.07138645685905e-08
-3.00090342111018e-07
-2.75413192235713e-05
6.7959707599665e-07
-6.61893143338804e-08
-7.47008450515682e-06
2.72293765785091e-07
-1.43452670592918e-07
-2.29552233298019e-06
1.39176458155306e-07
-2.09553528442813e-07
-8.1081438182701e-07
7.83868286013805e-08
-2.63493740921532e-07
-1.16974848769661e-07
4.26125541392587e-08
-2.94197976814651e-07
2.25346143411119e-07
2.17393539891621e-08
-3.00090701112192e-07
5.73414496442636e-07
8.12209205869116e-09
-3.32006148569663e-07
-2.81008362803884e-05
7.42758417664706e-07
-5.15374574691941e-08
-7.91584243202069e-06
3.03886190831191e-07
-1.29640728541568e-07
-2.50248189044996e-06
1.59960307118014e-07
-1.97099486246573e-07
-9.75809116683786e-07
9.53236976638719e-08
-2.59433186351612e-07
-2.47113369980451e-07
5.61044997039558e-08
-3.07134118389144e-07
1.74796783269074e-07
3.20858756972231e-08
-3.30138778195045e-07
3.99227417495856e-07
1.66616393503825e-08
-3.29867878712909e-07
6.68307753965239e-07
6.42990997774032e-09
-3.5832945806848e-07
-2.85956125574011e-05
7.88051013979223e-07
-2.33852789639138e-08
-8.34113242385727e-06
3.25259621175683e-07
-1.052810100463e-07
-2.6898039449816e-06
1.72434668907068e-07
-1.74369671141537e-07
-1.11335583848912e-06
1.063876922076e-07
-2.40780439708533e-07
-3.69602216851526e-07
6.61621547311816e-08
-2.99313091781431e-07
8.41439817282607e-08
4.06444672679894e-08
-3.41326781149037e-07
3.76658329405005e-07
2.46306985625787e-08
-3.59138086398074e-07
5.34201472819172e-07
1.33981076700073e-08
-3.53779303482497e-07
7.5200289897354e-07
5.17129466995738e-09
-3.79163514800604e-07
-2.91085207200138e-05
8.11498738429469e-07
3.27326876035526e-08
-8.80375445596422e-06
3.35569050603164e-07
-6.40789830151669e-08
-2.89449459461198e-06
1.75957223628104e-07
-1.40163674744362e-07
-1.25483318706735e-06
1.10309535058953e-07
-2.10632079408315e-07
-4.8864109158976e-07
7.0920671713487e-08
-2.7482879538405e-07
-1.84223786167926e-08
4.59550018740657e-08
-3.29232548078285e-07
3.10748662039276e-07
3.08614545764419e-08
-3.66969924333041e-07
5.341834389237e-07
1.88442835859049e-08
-3.81257499874272e-07
6.48543574363103e-07
1.03375610332798e-08
-3.71170385649626e-07
8.31524212550886e-07
4.84235072889835e-09
-3.94829386605874e-07
-2.9644649582888e-05
8.03074700472306e-07
1.2782184930524e-07
-9.35241950996414e-06
3.32258734089845e-07
1.01039120663826e-09
-3.1361966771256e-06
1.69699431191511e-07
-9.14432785637125e-08
-1.4198497962501e-06
1.06362910475876e-07
-1.68778173050658e-07
-6.20095828910326e-07
6.93997007955494e-08
-2.37143252590262e-07
-1.30348690399644e-07
4.65075616170886e-08
-2.97604903722257e-07
2.20849111138899e-07
3.1703883835999e-08
-3.48529034040612e-07
4.87330014891254e-07
2.15422075981612e-08
-3.84002761080473e-07
6.6782382061213e-07
1.44632093653353e-08
-3.957219665009e-07
7.51659772689332e-07
9.55538377486834e-09
-3.82592023452698e-07
9.10625173856531e-07
5.40231565396584e-09
-4.05975432103751e-07
-3.0154459155426e-05
7.67829722670462e-07
1.95491910008283e-07
-1.00330289351125e-05
3.1428373008314e-07
6.57823956473445e-08
-3.43194462330398e-06
1.53536294779347e-07
-3.51209822949656e-08
-1.61677894019901e-06
9.450081188654e-08
-1.17278586920298e-07
-7.73768914162919e-07
6.13644013640202e-08
-1.88179916226926e-07
-2.57763473646644e-07
4.11782696711526e-08
-2.51895290038002e-07
1.13417782982015e-07
2.88035517318552e-08
-3.09430314324663e-07
4.07699809701192e-07
2.10466841387141e-08
-3.58686458332006e-07
6.37811142196013e-07
1.60230429040668e-08
-3.92826324284782e-07
7.88632611417699e-07
1.25629815451262e-08
-4.03130979155037e-07
8.49299739706788e-07
9.56908808800531e-09
-3.88493017586623e-07
9.90965841951206e-07
5.95778423310472e-09
-4.12725068584795e-07
-1.70453686536217e-05
1.06268383265914e-07
-7.18747637793912e-08
-1.94202158194048e-05
2.07793423688171e-07
-7.33175103662825e-08
-2.86826784606776e-06
4.16147014126387e-08
-1.25212514633593e-07
-2.13366342171266e-05
3.16122598036317e-07
-7.96242887324148e-08
-4.56984582258263e-06
8.63849126567372e-08
-1.25567121565929e-07
-5.82259074761603e-07
2.34682181138425e-08
-1.7375181530435e-07
-2.35973365841428e-05
4.26706008268712e-07
-8.25816879079995e-08
-5.32119254125669e-06
1.36859735620525e-07
-1.41801580464075e-07
-1.31456161455368e-06
5.16243726275519e-08
-1.77100298923597e-07
2.74143866066834e-08
1.75334692395667e-08
-2.20267001861548e-07
-2.54936020101388e-05
5.33085554538296e-07
-8.1807861569273e-08
-6.19025104682452e-06
1.90200624108121e-07
-1.51751010138557e-07
-1.6243430880623e-06
8.32961936907408e-08
-2.00646460450748e-07
-4.12951677046647e-07
3.75630327429642e-08
-2.2517366711739e-07
3.11965425596547e-07
1.40697418337081e-08
-2.63730689464008e-07
-2.67800429462953e-05
6.3093904944234e-07
-7.84352860375444e-08
-6.90689677192705e-06
2.41514767725527e-07
-1.5380734790095e-07
-1.98606769651527e-06
1.16168348435638e-07
-2.14813276051621e-07
-5.74518451180104e-07
5.99440121695072e-08
-2.54659984089733e-07
5.65119579979826e-09
2.90362243844375e-08
-2.68244336411074e-07
4.8256774157058e-07
1.09174103804198e-08
-3.02413139696238e-07
-2.75846003782889e-05
7.17783003628015e-07
-7.27393871487616e-08
-7.44996659560685e-06
2.86876919151443e-07
-1.49530849517392e-07
-2.26361904131406e-06
1.46272604711882e-07
-2.16519531744059e-07
-7.74918784138937e-07
8.20899908107314e-08
-2.70693234080453e-07
-8.27332214664066e-08
4.44502028363059e-08
-3.0086283366115e-07
2.55447269448083e-07
2.23470389869811e-08
-3.05912741215796e-07
6.00639392478355e-07
8.25553209415469e-09
-3.35570745852535e-07
-2.81495481382814e-05
7.91528957438508e-07
-6.32117351095246e-08
-7.89378256971083e-06
3.24099733790773e-07
-1.40049857887928e-07
-2.46926270912189e-06
1.70464561003141e-07
-2.0795522304449e-07
-9.3771857705809e-07
1.01193606151133e-07
-2.70450056682709e-07
-2.0970827229898e-07
5.92043905568315e-08
-3.1748934012914e-07
2.08744467188068e-07
3.3088161324947e-08
-3.39493867452815e-07
4.27987518235985e-07
1.69588219055136e-08
-3.37687418264154e-07
6.93179190980207e-07
6.42202215156839e-09
-3.63299397412877e-07
-2.8656094626081e-05
8.49451062358984e-07
-4.62008306298714e-08
-8.31708748357999e-06
3.52098505584255e-07
-1.23795859328622e-07
-2.65524590797849e-06
1.87058564119072e-07
-1.91295235080202e-07
-1.07332906089349e-06
1.15071547272847e-07
-2.56872591713973e-07
-3.29546896858101e-07
7.11907380236656e-08
-3.14574263911087e-07
1.21420137978868e-07
4.32203988139451e-08
-3.55544641024237e-07
4.09238543783791e-07
2.53277747019042e-08
-3.71385228785294e-07
5.61053186499172e-07
1.3434803623372e-08
-3.63724341053554e-07
7.74338414777842e-07
5.25195782296427e-09
-3.85916856705978e-07
-2.91942090724622e-05
8.88236537876696e-07
-1.4483282275637e-08
-8.77541523773154e-06
3.70063799744679e-07
-9.65276422528868e-08
-2.85694549399189e-06
1.9523015897465e-07
-1.65621476145912e-07
-1.21220761546837e-06
1.22407036326279e-07
-2.3301387398301e-07
-4.46001655669151e-07
7.85211784296205e-08
-2.95777324351616e-07
2.17939287965269e-08
5.03784663453762e-08
-3.49262280841633e-07
3.47399742568756e-07
3.2001424665118e-08
-3.85348538624168e-07
5.6488328648488e-07
2.04522307015759e-08
-3.96892124230334e-07
6.73325754991114e-07
1.06297287289112e-08
-3.84020029522692e-07
8.51238797069069e-07
4.63286121226195e-09
-4.03511071695533e-07
-2.97831419379458e-05
9.01525936125881e-07
4.84843748221459e-08
-9.30989460374976e-06
3.76964398650779e-07
-5.11829586780433e-08
-3.09061707846872e-06
1.94378081454084e-07
-1.28076668077039e-07
-1.37272619036887e-06
1.22417053436263e-07
-1.9939181859627e-07
-5.74492329586353e-07
8.00669066500121e-08
-2.65379522959363e-07
-8.74830788632761e-08
5.33003010725244e-08
-3.25038653280589e-07
2.60616755763847e-07
3.65464351581921e-08
-3.74684506216151e-07
5.22601715117377e-07
2.40943268996895e-08
-4.07491850517897e-07
6.96894778829952e-07
1.54654723162735e-08
-4.15456332511585e-07
7.74275142718327e-07
9.57290713827024e-09
-3.98516435163547e-07
9.27431916430862e-07
5.07208517180425e-09
-4.16708100201963e-07
-3.03819051224095e-05
8.75785649822088e-07
1.54790299709717e-07
-9.96314624683719e-06
3.69299653993221e-07
2.09240259555622e-08
-3.36970168723493e-06
1.83552138509895e-07
-7.50826941294386e-08
-1.56225742462876e-06
1.14492451903632e-07
-1.54089664745619e-07
-7.2446246429598e-07
7.52345253242103e-08
-2.23915393675795e-07
-2.12320884575479e-07
5.09275534448249e-08
-2.87003970792387e-07
1.55553140162802e-07
3.56301609047366e-08
-3.43665650998771e-07
4.46247668548471e-07
2.56402330556394e-08
-3.91174605628197e-07
6.71420422347887e-07
1.88615882310735e-08
-4.22010073057218e-07
8.15825012722707e-07
1.40649312704794e-08
-4.27423566312754e-07
8.69748418880439e-07
1.01480064287873e-08
-4.0778610355405e-07
1.00478195514389e-06
5.90597820879506e-09
-4.25697448535139e-07
-3.08800700173993e-05
8.2487095694702e-07
2.32585939113257e-07
-1.07788959831063e-05
3.47095387708038e-07
9.52654571514382e-08
-3.71403268501763e-06
1.62995354615556e-07
-1.27104943058688e-08
-1.78657077686699e-06
9.88824238983249e-08
-9.84677639725946e-08
-8.99488588807613e-07
6.39440750047712e-08
-1.71518448404872e-07
-3.57153868611401e-07
4.29665161072198e-08
-2.3722939754848e-07
3.31761969793596e-08
3.04176562424633e-08
-2.97552899767282e-07
3.45564020527949e-07
2.30576555596533e-08
-3.52385067052954e-07
6.04564473713931e-07
1.87564575631298e-08
-3.98570474734237e-07
8.05573764696423e-07
1.60280199346831e-08
-4.28261462263207e-07
9.27757057195911e-07