/*--------------------------------*- C++ -*----------------------------------*\
  =========                 |
  \\      /  F ield         | OpenFOAM: The Open Source CFD Toolbox
   \\    /   O peration     | Website:  https://openfoam.org
    \\  /    A nd           | Version:  12
     \\/     M anipulation  |
\*---------------------------------------------------------------------------*/
/*   Windows 32 and 64 bit porting by blueCAPE: http://www.bluecape.com.pt   *\
|  Based on Windows porting (2.0.x v4) by Symscape: http://www.symscape.com   |
\*---------------------------------------------------------------------------*/
FoamFile
{
    format      ascii;
    class       volVectorField;
    location    "400";
    object      U;
}
// * * * * * * * * * * * * * * * * * * * * * * * * * * * * * * * * * * * * * //

dimensions      [0 1 -1 0 0 0 0];

internalField   nonuniform List<vector> 
10116
(
(-1.59634926944708e-06 -0.000902428042453427 5.39918394741926e-05)
(3.37188781060822e-06 -0.000860946336281767 5.32261925993058e-05)
(3.03162002315326e-06 -0.00070319083781841 6.20369121885321e-05)
(1.45804978637952e-06 0.00028070991280156 8.62464564542301e-05)
(8.2263228704166e-06 -0.000825944216081945 5.6245210083048e-05)
(1.3508655913535e-05 -0.000672163422959056 6.07071111080975e-05)
(3.24904244935484e-06 0.000321275048481501 8.95902871842067e-05)
(1.89102938371938e-05 -0.000581092731966798 6.36697947071679e-05)
(7.5317206151592e-06 0.000391597761207178 9.34020593491784e-05)
(1.21814668860548e-06 0.000323226827443428 0.000118526154239747)
(9.43093134873284e-06 -0.000800016694319271 5.79270239506988e-05)
(2.30547505975639e-05 -0.00062472695252938 6.60674926665607e-05)
(4.26343675478431e-06 0.000351910676881116 9.37957267652053e-05)
(2.92882864000783e-05 -0.000551967780054003 6.26848693191347e-05)
(1.18099102600487e-05 0.000440742610277598 9.6408175795864e-05)
(1.8909756416434e-06 0.000354811326475265 0.00012124624705394)
(3.65742150614373e-05 -0.000548611175481585 6.54919795597764e-05)
(1.574476434976e-05 0.00050327843436071 9.83902876210903e-05)
(6.55790483858278e-06 0.000420290642572608 0.00012570883981088)
(7.21075826495879e-07 0.000338589943086895 0.00015094701554338)
(9.097844516731e-06 -0.000775324727419363 5.75384271910036e-05)
(2.6383588649555e-05 -0.000591177307339041 6.83703475529632e-05)
(4.43725079086339e-06 0.000377097811531706 9.48411839063745e-05)
(3.84273274774609e-05 -0.000500014231541137 7.13835181011752e-05)
(1.44962000069819e-05 0.000477410329363531 0.000102214641622939)
(2.26306241500364e-06 0.000380413513819142 0.000123997032159558)
(4.57584588580943e-05 -0.000519840646526165 6.46474240772952e-05)
(2.05386855279537e-05 0.000557728333350711 0.000101739647356165)
(8.72105715525052e-06 0.000456791735413272 0.000128564320079592)
(1.25704446600077e-06 0.000364658664096961 0.000153040285821341)
(5.37550952648452e-05 -0.000548452575125281 6.67333586570235e-05)
(2.51446653234993e-05 0.000533389612576216 0.000100222361030394)
(1.28511375295794e-05 0.000505551807827358 0.000132577846417313)
(5.35141190686797e-06 0.000398443493841721 0.000157921452142045)
(3.96076872573265e-07 0.000379571228033734 0.0001800503966701)
(8.73247372057582e-06 -0.000748777055312782 5.6199039349149e-05)
(2.65262000713792e-05 -0.000561912099881208 6.7452676447428e-05)
(4.42064280096127e-06 0.000401264251793225 9.39459875038997e-05)
(4.25436173414048e-05 -0.00046399092470856 7.459690710196e-05)
(1.51608806925542e-05 0.000504655270784346 0.00010362158135701)
(2.52054853831705e-06 0.0004033981344768 0.000125091383260294)
(5.3997654858945e-05 -0.000466717984207437 7.45179047956644e-05)
(2.39614692990508e-05 0.000598336159390272 0.00010874111205296)
(9.79289746013137e-06 0.000484850062316461 0.000131587811948476)
(1.5263130357999e-06 0.000387531310461752 0.000154888143767461)
(6.17582349933851e-05 -0.00052018437953902 6.58006645463685e-05)
(2.96985328147566e-05 0.000590481290349098 0.000103965716497792)
(1.54522372855723e-05 0.000545800007888887 0.000135451540934338)
(6.7515162063523e-06 0.000427120667443555 0.000160010906172322)
(7.71091586045532e-07 0.000401710493128037 0.000181818086248449)
(6.94259160926512e-05 -0.000562129891877033 6.6393096698918e-05)
(3.43873631867917e-05 0.000537818458136571 0.000100279504786346)
(1.92288467741714e-05 0.000539861301440778 0.000135351651805613)
(1.03861304103845e-05 0.000456088792879412 0.00016533813557605)
(4.02754527415066e-06 0.000419088302350335 0.000186601554505603)
(4.89164580701005e-07 0.000430357158770397 0.00020549256568024)
(8.50931065138371e-06 -0.000720332646273683 5.44662288611122e-05)
(2.60947994417469e-05 -0.000532505367271801 6.55377355002011e-05)
(4.44165206981476e-06 0.000425790197409574 9.21635918757743e-05)
(4.37605656887568e-05 -0.000432702426692266 7.35977319983216e-05)
(1.52087783372774e-05 0.000529834506832229 0.000102536716870483)
(2.69823135901224e-06 0.00042565662234535 0.000124753329389977)
(5.8766092821686e-05 -0.000430345718068066 7.82784676681856e-05)
(2.53938304590259e-05 0.00062727928556635 0.000110342574665327)
(1.01308365678785e-05 0.000508493874888929 0.000132513797539344)
(1.66775213283962e-06 0.000409070483619047 0.000155713078527901)
(6.94958347582264e-05 -0.000466423185804223 7.61654008298862e-05)
(3.33935721532485e-05 0.000633173579650994 0.000111823074978192)
(1.70866166614581e-05 0.000576148292053509 0.000138632348612286)
(7.38052301772061e-06 0.00045116853101404 0.000161845978022485)
(9.61576275306937e-07 0.000422178323467555 0.000183194330090986)
(7.71504408511621e-05 -0.000534779658341976 6.56863798278584e-05)
(3.87867798882705e-05 0.00059676558573896 0.000104381931516794)
(2.20176825992039e-05 0.000582389758194512 0.000138383606182013)
(1.21608691617261e-05 0.00048706402200363 0.000167237495919452)
(4.9953162856934e-06 0.000442742303518978 0.000188276279033563)
(7.26960175386477e-07 0.000449497851666941 0.000207337484701973)
(8.29867970982741e-05 -0.000579586164387246 6.50337642071494e-05)
(4.25860369585771e-05 0.000530595156639342 9.879466924088e-05)
(2.54730423408434e-05 0.000552383328384566 0.000135638912880015)
(1.54656084586812e-05 0.00048064851808558 0.000168488642307458)
(8.3246300276806e-06 0.000459363709378536 0.000193769891416043)
(3.41357686188235e-06 0.000459203149651816 0.000211410919625713)
(7.36615557385849e-07 0.000484589041982605 0.000227403049100038)
(8.41444877858636e-06 -0.000691054552526764 5.26565630056049e-05)
(2.57147315204638e-05 -0.000502042129594571 6.32900125333157e-05)
(4.48069533651821e-06 0.000450849545311682 9.00322156793466e-05)
(4.40418346198176e-05 -0.000401789943501843 7.12249353941904e-05)
(1.51777390037989e-05 0.000555162636993434 0.000100361639536824)
(2.84850123281291e-06 0.000448047985741929 0.000123511806151793)
(6.11572923114895e-05 -0.000398466055286726 7.74409378411322e-05)
(2.59680540348939e-05 0.000653533616926964 0.000109055300226249)
(1.03232943793414e-05 0.000531063357114793 0.000131917832210246)
(1.80129017379495e-06 0.000430094901108039 0.000155514798444932)
(7.48626644900036e-05 -0.000430088948244681 8.03053770800092e-05)
(3.55311334272957e-05 0.000662928297293058 0.000113821930448136)
(1.78996307258601e-05 0.000600762174892564 0.000139356119244542)
(7.61759129718075e-06 0.000472980079124612 0.000162464946995225)
(1.06735476394111e-06 0.000441996588940908 0.000183865274295172)
(8.47388714673211e-05 -0.000480614368742221 7.65828966041283e-05)
(4.26285528362849e-05 0.000640874211778061 0.000112987723709385)
(2.41305583947743e-05 0.000614221498929779 0.000141862681289622)
(1.31899301412524e-05 0.000512428011816696 0.00016892829756817)
(5.39552092149507e-06 0.000463830971122351 0.000189525553479934)
(8.36835958755565e-07 0.000467690126802236 0.000208619882737674)
(9.113718900277e-05 -0.000553522672541418 6.46052369675433e-05)
(4.71437687922999e-05 0.000591121996019758 0.000103452287839175)
(2.83780885393326e-05 0.000596608536874402 0.000138982283406536)
(1.73771379329304e-05 0.000513137406647555 0.000170293480617952)
(9.53295226140535e-06 0.000484505820544361 0.000195307370931474)
(4.04242359299285e-06 0.000479327922975039 0.000213146988182733)
(8.65764829723178e-07 0.00050120187227385 0.000229539674333122)
(9.39389060578137e-05 -0.000597018857479148 6.34188788090474e-05)
(4.91867606847173e-05 0.000517348092137547 9.63375859701794e-05)
(3.08433603187405e-05 0.000552447230629474 0.000133963446212933)
(2.0170332179177e-05 0.000487442899906508 0.000168981872284363)
(1.25686369087106e-05 0.000475050836887264 0.000196472870445149)
(7.07484481583656e-06 0.000489057230515446 0.000218045527794706)
(3.30967424173124e-06 0.000507095034935383 0.000232819310334561)
(9.88658617847496e-07 0.000539950261943656 0.000246386038590343)
(8.44846347526065e-06 -0.000661882798288024 5.09840227666536e-05)
(2.55500959341714e-05 -0.000470951305954291 6.09815923757847e-05)
(4.54572755382614e-06 0.000476066922839613 8.7895755992217e-05)
(4.40826939101684e-05 -0.000370220369731569 6.84974833805803e-05)
(1.5186039797094e-05 0.000581069962372275 9.7822809843883e-05)
(2.96280372513916e-06 0.000470740989826021 0.000121821559178394)
(6.24553471738738e-05 -0.000366748293618066 7.50559912271035e-05)
(2.62420438947248e-05 0.000679678799744975 0.000106575340803275)
(1.0484883730263e-05 0.000553713380155845 0.000130425808270375)
(1.92802342638137e-06 0.000451122641851225 0.000154571238249055)
(7.83049697267848e-05 -0.000398031779156459 7.97163209060906e-05)
(3.67698120823801e-05 0.000689726808126623 0.000112687708575308)
(1.83760688706457e-05 0.000623920525454514 0.000138465257012749)
(7.81996263216337e-06 0.000494134511421496 0.000162069469314187)
(1.17147368386268e-06 0.000461539819814548 0.000183797690058153)
(9.06062101422254e-05 -0.00044435545738552 8.12195666288809e-05)
(4.53121978331134e-05 0.000671115435300559 0.000115494854111988)
(2.54832587971478e-05 0.00063947460121033 0.000142702844181545)
(1.37503228395331e-05 0.000534820376803147 0.000169286388206128)
(5.55300011336955e-06 0.000483766415341257 0.000189981282193324)
(9.01873951765135e-07 0.000485665470595933 0.000209292150039588)
(9.90476307544695e-05 -0.000499088108574048 7.60672862433551e-05)
(5.124739986225e-05 0.000636397282355194 0.000112899779590033)
(3.0840077843823e-05 0.000629546736834274 0.00014290958464425)
(1.87632058688141e-05 0.000539427387301156 0.000172005210749573)
(1.01821406708225e-05 0.000506424368433859 0.000196379831517324)
(4.26650261516851e-06 0.000497898598101446 0.000214274007328445)
(9.05680402480588e-07 0.000517277616310633 0.000230958737039899)
(0.000102814868717764 -0.000572463328777779 6.32966177603414e-05)
(5.42114100867566e-05 0.000579313085292706 0.000101676892714981)
(3.40114580685673e-05 0.000598147922274724 0.000137882273851232)
(2.22602195912262e-05 0.000521112510039266 0.000170751058096076)
(1.39257423051757e-05 0.000501293020501792 0.000198147874521473)
(7.86717472324971e-06 0.000510243234885295 0.000219660943330464)
(3.66374263432257e-06 0.000524447940643833 0.000234859603423324)
(1.03829123082476e-06 0.000554295837242432 0.000248850855248082)
(0.000101626164626763 -0.000613908389386245 6.2058822032312e-05)
(5.37878587051317e-05 0.000501073909316145 9.33758172921926e-05)
(3.48680408310559e-05 0.000544953825348233 0.000131103525677087)
(2.40212762472576e-05 0.000482390124384808 0.00016717216661954)
(1.64528507054292e-05 0.000476084812140175 0.000196278947408219)
(1.07068262928697e-05 0.000498681484821525 0.000220222467967308)
(6.57593332203835e-06 0.000530213524668177 0.000238933107904233)
(3.52177226139141e-06 0.000558302804197588 0.00025145629761022)
(1.20463942393509e-06 0.000595494236042896 0.00026296160976964)
(8.58393538103113e-06 -0.000633266932637677 4.95592667446731e-05)
(2.56133737093122e-05 -0.000439859743680305 5.88577924799247e-05)
(4.63271190824476e-06 0.000501144947366168 8.59668957037329e-05)
(4.41889315285057e-05 -0.000338277519569256 6.58058144805532e-05)
(1.52780836712446e-05 0.000607218590318543 9.53135242092405e-05)
(3.05929162057168e-06 0.000493594677868964 0.000120022151496415)
(6.32219720512431e-05 -0.000334315303639744 7.22396028098354e-05)
(2.64462429249648e-05 0.000706335811299048 0.000103707353694595)
(1.06556058012183e-05 0.000576713151212774 0.000128515737413277)
(2.04645434406848e-06 0.000472325769707255 0.000153220953427041)
(8.06218578536255e-05 -0.000365792455439315 7.74907260908905e-05)
(3.7574258702381e-05 0.000716307049703269 0.000110215298750463)
(1.87149358804007e-05 0.000647043780589152 0.000136684918784181)
(8.02752467144826e-06 0.000515282591737148 0.000160978586875557)
(1.27652459055032e-06 0.00048111781085522 0.000183147734674926)
(9.49672337746544e-05 -0.000412199592308075 8.09797922245263e-05)
(4.72198856304652e-05 0.000698290526948016 0.000114681412395401)
(2.63969163071451e-05 0.000663060819047099 0.000141875698925894)
(1.41455807391022e-05 0.000556365154848963 0.00016863495830439)
(5.70509192234486e-06 0.000503377483120438 0.000189742419432254)
(9.63473527972856e-07 0.000503605723403629 0.000209383240420436)
(0.000105550680922049 -0.00046279692394365 8.13209304917956e-05)
(5.44731085234169e-05 0.000667049137648842 0.00011600283211797)
(3.26868335576208e-05 0.00065532399357095 0.000144040476021953)
(1.97383314113507e-05 0.000562283022126731 0.000172382800944817)
(1.05585559321941e-05 0.000526752128702836 0.000196575880388784)
(4.34494050390618e-06 0.000515910953627359 0.000214728342075409)
(9.20065476109452e-07 0.000533405711933078 0.000231760015115008)
(0.000111528873716953 -0.000517694732374222 7.51718589444038e-05)
(5.88042292613004e-05 0.000625637296575585 0.00011204087903619)
(3.68484024167035e-05 0.000632057962177114 0.000142422820697987)
(2.39861129255563e-05 0.00054823151305253 0.000172632373362458)
(1.48603990541391e-05 0.000523942403898584 0.000199320059212764)
(8.227303785593e-06 0.000529413590779733 0.000220593183652588)
(3.73163617135493e-06 0.000540770958023083 0.000236120988765658)
(1.01697648358987e-06 0.000568376083272553 0.000250512696685951)
(0.00011144716483338 -0.000590871741867935 6.2309812513962e-05)
(5.94921778524408e-05 0.00056444529143931 9.94677771447867e-05)
(3.84924786351432e-05 0.000592053181215552 0.000135705352524681)
(2.64872827932448e-05 0.000517215623366479 0.000169339070486367)
(1.79418195189033e-05 0.000503290476398347 0.000198202455496012)
(1.15873435945664e-05 0.000520758065578707 0.000222019259727036)
(6.987541701756e-06 0.000548419818552313 0.0002408492108543)
(3.66627662372102e-06 0.000573258676587053 0.00025384719366583)
(1.1928841005298e-06 0.000607701468725939 0.000265722158961259)
(0.000105368143576083 -0.000629313474702914 6.07845386564836e-05)
(5.60754405980853e-05 0.000483343993705708 9.01318096076763e-05)
(3.7302428657598e-05 0.000533365521112501 0.000127548532804686)
(2.68307621355557e-05 0.000469818411659275 0.000163738414037002)
(1.96107256277615e-05 0.000466638489138343 0.000193928564104272)
(1.40713206645806e-05 0.000495691816363939 0.000219542332048469)
(9.87480282455457e-06 0.00053576142240454 0.000240642479148937)
(6.63574241617172e-06 0.000576844423181259 0.000257156938793643)
(3.90950835703333e-06 0.000611007475193286 0.000267793567332467)
(1.40436065963093e-06 0.000650759439856286 0.000277529056447098)
(8.80542258346484e-06 -0.000605344069077807 4.846527345907e-05)
(2.58972368336583e-05 -0.000409147976448587 5.70523062120119e-05)
(4.73189289034873e-06 0.000525928144652776 8.43672687993237e-05)
(4.44593355281763e-05 -0.000306474200043114 6.33587960092402e-05)
(1.54380111854716e-05 0.000633275887541043 9.30702287317173e-05)
(3.15142529487946e-06 0.000516485824550404 0.000118359236720921)
(6.38119738763806e-05 -0.000301478440755789 6.94229386940231e-05)
(2.66928331835141e-05 0.000733231644115398 0.000100887388466542)
(1.08509587693834e-05 0.000599935743479959 0.000126535213061343)
(2.15532251512967e-06 0.000493690262103204 0.000151744668540546)
(8.22820839263215e-05 -0.00033266349819243 7.47101603625423e-05)
(3.81877320395936e-05 0.000743379483406889 0.000107281721127267)
(1.90315052086342e-05 0.000670512590594634 0.000134530610145078)
(8.23059426211395e-06 0.000536623756708974 0.000159515500662271)
(1.37550990824552e-06 0.000500874271548864 0.000182148353288441)
(9.82805355748076e-05 -0.000379631125239579 7.89320947443246e-05)
(4.86727819986121e-05 0.00072523784793987 0.000112342093511427)
(2.71180447311782e-05 0.00068655261042824 0.000140124288607252)
(1.44849133585565e-05 0.000577829587987654 0.000167317109226843)
(5.88843769956415e-06 0.000523029794876454 0.000188980370397347)
(1.02363037265488e-06 0.000521686499049639 0.000209013651702732)
(0.000110816178156354 -0.000430528999866695 8.15263522398632e-05)
(5.70871486093147e-05 0.000694540919146456 0.000115550612148221)
(3.41296062990657e-05 0.000679346849315702 0.000143465267213598)
(2.04385301381428e-05 0.000584186069897322 0.000171727385725486)
(1.08710992794779e-05 0.000546661843277115 0.000196091557932439)
(4.42705317766157e-06 0.000533863946340354 0.000214648711890205)
(9.3507642152216e-07 0.000549697176303429 0.000232057977628401)
(0.000118984438402754 -0.000481153659296315 8.09581921603076e-05)
(6.26707319741949e-05 0.000656675251047691 0.000115791325436129)
(3.92163407635752e-05 0.000658368949984963 0.00014401036723716)
(2.53620339750054e-05 0.000571562250963282 0.000173195685348343)
(1.55182165084436e-05 0.000544676090648081 0.000199499293291835)
(8.41457381316849e-06 0.000547713047392655 0.000220790367773626)
(3.70291523174748e-06 0.000556880741374518 0.000236706751384405)
(9.79208554285666e-07 0.000582692511216178 0.000251543179187733)
(0.000121497076146776 -0.000535514014274661 7.44756775084277e-05)
(6.48251431744342e-05 0.000611816600650936 0.00011077611069532)
(4.1815054311762e-05 0.000626874285269196 0.000140990424761911)
(2.86237725456054e-05 0.000545123059186094 0.000171622513539408)
(1.91155480481034e-05 0.00052658005470225 0.000199582963814401)
(1.21463620072015e-05 0.00054050419539255 0.000223067183393804)
(7.09310100083921e-06 0.000565204035793805 0.000241928841328809)
(3.57639042088425e-06 0.000587513772537269 0.00025536667550688)
(1.11940978685124e-06 0.000619831777092196 0.000267650805868472)
(0.000116623435718074 -0.000607525954257451 6.13930264170684e-05)
(6.26599439740612e-05 0.000548232739243147 9.70441769482525e-05)
(4.14911409274908e-05 0.000581881174814282 0.000132935917934885)
(2.97426541546464e-05 0.000505787692690739 0.000166585058414774)
(2.12681252949386e-05 0.000494781056257801 0.000196287980093874)
(1.49884481528385e-05 0.000518617308856157 0.00022167132580188)
(1.02942656558465e-05 0.000554710025163322 0.000242748165600208)
(6.74590457837433e-06 0.000592499571210234 0.00025942391255933)
(3.88060177476396e-06 0.000623733219088989 0.000270496727235632)
(1.34148557236028e-06 0.000660882528207908 0.000280540633051543)
(0.000104956329467725 -0.000640385205929152 5.96432502520688e-05)
(5.58230736661211e-05 0.000465234135384883 8.65188474640993e-05)
(3.79657790074981e-05 0.000520239718950461 0.000123555029152179)
(2.84550153804143e-05 0.000452948505467305 0.000159445476939146)
(2.17652498447585e-05 0.000450293929545714 0.000190196353966623)
(1.67377617142967e-05 0.000483522716493387 0.000216877323343846)
(1.28767335719054e-05 0.000530199075046886 0.000239667323084691)
(9.77896631850878e-06 0.000579658624151526 0.000258611573752331)
(7.05561637431916e-06 0.000626380039276409 0.00027324089437666)
(4.38616742088669e-06 0.000664301063244381 0.000282194704285075)
(1.59904775474351e-06 0.000705475713667129 0.000290359805585378)
(9.13552696467536e-06 -0.000578105337392859 4.77752894951489e-05)
(2.63979466832296e-05 -0.000378881700918807 5.56507169695986e-05)
(4.84055209150044e-06 0.000550360785779951 8.31450383964992e-05)
(4.48989678585605e-05 -0.000275066054016685 6.13491778504659e-05)
(1.56385138138403e-05 0.000659061542475271 9.12289997179985e-05)
(3.23930370383164e-06 0.000539334922805063 0.000116978050627445)
(6.4428063285063e-05 -0.000268840818592605 6.68613018988819e-05)
(2.69910615748575e-05 0.000760035769076943 9.83793389814545e-05)
(1.10573161243494e-05 0.000623241570983433 0.000124723678989276)
(2.2552790228144e-06 0.000515177490539705 0.00015035803614407)
(8.35805235614259e-05 -0.000299044544262677 7.18570117663958e-05)
(3.87377015218961e-05 0.000770676201617002 0.000104346845522307)
(1.93632903838783e-05 0.000694205063582191 0.000132336735747574)
(8.42724643698563e-06 0.000558140846555321 0.00015794837766892)
(1.46435226332108e-06 0.000520842799534421 0.00018102078548043)
(0.000100862658632079 -0.000346015149086662 7.62173552078119e-05)
(4.98454402237958e-05 0.000752666676264709 0.000109419669295175)
(2.77453254452941e-05 0.000710372036586954 0.000137971917379145)
(1.47814113321307e-05 0.000599464889612022 0.000165652831912457)
(6.07941950402797e-06 0.000542867893468308 0.000187911534449273)
(1.07888107503526e-06 0.000540012981246532 0.000208357402913945)
(0.000115091599273097 -0.000397729794687513 7.97104937291857e-05)
(5.92395352179483e-05 0.000721773888933422 0.000113371394476697)
(3.53550808875484e-05 0.000703231987862653 0.000141859600830142)
(2.10018645926996e-05 0.000605971520316055 0.000170438733569739)
(1.1153058018692e-05 0.000566574191235895 0.000195127397866516)
(4.52551009492126e-06 0.000551980722891986 0.000214171608456426)
(9.49246910192964e-07 0.000566256971522293 0.00023198074170732)
(0.000125265273636862 -0.000448642492146728 8.16515876973341e-05)
(6.60208631023296e-05 0.000684433945353173 0.000115715089115603)
(4.12474242679461e-05 0.000682819934297843 0.000143745108792975)
(2.64576444452754e-05 0.000593868912338716 0.000172853733484966)
(1.60399104886752e-05 0.000564882623174006 0.000198952404377582)
(8.58467227833819e-06 0.000565882842673094 0.000220476772948513)
(3.68456111477674e-06 0.00057314251037436 0.00023683060155165)
(9.43926770383205e-07 0.000597317469058759 0.000252100538415013)
(0.000130227710048144 -0.000498491979258704 8.06989820718394e-05)
(6.95014225151574e-05 0.000643227210407214 0.000115213415905704)
(4.47549272524141e-05 0.000653718971823853 0.000143115372019638)
(3.04021054076101e-05 0.000568987705055021 0.000172616304716609)
(2.0041792164235e-05 0.000547725820301644 0.00019994602999298)
(1.25102883653196e-05 0.000559164585144434 0.000223293675576943)
(7.06601430435235e-06 0.000581515623758391 0.000242270299451379)
(3.4230977125486e-06 0.000601768706070466 0.000256190567217664)
(1.03339562963752e-06 0.000632350194721942 0.000268957046760573)
(0.000128590082788965 -0.000551221755895408 7.39897798389295e-05)
(6.90022212057054e-05 0.000596821733430689 0.000109351686533407)
(4.54323391081711e-05 0.000617589667912316 0.000139019104354766)
(3.2309702660163e-05 0.000534497120036164 0.000169591281116354)
(2.27086893655604e-05 0.000518746617534692 0.000198083127591652)
(1.56879363008231e-05 0.000538942970940163 0.000222994501848687)
(1.04506157834072e-05 0.000571995016152794 0.000243964388945566)
(6.58022790983956e-06 0.000607124017140603 0.000260782525957628)
(3.64367333894512e-06 0.000635985631050774 0.000272303443099422)
(1.22147642139955e-06 0.000671085470492747 0.000282731126164762)
(0.000118040533769437 -0.000619715745390958 6.05240340915819e-05)
(6.35499963338057e-05 0.000531967024181242 9.43760805281086e-05)
(4.27884713790708e-05 0.00057032612448806 0.000129852787972311)
(3.17725960940288e-05 0.000490087766737025 0.000163137517811986)
(2.37054601321259e-05 0.000479360126899722 0.000193129690981977)
(1.77519561926575e-05 0.000507198230677627 0.000219414522084642)
(1.33034639719389e-05 0.000549823505411426 0.000242078789082185)
(9.81974070333213e-06 0.000595918976496558 0.000261016391626784)
(6.91365991140295e-06 0.000639675187302951 0.000275807666549625)
(4.22478822965465e-06 0.000674862501381539 0.000285157049920456)
(1.49378153878305e-06 0.000713521723905998 0.000293583415603413)
(9.98467249150653e-05 -0.000641661665790484 5.83008259646205e-05)
(5.29767378282143e-05 0.000448061376325903 8.24440284701413e-05)
(3.67017050575533e-05 0.000507559749672748 0.000119213721785595)
(2.8625541514237e-05 0.000434031199161427 0.000154746744478453)
(2.2817680918781e-05 0.000429652091811172 0.000185606204518204)
(1.84925598535495e-05 0.000464956781051381 0.00021282675376501)
(1.52927402423522e-05 0.000516337259139266 0.000236767003453978)
(1.27034285347343e-05 0.000572373977853007 0.000257455147974974)
(1.02938306833298e-05 0.000627283787010587 0.000274531985425823)
(7.76839998574354e-06 0.000677461800532872 0.000287452024609741)
(4.96173243233255e-06 0.00071762013460442 0.000294884495625126)
(1.81992736362446e-06 0.000759397941807759 0.000301617941713532)
(9.63218099912304e-06 -0.000551793758082419 4.72570972174227e-05)
(2.71613920106834e-05 -0.000348962967188539 5.46893715924301e-05)
(4.95926812239689e-06 0.000574422219353618 8.22585485966295e-05)
(4.55128379109328e-05 -0.000244052968326439 5.98805747876133e-05)
(1.58641940269452e-05 0.000684517858672663 8.98450147228162e-05)
(3.31726094671822e-06 0.000562103695679287 0.000115936651832059)
(6.51052667690607e-05 -0.000236677668122876 6.47283919937209e-05)
(2.73160809559446e-05 0.000786580452102326 9.63312809061307e-05)
(1.12546132491625e-05 0.000646545798434462 0.00012322910075413)
(2.34475376996436e-06 0.000536752018775505 0.000149202021661987)
(8.46999828478454e-05 -0.000265593218352166 6.92267999897482e-05)
(3.92651708934244e-05 0.000797846886892136 0.000101712935359082)
(1.96914694575711e-05 0.000717987168700135 0.000130341611583179)
(8.61062734638886e-06 0.000579801991658331 0.000156490132579954)
(1.54152804301807e-06 0.000541027405122214 0.000179952435006716)
(0.000102950531033046 -0.000311807024337712 7.33648041438796e-05)
(5.08326738914764e-05 0.000780304174838439 0.000106443590461143)
(2.8316099471325e-05 0.000734384087180996 0.000135733017676205)
(1.5057700549405e-05 0.000621277178821358 0.000163895320148426)
(6.25629757543137e-06 0.00056292331131602 0.000186735390223497)
(1.12869212238901e-06 0.00055862894737831 0.000207589846728694)
(0.000118586003056771 -0.000363751481083527 7.71026502953895e-05)
(6.10228600657368e-05 0.000749484155466773 0.000110504585053208)
(3.64091035452726e-05 0.000727385994537583 0.000139742622996023)
(2.1509181594269e-05 0.000627903460511658 0.000168825936831029)
(1.13961308480042e-05 0.000586640982344657 0.000193872274224319)
(4.63584237533899e-06 0.000570361849553442 0.000213451492706034)
(9.60207388165526e-07 0.000583161192840578 0.00023167036248242)
(0.00013053242081805 -0.000415563364772461 8.02108841923288e-05)
(6.88944589141978e-05 0.000711874790208573 0.000113735165742595)
(4.30142536184026e-05 0.000707056109636301 0.000142286082807054)
(2.73851450340443e-05 0.000615999763696741 0.000171715456940619)
(1.64463596676544e-05 0.000585020184479756 0.000197924537227889)
(8.74656365474843e-06 0.000584195106917117 0.000219816983770631)
(3.68250991703845e-06 0.000589703809966031 0.00023663063582822)
(9.16783416805256e-07 0.000612334255313387 0.000252323928923602)
(0.000137740321260214 -0.000465522840003132 8.1812665757488e-05)
(7.36757817215874e-05 0.000671213175703298 0.000115545889391549)
(4.74002523186836e-05 0.000678553676455903 0.000143171559945158)
(3.19241241671149e-05 0.00059171504419844 0.000172572951128903)
(2.07927846920136e-05 0.000568272566482284 0.000199563635152654)
(1.27896025193921e-05 0.000577618406854696 0.000222960410413021)
(7.05342638191753e-06 0.000597931752375626 0.00024217775091316)
(3.28057345846656e-06 0.000616331804646486 0.0002565624349744)
(9.59783729250913e-07 0.000645316991108351 0.000269815261214096)
(0.000138869097681813 -0.00051363299394884 8.07885999722313e-05)
(7.46846744139041e-05 0.000628627463322667 0.000114508389705278)
(4.90330877280791e-05 0.000644958085861445 0.00014172813979768)
(3.45356082781901e-05 0.00055889784904376 0.000171071744594695)
(2.39418681739383e-05 0.000540391003670826 0.000198796231061268)
(1.61982627331641e-05 0.000557970141115836 0.000223387282535923)
(1.0490560161094e-05 0.00058863359713227 0.000244361808822361)
(6.33034461586245e-06 0.000621528539102388 0.000261382884193708)
(3.35617483604142e-06 0.000648423767902598 0.000273417897185193)
(1.09304386647204e-06 0.000681801457651129 0.000284317353111168)
(0.00013236995723042 -0.000561905780575 7.36917679617045e-05)
(7.11848478329153e-05 0.00058207744260518 0.000107855097148801)
(4.74932033170257e-05 0.000606997435819398 0.000136770551889527)
(3.48040229337196e-05 0.00051960439153296 0.00016694000092937)
(2.54790305415531e-05 0.000504024884789599 0.000195467654414341)
(1.85801637203806e-05 0.000528133854125115 0.000221116626694509)
(1.3503937706638e-05 0.000567648294565407 0.000243568860148827)
(9.61962801640446e-06 0.00061097747568987 0.000262486626805553)
(6.52544894224969e-06 0.000652222313753775 0.000277449195664795)
(3.86421919679613e-06 0.000685144044810808 0.000287234302328657)
(1.33497533605007e-06 0.000721794774362868 0.000296023486634001)
(0.000114677640388852 -0.000622086932007845 5.96908997570097e-05)
(6.20846545723328e-05 0.000517092483568484 9.13650891050829e-05)
(4.22909417565993e-05 0.000559513247799038 0.000126531202446777)
(3.2369477930287e-05 0.00047246292746238 0.0001593924913718)
(2.50823809423693e-05 0.000459703190418067 0.000189213811671114)
(1.96714143788941e-05 0.000489451482099338 0.000215900151763219)
(1.57130488272964e-05 0.000536673900591258 0.000239592014580799)
(1.26319683708488e-05 0.000589284757370375 0.000260165609672095)
(9.96434270913513e-06 0.000641146683570652 0.000277237158163526)
(7.38370922501718e-06 0.000688513404512354 0.000290288515253632)
(4.66324783001778e-06 0.000726048118265011 0.000298071015653974)
(1.66878777740569e-06 0.000765363315698975 0.000305036247770293)
(9.05257017029873e-05 -0.000624250273164845 5.62245145016048e-05)
(4.75486946882562e-05 0.00043377473734226 7.77958954449584e-05)
(3.34117320314575e-05 0.000497265498239149 0.000114661488171575)
(2.71780482879669e-05 0.000414786637754593 0.00014977534888465)
(2.26228845520042e-05 0.00040658760284417 0.00018051856834477)
(1.92930205206714e-05 0.000442158648460554 0.00020787885725162)