/*--------------------------------*- C++ -*----------------------------------*\
  =========                 |
  \\      /  F ield         | OpenFOAM: The Open Source CFD Toolbox
   \\    /   O peration     | Website:  https://openfoam.org
    \\  /    A nd           | Version:  12
     \\/     M anipulation  |
\*---------------------------------------------------------------------------*/
/*   Windows 32 and 64 bit porting by blueCAPE: http://www.bluecape.com.pt   *\
|  Based on Windows porting (2.0.x v4) by Symscape: http://www.symscape.com   |
\*---------------------------------------------------------------------------*/
FoamFile
{
    format      ascii;
    class       volScalarField;
    location    "100";
    object      k;
}
// * * * * * * * * * * * * * * * * * * * * * * * * * * * * * * * * * * * * * //

dimensions      [0 2 -2 0 0 0 0];

internalField   nonuniform List<scalar> 
10166
(
3.52479634622811e-06
3.52661240666775e-06
2.09443282466226e-05
2.54765303296582e-05
3.52384278805394e-06
2.10202053439395e-05
2.55020731641537e-05
5.43008286554326e-05
0.000135947357367147
7.22149279300791e-05
3.51006048189824e-06
2.10553672929097e-05
2.5479081424656e-05
5.44449415108283e-05
0.000135994841625008
7.22107488745547e-05
9.60905361682925e-05
0.000263821833623547
0.000271835851072993
0.000132565358632764
3.48240265486622e-06
2.10346685016443e-05
2.53907453895125e-05
5.44500852182507e-05
0.000135790592140487
7.2072827522416e-05
9.62229974391355e-05
0.000263817253972956
0.000271656731766419
0.000132485425093498
0.000141910292719683
0.000385845433928226
0.000455490492331973
0.000405928858046478
0.000195519630653564
3.43937289610149e-06
2.09639103379776e-05
2.52396174452638e-05
5.4335238823541e-05
0.000135386261900763
7.18002301740456e-05
9.61100837248029e-05
0.000263382625806455
0.000271074745408752
0.000132190003961511
0.000141997119349616
0.000385807806927057
0.00045528266029017
0.000405567155986255
0.000195331773396625
0.000189439013273791
0.00049980599520883
0.00062427500604871
0.000634313503185693
0.000534328382545134
0.000245119301193429
3.38612939631486e-06
2.08417841560193e-05
2.50206836943806e-05
5.41137714805444e-05
0.000134809143865402
7.14019012211732e-05
9.58110554007859e-05
0.00026260784059624
0.000270179220358886
0.000131698291256422
0.000141741577732004
0.000385180512363758
0.000454467276505296
0.000404707100421968
0.000194855366723252
0.00018949620182902
0.000499728921610587
0.000624031134093811
0.000633879215803807
0.000533786325379656
0.000244838375400297
0.000237573576226801
0.000605127186714362
0.000781630764530989
0.000840180112891442
0.000807099415057122
0.000653449992363634
0.000274470823466187
3.32311074937721e-06
2.06741396694062e-05
2.47487639405572e-05
5.37848704278846e-05
0.000134062272960018
7.08632344576593e-05
9.53360196234425e-05
0.000261520157876988
0.000268995462405317
0.00013102379166322
0.000141227751532029
0.000384080709449351
0.000453156377974435
0.000403428050195826
0.000194135628401208
0.000189113863991884
0.00049891853195019
0.000622988169904102
0.000632711169344224
0.000532663708693255
0.000244260330634331
0.000237611269501501
0.000605022013770751
0.000781342909316967
0.000839669822981824
0.000806394583662129
0.000652694848501808
0.000274187506583487
0.000284282574538955
0.000701776707639089
0.000926380865440821
0.00103145212431952
0.00104766915123706
0.000972530177802157
0.000762730220244637
0.000313347396199325
3.24731211646813e-06
2.04538714937896e-05
2.44200857881359e-05
5.33445246791774e-05
0.000133130813825624
7.01859723092221e-05
9.4678873333286e-05
0.000260112591749784
0.000267522158532447
0.000130182697640315
0.000140461532385528
0.000382528834779594
0.000451368327060615
0.000401753763092037
0.000193219014051663
0.000188393946492902
0.000497515964198866
0.000621278289541351
0.000630908400270655
0.000531032771322356
0.000243429012623289
0.000237122199892375
0.000604058008841669
0.000780082188630281
0.00083820825593703
0.000804843228610575
0.000651273155427169
0.000273644088997565
0.000284302030832997
0.000701664544311652
0.000926062691312041
0.00103086815239085
0.001046824603648
0.000971503425068538
0.000761719758285678
0.00031296326470288
0.000326019083067251
0.000789112611885185
0.00105787827562289
0.00120736677673177
0.00126838229858825
0.00124689420321055
0.00112961712068269
0.000868752843925589
0.000352239327820832
3.15188232714393e-06
2.01641382809294e-05
2.40165916655542e-05
5.27754993603885e-05
0.000131975807218295
6.9351221630863e-05
9.38241184993736e-05
0.000258348547204255
0.000265691358689481
0.000129145717368561
0.000139431166108273
0.000380505596118437
0.000449078318120863
0.000399706655267364
0.000192315763071363
0.000187346620383011
0.00049553703578663
0.000618914599022194
0.000628476159315503
0.000528920644781854
0.000242427075148999
0.000236228072382474
0.000602393499292143
0.000778000316969252
0.00083591098939296
0.000802525805484269
0.000649250625912878
0.000272848547422554
0.00028375352521325
0.000700591557169359
0.000924620729046068
0.00102913823620941
0.00104489250037186
0.000969510188806245
0.000759968158227518
0.000312290359801401
0.000325940022849597
0.000789006753504602
0.0010575546681497
0.00120673294267443
0.00126741919897186
0.00124565199554051
0.00112821469467668
0.000867438243798444
0.000351737000110007
0.000355325585815994
0.000865643818339324
0.00117577993501538
0.00136710472819915
0.00147033733720121
0.001494393990035
0.00143680185330689
0.001279877126842
0.000971179916874219
0.000390529490719169
3.03528076565298e-06
2.35065280075491e-05
1.97842666380875e-05
5.20449428882597e-05
0.000130557162245509
6.83333315628989e-05
9.27417384582666e-05
0.000256169335928505
0.000263431915384412
0.000127712242399907
0.00013811186325199
0.000377957371515791
0.000446211460268156
0.00039718584430249
0.00019188528585988
0.000185957038359497
0.000492950327313025
0.000615854368151974
0.000625380027838435
0.000526412339451471
0.000241909450437004
0.000234931690336819
0.000600043849520359
0.000775107720159971
0.000832773110502446
0.000799429588270817
0.000646635328665366
0.000271783744308336
0.000282802487684079
0.000698733857611246
0.000922223901539954
0.00102639423595349
0.00104196516564816
0.000966611783358273
0.000757503995277527
0.000311320426237414
0.000325459724339365
0.00078789071987807
0.00105598321612398
0.00120478455714369
0.00126515765232869
0.00124318323391267
0.00112572272330143
0.000865292636175544
0.000350897948584711
0.000354947266478487
0.0008655286440409
0.00117547909607748
0.00136645499498068
0.00146929389661142
0.00149298017804522
0.00143510092835818
0.00127804257510758
0.000969520798779291
0.000389868043047403
0.000369229022679149
0.000929966651610246
0.00127979909610292
0.00151049536174826
0.00165353536004177
0.00171892752128438
0.0017089922670214
0.00161782047081744
0.00142445386289969
0.00107100420088271
0.000425459160777054
2.89640731012582e-06
2.28735935782672e-05
1.9299271161775e-05
6.70737227730546e-05
0.000128811404269776
5.11159444233681e-05
9.13872113534294e-05
0.000253502613259055
0.000260699355958764
0.000125906429957655
0.000136458607287584
0.00037480298841539
0.000442668367487158
0.000393924598778634
0.00018992285871996
0.0001841872337063
0.000489685547116306
0.000612008044984994
0.000621510717114655
0.000523572665235279
0.000246483473486755
0.000233224407231803
0.000596970867818083
0.000771348020020195
0.000828728857733727
0.000795505917253787
0.000643537064796783
0.00027051118551278
0.000281346805388679
0.00069609709668069
0.000918881825434508
0.00102262590777972
0.00103801173097522
0.000962759861149849
0.000754263011661277
0.000310002899235815
0.000324967144430146
0.000785964416117386
0.00105334856011488
0.00120166901961447
0.00126170392402161
0.00123955766738856
0.00112217694633786
0.000862311632093095
0.000349703230610418
0.000354952683555904
0.000864459160809562
0.00117384142778161
0.00136434959778568
0.00146677172483287
0.00149011669957854
0.00143202738009499
0.00127498020890271
0.000966907240077087
0.00038880506772948
0.000369415786384811
0.000929849707163304
0.00127955089434305
0.00150986780733225
0.00165245748828852
0.00171739717908065
0.00170706343469806
0.00161560183984676
0.00142213720240079
0.00106896986748417
0.000424588627760462
0.000384603803046124
0.000982653135379093
0.0013702816437093
0.00163777112250044
0.00181826258381829
0.00192194164036869
0.00195341595728381
0.00191249172539274
0.00179098148116836
0.00156522662932491
0.00117273181512221
0.000438666271351153
2.73354171921741e-06
2.21041901299996e-05
1.86956414699045e-05
6.55105972378237e-05
0.000126662027580747
4.99536524099377e-05
0.000123860116356187
0.000257426652811205
0.000250252320549228
8.97084499688725e-05
0.000134416659640386
0.000370938131417185
0.000438349438707287
0.000389912184369497
0.000186675931966018
0.000181980264357633
0.000485638142489733
0.000607251872459149
0.000616686490742347
0.000519384725801401
0.000244223000517234
0.000231062044661795
0.000593088597110596
0.000766612872004897
0.000823653401585689
0.000790631845839218
0.000639924751955046
0.00026932199235
0.000279427017951313
0.000692644121558979
0.000914528081219343
0.00101774887701477
0.00103293573727227
0.000957846698188568
0.000750160030432638
0.000308291998634709
0.000323553815060344
0.000783162531915595
0.00104965704085736
0.00119737380837158
0.00125701802920572
0.00123470821159266
0.00111748665275252
0.000858387744546492
0.000348077205722733
0.000357276300686554
0.00086269796373642
0.0011710650564629
0.00136095024178417
0.00146289130328813
0.00148588645207283
0.00142762815836676
0.00127069857046755
0.000963308502767146
0.000387304228564036
0.000359621744694532
0.00092868039970291
0.00127789954216538
0.00150767210736531
0.00164975063127593
0.00171423005109381
0.00170352933479304
0.00161185169698189
0.00141842736026673
0.00106580914054272
0.000423181356547867
0.00038459376436467
0.000982716006147021
0.00137011550311921
0.00163720057313548
0.00181719538120198
0.00192035512325121
0.00195133527338147
0.00190998986112487
0.00178819379686717
0.00156239536384477
0.00117036361229583
0.000437591483190541
0.00037610401172628
0.0010274359014931
0.00144820854228441
0.00174962263175065
0.00196504109407025
0.00210448801364324
0.00217334285474554
0.00217435148230083
0.00210562706131752
0.00195773061021808
0.00170719688984786
0.0013030214385943
2.54630034393665e-06
2.11818300583576e-05
1.7956518426827e-05
6.36074109947284e-05
0.000124032262513877
4.85268019772276e-05
0.000121212668855603
0.000253444301434304
0.00024629959863551
8.76490584084705e-05
0.000184718351335596
0.000385252143784672
0.000433128374351357
0.000366232778551284
0.000131915544648938
0.000179264075730724
0.00048067648857875
0.00060143781241663
0.000610788125001469
0.00051390569429319
0.000236202299808202
0.000228353335949749
0.000588267550811939
0.00076075036969476
0.000817374146399388
0.000784500877678777
0.000634801985478248
0.000267087509707173
0.000277014368289792
0.00068827685820277
0.000909035460263423
0.00101161746019574
0.00102657907893158
0.000951571103567141
0.000745052637470669
0.000306176374298857
0.000321618280927992
0.000779469939447117
0.00104483549967803
0.00119180048697479
0.00125098182928506
0.00122849302554807
0.00111149624320193
0.000853373951404468
0.000345936788186214
0.00035632818974189
0.000859903176502603
0.00116713985684995
0.00135624247135395
0.00145760816812639
0.00148021540228522
0.00142180107009298
0.00126506945614577
0.000958576246444261
0.00038526856891266
0.00035920435584816
0.000927106336248915
0.00127506453750233
0.00150408220590601
0.00164554841964202
0.00170952249770151
0.00169845005399949
0.00160659106422853
0.00141330192803017
0.00106147090869611
0.000421210997755822
0.000383759287450291
0.000978434078197521
0.00136836061727976
0.00163496452746198
0.00181437708361236
0.00191697814552112
0.00194745948361149
0.00190571700499422
0.00178369151815215
0.00155794943618876
0.00116653765372256
0.000435703900551783
0.0003761528162783
0.001027572203047
0.00144813900170737
0.00174914152201116
0.00196402470550009
0.00210290101376935
0.00217118582048888
0.00217166647961738
0.00210250647788419
0.00195434801733654
0.00170388926187498
0.00130049357987559
0.000385055403153936
0.00106010798151309
0.00151475612213228
0.00184693328914747
0.00209460023532539
0.00226741195612244
0.0023707756394601
0.00240866885857752
0.00238235929704968
0.0022890559583165
0.00212007169563395
0.00186188481043655
2.33636197545254e-06
2.0092221754132e-05
1.70687290020803e-05
6.13300294006323e-05
0.000120838675877285
4.6795984315036e-05
0.000117935851545008
0.000248629763181962
0.000241522155772605
8.51572270763776e-05
0.000181182919218608
0.000379511000554471
0.000426812547422778
0.000360535067518388
0.00012888179938677
0.000238287327354558
0.000508144625469825
0.000603701872495019
0.000594385059554944
0.000474639607983466
0.000175955943956286
0.000225014826164594
0.000582349321778713
0.00075357233615949
0.000809701233306159
0.000776964382351868
0.000628148811162179
0.00026389897697849
0.000273908467741326
0.000682828117051374
0.000902222336533592
0.00100403353577442
0.0010187235592385
0.000944018378316723
0.000738751899961259
0.000303410464181315
0.000319368291317304
0.000774787212239833
0.00103873877928513
0.00118478125962624
0.00124341141224038
0.00122069941552407
0.00110399108806306
0.000847115258858454
0.00034320338138772
0.000354707371956911
0.000856137199421414
0.00116198752592862
0.00135011612280813
0.00145078741018025
0.00147294581854193
0.00141436716923983
0.00125789828721853
0.000952514339739031
0.000382580389467116
0.000358579253473359
0.000924406822138669
0.00127101676806266
0.00149907998721892
0.00163980213099281
0.00170319522172815
0.00169171662047646
0.00159968188002118
0.00140659265888531
0.00105577016544973
0.000418573167638887
0.000383461418291392
0.000976314909641019
0.00136539094911415
0.0016312527890631
0.0018099528133063
0.00191191969210448
0.00194186206565578
0.00189970796958784
0.0017774652360678
0.00155184229179158
0.00116126301700029
0.000433035614985178
0.000375859563833283
0.00102612148907769
0.00144561470298855
0.00174686912702705
0.00196115694161999
0.00209939956636916
0.00216708077344031
0.00216702172454922
0.00209742965108742
0.00194901506332693
0.00169858747290213
0.00129568312481211
0.00038514587380667
0.00106027495730569
0.00151478844579076
0.00184654612521932
0.00209366936357064
0.0022658736903995
0.00236861115867017
0.00240589363600526
0.00237903128878674
0.00228530109424483
0.00211614866882802
0.00185830762017993
0.00153513033600769
0.000394184885858976
0.00109118608210091
0.0015703181617583
0.0019307212203972
0.00220780000914683
0.0024115322414945
0.00254699922264375
0.00261849538334325
0.00262864063140373
0.00257766236125963
0.00246285125201996
0.00227843661703315
2.10715552480663e-06
1.88273614458969e-05
1.6023950286965e-05
5.86347896751193e-05
0.000116984314423
4.47287343988071e-05
0.00011405381812501
0.000242868392630242
0.000235788460648153
8.21776274559695e-05
0.000176583993999908
0.000372554696420134
0.000419218593277148
0.000353683868554967
0.000125240678827901
0.000234569533026772
0.000500786166659698
0.000595132061444937
0.000585873319751208
0.000467343357650439
0.000171960892258596
0.000261016754219026
0.000620844401968667
0.00076797856983587
0.000800412933298419
0.00074485424230587
0.000575149195149578
0.000220971174895383
0.000270037482805509
0.000676119522283315
0.000893865246304283
0.000994756953496229
0.00100913134045733
0.0009349261655179
0.000731068116331399
0.000299970807347616
0.000316104200274151
0.000768883320598423
0.00103115392030081
0.00117608661069885
0.00123406305142665
0.00121115587400864
0.00109483270709701
0.000839402775256966
0.000339752691175087
0.000353755772944399
0.000851374637762019
0.0011554515370452
0.00134238199117536
0.00144221930439412
0.00146385295795621
0.00140509283934802
0.00124895056116568
0.000944914870111337
0.00037911389389455
0.000357140151686877
0.000920719508089145
0.00126566407619583
0.00149254306462682
0.00163236208632555
0.00169507364862278
0.00168313165677517
0.00159090505881888
0.00139805744719773
0.00104845027822509
0.000415140304650921
0.000373396329453867
0.000973364534430367
0.00136125099909629
0.00162605217776642
0.00180387093479639
0.00190509542930261
0.00193442815926798
0.00189181840607574
0.00176933966290733
0.00154386938022235
0.00115432701846012
0.000429578619692733
0.000375357879688047
0.00102390867705185
0.00144253826593361
0.00174305271578298
0.00195659422899979
0.00209410363819509
0.00216111381062827
0.00216046621072196
0.00209040287589599
0.00194170021216657
0.00169130021113663
0.00128898302666769
0.000384836523017314
0.00105927013094794
0.00151303273020435
0.00184416871287167
0.00209079739362153
0.00226232269302486
0.00236437780599632
0.00240101082425467
0.0023735635008232
0.00227935613338318
0.00210988920639006
0.00185194316003673
0.00152906610010183
0.000394306827412919
0.00109140819272641
0.00157041181138586
0.00193045007445824
0.00220697757007083
0.00241008415217923
0.00254488735402687
0.00261571282716252
0.00262521750571444
0.00257368922597523
0.00245853920127503
0.00227422838597075
0.00202079150422586
0.00177163637747297
0.000401843299992677
0.0011179323202744
0.00161767206414703
0.00200197288833102
0.00230565373459683
0.00253774798357673
0.00270302098209977
0.00280563595628995
0.00284862983313512
0.00283343077602079
0.00275984539040811
0.00262565043122989
1.86377362758459e-06
1.73890969062545e-05
1.48240934692792e-05
5.54819642984244e-05
0.000112374872228497
4.2303484447324e-05
0.00010945946334686
0.000236002611189472
0.000228956472565891
7.86590343390351e-05
0.000171330902100138
0.000364280093871153
0.000410161866094218
0.000345503756207305
0.000120916166729358
0.000229212919828652
0.000491804832224745
0.000584846305073799
0.000575667215358485
0.000458588533296113
0.000167182455170115
0.000257152511341732
0.000611929723457551
0.000757134934646558
0.000789224099682093
0.000734335992582072
0.000566448397031814
0.000216079313616844
0.000296010525233902
0.000721848304370405
0.000923660160989258
0.000997537706874393
0.000983505385632475
0.000883702162971909
0.000667956077721956
0.000265404183391629
0.000311839851093434
0.000761578961784304
0.00102182705207106
0.00116543414386612
0.00122264415209613
0.00119955823473225
0.00108374213030572
0.000830060258864389
0.000335554878460107
0.000350838412431383
0.0008452456623066
0.00114728625265692
0.00133278061799258
0.00143162555793411
0.00145265902698554
0.00139371880668818
0.00123797328480494
0.000935535056975684
0.000374763565806678
0.000363861873463336
0.000916247973172976
0.00125885516078729
0.0014842650646902
0.00162299476956717
0.00168490504697124
0.00167242913559108
0.00157998355420027
0.00138740785823546
0.00103923116659758
0.000410717692254679
0.000371272551972405
0.000969818559216459
0.00135578911993478
0.00161922417178933
0.00179596752105384
0.00189631435844097
0.00192494221129843
0.00188181024001996
0.00175905034257997
0.00153373001967359
0.00114540856716399
0.000425264770597412
0.000374145450353131
0.00101745505115624
0.00143821268097082
0.00173771280736144
0.00195028400636197
0.00208692445279013
0.00215316493946153
0.0021518505080347
0.00208124762533335
0.00193219685272773
0.00168179862075451
0.00128017528950292
0.000384219072976593
0.00105734420541217
0.00150993356676297
0.00184031902650112
0.00208615944749903
0.00225688827604926
0.00235817268476921
0.00239408282340895
0.00236597850873984
0.00227121009255027
0.00210132767598334
0.00184319152843245
0.00152061056524976
0.000393996401868875
0.00109046967258823
0.00156888451196176
0.00192826814750421
0.00220413537877468
0.00240654638203096
0.0025406134164867
0.0026107090880441
0.00261951604249203
0.00256735199510581
0.00245165689939
0.00226689390217379
0.00201309640205031
0.00176440817241215
0.000401986915311703
0.00111821459517762
0.00161784336678305
0.00200180249629791
0.00230496029537988
0.002536423358347
0.00270101193418734
0.00280291711363333
0.00284520868027631
0.0028293707711347
0.00275532542493562
0.00262107623151003
0.00242380189027688
0.00218131040430015
0.00194081058890418
0.000408013528481114
0.00114001765003506
0.00165734275170654
0.00206212152992657
0.00238926501934565
0.00264709932431501
0.00283983547905464
0.0029713497490694
0.00304464843487379
0.0030615215349317
0.00302268590303352
0.00292776988311869
1.61211480784748e-06
1.57914937832445e-05
1.34812251230129e-05
5.18558522739946e-05
0.000106936326996863
3.95089954301317e-05
0.000104053366476416
0.000227869002511055
0.000220884792718773
7.45662250801759e-05
0.000165021630935688
0.000354473537536095
0.000399429607877446
0.000335814330557999
0.000115842108079485
0.000224376072103355
0.000481215054811314
0.000572620586949842
0.000563518311331553
0.000448159472431593
0.0001615212185773
0.000252833504445344
0.000601165336795188
0.000744155716445226
0.00077583640384926
0.000721732785585538
0.000556010451714958
0.000210228325959592
0.000291331019703865
0.00071108042568133
0.000910405276502923
0.000983614065912087
0.000969951915036739
0.000871428966820771
0.000658070098136422
0.000259750506455389
0.000330713369530626
0.000818958609933515
0.00107032864178502
0.0011854864146153
0.00120881678567175
0.00115249292256907
0.00101046471162853
0.000752688274212136
0.000306973699067667
0.000346896946497989
0.000837605672180919
0.00113721254853698
0.00132099170775176
0.00141866714458094
0.0014390175958641
0.00137990891982273
0.00122468627509146
0.000924232636893302
0.000369491453134884
0.000361650116977273
0.000910184684816995
0.0012503086018576
0.00147395868456797
0.00161138969387827
0.00167236335806807
0.00165928056022453
0.00156659311642175
0.00137432863179961
0.00102783014240753
0.000405206976090062
0.000360269073841472
0.00096788444476241
0.0013488825451259
0.00161054769574153
0.00178598759931577
0.00188529699742972
0.0019131067705476
0.00186937169932049
0.001746267330089
0.00152106338597058
0.00113414609023147
0.000420024858373174
0.000372675044221348
0.00101311101735601
0.00143274894661468
0.00173068804129583
0.00194204814286823
0.00207765591338237
0.00214300232361637
0.00214091964958998
0.00206968431067879
0.0019201896716467
0.00166971346449422
0.00126885725652819
0.00038328879344854
0.00105408729278771
0.00150460816916528
0.00183487384027526
0.00207970772931194
0.00224947757477493
0.00234987105380201
0.00238495600402728
0.00235609602480467
0.00226066066933009
0.00209024866109636
0.00183181580234131
0.00150935639216592
0.000393354094153715
0.00108859512307494
0.0015659889231281
0.00192443868961193
0.00219949041231995
0.00240105678064701
0.00253428347705689
0.00260355827587331
0.00261157413483038
0.00255866098361834
0.00244227396193492
0.00225690936297861
0.00200277401210984
0.00175426188143492
0.000401689999960355
0.00111732508950834
0.00161641098716582
0.00199975585978991
0.00230222349315952
0.00253295163527329
0.00269677132912669
0.00279789224906695
0.00283940659108216
0.00282282063965489
0.00274807071725046
0.00261313187998039
0.00241507317776221
0.00217248872879683
0.00193245373508759
0.000408174751954004
0.00114035269784031
0.00165759855799612
0.00206205967235739
0.00238870618455594
0.00264592331768579
0.0028379696106667
0.00296875331952595
0.00304131069283051
0.0030574847058356
0.00301810572493831
0.0029230316820011
0.00277076828834982
0.00256408400571588
0.00232619254141581
0.00206918108752171
0.000412827777288441
0.00115782417827749
0.00168997040442725
0.00211229218229353
0.00245991181657993
0.00274076097043774
0.00295854302383519
0.00311676066337812
0.00321820235365856
0.00326464208506382
0.00325703949425197
0.00319570313778626
1.35790575464489e-06
1.40587361165748e-05
1.20127790148071e-05
4.77595395218433e-05
0.000100609815298864
3.63508280097476e-05
9.77976529199092e-05
0.000218328710751775
0.000211441032527277
6.98741144418326e-05
0.000157450948774967
0.000342896131852927
0.000386799190218618
0.000324435439339366
0.000109967184562459
0.000217505093615004
0.000468671238752749
0.000558180137283066
0.000549159605505083
0.000435835539079927
0.000154887978109312
0.000258188281821368
0.000588856259951128
0.0007287941974556
0.000759937158435483
0.000706738282191297
0.000543579654064682
0.000203296407467575
0.000285976532012729
0.000698736165404797
0.000894696587558954
0.000967003872420032
0.000953738715360252
0.000856710888752998
0.000646191617494075
0.000252964209814086
0.000325148769552791
0.000806036380544156
0.00105448331281129
0.00116869832644089
0.00119219767778694
0.00113688395530253
0.00099671599313934
0.000741872744616613
0.000300849340943643
0.000363835335570063
0.00091094029920453
0.00120879919946907
0.00136327181073052
0.00142252526698236
0.00140294986773126
0.00130664091810788
0.00112490969964204
0.000828271268628054
0.000342440280809633
0.000367466898313982
0.000902694038336336
0.0012397199050289
0.00146126818325977
0.00159716556341871
0.00165705483964572
0.00164329518295267
0.00155036910014088
0.00135852614904872
0.00101412008755854
0.000398392268453347
0.000357109971185881
0.00096215486790258
0.00134011398407877
0.00159971670056456
0.00177359151931747
0.00187168115314155
0.00189854855138656
0.00185412573770198
0.00173061034806805
0.00150548883177353
0.00112011927419619
0.000413361506057038
0.000369298222544567
0.00100793711555494
0.00142648944123696
0.00172174239679116
0.00193161175079717
0.00206599467371399
0.00213030129974333
0.00212733234298522
0.00205535282922713
0.00190528297908572
0.00165459090242799
0.00125460499038946
0.000381906374259572
0.00105009226298897
0.00149882680306645
0.00182775358658846
0.00207125024036643
0.00223987022168013
0.00233922587319311
0.0023733601321384
0.0023436238192312
0.00224738725132483
0.00207628022862176
0.00181735232468593
0.0014947278326898
0.000392384203335399
0.00108575271955566
0.00156156896969712
0.00191878844343938
0.00219297123762604
0.00239351911821611
0.00252576801281063
0.00259410280916612
0.00260121010189948
0.0025474189555811
0.0024301930821366
0.00224406711751995
0.00198940929124437
0.0017407500232889
0.000401056471440085
0.00111548821876187
0.00161361617209666
0.00199604683819001
0.00229762626102315
0.0025274795606513
0.00269041197256476
0.00279064489533222
0.00283127475398019
0.00281381037435263
0.00273818618149311
0.0026023809459146
0.00240355978842529
0.00216063591302029
0.00192080059549292
0.000407895181378591
0.00113951932613819
0.00165625139804826
0.00206012668896809
0.00238609433316139
0.00264256575378545
0.00283382319768829
0.0029637901358428
0.0030355185821341
0.00305086856136058
0.00301067562829338
0.00291474847946009
0.00276141872499319
0.00255424035500569
0.00231620168644807
0.00205969507086198
0.000412990724739047
0.00115819979397613
0.00169030442025181
0.00211234246991036
0.00245949451805252
0.00273974920410025
0.00295685088545973
0.00311433325957633
0.00321501420753605
0.00326071866993405
0.00325251909082098
0.00319095886086393
0.00307593231079288
0.0029068874090945
0.00269239202285162
0.00244502303702834
0.00216363494373585
0.000416423802179554
0.00117180577743413
0.00171631526850696
0.00215355338558953
0.00251888489237616
0.00282004646836378
0.003060383130072
0.00324304679484748
0.00337054265278124
0.00344446548742857
0.00346574224690063
0.00343483662335303
1.10938575599445e-06
1.22195865470412e-05
1.04390805423679e-05
4.32221166396768e-05
9.33467466382233e-05
3.28466836203988e-05
9.06732034665625e-05
0.000207246515709599
0.000200506465425282
6.45704648286283e-05
0.000148640299343982
0.000329360097495912
0.000372058868423984
0.000311188358023482
0.000103245374513726
0.00020856927936354
0.000453849142581321
0.000541226897457383
0.000532316265820975
0.000421395543172518
0.000147205882250854
0.000253318754126027
0.000574009797014611
0.000710697014501242
0.000741186870709539
0.000689030200807032
0.00052889153537726
0.000195162512253098
0.000280172493805673
0.000685999310083101
0.000876248559610693
0.000947334724192484
0.000934481486178221
0.000839186900595889
0.000632025130551078
0.000244892370144976
0.000318793783939674
0.000791173193203901
0.00103589055724906
0.00114876858851122
0.00117236496673942
0.00111818864191063
0.000980197304726963
0.000728834423697279
0.000293398914140676
0.000357303573979084
0.000895556357135374
0.0011900798403036
0.00134347035419081
0.00140276567741502
0.00138402687628198
0.00128929764526052
0.00110997808821714
0.000816854124703483
0.000336516241702896
0.000393087278090281
0.000998153648990621
0.00133973726525064
0.00153092240037564
0.0016240326811825
0.00163852591566068
0.0015798775115163
0.00144577882498302
0.00122672708516864
0.0008929682634527
0.00034938010774604
0.000372269273023509
0.000955314051303058
0.00132919728824473
0.00158634426165214
0.00175835873537248
0.00185502736388098
0.00188082425453003
0.00183564068044253
0.00171167893099423
0.00148667572440623
0.00110321194580341
0.000404583669266039
0.000366705627177859
0.00100187740269769
0.00141762778076803
0.00171052701152391
0.00191861138241713
0.00205154616953318
0.00211465025688845
0.002110668602189
0.00203782598129287
0.00188703430664053
0.00163593519043512
0.00123654723312745
0.000379828108517333
0.00104472956399426
0.00149208607262661
0.00181878087928167
0.00206049169397287
0.0022277407235201
0.00232588761136932
0.00235892762957505
0.0023281773476023
0.00223097718239774
0.00205894830433105
0.00179921617112418
0.00147597224755478
0.000391020491929199
0.00108187671672331
0.00155584392314231
0.00191154541257258
0.00218439445128967
0.00238369948537926
0.00251480554213608
0.00258205809472532
0.00258811970562601
0.00253330077732744
0.0024150515886554
0.00222791794586012
0.0019723962197504
0.00172318052669071
0.000400089194589682
0.00111270615705527
0.0016094346297805
0.00199060870363851
0.00229108319490037
0.00251990347571958
0.00268179930692358
0.00278101321091923
0.0028206297246047
0.00280214681936102
0.00272549115372753
0.00258865194467864
0.00238888859907766
0.00214532234880235
0.00190534014044687
0.000407279605564267
0.00113773723165885
0.00165353904628294
0.00205652971777251
0.00238160179377142
0.00263717036426178
0.00282751348636294
0.00295655055206458
0.00302733390898298
0.00304171987417324
0.00300053200240549
0.00290356423279849
0.00274919909807856