/*--------------------------------*- C++ -*----------------------------------*\
  =========                 |
  \\      /  F ield         | OpenFOAM: The Open Source CFD Toolbox
   \\    /   O peration     | Website:  https://openfoam.org
    \\  /    A nd           | Version:  12
     \\/     M anipulation  |
\*---------------------------------------------------------------------------*/
/*   Windows 32 and 64 bit porting by blueCAPE: http://www.bluecape.com.pt   *\
|  Based on Windows porting (2.0.x v4) by Symscape: http://www.symscape.com   |
\*---------------------------------------------------------------------------*/
FoamFile
{
    format      ascii;
    class       volScalarField;
    location    "100";
    object      nut;
}
// * * * * * * * * * * * * * * * * * * * * * * * * * * * * * * * * * * * * * //

dimensions      [0 2 -1 0 0 0 0];

internalField   nonuniform List<scalar> 
10166
(
9.43128022934249e-07
9.43614390207986e-07
5.25337947780517e-06
8.35863663456233e-06
9.42872829054475e-07
5.27241177924957e-06
8.36706670199776e-06
1.29173576633351e-05
0.000101444140088083
2.38461701865788e-05
9.39188455269385e-07
5.28122885462971e-06
8.35956798891144e-06
1.29516271103926e-05
0.000101455161226031
2.3844923225754e-05
2.21544448395558e-05
0.000212376335200159
0.000243284604060708
4.43000798735097e-05
9.31792445455727e-07
5.27605762929111e-06
8.33052650929358e-06
1.29527888323123e-05
0.000101251537995757
2.3799497091309e-05
2.21849292359057e-05
0.000212452736434828
0.000242958192798666
4.42733627342869e-05
3.22064121919461e-05
0.000296064569907295
0.000530324061746835
0.000370379195005975
6.57220524454117e-05
9.20287007698155e-07
5.25834334574463e-06
8.28093265001995e-06
1.2925577130876e-05
0.000100929820108104
2.370927871687e-05
2.21588054874903e-05
0.000212200189372333
0.000242235401926345
4.41745620245968e-05
3.22260538383593e-05
0.000296155877351213
0.000530239679423757
0.000369805356071279
6.56587996318797e-05
4.27137649836868e-05
0.00036448956310042
0.000753321548806452
0.000820686021928145
0.000475745514666196
8.24250870178543e-05
9.06053316181218e-07
5.22775223080503e-06
8.20907790525119e-06
1.28730154891824e-05
0.000100521494242721
2.35776145054665e-05
2.20900266859942e-05
0.000211726056270088
0.000241306919126973
4.40099375569025e-05
3.21680962623704e-05
0.000295855880366908
0.000529459101406699
0.000368849564252412
6.54983113371583e-05
4.27266671553393e-05
0.000364532419874565
0.00075341529190822
0.000820179847569813
0.000475099067804973
8.23302313613789e-05
5.35108449990845e-05
0.000423546803181967
0.000925231941126779
0.00121376437840587
0.00105708212458471
0.000554363969513221
7.53558761111053e-05
8.89210835429632e-07
5.18574004892095e-06
8.11981544411365e-06
1.27947549609028e-05
0.000100040528991131
2.33995266254192e-05
2.19806804020547e-05
0.000211062235817516
0.000240229240708395
4.3783956923808e-05
3.20515252103447e-05
0.000295268476513697
0.000528267135528352
0.000367616005657705
6.52554514370837e-05
4.26404801026898e-05
0.000364142404902416
0.000752650309175621
0.000818930954716252
0.000474071337415731
8.21348541689531e-05
5.35193655785031e-05
0.000423541178437581
0.000925276702756115
0.00121352039892795
0.00105621155643943
0.000553704745169744
7.53345843700012e-05
6.41270742604986e-05
0.000475755955122155
0.00106407093990322
0.00152790892412672
0.00161031657536108
0.0012387391923101
0.000589909265761723
8.07071330221456e-05
8.68955703148375e-07
5.13062285714396e-06
8.01189385356739e-06
1.26899481431278e-05
9.94712400562749e-05
2.31755016967967e-05
2.18290465696927e-05
0.00021021188821437
0.000239044500200613
4.35018812042634e-05
3.18776993140434e-05
0.000294411881608247
0.00052673361641832
0.000366164579785441
6.49455109784342e-05
4.24782224903434e-05
0.000363417507146214
0.000751322584443199
0.000817159409231801
0.000472728713647362
8.18530271764183e-05
5.34092394870931e-05
0.000423070009923458
0.000924399863423029
0.00121219624404027
0.00105467311676791
0.000552620803719202
7.52720238973742e-05
6.41315091526841e-05
0.000475720508101603
0.00106401160312935
0.00152771278386988
0.00160954585300405
0.00123773458363326
0.000589259259408573
8.06771189255067e-05
7.36836925229799e-05
0.000521691518000998
0.00117952516603589
0.00177868277762603
0.00207751873397875
0.00192935777237158
0.00137206074149464
0.000632219071308452
8.5638297207905e-05
8.43455228562146e-07
5.05811977332969e-06
7.87940307853091e-06
1.25548645358294e-05
9.87746583891167e-05
2.28992752974416e-05
2.16318709916834e-05
0.000209154822399448
0.000237668462877524
4.31536799612783e-05
3.16437854146966e-05
0.000293278416706038
0.000524876713651434
0.000364652862804068
6.4638646189471e-05
4.22420642897839e-05
0.000362366159236881
0.000749483819220589
0.000814937365244389
0.000471159901327263
8.15115761837594e-05
5.32079142695494e-05
0.000422222748967063
0.000922859637026613
0.00121011035094139
0.00105255945366014
0.000551213668629842
7.51728539752391e-05
6.40078255166536e-05
0.000475197826857029
0.00106300326905018
0.00152623963634566
0.0016077344248652
0.00123602092621419
0.00058827980356261
8.06077008393036e-05
7.36658843748353e-05
0.000521638194812672
0.00117939106393024
0.00177841668419128
0.0020768243887183
0.00192827659154362
0.00137091132816353
0.000631473419997023
8.5597498682583e-05
8.04217828630784e-05
0.000560702123181064
0.00127605475823758
0.00198172146862444
0.00245779284657628
0.00253966790140957
0.00218347525713828
0.00148683631393235
0.000669344494279172
8.96046681841851e-05
8.1229812652656e-07
7.71193865058208e-06
4.96298947978555e-06
1.23813405203415e-05
9.79366546534665e-05
2.25623948341548e-05
2.13825474196937e-05
0.000207848219337592
0.000236000801244924
4.26721869152453e-05
3.13443268155408e-05
0.000291840533904145
0.000522636366363637
0.000362943294779899
6.44885960582717e-05
4.19286816078409e-05
0.000360971404395538
0.000747121134211658
0.000812375062285367
0.000469605050687076
8.13293456546553e-05
5.29158967145292e-05
0.000421002010331995
0.00092068607684205
0.00120732117060906
0.00104998650042004
0.000549519707860484
7.50301917444459e-05
6.37933695074515e-05
0.000474273010225767
0.00106125981118026
0.001523815060007
0.00160504614580063
0.00123370189446936
0.000587003073497206
8.04982452486224e-05
7.35573932320608e-05
0.00052112427600425
0.00117830014726404
0.00177676912871637
0.00207475717841169
0.00192610613442382
0.00136907835406497
0.000630434544774651
8.55128491653121e-05
8.03362334359962e-05
0.00056064452060053
0.00127589702335194
0.00198139301799886
0.00245709998625537
0.00253857904529352
0.0021821320094487
0.00148548084864431
0.000668490213569724
8.95468205254963e-05
8.36364141463193e-05
0.000591626892803145
0.00135519013091979
0.00214712859027995
0.00276570465777882
0.00304961357522478
0.00292038154406426
0.00239681661665737
0.00158934934114437
0.000700272626541752
8.97730195562566e-05
7.75194436766638e-07
7.5041489991964e-06
4.84153886755841e-06
2.21455618281986e-05
9.69249446339004e-05
1.21605111298386e-05
2.10704017330399e-05
0.000206244546098051
0.000234048710427671
4.20655039935967e-05
3.09691907112508e-05
0.000290047372710078
0.000519872066989602
0.000360531412542756
6.38211556710273e-05
4.15295645121084e-05
0.000359195461931603
0.000744170835630279
0.000809307839846786
0.000468434384661957
8.28534329984119e-05
5.25312641195584e-05
0.000419388214396937
0.000917844856858802
0.00120383287558024
0.00104709773303906
0.000547915392319577
7.48294515502074e-05
6.34649826636119e-05
0.000472934048694725
0.00105879293783515
0.00152047531326668
0.00160154312304251
0.0012308613715686
0.000585381845257404
8.03392103983562e-05
7.34462172346417e-05
0.000520218727639108
0.00117643025065509
0.00177403336802466
0.00207152844019231
0.00192296866428469
0.00136659300032021
0.000629078880099528
8.53820348810369e-05
8.03376039175316e-05
0.000560113858498188
0.00127484942473869
0.0019796235884947
0.00245479001884397
0.00253599826796936
0.002179641876548
0.00148345166770456
0.00066732702774414
8.94391729946533e-05
8.36788130203029e-05
0.000591658558379394
0.00135511816032498
0.00214680786662159
0.00276500655229211
0.00304850490229286
0.00291894246508285
0.00239518241486051
0.00158776672255528
0.000699290197756228
8.96915011979159e-05
8.71527539188325e-05
0.000611352876231221
0.00141754861305917
0.00228086429532163
0.00301521865809246
0.00346746936845017
0.00354939825748125
0.00324160874236689
0.00258773381331561
0.00168891979796399
0.000727527855575016
7.26455009114731e-05
7.31682002919528e-07
7.25157726667592e-06
4.69048012146086e-06
2.16284491702912e-05
9.56868952021356e-05
1.1884251910126e-05
4.13779162278929e-05
0.00023186602863238
0.000204282479898573
2.06834577377339e-05
3.05058597735871e-05
0.000287831057734161
0.000516524002771605
0.000357590470915716
6.27197210205606e-05
4.1032006340325e-05
0.000356977683141711
0.000740511553708355
0.000805258727506746
0.000465635070131146
8.20735441636566e-05
5.20440920329088e-05
0.000417334662270042
0.000914255280400207
0.00119950185787203
0.00104387064437126
0.000547907018547335
7.45817602076264e-05
6.30318179511942e-05
0.000471164396386325
0.00105555779479647
0.00151616797147182
0.00159722130563865
0.00122776866386555
0.000583334769200744
8.01180725212983e-05
7.31266393720793e-05
0.000518844894350327
0.00117376923764592
0.00177022642326544
0.00206715197420231
0.00191889976639851
0.00136342559310475
0.000627347530292249
8.51919197169412e-05
8.08635404138817e-05
0.000559382425502258
0.00127302063398538
0.00197667463322216
0.00245109247357355
0.00253207989808814
0.00217607502300185
0.00148070499728802
0.000665807439580064
8.92761815052908e-05
6.91620273553016e-05
0.000589450888184749
0.00135411994047819
0.00214505312130826
0.00276251982355319
0.00304556617441836
0.0029158807457376
0.0023923407490376
0.0015854782017783
0.000697960886978339
8.95466000582753e-05
8.71506700222396e-05
0.000611660205427148
0.00141733273861213
0.00228067641340833
0.00301456296164243
0.00346635285807563
0.00354787730536301
0.00323979566419315
0.00258577757595691
0.00168707286734762
0.00072639888911564
7.25492200795301e-05
7.17495288380505e-05
0.000629685565738848
0.00146221372534395
0.00238724895773084
0.00321692304918709
0.00380783618757129
0.00407191066005229
0.00397463982617298
0.00352653607971401
0.00277666445363191
0.00181170194271433
0.000798121551814025
6.81662296296062e-07
6.94882678359565e-06
4.50541030001842e-06
2.09990561003491e-05
9.41661525923986e-05
1.15453279611122e-05
4.04893838193371e-05
0.000229259641620117
0.000201876331374059
2.02087908826387e-05
6.20500164366702e-05
0.000354532737266472
0.000512585248481943
0.000285107653868654
2.99382387391228e-05
4.04196130049335e-05
0.000354240303939883
0.00073602480087972
0.000800327918758322
0.000461396563961988
7.9352645485177e-05
5.14340895224441e-05
0.000414769547017004
0.000909791375171644
0.00119404967205995
0.00103897655872898
0.000544936146569281
7.42763485427104e-05
6.24874422938826e-05
0.000468911252314768
0.00105145703723005
0.00151075211214626
0.00159189296110843
0.00122478583271669
0.000581100626836342
7.98248951836765e-05
7.26891130240594e-05
0.000517001229829035
0.00117026973431991
0.00176527032315671
0.00206154538323861
0.00191392177851514
0.00135954591932794
0.000625136985005855
8.49266959383732e-05
8.06488406978151e-05
0.000558102121655105
0.00127032596402579
0.00197254518347983
0.00244599880452621
0.00252680579267274
0.00217138764617312
0.00147714448097218
0.000663854242929196
8.90417187408169e-05
6.90949928727476e-05
0.000588574734828974
0.00135253098046965
0.00214207905518006
0.00275848110090984
0.00304097759890058
0.00291130763939712
0.00238830214172366
0.00158238701014766
0.000696221078340674
8.9333328816607e-05
8.69618215308933e-05
0.000585631082044807
0.00141511862617505
0.00227902472402069
0.00301201224808677
0.00346314719241953
0.00354432437178015
0.00323622825544507
0.00258252550752365
0.00168444572036903
0.000724838785395225
7.23764667521401e-05
7.17559322287266e-05
0.000630075001442789
0.00146255444523795
0.00238705971476309
0.00321639349449177
0.00380675390263041
0.00407033582856567
0.00397266742298837
0.00352430731870125
0.00277434213485563
0.00180945385679749
0.000796785497709662
7.23922730762531e-05
0.000611593031719637
0.00149918419652184
0.00247036121485219
0.00337909830788914
0.00408420098317753
0.00450102385346784
0.00459049900187585
0.00434812771115152
0.00379932081214
0.00299771553760891
0.00205077749864712
6.25582692615547e-07
6.59118929581769e-06
4.28312151510403e-06
2.0246080297624e-05
9.22959433312574e-05
1.1134018256801e-05
3.93908774605257e-05
0.000226129586286597
0.000198939787002702
1.96345262611725e-05
6.08504743963605e-05
0.000350737391395036
0.000507817219424881
0.000281774858838778
2.92497393686446e-05
8.0023825637921e-05
0.000458152012299274
0.000794721200382316
0.000730586430353659
0.000350884248043441
3.96737562533565e-05
5.06821712391227e-05
0.000411604585348962
0.000904301147233017
0.00118738604913478
0.00103252837567514
0.00053920108516634
7.38623007836484e-05
6.17869466946643e-05
0.000466084404639867
0.00104634418933696
0.00150401325511408
0.0015849781574902
0.00121930364429982
0.000578305989021679
7.94474144751037e-05
7.21804228812874e-05
0.000514621771292662
0.00116581817471768
0.00175900748703151
0.00205450261295981
0.00190790447889519
0.00135499681368145
0.00062241681954709
8.45701823090343e-05
8.02819075350771e-05
0.000556231171582698
0.00126671834227254
0.00196714604777192
0.00243938865205921
0.00252006457246152
0.00216547949908723
0.00147262730290756
0.000661352432156316
8.87149507593132e-05
6.89244618858297e-05
0.000587221254565404
0.00135002235014812
0.0021378381044266
0.00275286790369939
0.00303469223960761
0.00290514873225182
0.00238295063825641
0.00157834846540762
0.000693983055686094
8.90364102070507e-05
8.68941606136128e-05
0.000582827792000872
0.00141357880451165
0.00227622668539713
0.0030078046632245
0.00345805210373638
0.00353887877385576
0.00323096995681819
0.00257793493074756
0.00168090649973985
0.000722785191268138
7.21224502791949e-05
7.17285656596076e-05
0.000627213251854554
0.00145189903697814
0.00238514053466746
0.00321389008025131
0.00380339319598619
0.004066402283395
0.00396846800734037
0.00352017200891446
0.00277058056038151
0.00180631215201598
0.000794647600501785
7.24038623244147e-05
0.000611715672216361
0.00149982702030262
0.00247020389623
0.00337868888050393
0.00408321749351123
0.00449944938906506
0.00458840983655922
0.00434565001946715
0.00379662810234973
0.00299491962156471
0.00204810572102768
0.00153096593581125
7.3232334544362e-05
0.000617661718643856
0.00151462646279208
0.0025367088456095
0.00350913240759927
0.00430797371083887
0.00485142658152708
0.00510012016619943
0.00504292255470765
0.00469277150993817
0.00408814138416519
0.00330882831225936
5.64351175667786e-07
6.17597759095602e-06
4.0214561102671e-06
1.93549053733222e-05
8.99951765378713e-05
1.06425857578889e-05
3.80904263071024e-05
0.000222388235613988
0.000195373175302305
1.89478240588701e-05
5.92957098375147e-05
0.000346128058813712
0.000502050925116476
0.000277726222475321
2.8423481283773e-05
7.87478052919836e-05
0.000453608433036814
0.000787876802564348
0.000723971425485619
0.000346794413681207
3.87729186190258e-05
7.33285367854271e-05
0.000536260129946005
0.00102585413827287
0.00117940832726631
0.000897600950877668
0.000407734431282979
4.97714893119532e-05
6.09138069166971e-05
0.000462591884399481
0.00104004398176781
0.00149574604053992
0.00157638146614813
0.00121150029666257
0.00057465759380928
7.8961926066243e-05
7.14428497178764e-05
0.000511621262087577
0.00116024191089752
0.00175121055968079
0.00204569026436644
0.00189978858937003
0.0013489132030207
0.000619133738148964
8.41094913638446e-05
8.00663362076709e-05
0.000553881326517748
0.00126205227843246
0.00196029575054707
0.00243103953077242
0.0025116084980139
0.00215815296433043
0.00146701833734786
0.000658220711911994
8.82744469776622e-05
6.88020231344182e-05
0.000585550759948902
0.00134636757153468
0.00213223293898796
0.00274554058726859
0.00302654072195333
0.00289722450654029
0.00237609328242479
0.0015731640908713
0.000691105942384805
8.86362277645887e-05
7.04844616090378e-05
0.000579457936815587
0.00141101467083145
0.00227210511274933
0.00300190222427642
0.0034510062583932
0.00353144037159373
0.0032238829967853
0.00257182835074476
0.00167627002060266
0.000720138542813213
7.17904912212977e-05
7.16884655701505e-05
0.000623900673449128
0.00144868898055231
0.00238254450949436
0.00320969157399349
0.00379796983240257
0.00406026891852754
0.0039621341859561
0.00351414263908789
0.00276529813064201
0.00180209300541777
0.000791866723534501
7.23762601561218e-05
0.000611211883292061
0.00149730893441939
0.00246670133007134
0.00337621138824496
0.00407981764391668
0.0044952662298279
0.00458371035537841
0.00434073552371349
0.00379181443256583
0.00299045364447642
0.00204403244174481
0.00152747675907391
7.32475215930317e-05
0.00061772147860315
0.0015148995403299
0.00253707534744873
0.00350881453027313
0.00430712306280715
0.00484991969334709
0.00509798806659419
0.00504025809436919
0.0046897397766629
0.00408492362098585
0.00330559368937766
0.00263190542232974
0.00226245053732043
7.39471582338319e-05
0.000625125907670536
0.00153579821337758
0.00258727401628415
0.0036139330334999
0.00448896766991422
0.00513658853207613
0.00551852556321404
0.00562096262306224
0.00544923867245635
0.00503032199796617
0.00442242980922477
4.99305500485525e-07
5.70367819516166e-06
3.72077893237154e-06
1.83120229170275e-05
8.71781736026305e-05
1.00658600118935e-05
3.65515385955867e-05
0.00021787578782865
0.000191064843509587
1.81364837686303e-05
5.75235479965278e-05
0.000340659967508396
0.000495123205502171
0.000272840795136649
2.74419720842545e-05
7.69294574214848e-05
0.000447885857099529
0.00077958406568864
0.000715962963294039
0.000341847148974048
3.76954684878116e-05
7.27747232983333e-05
0.000531515898981559
0.0010174731053266
0.00116971378903597
0.000889455621033202
0.000403029794537951
4.86695421887395e-05
7.83788321886932e-05
0.000570544693445015
0.00120416699350025
0.0015663033972992
0.00148569827361359
0.00103234739385954
0.000458330151030247
5.98687756589227e-05
7.04791348941288e-05
0.000507927606695501
0.00115335548462991
0.00174161468173129
0.00203485151282673
0.00188949670767122
0.00134116455189548
0.000615163338488849
8.35387321109017e-05
7.94062191390455e-05
0.000550873101594571
0.00125620269050063
0.00195173200347114
0.00242063932283607
0.00250094317926345
0.00214879188799298
0.00146000149170594
0.000654348349497126
8.77043128452951e-05
8.24205021447739e-05
0.000584917889718035
0.00134173741115894
0.00212504823088006
0.00273625059655425
0.00301623645835371
0.0028872374487634
0.00236746558611124
0.00156662605069013
0.000687471411020335
8.81007444929249e-05
7.01750332085322e-05
0.000579345211106577
0.00140755765928333
0.00226643313766192
0.00299415201669386
0.00344180935558982
0.00352177461491183
0.00321471378504872
0.00256393908166795
0.00167027838984326
0.000716757515158593
7.13784042102799e-05
7.14941926800912e-05
0.000593296095748431
0.00144436843306693
0.00237848142215029
0.0032037193785771
0.0037904140691486
0.00405181841531676
0.00395350286393017
0.00350601522342505
0.00275825662199094
0.00179655929652303
0.000788288454004722
7.23217142960069e-05
0.000610231919166932
0.00149370135759757
0.00246356642563219
0.00337212145959214
0.00407424085716471
0.00448864918287348
0.0045765097988599
0.00433342260890414
0.0037848500982308
0.0029842056293514
0.0020386178992888
0.00152389257501567
7.32187819040912e-05
0.000617410282720472
0.00151391689948563
0.00253516236012224
0.00350619425217811
0.00430375611496506
0.00484561925035138
0.00509294706003647
0.00503472543168835
0.00468400179933303
0.0040792513251865
0.0033001125897011
0.00262649198571957
0.00225818510327757
7.39649411028113e-05
0.000625187040615415
0.00153593308235952
0.00258750046700375
0.003613849739444
0.00448825653250468
0.00513520582131689
0.00551643532918727
0.00561821083398989
0.00544595338382646
0.00502669662172629
0.00441870117513086
0.00376198665772272
0.00321435025626762
0.00274167072441768
7.45206031528967e-05
0.00063148082090142
0.00155546571351101
0.00263080532177095
0.0036984746408996
0.00463552598327525
0.0053682369263499
0.00586050302766134
0.00609773286562849
0.0060806699099721
0.00582688585747356
0.00537724456590177
4.32026381390391e-07
5.17867216835529e-06
3.38391215965921e-06
1.71116398383638e-05
8.37681482135537e-05
9.40075878036423e-06
3.47397036523863e-05
0.000212418618977039
0.000185895811103782
1.71923633530712e-05
5.5396985151384e-05
0.000334127138173626
0.000486809268817066
0.000266988815341253
2.62900685915603e-05
7.5295340957884e-05
0.000441330297732723
0.000769678582397107
0.000706332939784496
0.000335902893681303
3.64188564802014e-05
7.21990854984294e-05
0.0005256731220208
0.00100718369449306
0.00115799565981839
0.000879612556328733
0.00039735236168958
4.73516103673096e-05
7.77119546263192e-05
0.000566193893091794
0.00119482557935951
0.00155399503620344
0.00147350300347611
0.00102299564501742
0.000453141746154652
5.85933244205295e-05
8.28819189836951e-05
0.000610497433660268
0.00133245928892005
0.00187770298725474
0.00202173070010093
0.00172990337880577
0.00114493658953382
0.000503411842084151
6.9379486059821e-05
7.85142236339838e-05
0.000547202811232234
0.0012490104160695
0.00194115654366043
0.00240783583533087
0.00248776716189826
0.00213717677624088
0.00145141848262239
0.000649752832242821
8.70013230464486e-05
8.19196986354782e-05
0.000582366472107903
0.00133596949043341
0.00211603038476751
0.00272464952452094
0.00300337341893672
0.0028747241184796
0.00235666020757692
0.00155848186737696
0.000682926158607258
8.74140535077234e-05
6.9186494996626e-05
0.000601893170922096
0.00140433605181692
0.00225918093044827
0.00298427223213858
0.00343013844469267
0.00350952531737578
0.00320310209932699
0.0025539320890495
0.00166265782104009
0.000712531088197878
7.0874619034622e-05
7.13307752489978e-05
0.000589547490718156
0.00144181930567901
0.00237290057995396
0.00319576386680358
0.00378050612328251
0.00404077921099373
0.00394226474563328
0.00349545440492927
0.00274910383244936
0.00178940374111389
0.000783826666462107
7.22377920551515e-05
0.000606612628002815
0.00147939005280263
0.00245893506904113
0.00336616129325737
0.00406640677395857
0.00447947026702864
0.00456662328799244
0.0043234767385111
0.0037754601609455
0.00297586566353465
0.00203150831798429
0.00151770933433825
7.31594466223466e-05
0.00061679259598137
0.00151196087573698
0.00253185422525552
0.00350203936060545
0.0042981575616496
0.00483871567453652
0.00508511928297021
0.00502637528599475
0.00467554881962188
0.00407108352690834
0.0032924628012685
0.00261956729386188
0.00225229144135364
7.3937016626149e-05
0.000624901536439383
0.00153514393105946
0.0025860264723992
0.00361151832988489
0.00448494719559325
0.00513089764052741
0.00551121260960642
0.00561225364723103
0.00543949041008605
0.00501997604262324
0.00441192407441682
0.0037551637061195
0.00320827716966594
0.00273788034853029
7.45401798707146e-05
0.000631555500823808
0.00155559351177704
0.00263096252078479
0.00369843001378173
0.00463498366252403
0.00536701354453859
0.00585853157815904
0.00609500364862993
0.00607725987717773
0.00582295094124636
0.00537301610474618
0.0048074555038892
0.00422909769156654
0.00367831863423562
0.00305522435294644
7.49676677073582e-05
0.000636582675268697
0.0015718322834317
0.00266730352261837
0.00376773229909067
0.0047543287568802
0.00555624932708963
0.00613923987773247
0.00648898996430219
0.00660365103952013
0.00649402225020638
0.00618755589045375
3.63933307297316e-07
4.60861497066549e-06
3.01503766553223e-06
1.57538960641258e-05
7.96897805858687e-05
8.6480242111371e-06
3.26406549659521e-05
0.000205858257716537
0.00017974254129764
1.61089463486407e-05
5.28431757245531e-05
0.000326284578890121
0.000476846797784547
0.000260034864476295
2.4955655043834e-05
7.29831156608239e-05
0.000433282419799788
0.000757857386058347
0.000694810846242929
0.000328814899097776
3.4922711371553e-05
8.65877767334418e-05
0.000520790302147544
0.00099511020729711
0.00114395474177609
0.000867791822823716
0.000390545134213639
4.57900947564641e-05
7.69697260686714e-05
0.000562864209595597
0.00118359909314472
0.0015390829906342
0.00145878483549196
0.00101170436489123
0.000446879997597797
5.70624302292951e-05
8.21364330434352e-05
0.000605415559211718
0.00132228765242209
0.00186325142791912
0.00200579879915219
0.00171568311441324
0.00113469031330679
0.000497880148502586
6.79951702193586e-05
8.62864486971084e-05
0.00064455338216458
0.00144131770766684
0.00212339903458179
0.00247187233325172
0.00239221608288006
0.00192821930883666
0.00124017536739526
0.000542479540860544
7.75057131014859e-05
8.32373937505975e-05
0.000579254674314213
0.00132889666550223
0.00210487975253179
0.00271032527426693
0.00298751452344184
0.00285929128890098
0.00234337179736261
0.00154861451244453
0.000677621136476156
8.65245124046258e-05
6.88426487572944e-05
0.000601844188836163
0.00139923793740984
0.00225010579418666
0.00297188724015528
0.00341555586298559
0.00349422056657592
0.0031885769824397
0.00254140131663831
0.00165311757476105
0.000707098947663197
7.02117718470682e-05
7.08159714858883e-05
0.000590772099577065
0.00144692308258656
0.0023661494785531
0.00318559108310068
0.00376788771591546
0.00402674579784002
0.00392798212972367
0.00348201100597143
0.0027374048608622
0.00178028273875049
0.000778605862107228
7.21041824836768e-05
0.000604802498300346
0.00147402038596616
0.00245355672765624
0.00335815532835306
0.00405606892172216
0.00446743141637935
0.00455369694002839
0.00431049864656086
0.00376320650238325
0.0029649739876908
0.00202232574103932
0.00150918960137947
7.30701098605101e-05
0.000615687875258949
0.00150756498958828
0.00252522258665492
0.00349597367560634
0.00429020510413498
0.00482907394584254
0.00507430473181551
0.0050149460432518
0.00466406811595312
0.00406006421661334
0.00328222040572721
0.00260996349355872
0.002243195965924
7.38777103248323e-05
0.000624335010406756
0.00153359734638643
0.00258319274280928
0.00360735616058098
0.00447936065725955
0.00512387243226669
0.00550299155234876
0.00560315203940079
0.00542985059014806
0.00501014342311052
0.00440218789410256
0.0037457137116934
0.00319954228662511
0.00273054466421068
7.45135430750665e-05
0.000631286898014981
0.00155484960463808
0.00262957540181783
0.00369623234469891
0.00463180496324294
0.0053627761523665
0.00585326753351228
0.00608881606624235
0.00607030708081562
0.00581542415977539
0.00536511350037837
0.00479932512340069
0.00422127410339028
0.00367197798248586
0.00305166854529047
7.49855760356647e-05
0.000636668874259759
0.00157198708072206
0.00266748513472892
0.00376773573393526
0.0047539170699091
0.00555521141057022
0.00613744640151973
0.00648638351183173
0.00660025432136621
0.00648993404795592
0.00618294776283711
0.00572990569317787
0.00519774114016859
0.00463247715075135
0.00401011802385297
0.0032658175134787
7.53103609365884e-05
0.000640564105926896
0.0015849500399229
0.00269703564777036
0.00382418125485357
0.00485071219412292
0.0057086925236857
0.00636595081452734
0.00680897742540015
0.00703466545700633
0.00704938405842322
0.00687118676798861
2.9743787982982e-07
4.00244147282703e-06
2.61906678288509e-06
1.42472436113842e-05
7.48597667026042e-05
7.81123344830677e-06
3.02462336914514e-05
0.000197996870524414
0.000172478861352871
1.48823604974326e-05
4.98651339606108e-05
0.000316931759592173
0.000464963087015685
0.000251829584540176
2.34273454848756e-05
6.99709127077265e-05
0.000423557134219811
0.000743734755601015
0.000681091334298625
0.000320428478332935
3.31891136459886e-05
8.4970009196212e-05
0.000512333373811857
0.000980571693195686
0.00112719978393478
0.000853681338143955
0.000382441173229435
4.395744080088e-05
7.62029417621011e-05
0.000576085891299685
0.0011714280843055
0.00152132341575965
0.00144113655419861
0.000998152868330377
0.000439371702629092
5.52414350174978e-05
8.13095054081007e-05
0.000600160838529204
0.00131146757323277
0.00184586852983518
0.00198657566285847
0.00169851610579188
0.00112230475333554
0.000491188198007362
6.63112120871079e-05
8.546350292636e-05
0.000638715793925744
0.0014296170679019
0.00210686579841057
0.00245256518551048
0.00237324830019624
0.00191248006990162
0.00122935412875628
0.000536743071775477
7.6164734112566e-05
8.59847124955335e-05
0.00067158636562526
0.00153701852351229
0.0023273728621773
0.00284056223889678
0.00296816341310185
0.00269279479666528
0.00209118685514987
0.00131983586292054
0.000572495154144343
6.73877268877437e-05
8.43579132517405e-05
0.000600568725413551
0.00139291586433276
0.00223887564871657
0.00295655180308703
0.00339753687335425
0.00347532572633242
0.00317064736840835
0.00252598227908443
0.00164166323323754
0.000700502631103164
6.91908237114749e-05
7.05289076078337e-05
0.000590786138285182
0.00144387741613067
0.00235743126011541
0.00317281918363052
0.00375207695994813
0.00400918679467513
0.00391009738014716
0.00346513239030832
0.00272266800825184
0.00176878515397752
0.00077120409655465
7.18755954793094e-05
0.000602793940927769
0.00147104973541681
0.00244836971242244
0.00334797589133225
0.00404285901191188
0.00445208459830663
0.00453722902555368
0.00429394342607232
0.00374751165046316
0.00295095101238807
0.00201066855828029
0.00149852093595139
7.29413350454551e-05
0.000614403504475871
0.00150374090309636
0.00251895871374209
0.00348796290287954
0.00427964612315025
0.00481637390926503
0.0050601165984057
0.00499998716576263
0.00464904720141582
0.00404561566072172
0.00326875492337637
0.00259709492310222
0.00223073401750666
7.37876739170757e-05
0.000623469178468827
0.00153110514443048
0.00257855321637231
0.00360102520664524
0.00447135874477186
0.00511398373439357
0.00549156289165959
0.00559062600858397
0.00541669056769277
0.00499680087078703
0.00438902819294992
0.00373285506196887
0.00318712423300787
0.00271927793066523
7.44556998786149e-05
0.000630741130697473
0.0015533937110796
0.002626915600046
0.00369219281726009
0.00462627622361215
0.00535574309520331
0.00584485633178983
0.00607924211748058
0.00605982297829674
0.00580429795717779
0.00535360802318905
0.00478768140225495