/*--------------------------------*- C++ -*----------------------------------*\
  =========                 |
  \\      /  F ield         | OpenFOAM: The Open Source CFD Toolbox
   \\    /   O peration     | Website:  https://openfoam.org
    \\  /    A nd           | Version:  12
     \\/     M anipulation  |
\*---------------------------------------------------------------------------*/
/*   Windows 32 and 64 bit porting by blueCAPE: http://www.bluecape.com.pt   *\
|  Based on Windows porting (2.0.x v4) by Symscape: http://www.symscape.com   |
\*---------------------------------------------------------------------------*/
FoamFile
{
    format      ascii;
    class       volScalarField;
    location    "100";
    object      omega;
}
// * * * * * * * * * * * * * * * * * * * * * * * * * * * * * * * * * * * * * //

dimensions      [0 0 -1 0 0 0 0];

internalField   nonuniform List<scalar> 
10166
(
3.73734663854203
3.73734487653419
3.98682949425404
3.04792891992872
3.73734683985718
3.98682922048463
3.04791082376153
4.20371023785781
1.340120358348
3.02836587028651
3.73733350554384
3.9868310714185
3.04789451541668
4.20371440953088
1.34044281218996
3.02834897772128
4.33730282406928
1.24223743372773
1.11735739350428
2.99244062338665
3.73731582805764
3.98681553151847
3.04791604242378
4.20373449479993
1.34112127902865
3.02833405453493
4.33731369687676
1.24176915016524
1.1181213057159
2.99244098282366
4.40627449819359
1.30324757889484
0.858890865392063
1.09598180329737
2.97494712016125
3.73728289906442
3.98678993735601
3.04791966218962
4.20369924479019
1.34139010409166
3.02835995272
4.33733144049942
1.24119882543703
1.1190550318123
2.99244628363054
4.40628319129144
1.30271872494202
0.858635590578497
1.09670438604487
2.97495194081776
4.43508113476163
1.37124912701857
0.828696599795664
0.772906429788359
1.12313908607219
2.97384340207409
3.73722973675161
3.98675821574082
3.04792864474771
4.20365931556736
1.34109769140408
3.02837681923328
4.33729921483224
1.24031895375808
1.11964970310993
2.99246712372956
4.40627808919517
1.30191940713185
0.858361439623645
1.09721452766857
2.97496779298961
4.43508034783237
1.37087648276261
0.828269801258333
0.772853926711302
1.12352635808323
2.97385749258504
4.43972761467074
1.42871385681167
0.844794402124826
0.692210224520607
0.763516283443161
1.17873820864913
3.64232807885486
3.73714603665576
3.98672889006615
3.04794660801047
4.20366553265275
1.34007960885435
3.02840461655663
4.33726426478276
1.23906655714146
1.1197448803988
2.9925068648141
4.4062724193371
1.30078467564259
0.857816713358868
1.09741698943181
2.97501011985772
4.43507820588433
1.37011928639262
0.827725920403145
0.772606244397551
1.12359399662701
2.97389376417328
4.43972507770049
1.4284845124213
0.844442432182272
0.691928890296038
0.763478281169868
1.17877777677653
3.63959672541409
4.43311312448366
1.47507708539119
0.870600662701187
0.67507435033083
0.650598253329249
0.785096801521636
1.29296192569506
3.8825241891983
3.73702837175999
3.98662541825878
3.04797919623742
4.20368342545717
1.33838498193353
3.02845535891562
4.33728853117834
1.23738288047975
1.11913120070922
2.99257627570269
4.40626316854833
1.2992982235975
0.856919537677937
1.09719450015468
2.97509421576225
4.43507132474127
1.36899283720721
0.826912836650287
0.77207506043865
1.12333513068234
2.973976907398
4.4397224556938
1.42779680590207
0.843879601779317
0.691479007675577
0.763121023769952
1.17851726001632
3.63540230259587
4.4331099421991
1.47495122106822
0.870350180945779
0.674778769461844
0.650385077066432
0.784904484301291
1.29267337954129
3.8792072507182
4.42457580373805
1.51260387538767
0.896867914381321
0.678798261229705
0.610527490242703
0.646274227137179
0.823299644483781
1.37413261217761
4.11310522634163
3.73686974768893
3.98648889005166
3.04802171258283
4.20358970897507
1.33613023188988
3.0285334679832
4.33730945120029
1.23520244114121
1.11790750641745
2.99269303300306
4.40627327865508
1.29742106627584
0.855588191361623
1.09612921229726
2.97524429128111
4.43507256411048
1.36750362349011
0.825787806420988
0.771195660082455
1.12259265546979
2.97414289477697
4.43971682832276
1.42671966578271
0.843032120763145
0.690772530573493
0.762451757659471
1.17785654250325
3.62961538632585
4.43310677909879
1.47431557463781
0.869819271461167
0.674296625314697
0.64991610816536
0.784380076618734
1.29184811993403
3.87420006463118
4.42457218311683
1.51255556312924
0.896695507108113
0.678543422023271
0.61026787139862
0.645992385637655
0.822966935569811
1.37367340624176
4.10919717893085
4.41827541203547
1.54385685830511
0.921418087605662
0.689857151897381
0.598234850935217
0.588421025129142
0.658034410332638
0.860805668283022
1.4509418172179
4.35836099427793
3.73665858203077
3.04806989170938
3.98636078489982
4.20349822402139
1.33307761744022
3.02863823034674
4.33726331282912
1.2324827065871
1.11623313986557
2.99286846145398
4.40627945416626
1.29508182588486
0.853770401345729
1.09434683052447
2.97549175495296
4.43507955005009
1.36562154594625
0.824303235380707
0.769816870152465
1.12096822357698
2.97444235521348
4.43971858975062
1.42527549701526
0.841880571083021
0.689769326319634
0.761371301393888
1.17672818538755
3.62232506660833
4.43310158826218
1.47327349974781
0.868989753333185
0.673568770181845
0.649180815376747
0.783505146333612
1.29046001542125
3.86741879001072
4.42456849052
1.51190561667798
0.896192042898343
0.678076030065922
0.609785889882892
0.645438593281133
0.822248573252955
1.37253366483089
4.10345289637537
4.41827119964832
1.54381004761055
0.921296213223663
0.689643590427486
0.597978879504464
0.588116482255369
0.657659995886658
0.860356144122593
1.45031412442386
4.35378990297481
4.41469217024529
1.57188028962652
0.944368665992498
0.703495528207424
0.597871271392279
0.563654206962165
0.585194859382317
0.674987172391048
0.89624969540935
1.52941034718406
4.73927648730183
3.73636235343333
3.04812625398518
3.986185320352
3.02876591225821
1.32898094248405
4.20343716457309
4.33723155881398
1.2291360816811
1.11386794433686
2.9931040402326
4.4062697201193
1.29221300959699
0.85149481111862
1.09262212687755
2.97586053908107
4.43508704871196
1.36328433684263
0.822402620047117
0.767953412180359
1.11770758590472
2.97493374223225
4.43972577360782
1.42343262715788
0.840390414846391
0.688408561142081
0.759724610371315
1.17451904768069
3.61503632471873
4.43310300547819
1.47186927776057
0.867857909321994
0.672569885783052
0.648132239488673
0.782183829461572
1.28849744448363
3.85867495708121
4.42455931245526
1.5108345285536
0.895376975837131
0.677365511423552
0.609069081332275
0.644606274876377
0.821149344446314
1.37075279328511
4.09574720370229
4.41826325714508
1.5433632781867
0.920768684523047
0.689196474377801
0.597514130973864
0.58758585066847
0.657001223688618
0.859468654530256
1.44892563897144
4.34714515699651
4.41468721951374
1.57159850727123
0.944235662841522
0.703308307560988
0.597632395090957
0.56335719774928
0.584822570200818
0.67452141842017
0.895683970572244
1.52864986655627
4.733878038495
4.41298508368783
1.60734196825377
0.966655838879579
0.718048472177733
0.603028433423331
0.554277900147024
0.550351303398117
0.589982282684837
0.692104215647131
0.926761964192618
1.61194077468734
6.03845063833642
3.73596959923867
3.04819066488856
3.98586946022099
3.02890867126104
1.32371342296328
4.20334849746619
2.9933869959525
1.11023876300288
1.22503075483262
4.33720759393207
4.406257048253
1.28873560183968
0.848652601534793
1.09038751332219
2.97635143984174
4.43508082076865
1.36041597395025
0.820043751401495
0.765824038507153
1.11543300562631
2.97566046411067
4.4397363012057
1.42113428557446
0.838510740314586
0.686662881078725
0.757404042447645
1.16794406768447
3.61109729242433
4.43311056279028
1.47006889075518
0.866393186358571
0.671263933920718
0.646707963151824
0.780152423155069
1.28598545816233
3.84797073784762
4.42456836302916
1.50943478570071
0.894261842270233
0.676395851194478
0.608091734373225
0.643445912711752
0.819616896150389
1.36828106129088
4.08580070597369
4.41826191207949
1.54223287040493
0.919910506710886
0.688504935972038
0.596832359064495
0.586824473111908
0.656056497720093
0.858171325682626
1.44682748419681
4.33827054465903
5.19969929231644
1.57550089128348
0.943712225162349
0.702860032876849
0.597190513244534
0.562860878050432
0.584224624852454
0.673755065046781
0.894636935831597
1.52703276132978
4.72582271434614
4.41297541678713
1.60663714498273
0.966685849972567
0.71785745821293
0.602805582210137
0.55399874215844
0.550000776642362
0.589540223858699
0.691549734785453
0.926098329292165
1.61118585095951
6.03164972291698
5.2419021813398
1.63166500456072
0.990421931611783
0.732903296945502
0.610844917340132
0.552672938114369
0.53374030920355
0.547056230852097
0.597080822008287
0.705065607642056
0.942316641384233
1.63261026548238
3.73542787649022
3.04825990314831
3.9855456509152
3.02906048208857
1.31716396071479
4.20315491605601
2.99369013360271
1.10549026267022
1.22005188502826
4.33717479276652
2.97692671079507
1.08664758790698
0.844987981285254
1.28454207939294
4.40625601921441
4.43507649884831
1.3569220758695
0.817143405626784
0.763172333097017
1.11380477106355
2.97661531463781
4.43972738839098
1.4182997643938
0.836181118502288
0.684539484014321
0.755070815686631
1.16491076885747
3.59586214114432
4.4331206098495
1.46781902717222
0.864548362963243
0.669611812594838
0.644879463639804
0.776928568365677
1.28214048146346
3.83560007932798
4.42457291811416
1.5076752132773
0.892815962881608
0.675137666645626
0.606817506641455
0.641872117940555
0.81754961520636
1.36509912526848
4.07335743330039
4.41826797085682
1.54076313838851
0.918771945077132
0.687559647663615
0.595915323191964
0.585804974239635
0.65478914950943
0.856429057848945
1.44395589341213
4.32683212275025
5.19870313192893
1.57517181997
0.942724829164046
0.702159989039047
0.596541487668434
0.562162147567137
0.583397656439772
0.672691715240449
0.893145557292137
1.52461759880346
4.7150487207359
4.41296284616072
1.67073454295013
0.966958240793084
0.717396573292785
0.60238038034701
0.553536433483736
0.549458593326594
0.588869775111748
0.690677212269827
0.924903318254412
1.60937532210903
6.01996643527643
5.24211454851271
1.63087283370074
0.990143653402091
0.732759851457993
0.61062948574656
0.552413176043841
0.533416875642416
0.546651971682992
0.596572968176621
0.704436555528951
0.941659415891741
1.63217526374894
5.3190124690289
1.73335523220784
1.01038693287093
0.747636935863234
0.619869575985746
0.555166595733588
0.526719190264571
0.524707413637003
0.54790462822417
0.602490832309359
0.707229111313543
0.90789215878603
3.73469727188945
3.04834542787007
3.98511434753578
3.02922978171877
1.30925229772651
4.20297355686943
2.99398894231777
1.09950125175946
1.21404651835344
4.33711646227885
2.97751038124108
1.08203747266577
0.840484589920279
1.27951467708719
4.40625462546618
2.97770477048577
1.10911796047705
0.759639823631981
0.81357254235781
1.35269568420382
4.43507145712729
4.43972348980385
1.41482709986088
0.833320115168794
0.681919106171215
0.752487196144936
1.16496206784969
3.57285075307201
4.43311220887664
1.46503103355063
0.862261525153885
0.667569605760063
0.642736655028506
0.774227472155898
1.27744120584158
3.81900992229765
4.42458326744023
1.50554689960681
0.890995527271368
0.673551004393777
0.605212864854461
0.639811599074886
0.814755486445445
1.36100958755399
4.05820789333993
4.41827284437568
1.5391751544333
0.917321149580869
0.686332427801857
0.594734016228026
0.584487332046101
0.653142719585201
0.854186449439671
1.44025226706038
4.31246803602552
5.20249623518758
1.57420531861166
0.941478315468789
0.701213054494132
0.59567047470356
0.561241499055064
0.582316699209128
0.671302986448622
0.891180046557112
1.52131980283864
4.70114604424764
4.41297108555438
1.67513444458317
0.965910739999985
0.716647774814436
0.601752113571747
0.55288920893895
0.548722403265608
0.587968317557072
0.689491893246649
0.923217497244348
1.60665026211016
6.00417225577949
5.24002620681067
1.6360009710312
0.995671645321381
0.732396729516234
0.610212823914202
0.551980680983682
0.532923361343145
0.546060021283007
0.595831580325023
0.703468107441912
0.940362091350813
1.63051285122354
5.31941061487818
1.73328068163452
1.0099754340238
0.747527816646029
0.619669178672162
0.554923585138502
0.526422447250228
0.524341486855805
0.547451193292011
0.601929141500708
0.706579453281764
0.907329929847312
1.00272011290325
5.38266174786754
1.76664029704921
1.03676926313802
0.761112661289001
0.629158365288721
0.559783416372082
0.525000055105859
0.513418370158626
0.521253420588396
0.549283585574271
0.60243788572466
0.688593182242622
3.733766519248
3.04848279784358
3.98461399244282
3.02945369890253
1.29989538243498
4.20280704486236
2.99429093298815
1.09209190836786
1.20686199772979
4.33704826478476
2.97802310628868
1.07634930752795
0.835012092010165
1.27349828691958
4.40623995271829
2.97874375237542
1.10400541565561
0.755361827519133
0.809249231567698
1.34760924401754
4.43507732673533
3.55955219702269
1.15772992862844
0.748623552982727
0.678656335379329
0.829827822238331
1.41059756307509
4.43971393964926
4.43310796803096
1.46158967566201
0.859449467497459
0.665057387106404
0.640156816181762
0.771709398745855
1.27218038046849
3.79892971577167
4.42457434890165
1.50283691780348
0.888740451983112
0.671584924038618
0.603250195262992
0.63752139621507
0.811640589361336
1.35576972071744
4.03940965122912
4.41828350964943
1.53710659125234
0.915533814875187
0.684785441584891
0.593252099004692
0.582834848310863
0.651062673763699
0.85135306721768
1.43555930861938
4.29471842503283
5.19083793494173
1.57239913439697
0.94005834881565
0.699990623601958
0.594550338791205
0.560069665122093
0.580946230772112
0.669546549618357
0.888691431053074
1.51706158770273
4.68364138592972
5.29756943487796
1.67978462730098
0.964731995517927
0.715658870112236
0.600909290185556
0.552040560537733
0.547773133826122
0.586813605817014
0.687969577127868
0.92101472987466
1.60292353461704
5.98378158980047
5.23595918398814
1.64114052224266
0.99575428908394
0.731592928835945
0.609589483566922
0.551374479157034
0.532258787285448
0.545278405355325
0.594854304615981
0.702166681650259
0.93851993545946
1.62777774132787
5.31716507853803
1.73306534101166
1.01050137044101
0.747625458497781
0.619273248381635
0.554515640275776
0.525970584413382
0.523813818523107
0.546811361313398
0.601125443747202
0.705541518855234
0.906024347860102
1.0010405009559
5.38321050101483
1.76682895209409
1.03664419295016
0.760895838745779
0.628980970931807
0.559557764436957
0.52472773054734
0.513087279333315
0.520849816926488
0.548791478534147
0.601856834885369
0.687993927771235
0.767805517280737
0.783060821993142
5.43419530365168
1.78833144900401
1.0533102917143
0.773776907946636
0.637990165624052
0.565329975661248
0.526228831688655
0.50840318200065
0.506786830684032
0.519968191215887
0.548641894400389
0.593712177353958
3.73273201631518
3.04875140413872
3.98413712255424
3.02981077239884
1.28902530971475
4.20266965737053
2.99466089671193
1.08319797046507
1.19831816445291
4.33706088470618
2.97844809764655
1.06933637238187
0.828403640823535
1.26632000186872
4.40624917036253
2.9795208170107
1.09805841026022
0.750203000310401
0.804046081811168
1.34150170528679
4.43508097595793
3.53354158816323
1.15129147525046
0.744132626880121
0.674715564678897
0.825601609812818
1.40547523956935
4.43972357041891
3.77666414474347
1.26519151376521
0.767053212697999
0.636873870410077
0.661981913218723
0.856012392948556
1.45736883384282
4.43309856382663
4.42456979022045
1.49938485671023
0.885960196737564
0.669168763958514
0.600851779301423
0.634855953896152
0.808060523799304
1.34933310704671
4.01675809509105
4.41827373517233
1.53437454081517
0.913297082813673
0.682870709514544
0.591424564753741
0.58084447460872
0.648605765163209
0.847926041060705
1.42972020590356
4.27303462792916
4.41470100272142
1.56645571845077
0.93822766684276
0.698461824593745
0.593145515111446
0.558611723661372
0.579248906704012
0.667373398569869
0.885602443304371
1.51167183091319
4.66190943809405
5.29066442860285
1.67399081001129
0.963221016910304
0.714437211882517
0.599825096067417
0.55096438022088
0.546583021851504
0.585374115970153
0.686073376375087
0.918248136957287
1.59804193599637
5.95789126000334
5.2332285508459
1.71491951227615
0.995738101196907
0.730597595246484
0.608756191133122
0.550579544798622
0.531407066842408
0.544289603952772
0.593621959034212
0.700513809093312
0.936121966032172
1.62399345442556
5.31263779788205
1.73269239481216
1.01086710478158
0.747014169114139
0.618648964011916
0.553940808894605
0.525363553419781
0.52312415544382
0.545983792090419
0.600079272257554
0.704149759425274
0.904137812718839
0.997846298472921
5.38108380968381
1.76619940274291
1.03630820984613
0.76060933131369
0.628640406162732
0.559173502806744
0.524311400715702
0.512612649860413
0.520289751255332
0.548110804626801
0.601006582814043
0.686914109914993
0.766458231357897
0.781339036313391
5.43483046586816
1.7886080845132
1.05332933144307
0.773643337199449
0.637812986583803
0.565124417460947
0.525979294340082
0.508102958953074
0.506426113997528
0.519536355110464
0.548138396303172
0.593177978692439
0.644287742302654
0.678616277129986
0.707893392017892
5.47517748405736
1.8053084310743
1.06549616446741
0.783836611877624
0.6460136275977
0.571046162585565
0.529007105687783
0.507012748742684
0.499308267837668
0.503484250955787
0.518748088939588
0.544474004713173
3.73151936383886
3.04933258369582
3.98391698334467
3.03044318159007
1.27657503809498
4.20274536909253
2.99522896100666
1.07273554271477
1.18821823583457
4.33717130965915
2.97889191053866
1.06089418379388
0.820505346679306
1.25778426384182
4.4063068027397
2.97994629214653
1.0903739382578
0.743973653478128
0.797808341634873
1.33419354480702
4.43509857771369
3.5018934478172
1.14361056636143
0.73884805772176
0.669982134450258
0.82051214525388
1.399288151581
4.43972917349245
3.74885718812171
1.25589561165762
0.761956633863621
0.632958306170111
0.658262597869532
0.851840348553907
1.45223895992983
4.43310750882022
3.99017510195059
1.34146118358501
0.803273053582389
0.631349272308779
0.597911871057506
0.666218088645326
0.882550807499268
1.49517395358831
4.42456000326934
4.41826882368661
1.53070425624228
0.910490844516468
0.680517865530193
0.5891876529805
0.578437410825084
0.645669059837848
0.843785779053002
1.42243725772311
4.24696361154897
4.41469052012171
1.56290708412958
0.935881104179996
0.696567825858474
0.59141173181222
0.556828314296042
0.577196451498828
0.664751376284534
0.881838063417898
1.50503847224664
4.63549005943605
5.20721672429051
1.60806683232444
0.960512651783541
0.712890089516631
0.598466714960485
0.549627085853275
0.545118384265741
0.583612898169329
0.683756368298311
0.914838499372692
1.5917145357123
5.92630851628272
5.22460386727093
1.71845531243275
0.993709087519775
0.729355479920448
0.607694505542637
0.549570836716009
0.530343830166694
0.543068461335938
0.592107368861725
0.698478409211583
0.933111642794955
1.61879827622519
5.30593173661662
1.73766130826874
1.01704629304143
0.746206706869561
0.617827711784852
0.553185576312896
0.524586818021397
0.522258100487143
0.544954019023137
0.598777519284945
0.702400208016657
0.901702339156001
0.994496349213022
5.37666852763707
1.76492897315489
1.03573376021704
0.760090636504838
0.628059877642177
0.558624653984416
0.523751269452228
0.51199551691786
0.51957404416402
0.547242918923316
0.59990760341624
0.685477558655812
0.764543830121375
0.778878722897688
5.43286730098184
1.78800182805556
1.05293774379205
0.773292880460976
0.637466927444031
0.564767326081805
0.525594451120152
0.50767271148096
0.505929840231484
0.518949465269897
0.547427058200546
0.592288497241603
0.643133926179183
0.677151197950593
0.705821105778031
5.47590242822004
1.80562546973753
1.06557307255837
0.783766266553391
0.645870322178527
0.570859254387302
0.528780035137901
0.50674017540396
0.498984228420298
0.503102511267874
0.518312064688683
0.544020644088351
0.576348192117075
0.606295761582677
0.632406480440541
0.677259948365559
5.50674430609132
1.81881195209842
1.07515949522148
0.791920441142742
0.652889223890355
0.576476956178401
0.532471249879076
0.50767859302629
0.495948116943133
0.494369261114235
0.501544246194793
0.516472609599638
3.731193950697
3.05053388188442
3.98428820712146
3.03160179091188
1.26251841276503
4.20336797426333
2.99619149866702
1.06057786155176
1.17635497418025
4.33759681915687
2.97958906928088
1.05091124140562
0.81116029721853
1.24766130877401
4.40650363091269
2.98021113028143
1.08167610162746
0.736523978721364
0.790372816536429
1.32547381604605
4.4351647402578
2.98180980689912
1.13069743718903
0.732375361152339
0.664307013803371
0.814409935198092
1.39184848675475
4.43974638071427
3.71544172779807
1.24139384507468
0.755911856253474
0.628298719630164
0.653789847656743
0.846799636813964
1.44600702866022
4.43311314988855
3.95864243801343
1.33137704883842
0.797468925070692
0.627235975203892
0.594375506801012
0.662642154458311
0.878403544518366
1.49006291342977
4.42456927415691
4.21659879464081
1.41328914626955
0.838676436873755
0.642023373152292
0.575484926080726
0.586464524576815
0.677641237238833
0.90705696082699
1.52682489613185
4.41825856580717
4.41468529655091
1.55837160814463
0.932894134820011
0.694228818298112
0.589289255641353
0.55466001140529
0.574721151822311
0.661597575717935
0.877252626868547
1.4965886289089
4.60438617198204
5.18733630434349
1.59867767397269
0.957745604410558
0.710951771555615
0.596789641058118
0.547987275929221
0.543339641906751
0.581490033928339
0.680966967608742
0.910696767585419
1.58410541819915
5.88735329108915
5.21490018135468
1.70613526988922
0.985877866214512
0.727655802136393
0.606358977159444
0.548316412133854
0.529037939491
0.541584017627615
0.590277522300282
0.696017971738976
0.929397823398145
1.61134798933312
5.29659114221328
1.73625649024269
1.0168290868542
0.744940423013744
0.616782143124462
0.552226864214404
0.523617635094876
0.521194133776412
0.543701323535054
0.597200087186698
0.700269289795294
0.89864470782632
0.990417526945287
5.36996870655395
1.76347913153074
1.03582199141119
0.759849232134873
0.627284825663251
0.557903191133959
0.523033617032335
0.511223299795396
0.518691543132295
0.546179620933887
0.59856025729655
0.683703968692727
0.762236443595533
0.776013353149848
5.42865323893612
1.78668215007697
1.05217720668256
0.772705344479739
0.636928032260919
0.564250069160004
0.525073956881198
0.507114152145324
0.505300362023188
0.51821138125937
0.546528502330404
0.591156263320997
0.64168272682502
0.675295313974219
0.7034496159938
5.47410798823065
1.80507361980946
1.06521646409254
0.783444615257626
0.645547712005578
0.570526128530089
0.528424666100927
0.506347970406943
0.498540036208951
0.502588834591652
0.517705251685316
0.543278064714667
0.575376465230284
0.605087538133161
0.630777661929237
0.6749406235617
5.50760221595977
1.81915567228372
1.07526610172611
0.79188537638281
0.652777872901312
0.576314050878603
0.532266131192336
0.507431439043634
0.49565589232761
0.494029246627439
0.50116365848824
0.516090218332967
0.536820756832898
0.559259749707391
0.581199201903226
0.609713485359996
0.662509443594469
5.5294357509478
1.82933412376974
1.08288288291437
0.798489032716299
0.658672987630814
0.581367509657762
0.536091778874811
0.509436357479661
0.495014514251111
0.489641690636188
0.491637598147239
0.499889864638114
3.7298065620599
3.05303316238381
3.98580158802538
3.03371780665983
1.24695481631759
4.20505722147108
2.99783452020969
1.0467161180916
1.16249877725636
4.33872468280604
2.98084628553079
1.03921455495572
0.800190120063086
1.23571008780279
4.40704537269833
2.98079975367405
1.07151811624495
0.727714945928559
0.781563703741943
1.3151001601508
4.43536648254679
2.98127252806418
1.12038337995409
0.724778228285458
0.657547030502649
0.807128105090241
1.38293565755789
4.43980606462401
3.67666244015023
1.19079345709273
0.748017374135428
0.622704360150432
0.648433684827228
0.84073985781317
1.43847481931403
4.43312832237986
3.92074435011768
1.31826860803315
0.789871269707102
0.622345833380558
0.59014362687425
0.658332669379848
0.873378912290776
1.48381908737627
4.4245747424321
4.18077380103359
1.40212026327235
0.8324465809926
0.637662994579119
0.571958570439808
0.583178286135308
0.674149584903567
0.902895318975405
1.52187176259478
4.4182684496154
4.57159495777462
1.48626252717522
0.871646791991266
0.657789916370955
0.571729307298418
0.552033593712537
0.58670549775007
0.69136759415954
0.929454275059728
1.55978309508548
5.18462521117601
4.41297394249885
1.59068231640805
0.954255258541006
0.70854505142414
0.594732936367469
0.545991826734638
0.541193661439874
0.578948229542161
0.677629033729659
0.905591167729535
1.57488622714529
5.84736020708685
5.19936632532117
1.69583769450945
0.981820038827821
0.725589348229891
0.604702402303854
0.546776143302121
0.527451167827115
0.539799497809325
0.588094696465999
0.693082777966804
0.924891972751099
1.60339816483304
5.28452120618149
1.73314543007234
1.01430022160593
0.742853854976891
0.61544400582674
0.55103101962158
0.522426643072773
0.519904905899519
0.542200284583602
0.595322280618396
0.697723647626681
0.894834787023791
0.984952703792359
5.36075315437434
1.76085700820706
1.03464893449308
0.758863335926948
0.626266537836831
0.55698518447236
0.522136692356561
0.510276402630495
0.517625269790319
0.544907519234468
0.596955269899406
0.681579989349235
0.759462506435607
0.772472429777507
5.42216841039482
1.78470114559304
1.05115878921506
0.771986667174174
0.636230813011935
0.563565488603656
0.524405130365866
0.506415617153896
0.504528423162959
0.517317130144762
0.545447221973896
0.58980071006078
0.639962859371682
0.673121658259829
0.700678705534435
5.47009303825302
1.80381011525401
1.06446873995243
0.782868592251878
0.645037220872653
0.570041700234385
0.527940462434673
0.50583801965911
0.497978835269288
0.501948635309506
0.516950029881725
0.54235652296951
0.574223484625295
0.603641207420389
0.628904781725008
0.672466081287761
5.50600083176507
1.81865627357345
1.07494473433849
0.7915974519855
0.652486490087069
0.57600819384347
0.531938615356921
0.507072827218123
0.495255229119503
0.493574127505297
0.500637293956759
0.515458973203391
0.535999066751932
0.558264648385092
0.579928994206402
0.607967123071162
0.65996713241514
5.53033839356085
1.82969722142037
1.08300845966961
0.798477298475556
0.658586183609532
0.581227924930524
0.535908828351151
0.509212968524362
0.49475048949319
0.489337021528563
0.491302502893938
0.499565497249099
0.512843236430178
0.528912719644994
0.54618522354281
0.566712676526094
0.59869546553534
0.655243064347512
1.83712054755014
1.0889560469303
0.803795129053388
0.663481680380397
0.585632178577044
0.539559802992814
0.511687577883044
0.49546916129157
0.48755598197321
0.486118099622042
0.489996908818223
3.73222320489146
3.05702380190891
3.98802051525758
3.03739652445437
1.23013691559473
4.20832057970983
3.00059481333845
1.03128600186697
1.14641856791821
4.34115841868069
2.98300005580319
1.02568399597644
0.787418432801539
1.22167504268798
4.40834416575644
2.98228932108568
1.05946747719973
0.717383845347632
0.77119013087907
1.30282414197962
4.43591088554615
2.98122128376853
1.10906584829933
0.715883154045989
0.649560887008244
0.798482464152639
1.37230505020548
4.43999219447007
3.63437045754107
1.1752734577306
0.739549382504945
0.616080386880059
0.642057335881822
0.833491069567447
1.42941541962361
4.43318060999153
3.87477294345969
1.29945142840849
0.777835289117331
0.616418104634094
0.585088780593418
0.653166388144491
0.867322740696679
1.47624882578544
4.42458798589638
4.13718122745414
1.38831073019537
0.824737961371622
0.632370176739
0.567755621839868
0.579235216995117
0.66993517581224
0.897854519002295
1.51530602530173
4.41827377245796
4.52989038731326
1.47306202988499
0.864945793705197
0.653246315678391
0.56816169254202
0.548882318433635
0.583581625824486
0.687899766125827
0.925272754575568
1.55482142887477
5.17392270573528
5.93314384358099
1.56275993708334
0.89948930464494
0.673652435696323
0.575918172967073
0.538617164689186
0.543577518975989
0.592225984054362
0.705644477802615
0.95176020122395
1.65627637588562
5.20636685547797
5.17535083570439
1.62790820515063
0.977201611633993
0.723011460348552
0.602664746872074
0.544898648035269
0.52553640038395
0.537669697031984
0.585512960569654
0.68959203809447
0.919479290582207
1.59443116147335
5.26893053023514
1.72724369331926
1.01038225837281
0.74057536979253
0.613780530209291
0.549557864764697
0.520977514827267
0.518357171107759
0.540421360316711
0.593117374746465
0.694722030933098
0.890391639012093
0.977775192003245
5.34867335382281
1.75735270831255
1.03283692350876
0.757352746383735
0.624929780816377
0.555832643456582
0.521031584989882
0.509129424874455
0.516353674705135
0.543410283317245
0.595081739048842
0.679086935094412
0.756118816749763
0.76781060649955
5.41318992958806
1.78192761912726
1.04963747161874
0.770896317676373
0.63527754370917
0.56268764100494
0.52356640302721
0.505558427236311
0.503598876976857
0.516256683143934
0.544180469677023
0.588225623321009
0.637973186268756
0.670588545573318
0.697300746111632
5.46383375230153
1.80184515236257
1.0633407468711
0.78204604592771
0.644338286230983
0.569396329249312
0.527314941187706
0.505199126501727
0.497292246698368
0.501178545615703
0.516053287752535
0.541277601633107
0.572897573342613
0.60199157059357
0.626798301474462
0.669667464068069
5.50218826878168
1.81745553039178
1.07423457828669
0.791054736455862
0.652009416893864
0.575555949628457
0.531488333262485
0.506604642063883
0.494749529055921
0.493009978181297
0.499988433449956
0.514687978633926
0.535057215277199
0.55711462420987
0.578479851212238
0.606058277818155
0.657389683531252
5.52887753085128
1.82924813595652
1.08271790233573
0.798217625652851
0.658322804174618
0.580949020428031
0.535608317822725
0.508884730678598
0.494387138876825
0.488929913024049
0.49083958996092
0.499019548288731
0.512137431385895
0.528079298801844
0.545168363094477
0.565394017321573
0.59685941793387
0.65249606613004
1.83748738527519
1.08909625718728
0.80380208061214
0.663415331748994
0.585513673009427
0.539398213799645
0.511486732353284
0.495230661420172
0.487281923501749
0.485820953460393