/*--------------------------------*- C++ -*----------------------------------*\
  =========                 |
  \\      /  F ield         | OpenFOAM: The Open Source CFD Toolbox
   \\    /   O peration     | Website:  https://openfoam.org
    \\  /    A nd           | Version:  12
     \\/     M anipulation  |
\*---------------------------------------------------------------------------*/
/*   Windows 32 and 64 bit porting by blueCAPE: http://www.bluecape.com.pt   *\
|  Based on Windows porting (2.0.x v4) by Symscape: http://www.symscape.com   |
\*---------------------------------------------------------------------------*/
FoamFile
{
    format      ascii;
    class       volScalarField;
    location    "100";
    object      p;
}
// * * * * * * * * * * * * * * * * * * * * * * * * * * * * * * * * * * * * * //

dimensions      [0 2 -2 0 0 0 0];

internalField   nonuniform List<scalar> 
10166
(
83333.3328002358
83333.332786359
83333.3327959222
83333.3328029437
83333.332771623
83333.3327819219
83333.3327891479
83333.3327876127
83333.3327987145
83333.3328096957
83333.3327560094
83333.3327670899
83333.3327744944
83333.332773469
83333.3327847872
83333.3327960904
83333.3327746619
83333.3327900969
83333.3328058358
83333.3328224502
83333.3327394454
83333.3327513951
83333.3327589632
83333.3327585176
83333.3327700248
83333.3327816114
83333.3327603424
83333.3327760241
83333.3327920918
83333.3328091498
83333.3327572177
83333.3327763825
83333.3327970356
83333.3328195679
83333.3328419628
83333.3327218514
83333.3327347569
83333.3327424743
83333.3327427042
83333.332754389
83333.3327662415
83333.3327452244
83333.3327611343
83333.3327774924
83333.3327949588
83333.3327426601
83333.3327621134
83333.3327831305
83333.3328061728
83333.3328291446
83333.3327357482
83333.3327581385
83333.3327824949
83333.3328111389
83333.3328402222
83333.3328666725
83333.3327031905
83333.3327171112
83333.3327249304
83333.3327259623
83333.3327378051
83333.3327499119
83333.3327292575
83333.3327453763
83333.332762
83333.3327798592
83333.3327273206
83333.3327470337
83333.3327683759
83333.3327918919
83333.3328154253
83333.3327209168
83333.3327436212
83333.3327683801
83333.3327975827
83333.3328273274
83333.3328545057
83333.3327107996
83333.3327362243
83333.3327631068
83333.3327959632
83333.3328325963
83333.332866608
83333.3328966045
83333.3326834507
83333.3326984247
83333.3327063032
83333.3327082414
83333.3327201952
83333.332732478
83333.3327123871
83333.3327286878
83333.332745552
83333.3327637922
83333.3327111589
83333.3327311031
83333.3327527397
83333.3327767001
83333.3328007742
83333.3327053336
83333.3327283101
83333.3327534174
83333.3327831458
83333.3328135325
83333.3328414478
83333.3326956841
83333.3327214234
83333.3327487333
83333.3327821711
83333.3328195486
83333.3328543696
83333.3328852508
83333.3326827806
83333.3327109405
83333.3327399687
83333.3327751952
83333.3328171731
83333.3328604358
83333.332897438
83333.3329325847
83333.3326626314
83333.3326786839
83333.3326865892
83333.3326895157
83333.3327015293
83333.3327139202
83333.3326945753
83333.3327110076
83333.3327280361
83333.3327465066
83333.332694129
83333.332714271
83333.3327361726
83333.3327605445
83333.3327851319
83333.3326889615
83333.3327121731
83333.3327375891
83333.3327678065
83333.3327988032
83333.3328274728
83333.3326798579
83333.3327058617
83333.3327335279
83333.3327675099
83333.3328056048
83333.3328412433
83333.3328730324
83333.3326674072
83333.3326958468
83333.332725297
83333.3327611111
83333.3328038676
83333.3328480509
83333.3328860321
83333.3329222229
83333.3326518899
83333.3326825795
83333.3327136519
83333.332750354
83333.3327950867
83333.3328449732
83333.3328933646
83333.3329341183
83333.3329732516
83333.3326407541
83333.3326578928
83333.3326657805
83333.332669774
83333.332681799
83333.3326942568
83333.3326758039
83333.3326923101
83333.3327094255
83333.332728035
83333.3326762009
83333.33269649
83333.3327185814
83333.3327432228
83333.3327680951
83333.332671764
83333.3326951732
83333.3327208594
83333.3327515278
83333.3327830955
83333.3328126063
83333.3326632679
83333.332689513
83333.3327174787
83333.3327519587
83333.3327907297
83333.3328271711
83333.3328598847
83333.33265136
83333.3326800419
83333.3327098287
83333.3327461784
83333.3327896804
83333.3328347704
83333.3328737511
83333.3329110299
83333.3326363023
83333.3326672194
83333.3326986731
83333.3327359378
83333.3327814479
83333.3328323058
83333.3328817927
83333.3329237024
83333.3329640235
83333.3326181602
83333.3326514694
83333.3326845393
83333.3327223684
83333.3327682496
83333.332821594
83333.3328779495
83333.3329314126
83333.3329756914
83333.3330193293
83333.3326178813
83333.3326438826
83333.3326360789
83333.332649022
83333.3326610036
83333.3326734725
83333.3326560659
83333.332672585
83333.3326897208
83333.3327084279
83333.3326573639
83333.3326777412
83333.3326999356
83333.332724725
83333.3327498292
83333.3326537131
83333.332677274
83333.3327031601
83333.3327341527
83333.3327660902
83333.3327965151
83333.3326459012
83333.3326723414
83333.3327005637
83333.3327354845
83333.332774894
83333.33281216
83333.3328458319
83333.3326344999
83333.3326634833
83333.3326935618
83333.3327303783
83333.3327745735
83333.3328205256
83333.3328605114
83333.3328989088
83333.3326201556
83333.3326511872
83333.3326829561
83333.332720711
83333.3327669486
83333.3328187502
83333.3328693331
83333.332912442
83333.332954016
83333.332602276
83333.3326358942
83333.3326692825
83333.3327076113
83333.3327542297
83333.3328085432
83333.3328660548
83333.3329207926
83333.3329664032
83333.333011381
83333.3325832326
83333.3326177865
83333.3326529001
83333.3326917837
83333.3327380442
83333.3327926109
83333.332853127
83333.3329152832
83333.3329738994
83333.3330232771
83333.333072248
83333.3325941238
83333.3326209523
83333.332613307
83333.3326515208
83333.332639158
83333.3326272914
83333.3326353717
83333.3326518363
83333.3326689193
83333.3326876812
83333.3326376201
83333.3326580173
83333.332680227
83333.3327050821
83333.3327303629
83333.3326348061
83333.3326584597
83333.3326844638
83333.3327156333
83333.332747821
83333.3327788687
83333.3326277231
83333.3326543152
83333.3326827362
83333.3327179899
83333.3327578716
83333.3327959366
83333.3328308941
83333.3326169461
83333.3326461466
83333.3326764716
83333.3327136835
83333.3327585109
83333.332805297
83333.332846321
83333.3328857745
83333.3326029694
83333.3326343738
83333.3326664855
83333.3327046588
83333.3327515528
83333.3328042424
83333.3328558848
83333.3329002249
83333.3329431152
83333.3325863774
83333.3326197305
83333.3326533311
83333.3326920996
83333.3327393836
83333.3327946219
83333.332853274
83333.3329093118
83333.3329563261
83333.333002726
83333.3325675059
83333.3326019222
83333.3326373876
83333.3326767055
83333.3327236297
83333.3327791156
83333.3328407833
83333.3329042775
83333.332964354
83333.3330152677
83333.3330657601
83333.332548886
83333.332582857
83333.3326190818
83333.332658979
83333.3327053203
83333.3327598481
83333.3328217979
83333.3328884121
83333.3329560941
83333.3330206545
83333.3330786967
83333.3331392846
83333.3325696482
83333.3325971047
83333.3325896899
83333.3326284558
83333.3326163226
83333.3326046498
83333.3326655743
83333.3326469938
83333.3326300862
83333.3326137573
83333.3326169875
83333.3326373275
83333.3326594606
83333.3326843039
83333.3327097521
83333.3326150647
83333.3326387352
83333.3326647601
83333.3326959873
83333.3327283192
83333.332759733
83333.3326087476
83333.3326354309
83333.3326639751
83333.3326994276
83333.3327395987
83333.3327782718
83333.3328143038
83333.3325986269
83333.3326279922
83333.3326585175
83333.3326960344
83333.3327413591
83333.3327888819
83333.3328311765
83333.3328715828
83333.3325852236
83333.3326168523
83333.3326492349
83333.3326877533
83333.3327352222
83333.3327887381
83333.3328414119
83333.3328869704
83333.332931183
83333.3325693924
83333.3326026236
83333.3326366284
83333.3326758108
83333.3327236797
83333.3327797712
83333.3328395142
83333.3328968445
83333.332945329
83333.3329932336
83333.3325509069
83333.3325858853
83333.3326212435
83333.3326609215
83333.3327084357
83333.3327647774
83333.3328275655
83333.3328924043
83333.3329539994
83333.3330065481
83333.3330586627
83333.3325326063
83333.3325670358
83333.3326032651
83333.3326435936
83333.3326905226
83333.3327458879
83333.3328089302
83333.3328768718
83333.3329460743
83333.3330122922
83333.3330721433
83333.3331345507
83333.3325138062
83333.3325483201
83333.3325840399
83333.3326244134
83333.3326706569
83333.3327245208
83333.3327862289
83333.3328543072
83333.3329262437
83333.3329995224
83333.3330727344
83333.3331458906
83333.3325446793
83333.3325725079
83333.3325653886
83333.3326043949
83333.3325926108
83333.3325812115
83333.3326422215
83333.3326239969
83333.3326073981
83333.3325912933
83333.3326874132
83333.3326622271
83333.3326376322
83333.3326157039
83333.3325955052
83333.3325945142
83333.3326181156
83333.3326440547
83333.3326752257
83333.3327076455
83333.3327393481
83333.3325890274
83333.3326157102
83333.3326442785
83333.3326797897
83333.3327200897
83333.3327591145
83333.3327959392
83333.332579579
83333.3326090332
83333.3326396912
83333.3326773988
83333.3327230395
83333.3327711119
83333.3328145064
83333.3328558951
83333.332566695
83333.3325985609
83333.3326311609
83333.3326699514
83333.3327178759
83333.3327720993
83333.3328258703
83333.3328726403
83333.3329180695
83333.3325516832
83333.3325849203
83333.3326192006
83333.3326587137
83333.3327070806
83333.3327639397
83333.3328247118
83333.3328832976
83333.3329332842
83333.3329827315
83333.3325336295
83333.3325688714
83333.332604285
83333.3326443903
83333.3326924311
83333.3327495449
83333.3328133895
83333.3328795448
83333.3329426951
83333.3329969684
83333.3330508101
83333.3325148624
83333.3325504677
83333.3325870533
83333.3326275526
83333.3326749917
83333.3327311211
83333.3327952069
83333.3328644637
83333.3329352241
83333.3330031912
83333.3330649699
83333.3331293137
83333.3324970311
83333.3325320137
83333.3325680744
83333.3326087048
83333.332655489
83333.3327101015
83333.3327728105
83333.3328421453
83333.3329155785
83333.3329905608
83333.3330656802
83333.3331410724
83333.3324781029
83333.3325131958
83333.332548956
83333.3325887639
83333.3326345817
83333.3326874458
83333.3327479927
83333.3328156348
83333.3328887368
83333.3329653096
83333.3330440437
83333.3331240955
83333.3325194861
83333.3325473891
83333.33254062
83333.3325795007
83333.3325681856
83333.332557136
83333.3326177438
83333.3326000417
83333.3325838868
83333.3325680897
83333.3326635787
83333.3326389224
83333.3326147903
83333.3325932142
83333.33257325
83333.3327172751
83333.3326853574
83333.3326532609
83333.3326223655
83333.3325966402
83333.3325731888
83333.3325685888
83333.3325951792
83333.3326236571
83333.3326590764
83333.3326993745
83333.3327386308
83333.3327757637
83333.3325599158
83333.3325893327
83333.3326200079
83333.3326577642
83333.3327035333
83333.3327519242
83333.3327960667
83333.3328384843
83333.3325473967
83333.3325795345
83333.332612268
83333.3326512352
83333.3326994576
83333.3327541897
83333.3328089138
83333.3328568737
83333.332903492
83333.332532703
83333.3325664581
83333.3326010016
83333.3326407716
83333.3326895324
83333.3327470303
83333.3328087752
83333.3328686113
83333.3329200599
83333.3329710174
83333.332515771
83333.3325511619
83333.3325866782
83333.3326271018
83333.3326755801
83333.3327333685
83333.3327981837
83333.3328656
83333.3329303106
83333.3329863595
83333.3330419937
83333.3324970139
83333.3325331982
83333.3325700351
83333.332610772
83333.332658693
83333.3327155038
83333.3327805553
83333.3328510805
83333.3329234089
83333.3329931892
83333.3330570175
83333.3331234307
83333.3324792688
83333.3325144635
83333.33255151
83333.3325924431
83333.3326396331
83333.3326949155
83333.3327585629
83333.3328291218
83333.3329040636
83333.3329808168
83333.3330579473
83333.3331357575
83333.3324608871
83333.3324964239
83333.3325326109
83333.3325727763
83333.332619047
83333.3326725827
83333.3327340284
83333.3328028216
83333.3328773327
83333.3329555598
83333.333036179
83333.3331184035
83333.3332017643
83333.3324418611
83333.3324774628
83333.3325134723
83333.3325527558
83333.3325976253
83333.3326492343
83333.332708139
83333.3327742558
83333.3328466186
83333.3329236439
83333.3330037318
83333.3330852002
83333.3324943705
83333.3325220202
83333.3325156428
83333.3325540092
83333.3325432682
83333.3325326276
83333.3325922655
83333.3325752904
83333.3325597114
83333.3325443018
83333.3326384436
83333.3326144993
83333.3325910454
83333.3325699693
83333.3325503242
83333.3326930475
83333.3326615841
83333.3326301218
83333.3325997501
83333.3325743858
83333.3325511748
83333.3327539987
83333.3327164358
83333.332677221
83333.3326372618
83333.3326021432
83333.3325738717
83333.3325474434
83333.3325396545
83333.3325689211
83333.332599494
83333.33263713
83333.3326828277
83333.3327313413
83333.3327758289
83333.3328190076
83333.3325278751
83333.3325598937
83333.3325926128
83333.3326316065
83333.3326799344
83333.3327349495
83333.3327903128
83333.3328393476
83333.332887204
83333.3325125557
83333.3325472713
83333.3325820527
83333.33262198
83333.3326709975
83333.3327289458
83333.3327914928
83333.3328525179
83333.3329053861
83333.3329578391
83333.3324963338
83333.3325323318
83333.3325683409
83333.3326090261
83333.332657843
83333.332716178
83333.3327818494
83333.3328504674
83333.3329167087
83333.3329745353
83333.3330319745
83333.3324784991
83333.3325153052
83333.3325523363
83333.3325932927
83333.3326416015
83333.3326989931
83333.3327649081
83333.3328366241
83333.3329104967
83333.3329821177
83333.3330480889
83333.3331166519
83333.3324609742
83333.3324966477
83333.3325342535
83333.3325754714
83333.3326230455
83333.332678925
83333.3327434253
83333.3328151428
83333.3328915746
83333.3329701435
83333.3330493859
83333.3331297735
83333.3324429906
83333.3324787375
83333.332515353
83333.3325561978
83333.3326028779
83333.3326569937
83333.3327192669
83333.3327891621
83333.3328650683
83333.3329449853
83333.333027572
83333.3331120756
83333.3331978461
83333.3324242441
83333.3324602622
83333.3324967203
83333.3325364214
83333.3325817382
83333.332633942
83333.3326936487
83333.3327607992
83333.3328344491
83333.3329130189
83333.3329948982
83333.3330784069
83333.3331594054
83333.3332274429
83333.332405188
83333.3324412209
83333.3324775019
83333.3325164501
83333.3325602641
83333.3326103704
83333.3326673802
83333.3327313994
83333.3328019223
83333.3328777714
83333.3329573525
83333.3330386133
83333.3324696629
83333.3324967089
83333.3324907488
83333.3325281992
83333.3325181195
83333.3325079334
83333.3325660484
83333.3325499753
83333.3325350845
83333.332520124
83333.3326120125
83333.332589099
83333.3325665565
83333.3325461264
83333.332526875
83333.3326670441
83333.3326364565
83333.3326059017
83333.3325763171
83333.3325514528
83333.3325285622
83333.3327296962
83333.3326922265
83333.3326536456
83333.332614375
83333.3325798022
83333.3325518733
83333.3325257026
83333.3327973694
83333.3327538908
83333.3327090852
83333.3326608251
83333.3326155016
83333.3325781807
83333.3325478041
83333.3325187006
83333.3325080707
83333.3325396557
83333.3325722328
83333.3326110773
83333.3326592806
83333.3327143195
83333.3327699705
83333.3328197683
83333.3328687597
83333.3324932965
83333.3325277559
83333.3325624521
83333.3326023708
83333.3326514527
83333.3327096209
83333.332772703
83333.3328347087
83333.3328889748
83333.3329429928
83333.3324765253
83333.3325124913
83333.3325493032
83333.3325901731
83333.3326391986
83333.3326979054
83333.3327642424
83333.3328339396
83333.3329016423
83333.3329612506
83333.3330204894
83333.3324591961
83333.3324960665
83333.3325337408
83333.3325750817
83333.33262369
83333.3326815368
83333.3327481787
83333.3328209773
83333.3328963405
83333.3329697976
83333.3330379456
83333.3331087064
83333.3324419103
83333.3324782018
83333.3325163308
83333.3325578195
83333.3326057211
83333.3326620976
83333.3327273408
83333.3328001193
83333.3328779868
83333.3329583812
83333.3330398045
83333.3331229234
83333.3324245379
83333.332460499
83333.3324976199
83333.3325389581
83333.3325860162
83333.3326406455
83333.3327036589
83333.3327745769
83333.3328518323
83333.3329334507
83333.3330180844
83333.3331049843
83333.3331933571
83333.3324060867
83333.3324424023
83333.3324791867
83333.332519375
83333.3325652274
83333.3326179651
83333.3326783965
83333.3327465194
83333.3328214212
83333.3329015388
83333.3329852606
83333.3330708934
83333.3331541876
83333.3332242536
83333.3323871873
83333.3324236208
83333.3324603419
83333.332499741
83333.3325440111
83333.3325946639
83333.332652387
83333.332717327
83333.3327890037
83333.332866258
83333.3329474942
83333.3330306449
83333.3331122005
83333.3331841473
83333.3332439257
83333.3323682088
83333.3324045698
83333.3324411008
83333.3324798076
83333.3325226928
83333.3325712259
83333.332626206
83333.3326878627
83333.3327559642
83333.3328296897
83333.332907662
83333.3329878981
83333.3324457179
83333.3324717898
83333.332466257
83333.3325023865
83333.3324930354
83333.3324833351
83333.3325393738
83333.3325243657
83333.332510257
83333.3324957925
83333.3325846256
83333.3325629709
83333.3325415553
83333.3325218825
83333.3325030881
83333.3326393412
83333.3326100434
83333.3325807454
83333.332552215
83333.3325279879
83333.332505493
83333.332702795
83333.3326662109
83333.3326287112
83333.3325905028
83333.3325567318
83333.3325292721
83333.332503429
83333.3327729113
83333.3327295018
83333.3326850323
83333.3326375137
83333.3325929192
83333.3325561393
83333.3325260911
83333.3324972668
83333.3328477379
83333.3327979986
83333.3327477921
83333.3326921362
83333.3326374578
83333.3325896644
83333.3325511322
83333.3325187484
83333.3324872651
83333.332474163
83333.3325078724
83333.3325422284
83333.3325819703
83333.332630882
83333.3326889826
83333.3327522615
83333.3328149048
83333.3328704109
83333.332925946
83333.3324579908
83333.3324931614
83333.3325297941
83333.3325706044
83333.3326196459
83333.3326784935
83333.3327452373
83333.3328157796
83333.3328848151
83333.3329462608
83333.3330075327
83333.3324409126
83333.3324763924
83333.332514346
83333.3325561625
83333.3326049527
83333.3326630884
83333.3327302616
83333.3328039724
83333.3328807224
83333.3329559848
83333.3330263582
83333.3330990666
83333.3324228879
83333.3324590433
83333.3324974332
83333.3325394178
83333.332587642
83333.3326443975
83333.3327102397
83333.3327839424
83333.3328631524
83333.3329453472
83333.3330289744
83333.3331148935
83333.3324055527
83333.3324415713
83333.3324793065
83333.3325210656
83333.3325684608
83333.3326235188
83333.3326871608
83333.3327589906
83333.3328375128
83333.3329208083
83333.3330075365
83333.3330969317
83333.3331880535
83333.332387445
83333.3324239872
83333.3324610794
83333.3325017499
83333.3325480614
83333.3326012731
83333.3326623442
83333.3327313521
83333.3328074388
83333.3328890811
83333.3329746852
83333.333062534
83333.333148238
83333.3332205772
83333.332368718
83333.3324054874
83333.3324425592
83333.3324823559
83333.33252711
83333.3325782996
83333.3326366692
83333.3327024602
83333.3327752393
83333.3328538757
83333.3329367831
83333.3330218849
83333.3331055875
83333.3331796284
83333.3332411779
83333.3323498182
83333.3323865857
83333.3324235424
83333.3324627093
83333.3325060603
83333.3325551116
83333.3326107332
83333.3326732071
83333.3327423337
83333.3328173168
83333.3328967901
83333.332978757
83333.3330602153
83333.3331355891
83333.3332008484
83333.333253823
83333.3323310536
83333.3323676261
83333.3324043278
83333.3324428587
83333.3324849494
83333.3325320111
83333.3325849504
83333.3326441543
83333.332709571
83333.3327806628
83333.3328563324
83333.3329348633
83333.3324228721
83333.3324476172
83333.332442503
83333.3324769246
83333.3324683423
83333.3324591424
83333.3325125737
83333.332498765
83333.3324855132
83333.3324715786
83333.3325565364
83333.3325363946
83333.3325163016
83333.3324974744
83333.3324791883
83333.3326103469
83333.3325826444
83333.3325549004
83333.3325276562
83333.3325041786
83333.3324821427
83333.3326733529
83333.3326384481
83333.3326025218
83333.3325657843
83333.332533079
83333.3325062098
83333.3324807732
83333.3327452698
83333.3327025612
83333.3326592076
83333.3326129396
83333.3325694674
83333.3325334546
83333.3325038447
83333.3324753597
83333.3328235299
83333.3327734341
83333.3327233721
83333.3326683182
83333.3326144672
83333.3325674189
83333.3325294038
83333.3324973557
83333.3324661642
83333.3329059894
83333.3328492801
83333.3327928799
83333.3327300035
83333.3326669361
83333.3326092735
83333.3325607886
83333.33252135
83333.3324871689
83333.3324534063
83333.3324385006
83333.3324738567
83333.3325098183
83333.3325503495
83333.3325991847
83333.3326578838
83333.3327246959
83333.3327957324
83333.3328658366
83333.3329290761
83333.3329924237
83333.3324224587
83333.3324576531
83333.332494951
83333.332536656
83333.3325854119
83333.3326436101
83333.3327110553
83333.3327854234
83333.3328633783
83333.3329403939
83333.3330132125
83333.3330885669
83333.3324046928
83333.3324404943
83333.3324780322
83333.3325203383
83333.3325688189
83333.3326257965
83333.3326920442
83333.3327664753
83333.3328468768
83333.3329308087
83333.3330166664
83333.3331054296
83333.3323864234
83333.3324225745
83333.3324603861
83333.3325024446
83333.3325501953
83333.332605592
83333.3326697211
83333.3327423117
83333.3328219745
83333.3329068814
83333.3329957146
83333.3330876623
83333.3331817003
83333.3323683869
83333.3324050577
83333.3324423942
83333.3324835544
83333.3325302473
83333.3325838567
83333.3326454618
83333.3327152378
83333.3327924067
83333.3328755137
83333.3329630076
83333.3330531451
83333.3331413745
83333.3332161899
83333.3323498255
83333.3323868709
83333.3324242282
83333.3324643907
83333.3325095967
83333.3325612606
83333.3326201977
83333.3326867496
83333.3327605503
83333.3328405177
83333.3329250955
83333.3330122021
83333.3330981446
83333.3331744455
83333.3332380077
83333.3323310075
83333.3323681343
83333.3324054537
83333.3324450132
83333.3324887996
83333.3325383524
83333.3325945684
83333.3326577908
83333.3327278788
83333.3328040771
83333.3328850365
83333.3329687634
83333.3330521979
83333.3331296133
83333.3331967478
83333.3332512779
83333.3323122633
83333.33234925
83333.3323863872
83333.3324253681
83333.3324679264
83333.3325154896
83333.3325690166
83333.3326289486
83333.3326952732
83333.3327674803
83333.3328444943
83333.3329245937
83333.3330052362
83333.3330823955
83333.3331521999
83333.3332118687
83333.3332597876
83333.3322937943
83333.3323305377
83333.3323673028
83333.3324056575
83333.332447067
83333.332492808
83333.3325438147
83333.3326005939
83333.3326632559
83333.3327314778
83333.3328044366
83333.3328807346
83333.3324014358
83333.3324245355
83333.3324198173
83333.3324521975
83333.3324443845
83333.3324356808
83333.3324860438
83333.3324735211
83333.3324611663
83333.3324477803
83333.3325280771
83333.33250971
83333.3324910894
83333.3324731759
83333.3324554318
83333.3325802656
83333.3325545313
83333.3325286586
83333.3325028892
83333.3324802467
83333.3324587168
83333.3326419144
83333.3326093151
83333.3325753451
83333.3325404481
83333.3325090357
83333.3324828642
83333.332457896
83333.3327141683
83333.3326731033
83333.3326316559
83333.3325872206
83333.3325452845
83333.3325102705
83333.33248121
83333.332453159
83333.3327954726
83333.332745708
83333.3326965452
83333.332642845
83333.3325903622
83333.332544417
83333.3325071109
83333.3324754887
83333.3324446313
83333.3328825903
83333.3328249774
83333.3327681669
83333.3327056999
83333.3326434262
83333.3325866463
83333.3325388892
83333.3324999521
83333.3324661045
83333.3324326942
83333.3329740866
83333.3329090652
83333.3328442829
83333.3327735385
83333.33270247
83333.3326360212
83333.3325778132
83333.3325294051
83333.3324891768
83333.3324532696
83333.3324179828
83333.3324020455
83333.3324382204
83333.3324753633
83333.3325165845
83333.3325650782
83333.3326230651
83333.3326904491
83333.3327651144
83333.3328439693
83333.3329225707
83333.3329979334
83333.3330762718
83333.3323856696
83333.3324218588
83333.3324589563
83333.3325008997
83333.3325493056
83333.3326062782
83333.3326726769
83333.3327475666
83333.3328289289
83333.3329144822
83333.3330026584
83333.3330948055
83333.3323674086
83333.3324041166
83333.3324415034
83333.3324833021
83333.3325312616
83333.3325868551
83333.3326512845
83333.3327244312
83333.3328050489
83333.3328914502
83333.3329823801
83333.3330769626
83333.3331740834
83333.3323490683
83333.3323859429
83333.3324234502
83333.33246481
83333.332511783
83333.332565707
83333.332627715
83333.3326981045
83333.3327762087
83333.3328606749
83333.3329500261
83333.3330424965
83333.3331333663
83333.3332108936
83333.3323305666
83333.3323678403
83333.3324054098
83333.3324458937
83333.3324915008
83333.3325435518
83333.3326029557
83333.3326701515
83333.3327448593
83333.3328260705
83333.3329122835
83333.3330014263
83333.333089695
83333.3331684026
83333.3332342065
83333.3323118197
83333.3323492597
83333.3323868854
83333.3324267749
83333.3324709542
83333.3325209577
83333.3325776943
83333.3326415767
83333.3327125383
83333.3327898808
83333.3328722924
83333.3329577908
83333.3330432638
83333.333122844
83333.3331920366
83333.3332483377
83333.332293093
83333.3323304534
83333.3323679667
83333.3324073398
83333.3324503186
83333.3324983465
83333.3325524178
83333.3326130161
83333.3326801804
83333.3327534455
83333.3328317645
83333.33291343
83333.3329958663
83333.3330749419
83333.3331466277
83333.3332080029
83333.3332573669
83333.3322746191
83333.3323117493
83333.332348964
83333.3323877778
83333.3324296479
83333.3324758769
83333.3325274323
83333.3325848677
83333.332648335
83333.3327175435
83333.3327916969
83333.3328694031
83333.3329485751
83333.3330261562
83333.333098816
83333.3331636373
83333.3332189241
83333.3332632677
83333.3322933623
83333.3323302166
83333.3323683055
83333.3324090956
83333.3324536598
83333.3325028958
83333.3325573715
83333.332617326
83333.3326826179
83333.3327526623
83333.3328263634
83333.3323817007
83333.3324028655
83333.3323985113
83333.3324285738
83333.3324215039
83333.3324132725
83333.3324602431
83333.3324490147
83333.3324375469
83333.3324247103
83333.3324997232
83333.332483314
83333.3324662498
83333.3324492893
83333.3324320998
83333.3325493894
83333.3325260776
83333.3325023534
83333.332478198
83333.3324564515
83333.3324354564
83333.3326092231
83333.3325790643
83333.3325474906
83333.3325147718
83333.3324848275
83333.3324594395
83333.3324349784
83333.3326798037
83333.3326416244
83333.3326026772
83333.3325605995
83333.3325205736
83333.3324867655
83333.3324583542
83333.3324307933
83333.3327627864
83333.3327145392
83333.3326672976
83333.3326157925
83333.332565265
83333.3325207935
83333.3324843987
83333.3324533273
83333.3324229201
83333.3328548267
83333.332796833
83333.332740391
83333.3326792089
83333.3326184536
83333.3325630581
83333.3325163356
83333.3324780587
83333.3324446196
83333.3324114869
83333.3329523897
83333.3328856045
83333.3328195593
83333.332748845
83333.3326784134
83333.3326128799
83333.3325555649
83333.3325078534
83333.3324681081
83333.3324325388
83333.3323970732
83333.3330621343
83333.332979607
83333.3329019319
83333.3328221002
83333.3327428138
83333.3326683332
83333.3326014224
83333.3325439505
83333.332495884
83333.3324549181
83333.332417787
83333.3323816323
83333.3323652049
83333.3324017328
83333.3324394463
83333.3324810535
83333.3325291142
83333.3325858235
83333.3326520576
83333.332727045
83333.3328090229
83333.3328959675
83333.3329864504
83333.3330824818
83333.3323479367
83333.3323850426
83333.3324225079
83333.332463987
83333.332511775
83333.3325673146
83333.3326317982
83333.3327052301
83333.3327865395
83333.3328742463
83333.3329672442
83333.333064708
83333.3331653483
83333.3323295886
83333.3323668659
83333.3324046047
83333.332445775
83333.3324927587
83333.3325468361
83333.3326090692
83333.3326798693
83333.3327587051
83333.3328443669
83333.3329355014
83333.3330303468
83333.3331239976
83333.33320449
83333.3323110219
83333.3323485413
83333.3323863194
83333.332427008
83333.3324728584
83333.3325251804
83333.3325849245
83333.3326526138
83333.3327280724
83333.3328103935
83333.3328981625
83333.3329893396
83333.3330800101
83333.3331612795
83333.3332295862
83333.3322922991
83333.3323300208
83333.3323679039
83333.3324080605
83333.3324525751
83333.3325029521
83333.3325601087
83333.3326245369
83333.3326962529
83333.3327746339
83333.3328584287
83333.3329456844
83333.3330332402
83333.3331150908
83333.333186519
83333.3332448519
83333.3322735816
83333.3323112791
83333.3323491201
83333.3323888245
83333.3324321657
83333.332480604
83333.332535152
83333.3325963323
83333.3326642456
83333.3327384859
83333.3328180512
83333.3329012583
83333.3329855123
83333.3330665908
83333.3331402982
83333.3332035577
83333.3332545757
83333.332255086
83333.3322925853
83333.3323301903
83333.3323694008
83333.3324116848
83333.3324583572
83333.3325104133
83333.3325684468
83333.3326326517
83333.3327027804
83333.3327780704
83333.3328571558
83333.3329379365
83333.3330172795
83333.333091746
83333.3331583125
83333.333215195
83333.3332608896
83333.3322741904
83333.3323114481
83333.3323500212
83333.3323912764
83333.3324363168
83333.332486072
83333.3325411477
83333.3326018221
83333.3326679877
83333.33273909
83333.3328140478
83333.3328911951
83333.3329681667
83333.3330421822
83333.3331105048
83333.3331712401
83333.3332232761
83333.3332652758
83333.3322930994
83333.3323309522
83333.3323711186
83333.3324146113
83333.3324622417
83333.3325145837
83333.3325719584
83333.3326343706
83333.3327014388
83333.3327723331
83333.3323640167
83333.3323829207
83333.3323788978
83333.33240639
83333.3324000278
83333.3323922288
83333.3324355864
83333.3324256124
83333.3324149882
83333.3324026778
83333.3324721344
83333.3324576539
83333.3324421382
83333.3324261294
83333.3324094905
83333.3325182561
83333.3324977665
83333.3324763582
83333.332453896
83333.3324330805
83333.332412628
83333.3325756641
83333.3325480992
83333.3325193644
83333.3324890756
83333.3324607212
83333.3324361731
83333.3324122404
83333.3326430519
83333.3326086889
83333.3325725825
83333.3325333836
83333.3324955829
83333.3324631476
83333.332435458
83333.3324084104