/*--------------------------------*- C++ -*----------------------------------*\
  =========                 |
  \\      /  F ield         | OpenFOAM: The Open Source CFD Toolbox
   \\    /   O peration     | Website:  https://openfoam.org
    \\  /    A nd           | Version:  12
     \\/     M anipulation  |
\*---------------------------------------------------------------------------*/
/*   Windows 32 and 64 bit porting by blueCAPE: http://www.bluecape.com.pt   *\
|  Based on Windows porting (2.0.x v4) by Symscape: http://www.symscape.com   |
\*---------------------------------------------------------------------------*/
FoamFile
{
    format      ascii;
    class       surfaceScalarField;
    location    "100";
    object      phi;
}
// * * * * * * * * * * * * * * * * * * * * * * * * * * * * * * * * * * * * * //

dimensions      [0 3 -1 0 0 0 0];

internalField   nonuniform List<scalar> 
29038
(
6.50124720755609e-06
2.41340217262062e-06
-2.50975331287533e-06
6.60432758424466e-06
2.39235678993453e-06
-2.49543697066144e-06
5.78530225002543e-06
3.82242340670645e-06
-1.55828843674851e-06
5.47230983301622e-06
1.69550525171974e-06
-4.32714091572108e-06
6.71753237638473e-06
2.38015645253404e-06
-2.49337826094525e-06
5.94771502893981e-06
3.80892290135147e-06
-1.57899953012579e-06
5.61455604234862e-06
1.71107931877305e-06
-4.34878040911373e-06
5.0036126203657e-06
4.69900067482796e-06
-1.04178318797014e-06
3.06469908830479e-06
1.78514000775242e-06
-1.73511078999324e-06
4.58435718838031e-06
1.21990933221962e-06
-5.69361105334707e-06
6.84225879943353e-06
2.36297175016339e-06
-2.48770918945874e-06
6.12615276549077e-06
3.81144469357305e-06
-1.60975667046891e-06
5.76741731918469e-06
1.73863669749868e-06
-4.38489786578182e-06
5.18068307994672e-06
4.7023365252397e-06
-1.07050741310575e-06
3.16662756337232e-06
1.81497416111191e-06
-1.78484153068582e-06
4.7496587781893e-06
1.24723684566411e-06
-5.76131716037788e-06
4.55144475929314e-06
5.29961099836584e-06
-7.61005237669544e-07
2.09962499755938e-06
1.72265013600621e-06
-1.02202508354415e-06
1.88922851602859e-06
1.13768411706114e-06
-1.68459213253214e-06
4.09189255865878e-06
9.44665449214008e-07
-6.79185866803023e-06
6.97393120959039e-06
2.34136814509025e-06
-2.47305726545076e-06
6.31477839153903e-06
3.80964114405466e-06
-1.63532620287608e-06
5.92884318654967e-06
1.76088975347566e-06
-4.41004740811158e-06
5.37260331847376e-06
4.72165394581062e-06
-1.10215379464426e-06
3.282703077122e-06
1.857357597571e-06
-1.84458062742818e-06
4.92437129289718e-06
1.28422453990701e-06
-5.84385254827356e-06
4.72181719710991e-06
5.31566042574298e-06
-7.83711737495061e-07
2.15011877579021e-06
1.75027196493571e-06
-1.05632602947715e-06
1.9280288554361e-06
1.16186972044914e-06
-1.73828087780047e-06
4.25989438942343e-06
9.68336596710196e-07
-6.89765571469257e-06
4.26072022923455e-06
5.76191864056722e-06
-6.14765466052763e-07
1.76216718169442e-06
1.75419897799738e-06
-8.20385105549728e-07
1.30403945886271e-06
1.11933457092964e-06
-1.00002170736884e-06
1.5436390731618e-06
1.0410672894167e-06
-1.79664987282942e-06
3.67996869143168e-06
8.84912346777251e-07
-7.82493035656575e-06
7.10782772152769e-06
2.31300719391851e-06
-2.44692649073292e-06
6.51312725534726e-06
3.79937270644596e-06
-1.65638331257273e-06
6.10153946497947e-06
1.77675588067251e-06
-4.42254387939541e-06
5.5774980539266e-06
4.73626411264313e-06
-1.13154865420277e-06
3.41351498654306e-06
1.89719713086313e-06
-1.90247831884151e-06
5.11365162420613e-06
1.3181190781018e-06
-5.91746480385243e-06
4.90509361842188e-06
5.34513275593518e-06
-8.06781011709434e-07
2.21216578232092e-06
1.789338363778e-06
-1.09620336384717e-06
1.97669632188467e-06
1.19550687664553e-06
-1.80454341450684e-06
4.43933755651591e-06
9.98647142162469e-07
-7.02195020417364e-06
4.42182253441472e-06
5.78436939207736e-06
-6.29822044242282e-07
1.79517740165294e-06
1.77835890614455e-06
-8.44829713137241e-07
1.30334281206896e-06
1.13831058509524e-06
-1.03207790899946e-06
1.56448510249447e-06
1.06063731801172e-06
-1.85142614769648e-06
3.84340644720605e-06
9.01699827730433e-07
-7.96279361242727e-06
4.00923204615743e-06
6.11858852214596e-06
-4.96524799353118e-07
1.5825900860049e-06
1.83778963950116e-06
-7.19964515559956e-07
1.1347082887233e-06
1.17829237998117e-06
-8.68661938093128e-07
1.08497241060502e-06
1.1251402784913e-06
-1.06868534599803e-06
1.3560674835909e-06
1.09643191217216e-06
-2.01697263780397e-06
3.45151436160925e-06
9.54897141673139e-07
-8.92663487185215e-06
7.24924574750041e-06
2.27802119254899e-06
-2.41944927327252e-06
6.71833133336123e-06
3.77858910921317e-06
-1.67081387457253e-06
6.28693713287447e-06
1.78290574415042e-06
-4.41526274941568e-06
5.79371000524423e-06
4.74175603591176e-06
-1.15861859756188e-06
3.559092712754e-06
1.93121160027214e-06
-1.95643794573819e-06
5.32387076268691e-06
1.34671222566144e-06
-5.97949561403191e-06
5.10129983619716e-06
5.36999534341543e-06
-8.29959112461782e-07
2.28568193120833e-06
1.82873898758467e-06
-1.13662463461477e-06
2.03734371672658e-06
1.2284057529115e-06
-1.87342387544237e-06
4.63823073301788e-06
1.02844932982351e-06
-7.14481393599596e-06
4.59424577985931e-06
5.81823965825093e-06
-6.45549994900793e-07
1.83701783883316e-06
1.81297432164514e-06
-8.72280157097403e-07
1.3100905381657e-06
1.16562053248543e-06
-1.07306789056702e-06
1.59352442280895e-06
1.08685908347545e-06
-1.92179949369795e-06
4.02082494101721e-06
9.22929268135757e-07
-8.12229991608186e-06
4.15760044775239e-06
6.14485115140919e-06
-5.08863575520248e-07
1.60868310828682e-06
1.85895229823017e-06
-7.36523051395209e-07
1.1265366752042e-06
1.19310946142164e-06
-8.91459240255922e-07
1.07220360909064e-06
1.14052731640512e-06
-1.09919956244625e-06
1.36998471875303e-06
1.11152003153456e-06
-2.07516413377162e-06
3.61506854788444e-06
9.66684286044401e-07
-9.09303115021861e-06
3.77454990540905e-06
6.4207913325257e-06
-4.25939459122301e-07
1.46509764748223e-06
1.96272561823286e-06
-6.40336888781158e-07
1.0455770710554e-06
1.27533542132827e-06
-8.06331003712085e-07
9.50098732206225e-07
1.21546170624084e-06
-9.38006598054612e-07
9.63271990210824e-07
1.25605707563652e-06
-1.20953063526688e-06
1.22807860538218e-06
1.22880503997287e-06
-2.29756565831264e-06
3.01114223339874e-06
1.01387055881801e-06
-1.00703167372969e-05
7.40543738903672e-06
2.23621383995876e-06
-2.39241672022381e-06
6.92954132297052e-06
3.74974061957525e-06
-1.68296333754054e-06
6.49057063936182e-06
1.78249476562074e-06
-4.40559215506321e-06
6.01830759336463e-06
4.73644269374643e-06
-1.18247975672578e-06
3.71570739819551e-06
1.95757394228386e-06
-2.00212079062979e-06
5.55230921598486e-06
1.36540989050198e-06
-6.00912083594503e-06
5.30912236975519e-06
5.38597303510199e-06
-8.52065211203842e-07
2.36964782446681e-06
1.86395894477972e-06
-1.17535243018077e-06
2.11074203041577e-06
1.25714444840076e-06
-1.9402797123739e-06
4.86430923511513e-06
1.05517222192433e-06
-7.26075509183479e-06
4.77862898063416e-06
5.84790191221962e-06
-6.62308703590866e-07
1.88788139723421e-06
1.84863197071855e-06
-9.00737124964748e-07
1.32494735926945e-06
1.19386530554819e-06
-1.116946464483e-06
1.6333765267823e-06
1.1130741905422e-06
-1.99790973937885e-06
4.2181258983736e-06
9.43381124379352e-07
-8.28550252478561e-06
4.31693798349354e-06
6.17956182198587e-06
-5.2067718483438e-07
1.64178576597089e-06
1.88926609015487e-06
-7.54964598200822e-07
1.12397949579321e-06
1.21550515035983e-06
-9.19611390760668e-07
1.06512314949949e-06
1.16146305210597e-06
-1.14059211266325e-06
1.39141054219691e-06
1.13116794143901e-06
-2.15146564179923e-06
3.79155106915408e-06
9.84385924283309e-07
-9.28316984088019e-06
3.90716522865738e-06
6.44736270679053e-06
-4.35139322360767e-07
1.4876382727232e-06
1.97961442299479e-06
-6.5207833270164e-07
1.03728825202466e-06
1.28671948854867e-06
-8.21849108817504e-07
9.3149286799695e-07
1.2269293241566e-06
-9.5925585665738e-07
9.47491416079978e-07
1.26795826631003e-06
-1.23985761469305e-06
1.23924307130611e-06
1.24039974592694e-06
-2.36004413131622e-06
3.15812610103358e-06
1.02526274291229e-06
-1.02652714240037e-05
3.57281115596712e-06
6.69319821048606e-06
-3.75244512309958e-07
1.3823898565523e-06
2.09792261625728e-06
-5.78634076736002e-07
9.89967524437973e-07
1.3934261093712e-06
-7.50316658934033e-07
8.79585017479413e-07
1.31371092256032e-06
-8.84873527954474e-07
8.43862381487728e-07
1.38136028749346e-06
-1.03977501935178e-06
8.70073975967639e-07
1.4398135783556e-06
-1.40193017033261e-06
1.08482526876921e-06
1.39624196275716e-06
-2.68374653657546e-06
2.54622635651839e-06
1.17218973747818e-06
-1.13545182584337e-05
7.5804664878656e-06
2.18840374291288e-06
-2.36343435793273e-06
7.14601137252909e-06
3.71151224602132e-06
-1.69179828312595e-06
6.71551762264057e-06
1.7791946199727e-06
-4.39658190127263e-06
6.25100751090391e-06
4.72157330286787e-06
-1.20455007079023e-06
3.88225483149123e-06
1.97862444440644e-06
-2.04566044581126e-06
5.7910266011695e-06
1.38230466788047e-06
-6.02662132623284e-06
5.52586335075089e-06
5.39179106982427e-06
-8.7211335138274e-07
2.46197955651535e-06
1.89338749145602e-06
-1.21064472270289e-06
2.19343427453072e-06
1.2792588293437e-06
-1.99867540358315e-06
5.12384207239754e-06
1.06984628998194e-06
-7.33850456924315e-06
4.97386648596936e-06
5.868752704206e-06
-6.78034344733478e-07
1.94688726445313e-06
1.88083063411983e-06
-9.279610605366e-07
1.34773407414439e-06
1.21907873040608e-06
-1.16007787070787e-06
1.68604757181318e-06
1.1371473647858e-06
-2.07493510529593e-06
4.44619574481658e-06
9.63234560096466e-07
-8.45207066159101e-06
4.48664227540836e-06
6.21103987118053e-06
-5.3285701485148e-07
1.68189104089745e-06
1.92066105804604e-06
-7.74463271052922e-07
1.12753547224974e-06
1.23915865348937e-06
-9.49591432440445e-07
1.06464787783299e-06
1.18289038884451e-06
-1.18629125913721e-06
1.42240238813407e-06
1.15029721509053e-06
-2.23582621257646e-06
3.98093332981254e-06
1.00044660623049e-06
-9.47534137812293e-06
4.05279475039117e-06
6.47709973184587e-06
-4.43174760020467e-07
1.51627035413039e-06
2.00455834359138e-06
-6.64610004101604e-07
1.03352543549413e-06
1.30488313132014e-06
-8.40581678156086e-07
9.17109075063059e-07
1.24317593278956e-06
-9.86942007275115e-07
9.36676670649829e-07
1.2834747630953e-06
-1.28208521568113e-06
1.25739349414823e-06
1.25589340999925e-06
-2.44112647749418e-06
3.31950888812317e-06
1.04128940166013e-06
-1.04858428164073e-05
3.68751390685083e-06
6.71390517776693e-06
-3.81248244177278e-07
1.4030387106174e-06
2.11061220711711e-06
-5.8679626589886e-07
9.83806321152608e-07
1.40126247085209e-06
-7.60462118285371e-07
8.62110524870248e-07
1.32161787945246e-06
-8.99063283828576e-07
8.22956344312013e-07
1.38972711818279e-06
-1.0601185632377e-06
8.54454447521455e-07
1.44881057324887e-06
-1.43265085592414e-06
1.09330333478064e-06
1.40613857986439e-06
-2.74939645668571e-06
2.67671303892315e-06
1.18363467807085e-06
-1.15793910899846e-05
3.41979508897321e-06
6.97058298673469e-06
-3.41661101677904e-07
1.32504961430248e-06
2.23525818399592e-06
-5.28377628953743e-07
9.56690431477608e-07
1.51857615198256e-06
-6.98913408707308e-07
8.38672526287892e-07
1.41822200986097e-06
-8.38755183921472e-07
7.82528562915241e-07
1.48612667381722e-06
-9.67760901086936e-07
7.6508397551491e-07
1.59488931382043e-06
-1.17230497282938e-06
7.89520086899252e-07
1.66979010104388e-06
-1.65836633546127e-06
9.5098002381868e-07
1.65189011532878e-06
-3.16603931471914e-06
2.09668908058774e-06
1.43763075411745e-06
-1.28856562108456e-05
7.7697983855771e-06
-2.32348005283897e-06
2.13414285114446e-06
7.36515784298053e-06
3.6626490428123e-06
-1.69341586772161e-06
6.96224069062332e-06
1.76810957322813e-06
-4.37828809087043e-06
6.48998523303904e-06
4.69579796994957e-06
-1.22327966731102e-06
4.0598998818996e-06
1.99445242636401e-06
-2.08472101665122e-06
6.04911062587198e-06
1.39500785589221e-06
-6.04967579810511e-06
5.75028539018649e-06
5.38712805829365e-06
-8.89993470246489e-07
2.56211147147624e-06
1.91809458697137e-06
-1.24416583557187e-06
2.28294926056649e-06
1.29870017810555e-06
-2.05158176848843e-06
5.36878591212366e-06
1.07884504726934e-06
-7.35041923284842e-06
5.17696022258859e-06
5.88037734934605e-06
-6.91697327038507e-07
2.01267937251559e-06
1.90819026427755e-06
-9.52725497085377e-07
1.37653709714769e-06
1.23920436453395e-06
-1.1993978380996e-06
1.749573862576e-06
1.15307294145552e-06
-2.14543609420294e-06
4.72781906200627e-06
9.71370516144434e-07
-8.5915032264608e-06
4.66595895299476e-06
6.23354146207355e-06
-5.44117105218376e-07
1.72846737038957e-06
1.9488760932209e-06
-7.9267208028494e-07
1.13708494161177e-06
1.26009460923946e-06
-9.78530744697258e-07
1.07199746034788e-06
1.20189198186475e-06
-1.23217379814007e-06
1.46644505253815e-06
1.16868114362518e-06
-2.32442785012867e-06
4.16991996329084e-06
1.01879979652362e-06
-9.65986308731679e-06
4.20748824617349e-06
6.508153758936e-06
-4.51823015172809e-07
1.5506279834278e-06
2.03079526374823e-06
-6.77357926504142e-07
1.03449919797296e-06
1.32400756403833e-06
-8.60292311754544e-07
9.07625099463387e-07
1.25978136447615e-06
-1.01700008373579e-06
9.31523056349653e-07
1.2987347404939e-06
-1.32957740696046e-06
1.28279606601423e-06
1.27033898474351e-06
-2.53112762602037e-06
3.49779416423744e-06
1.05684561905222e-06
-1.07104868408069e-05
3.82375382731835e-06
6.72668675037135e-06
-3.85836714554828e-07
1.42962919856045e-06
2.12919854869987e-06
-5.94417467987228e-07
9.81496482563057e-07
1.4149724587059e-06
-7.72391299368656e-07
8.48011053414059e-07
1.33368922827381e-06
-9.16996929477029e-07
8.05700506396943e-07
1.40107555180085e-06
-1.08728929979333e-06
8.4344202768147e-07
1.46039507953761e-06
-1.47557719864176e-06
1.10819616502371e-06
1.41947122544566e-06
-2.83420503497503e-06
2.8250267251754e-06
1.19957774608385e-06
-1.18337383623726e-05
3.50697593354725e-06
6.96919790478041e-06
-3.42476460852433e-07
1.34432852534452e-06
2.24338480160973e-06
-5.33305115434343e-07
9.53312038658834e-07
1.52298402931848e-06
-7.05140119747269e-07
8.2459145642217e-07
1.42266288974415e-06
-8.47426299086498e-07
7.63009592607478e-07
1.49097112563931e-06
-9.80789718011593e-07
7.45214349157001e-07
1.60047295083708e-06
-1.19191335608565e-06
7.75317431488201e-07
1.67692157506502e-06
-1.68923295368749e-06
9.58281636677926e-07
1.66142206647444e-06
-3.23448575287858e-06
2.21007489345761e-06
1.44908913244882e-06
-1.31418573634381e-05
3.35500975008738e-06
7.31096146419038e-06
-3.47649575200512e-07
1.28817747627059e-06
2.37420024914894e-06
-4.90836366628905e-07
9.3890939994523e-07
1.64428840612746e-06
-6.52018511942183e-07
8.18254376276925e-07
1.52485370352067e-06
-7.93772116219649e-07
7.4939217874485e-07
1.58058847684633e-06
-9.15287423477732e-07
7.13577787079942e-07
1.70718813049466e-06
-1.05945186948239e-06
7.06198171608475e-07
1.85151419843963e-06
-1.33419276815379e-06
7.22414258987294e-07
1.9717812168562e-06
-1.96380897828048e-06
8.33498564521318e-07
2.02421425645171e-06
-3.75501213934044e-06
1.6864892552751e-06
1.85349994773915e-06
-1.48141234458196e-05
7.97078194356827e-06
-2.27391108267075e-06
2.07292029425716e-06
7.22174010753966e-06
-4.32968487399726e-06
1.74668697864163e-06
7.5801413662447e-06
-1.68354187765095e-06
3.60268706753121e-06
6.73031758148618e-06
4.65782756029711e-06
-1.23552419094568e-06
4.2468414465415e-06
2.00149557913345e-06
-2.11375660954304e-06
6.3367058360153e-06
1.39876352900649e-06
-6.06465620658199e-06
5.98022276770692e-06
5.37036737281443e-06
-9.04517628413294e-07
2.67010443666432e-06
1.93689863626604e-06
-1.27373594302612e-06
2.38290690917845e-06
1.3137560693108e-06
-2.10343391596695e-06
5.63070844162416e-06
1.08997453314527e-06
-7.40157190638285e-06
5.3859770164113e-06
5.88127403385942e-06
-7.03173661899118e-07
2.08495953758158e-06
1.93065983554035e-06
-9.74856684805205e-07
1.41078506430223e-06
1.25544759347086e-06
-1.23516484718169e-06
1.81260839145675e-06
1.16276866226959e-06
-2.19854203191682e-06
4.9487737889191e-06
9.54565677657603e-07
-8.52594817737695e-06
4.85106580047639e-06
6.24878798756012e-06
-5.53532535730787e-07
1.78060975968603e-06
1.97278537715845e-06
-8.08446756997255e-07
1.15161240808788e-06
1.27663325702488e-06
-1.00468584262667e-06
1.08568369671763e-06
1.2151226910025e-06
-1.2751348330093e-06
1.52727234743388e-06
1.17916882900958e-06
-2.41406591909382e-06
4.34428671347407e-06
1.03787145522199e-06
-9.80374754567849e-06
4.37032642095074e-06
6.52941153880159e-06
-4.5872055398103e-07
1.59013414369317e-06
2.05381544575207e-06
-6.88573785327134e-07
1.04013403535904e-06
1.34034425769607e-06
-8.78557371401723e-07
9.03671476312406e-07
1.27360904119153e-06
-1.04629565447339e-06
9.34221530203543e-07
1.31187789798766e-06
-1.37806996238996e-06
1.31650316963233e-06
1.28469267135527e-06
-2.62403507376712e-06
3.69260605092455e-06
1.07374875526684e-06
-1.09284319410979e-05
3.96591023159446e-06
6.76000596384465e-06
-3.94015309890979e-07
1.46079482846052e-06
2.14979925614537e-06
-6.01999736833265e-07
9.83072701541374e-07
1.42947171911536e-06
-7.84402215087355e-07
8.37754893019438e-07
1.34567879632748e-06
-9.35934692021523e-07
7.92665302309307e-07
1.41186118747857e-06
-1.11709158425484e-06
8.37323753755604e-07
1.47106871046614e-06
-1.52419164901543e-06
1.1302564781744e-06
1.43189374098886e-06
-2.92824615002692e-06
2.99657079970059e-06
1.2151961787749e-06
-1.20972347351695e-05
3.64879233530199e-06
6.92287336983066e-06
-3.38011282680196e-07
1.37102285274191e-06
2.25302160375185e-06
-5.36362793036747e-07
9.53568112616255e-07
1.53216152043965e-06
-7.11864617185637e-07
8.13387945275419e-07
1.43073454676355e-06
-8.58233674242559e-07
7.46448091610397e-07
1.49831857897567e-06
-9.97680025611759e-07
7.28785428062961e-07
1.60800762518094e-06
-1.21847596355867e-06
7.65500024592892e-07
1.6861649378537e-06
-1.73245762565333e-06
9.72341324128109e-07
1.67422469916409e-06
-3.32291631186779e-06
2.34319659207853e-06
1.46615503452463e-06
-1.34330145084941e-05
3.38197440483166e-06
7.28770464849192e-06
-3.45477486417061e-07
1.30384569150788e-06
2.37705104482594e-06
-4.91816484964244e-07
9.38358367129871e-07
1.6452837778166e-06
-6.55053772286657e-07
8.08126590612132e-07
1.52603051922836e-06
-7.98378899234447e-07
7.33491027438386e-07
1.58218213387529e-06
-9.22736081345705e-07
6.95319373804779e-07
1.70945225865803e-06
-1.07151305575727e-06
6.88971804164643e-07
1.85522555462962e-06
-1.3529957346697e-06
7.10745273531605e-07
1.97809418007334e-06
-1.9942371240705e-06
8.40453376526296e-07
2.0341748724219e-06
-3.82652486322761e-06
1.78219538596927e-06
1.86614846540644e-06
-1.51037054462416e-05
3.51187701007007e-06
7.53593748870943e-06
-3.48804564843646e-07
1.2727150337286e-06
2.50334180498805e-06
-4.74000260328026e-07
9.3199630934863e-07
1.76514436400006e-06
-6.11211089633666e-07
8.11230490328376e-07
1.63003115011082e-06
-7.49616821632074e-07
7.35487200461752e-07
1.66894847238399e-06
-8.68801038757142e-07
6.87449995344003e-07
1.79355122192105e-06
-9.85010343282924e-07
6.66393423729545e-07
1.96643423329675e-06
-1.15675886934919e-06
6.63642648340142e-07
2.16418681767875e-06
-1.51048982178996e-06
6.69481744179761e-07
2.36446829733655e-06
-2.29301918948303e-06
7.4153675719938e-07
2.5424385710182e-06
-4.44712272304772e-06
1.31255003703945e-06
2.68130451396173e-06
-1.75522619524609e-05
8.18069129842e-06
-2.21463024496664e-06
2.00471339970465e-06
7.48798035431188e-06
-4.25460600505428e-06
1.71444043014194e-06
7.78348175759681e-06
-1.66104946728968e-06
3.5306053569557e-06
6.63070693761358e-06
-6.01372493985139e-06
1.39003015836458e-06
4.43612455282449e-06
-2.12398824853473e-06
1.99783282551399e-06
6.96457153925902e-06
-1.23847259050165e-06
4.60689400627208e-06
6.2113657740398e-06
5.34084313099931e-06
-9.14173949339818e-07
2.78416479121339e-06
1.94805281029903e-06
-1.29615784247276e-06
2.4952261030194e-06
1.32141643330997e-06
-2.14873714720586e-06
5.9666505844721e-06
1.09736131575374e-06
-7.49796212036211e-06
5.59911649395187e-06
5.86884274828702e-06
-7.11624101595959e-07
2.16320653239218e-06
1.94703205614892e-06
-9.9290739616243e-07
1.45143006315676e-06
1.26666508079176e-06
-1.26729434045511e-06
1.88637401755346e-06
1.17004873570019e-06
-2.25727741654874e-06
5.20697952369356e-06
9.5435214966653e-07
-8.6141327625808e-06
5.03943542243829e-06
6.25338576242562e-06
-5.60495064604994e-07
1.83779082440183e-06
1.99148005243276e-06
-8.2118108325443e-07
1.17083575224866e-06
1.28866378650312e-06
-1.02729912948104e-06
1.10247394834096e-06
1.22283581071595e-06
-1.31202351243895e-06
1.57655174658241e-06
1.17406598339337e-06
-2.46732420727215e-06
4.56820639270773e-06
1.01835516130461e-06
-9.76823462183745e-06
4.53464207605741e-06
6.54866472906577e-06
-4.64198618644451e-07
1.63367554920918e-06
2.07312899216532e-06
-6.97425451743601e-07
1.04986905371991e-06
1.35255896888867e-06
-8.94109592330228e-07
9.045470032962e-07
1.28257263094248e-06
-1.07301199649871e-06
9.4560660953476e-07
1.3190017415766e-06
-1.4263546562855e-06
1.36142547368317e-06
1.29685720046033e-06
-2.71797697749595e-06
3.91816247848054e-06
1.10064565259358e-06
-1.11299627194404e-05
4.11428753507154e-06
6.77983764027855e-06
-3.98806488300639e-07
1.49598797903211e-06
2.1677830082478e-06
-6.07887831663373e-07
9.88337298735846e-07
1.44110992481409e-06
-7.94606480380813e-07
8.31636487490131e-07
1.35454218076306e-06
-9.5337336658069e-07
7.84987127580919e-07
1.41957059590551e-06
-1.14631191603617e-06
8.38020022155408e-07
1.47957668065908e-06
-1.57365460747519e-06
1.16157879380316e-06
1.44285534454636e-06
-3.02447256783453e-06
3.20070214373176e-06
1.22975940492318e-06
-1.23623328844207e-05
3.78785127482271e-06
6.96629200697014e-06
-3.45353958071193e-07
1.40064215853471e-06
2.2665915293377e-06
-5.4043323849676e-07
9.57084040467231e-07
1.54210795181151e-06
-7.18152706533702e-07
8.0531251712973e-07
1.43842732643892e-06
-8.6907565202364e-07
7.33242517169519e-07
1.50473427753486e-06
-1.01560447288857e-06
7.16200924560565e-07
1.61433840773137e-06
-1.2477804580644e-06
7.60495251905765e-07
1.69410795404545e-06
-1.78140473769254e-06
9.94728821121472e-07
1.68606228730199e-06
-3.4215063835715e-06
2.50319876851243e-06
1.4830949481646e-06
-1.37403400381905e-05
3.53020355132089e-06
7.09042403333046e-06
-3.15785127652346e-07
1.33363007581748e-06
2.37436831650336e-06
-4.89149136147978e-07
9.41851632035582e-07
1.64988249068604e-06
-6.57577905620756e-07
8.00654007727257e-07
1.5302900360809e-06
-8.03946121029409e-07
7.20091177818809e-07
1.58577540117751e-06
-9.32291238052832e-07
6.79840692246131e-07
1.71308935827398e-06
-1.08728540677387e-06
6.75095127663238e-07
1.86018737850533e-06
-1.37862580126812e-06
7.03485437720145e-07
1.98629249122663e-06
-2.03726932744248e-06
8.54411579772917e-07
2.04811818448499e-06
-3.91884021345661e-06
1.89763478421308e-06
1.88590460208216e-06
-1.54343550283215e-05
3.53596353081828e-06
7.58883909964201e-06
-3.25218170820452e-07
1.27776492176106e-06
2.49927066434859e-06
-4.7274812781317e-07
9.33644093049436e-07
1.7631845202593e-06
-6.1136488955983e-07
8.05096766966986e-07
1.62825008998372e-06
-7.51138525524807e-07
7.23860651346487e-07
1.66760888075875e-06
-8.72178185477302e-07
6.72829242075151e-07
1.79279481143683e-06
-9.91458708094298e-07
6.51082834307012e-07
1.9668915858468e-06
-1.16787194878398e-06
6.50001804923278e-07
2.1669149015059e-06
-1.52817916399942e-06
6.60939976979828e-07
2.37077053338146e-06
-2.32229268668663e-06
7.49197517319351e-07
2.55318644582489e-06
-4.52122153389536e-06
1.39032025271635e-06
2.69316953705891e-06
-1.78746371143344e-05
3.58102603623741e-06
7.64350863030338e-06
-2.85686333762503e-07
1.29208802975293e-06
2.59423942894725e-06
-4.55460494271403e-07
9.33660852777072e-07
1.870357029535e-06
-5.77555603147182e-07
8.126462335837e-07
1.72965859853005e-06
-7.06947111485915e-07
7.33641209709923e-07
1.75200551099793e-06
-8.23906355802519e-07
6.78301324303182e-07
1.86472512387166e-06
-9.27844137772388e-07
6.47099005521071e-07
2.04145536376185e-06
-1.0462870934648e-06
6.36424733364454e-07
2.26867037394894e-06
-1.24755594573958e-06
6.34807980681214e-07
2.54025451239985e-06
-1.67457228139841e-06
6.36197428209204e-07
2.87292349723291e-06
-2.6167002481789e-06
6.98613683899363e-07
3.42905947507207e-06
-5.20011043799736e-06
8.6970532053707e-07
5.02714890213603e-06
8.39171200835725e-06
-2.14344109839288e-06
1.93241860395875e-06
7.75363727566061e-06
-4.15280733738137e-06
1.67250795917321e-06
7.96709411062157e-06
-1.62542163076185e-06
3.44650818403987e-06
6.92723196532404e-06
-5.92084364503153e-06
1.36970170444604e-06
4.62186530297959e-06
-2.11470234749182e-06
1.98233567014614e-06
7.18352717468186e-06
-1.23027531792255e-06
4.54190717643057e-06
6.29096825373663e-06
-7.42403340986905e-06
1.08598594611254e-06
2.61077142422753e-06
-2.16853928280433e-06
1.31902902715146e-06
2.90023567221908e-06
-1.3071299323794e-06
1.95040485937995e-06
6.4367655776722e-06
-9.16927769053164e-07
5.29841014826802e-06
5.8129326812357e-06
5.84339060530745e-06
-7.16374427237934e-07
2.24571500866603e-06
1.9563759658553e-06
-1.00501738420283e-06
1.49830594495772e-06
1.27118400963967e-06
-1.2928041402158e-06
1.98327980965579e-06
1.17330740266736e-06
-2.32159100675956e-06
5.61431186146185e-06
9.73691560119357e-07
-8.87898572585242e-06
5.23110576055134e-06
6.24189627948469e-06
-5.64733297593552e-07
1.89948057667289e-06
2.00356798955035e-06
-8.29858708200983e-07
1.19474215507791e-06
1.29513911242336e-06
-1.04528959655571e-06
1.12538104839779e-06
1.2256000203741e-06
-1.34575321183465e-06
1.63814735911154e-06
1.17125864357008e-06
-2.53578104123507e-06
4.92378262304501e-06
1.00249557796985e-06
-9.9722118786674e-06
4.69707846883469e-06
6.55818597513272e-06
-4.67240071981489e-07
1.68066774631624e-06
2.08717851728997e-06
-7.03187114793566e-07
1.06344499227362e-06
1.35992557981769e-06
-9.06020418412417e-07
9.0929899043523e-07
1.28623007421123e-06
-1.09544593613404e-06
9.57210976627323e-07
1.31775607683711e-06
-1.4673196389394e-06
1.41490422965777e-06
1.28611065020696e-06
-2.78856238671614e-06
4.30044038975197e-06
1.13221872366021e-06
-1.12827366156106e-05
4.25748615327411e-06
6.80808603859142e-06
-4.02627340180704e-07
1.53323902709691e-06
2.18335313113595e-06
-6.11677198872615e-07
9.96726291488283e-07
1.4488582577457e-06
-8.02114282621314e-07
8.2930595615465e-07
1.35881679887966e-06
-9.68023576618566e-07
7.82729257485883e-07
1.42197462402914e-06
-1.17372816396786e-06
8.4897112662106e-07
1.48360092171908e-06
-1.62405198402103e-06
1.20809433989608e-06
1.45672805981453e-06
-3.12058348045463e-06
3.45159958127366e-06
1.24614851963769e-06
-1.26270164136616e-05
3.93105516515689e-06
6.98538812559686e-06
-3.4876026940122e-07
1.43303690565186e-06
2.27921383100511e-06
-5.42637513242642e-07
9.63485843674066e-07
1.54930482571197e-06
-7.22486486409641e-07
8.00446522470027e-07
1.44275045256615e-06
-8.77948843842073e-07
7.23923772239138e-07
1.5075232594487e-06
-1.03200828506824e-06
7.08649938259683e-07
1.61726566528985e-06
-1.27645315974929e-06
7.61533837421952e-07
1.69918451774466e-06
-1.83102777817372e-06
1.02862974052775e-06
1.69521593241745e-06
-3.52383594359389e-06
2.70092323215488e-06
1.4988896631161e-06
-1.40589550297213e-05
3.67217679056096e-06
7.13494261805204e-06
-3.10628515169246e-07
1.36378282313833e-06
2.38319699737392e-06
-4.92113626254602e-07
9.47795203957106e-07
1.6556085766487e-06
-6.59878018658747e-07
7.95830048958832e-07
1.53404741226886e-06
-8.0894759597308e-07
7.09469880858119e-07
1.58811912758965e-06
-9.41839738261475e-07
6.67497734792811e-07
1.71512447932669e-06
-1.10405057743468e-06
6.64984496589233e-07
1.86345367666615e-06
-1.40701965728867e-06
7.01453230108335e-07
1.9929803623081e-06
-2.08629458425669e-06
8.77458670409642e-07
2.0613583596813e-06
-4.02282091407986e-06
2.04146837265252e-06
1.90625697861714e-06
-1.57904359969669e-05
3.53524093922214e-06
7.40351412091331e-06
-3.12372859447709e-07
1.31190237724111e-06
2.48274209645869e-06
-4.58299397073786e-07
9.41133349016057e-07
1.76339535270065e-06
-6.10152678046527e-07
8.01556085462572e-07
1.62905178620313e-06
-7.5279894942528e-07
7.14386693718911e-07
1.66782437405534e-06
-8.76521084667414e-07
6.60525348195315e-07
1.79292182880683e-06
-9.99821016612917e-07
6.38477407042825e-07
1.9679400263643e-06
-1.18243638476171e-06
6.39728569372368e-07
2.17042045943755e-06
-1.55248409281093e-06
6.56895578474149e-07
2.37911458973154e-06
-2.3642234273264e-06
7.6392870935807e-07
2.5693894065513e-06
-4.61705814353096e-06
1.48597956644945e-06
2.71888454999806e-06
-1.82488983162602e-05
3.74877826850964e-06
7.69917164941819e-06
-2.78085881951151e-07
1.30607680306156e-06
2.60380921345515e-06
-4.43749925536745e-07
9.35390051481725e-07
1.86479343686701e-06
-5.76086155117129e-07
8.10224161084564e-07
1.72543227251241e-06
-7.06124325580924e-07
7.26318891280406e-07
1.74808315791176e-06
-8.24288684040972e-07
6.67876228765396e-07
1.86128459062393e-06
-9.30242333223274e-07
6.35356745063593e-07
2.03899164962269e-06
-1.05181719574433e-06
6.24979560405177e-07
2.2680395797699e-06
-1.25755444372063e-06
6.25332508738098e-07
2.54266710755552e-06
-1.69060301836246e-06
6.31519350315126e-07
2.87977172669352e-06
-2.64420064805996e-06
7.09990406264828e-07
3.44086682220383e-06
-5.28029498319806e-06
9.22794845154335e-07
5.06618978296038e-06
3.62855970598419e-06
7.749089089151e-06
-2.39380847623522e-07
1.30672688152751e-06
2.67363419706525e-06
-4.02443949189776e-07
9.41751082661198e-07
1.95480528188071e-06
-5.43086808296019e-07
8.19408405660563e-07
1.81879697971892e-06
-6.65560540100885e-07
7.3874500012437e-07
1.82871300012779e-06
-7.79122177952956e-07
6.79602218469142e-07
1.92597379170228e-06
-8.77491114673462e-07
6.41946298642017e-07
2.09409557622184e-06
-9.71014266099989e-07
6.23961637811535e-07
2.32397788793832e-06
-1.09161724542639e-06
6.19510454592525e-07
2.61402478459457e-06
-1.31217186912606e-06
6.20051866459013e-07
2.98184772196553e-06
-1.77686164710007e-06
6.34393602814048e-07
3.5261654439804e-06
-2.71206351039171e-06
8.05237099285305e-07
4.6912294592123e-06
8.59245957794189e-06
-2.05927007913424e-06
1.85851259481235e-06
8.00663148276337e-06
-4.01919021243175e-06
1.62273706177974e-06
8.1202769812241e-06
-1.57537435363713e-06
3.35459319249941e-06
7.21952296515544e-06
-5.78413634206611e-06
1.33902234030554e-06