/*--------------------------------*- C++ -*----------------------------------*\
  =========                 |
  \\      /  F ield         | OpenFOAM: The Open Source CFD Toolbox
   \\    /   O peration     | Website:  https://openfoam.org
    \\  /    A nd           | Version:  12
     \\/     M anipulation  |
\*---------------------------------------------------------------------------*/
/*   Windows 32 and 64 bit porting by blueCAPE: http://www.bluecape.com.pt   *\
|  Based on Windows porting (2.0.x v4) by Symscape: http://www.symscape.com   |
\*---------------------------------------------------------------------------*/
FoamFile
{
    format      ascii;
    class       volVectorField;
    location    "100";
    object      U;
}
// * * * * * * * * * * * * * * * * * * * * * * * * * * * * * * * * * * * * * //

dimensions      [0 1 -1 0 0 0 0];

internalField   nonuniform List<vector> 
10166
(
(-9.24001375319538e-05 -8.1410258309434e-05 0.000298367045502648)
(-9.1316929127651e-05 -8.22439605470362e-05 0.000222039869203381)
(-0.000139017761926312 -9.04728127342308e-05 0.000395612398716048)
(-0.000114695456022465 -8.87770069194304e-05 0.000189403670144514)
(-8.67358271358502e-05 -7.95341459171108e-05 0.000149393719572161)
(-0.000135700734200558 -9.50117001586351e-05 0.000335516654080836)
(-0.000115532228279337 -8.66972392625181e-05 0.000119762569663504)
(-8.91232692612697e-05 -8.66372131572853e-05 0.000416894136309372)
(-0.000210738139545387 -0.000120668908497833 0.000173996005536246)
(-0.000148351599055526 -5.33157953866707e-05 0.000202902407871074)
(-8.26250639096925e-05 -7.65708248503945e-05 8.27996153172903e-05)
(-0.000127744443732854 -9.13506372849214e-05 0.000285921533206261)
(-0.000108282023477253 -7.85129503728686e-05 5.62090531081651e-05)
(-8.53162576123115e-05 -9.11358003617368e-05 0.000376171460153815)
(-0.000206616832738573 -0.000117204476916128 0.000121304193025923)
(-0.000146758462485943 -4.94312477009568e-05 0.000151630530936483)
(-3.6492472773177e-05 -3.86476779884611e-05 0.000399248107663816)
(-0.000142058566584453 -0.000140223754896229 0.000180338355718371)
(-0.000251874994050386 -5.55119332530585e-05 0.000142968651302046)
(-0.000140022210320809 -5.25881511084272e-06 0.000238083924888796)
(-7.9576674469363e-05 -7.28922054949871e-05 2.2762076408068e-05)
(-0.000122233629847212 -8.78592061217991e-05 0.000238100558573053)
(-0.000102818125258773 -7.07001396302416e-05 -5.93264664377102e-06)
(-7.98467863331936e-05 -8.65728758193938e-05 0.000341934716652114)
(-0.000195985486754316 -0.000106614530265776 7.43962967699089e-05)
(-0.000136059611685975 -4.12360141743531e-05 0.000102389823774088)
(-3.46281817322265e-05 -4.31616301569405e-05 0.000367645967221485)
(-0.000139174079836579 -0.000138740653635609 0.000136255783631708)
(-0.000249214952584401 -5.28113486130408e-05 9.6856072573501e-05)
(-0.000137805169450205 -1.77472369742301e-06 0.000197078661652563)
(2.33477711173848e-06 3.26862052579143e-05 0.000388417201099)
(-6.4935068438356e-05 -0.000128143943458832 0.000184633710690812)
(-0.00014532506733224 -3.98262395301313e-05 0.000166904667700538)
(-0.000256112560517246 1.75587996549253e-05 0.000153164840841195)
(-0.000143905933303849 5.18063277317894e-05 0.000253094092568223)
(-7.6791124218996e-05 -6.8204557112864e-05 -4.00104161431174e-05)
(-0.000116837660735852 -8.53785365618594e-05 0.000193285817207491)
(-9.93886910081105e-05 -6.37203894088495e-05 -6.4484217540376e-05)
(-7.54129315649269e-05 -8.16085237190524e-05 0.000311420099701294)
(-0.000186065595559825 -9.69736365932079e-05 3.07800289033897e-05)
(-0.000127052137270772 -3.3698369631209e-05 5.46042491704858e-05)
(-3.1638956461451e-05 -3.68016407023795e-05 0.000341104321907859)
(-0.000132698096658883 -0.000130642607471319 9.70954609703897e-05)
(-0.000240250840878623 -4.60012536975338e-05 5.36307658658609e-05)
(-0.000125666579037401 3.18171389362563e-06 0.000156949865686991)
(1.39528217514896e-06 3.06083760930396e-05 0.000364273531818113)
(-6.38321117872621e-05 -0.000127460988846856 0.000147982516622451)
(-0.000144191287803088 -3.84248931417665e-05 0.00012792368618339)
(-0.000254754623952867 1.96587760371399e-05 0.000113491741827417)
(-0.000141022057552339 5.26458104482249e-05 0.000218462048765363)
(2.87496329108876e-05 0.000116728565658901 0.000383187189611529)
(-7.98054966444642e-06 -9.36204056253507e-05 0.000186660057750309)
(-5.1004877518765e-05 -5.29474715881116e-06 0.000176338726071466)
(-0.00012675533574218 6.12016339989859e-05 0.000169725079796462)
(-0.000251881945552018 9.11677959162723e-05 0.000157809283014544)
(-6.03586564086113e-05 9.07705526274276e-05 0.000274185560426894)
(-7.1726523364408e-05 -6.36950631664975e-05 -0.000101288905366687)
(-0.000110967341607776 -8.45194463433772e-05 0.000148755962606128)
(-9.74343289493172e-05 -5.86282307203738e-05 -0.000123591858069744)
(-7.10400514455636e-05 -7.77319205968309e-05 0.000283305085036538)
(-0.000176731634799406 -8.90205701192138e-05 -9.14881731025111e-06)
(-0.000120250337660889 -2.77770446351446e-05 1.24001445884244e-05)
(-2.84589713741513e-05 -2.93948027725561e-05 0.000318367226011317)
(-0.000126266548090747 -0.000121498718749678 6.14741247590428e-05)
(-0.000229953176075667 -3.90493239607727e-05 1.32523699714566e-05)
(-0.000112880265567121 8.40924594133746e-06 0.000119147880735722)
(2.976809204052e-06 3.84787651900297e-05 0.000344507059747431)
(-6.0402400697777e-05 -0.000120227159714833 0.00011514846679741)
(-0.000139022477843408 -3.28816426192185e-05 9.22779689553531e-05)
(-0.000246615620962965 2.42525347719084e-05 7.59013322111608e-05)
(-0.000127069930020833 5.36992044945328e-05 0.000184292166475988)
(2.81346728511404e-05 0.000114421570265299 0.000365099121204322)
(-8.24711825784604e-06 -9.35761247968996e-05 0.000156284642751025)
(-5.05158127465643e-05 -4.91361140431834e-06 0.000144179905831708)
(-0.000126563230187212 6.22084130348548e-05 0.000136339717180518)
(-0.000251813882269004 9.26930520050253e-05 0.000122803203465346)
(-5.71435437259308e-05 8.92569132504145e-05 0.000244133406104931)
(4.09903818650628e-05 0.000206494520934415 0.000378696873885142)
(3.11420052027306e-05 -4.37655197324343e-05 0.000190469863600787)
(1.74315417142236e-05 4.15091119756887e-05 0.000180755144907068)
(-2.58844388139349e-05 0.00010974784926554 0.00017533701324684)
(-9.63891510872015e-05 0.000155065912034863 0.000168692786612715)
(-0.000214348795245529 0.00015892736520269 0.000162355085366985)
(8.737978638716e-05 0.000153021486899809 0.000259836905980607)
(-6.56214016766769e-05 -6.15993628935165e-05 -0.000155694480282155)
(-0.000103732879432916 -8.32888910814164e-05 0.000105146509482143)
(-9.10931434010421e-05 -5.50167913870037e-05 -0.000178556661908024)
(-6.66867703825871e-05 -7.50032717838596e-05 0.000255552154569651)
(-0.00016835672635792 -8.28421033950509e-05 -4.81384567879035e-05)
(-0.00011712904732601 -2.41425583968231e-05 -3.07557072641836e-05)
(-2.54689074642976e-05 -2.27724149652306e-05 0.000298065334398959)
(-0.000120232065459867 -0.000113222357191918 2.82280351169002e-05)
(-0.000219770098997034 -3.30699610140831e-05 -2.40811653730172e-05)
(-0.000101822709465987 1.23135789726827e-05 8.93741681786852e-05)
(5.58609871548843e-06 4.76801409776241e-05 0.000327823954170465)
(-5.6411015563953e-05 -0.000111520151396673 8.54207836208138e-05)
(-0.000132426436594756 -2.64852194011869e-05 5.91985034578447e-05)
(-0.000236019288393944 2.92946814076224e-05 4.06021749097666e-05)
(-0.000108855469759598 5.44811557301691e-05 0.000152740158156085)
(2.91236812740304e-05 0.000122809991198204 0.000351564061704548)
(-6.52456536235834e-06 -8.72464425710327e-05 0.000129181131963528)
(-4.75880873847384e-05 -5.24761745432272e-07 0.000114784624875109)
(-0.000121893742187306 6.56546836290247e-05 0.000105267687503554)
(-0.000244405965850841 9.55973181111931e-05 8.91696134719653e-05)
(-4.20218087697323e-05 9.0582161842847e-05 0.000213495576806371)
(4.08275523816732e-05 0.000203657797439591 0.000366988042683022)
(3.06330060561933e-05 -4.48690291592394e-05 0.000165798432897003)
(1.71327572500436e-05 4.09170068605792e-05 0.000154115257067186)
(-2.60090109972051e-05 0.000109715418391609 0.000147696272321257)
(-9.71034287202291e-05 0.000155125568357689 0.000139455303903923)
(-0.000215323301262447 0.00015931719412115 0.000130924626751666)
(8.99733227957219e-05 0.000152495631879397 0.00023143855456461)
(4.28497061686566e-05 0.000302016320945522 0.000375253466854184)
(5.61435220777103e-05 1.69869557971997e-05 0.000195298821190829)
(6.28539725902683e-05 9.40696387753159e-05 0.000185593240695866)
(4.60163852463938e-05 0.00016246000312206 0.000178332217029523)
(9.33741740876927e-06 0.000216569040553663 0.000172325937434603)
(-4.69005383585507e-05 0.000246954714896689 0.000168085935420345)
(-0.000121687683605142 0.000237306438769809 0.000161879898992667)
(0.000313312496627556 0.000249499233433954 0.000243024814183683)
(-5.81037576121287e-05 -6.04132423107106e-05 -0.000200891701665308)
(-9.6240155218859e-05 -8.1957605039925e-05 6.4751729661865e-05)
(-8.15492409200619e-05 -5.09476368341627e-05 -0.000224571048799081)
(-6.14427180843427e-05 -7.16485274440826e-05 0.000229184949079862)
(-0.000156900526032814 -7.6515172797007e-05 -8.6063127605307e-05)
(-0.000103418331056901 -1.81467025590435e-05 -7.25708088482376e-05)
(-2.28288554994425e-05 -1.70199269415917e-05 0.000278992687125164)
(-0.000114264692581556 -0.000106187544873096 -4.00991344693048e-06)
(-0.000210702665224275 -2.89246358757885e-05 -6.11190543351374e-05)
(-9.90909074936884e-05 1.25058680652183e-05 5.35289128635621e-05)
(7.69369600610513e-06 5.61579618504835e-05 0.000313178377655861)
(-5.27062341612521e-05 -0.000103363967343996 5.75396706406386e-05)
(-0.000125682833567447 -2.07459721220243e-05 2.79622131426585e-05)
(-0.000225074089210342 3.45789237921684e-05 8.40297996299749e-06)
(-8.75926578828217e-05 5.59258483343158e-05 0.000130518134600417)
(3.06890520510263e-05 0.000133586910762556 0.000340073567527303)
(-3.91561386776856e-06 -7.91373419922793e-05 0.000104556677431506)
(-4.36281862028305e-05 4.96394162971143e-06 8.75188303013753e-05)
(-0.000115265037766507 6.96255762132681e-05 7.60227029662326e-05)
(-0.000233342209090605 9.8432650695925e-05 5.72622331312236e-05)
(-2.23206553916781e-05 9.06460108366874e-05 0.000181382303036933)
(4.08961638316578e-05 0.00021181191822248 0.000359981394162885)
(3.17339509637144e-05 -3.95314426802505e-05 0.000144037870509097)
(1.84498485282847e-05 4.42136445724932e-05 0.000129908173064989)
(-2.34805119683092e-05 0.000112026816912598 0.000121996613645355)
(-9.30893684459323e-05 0.000156721505752189 0.00011184846620907)
(-0.000208722157871404 0.000160780494760067 9.99792952486518e-05)
(0.000103961580753069 0.000152923148248696 0.000201730711849161)
(4.20317264211559e-05 0.000299475868502085 0.000369069437281795)
(5.56095505498972e-05 1.46578649153876e-05 0.000176175044581275)
(6.2005294786792e-05 9.24211169653415e-05 0.000163821010673487)
(4.52666133054087e-05 0.000161444762808671 0.000155408387723536)
(8.64507593544363e-06 0.00021563824613697 0.000148217847822552)
(-4.83812720709319e-05 0.000245995593766151 0.000142195649276928)
(-0.000123811628550659 0.000236509293753784 0.000133321602651106)
(0.000315459162998167 0.00024884560851452 0.000217156602248167)
(4.22586334297517e-05 0.000402978773709225 0.00037636952779925)
(6.91014483738432e-05 8.35390198094359e-05 0.000200775635132738)
(9.07953458291007e-05 0.000149581980971088 0.000191183313247444)
(9.46056863640553e-05 0.000214976996189907 0.000182305609155615)
(8.04330345484336e-05 0.000274484968683481 0.00017474043726725)
(5.61593369028479e-05 0.000324082398245671 0.00017082624888742)
(3.04509743123252e-05 0.000346234267614288 0.000168128584750768)
(1.68719902869384e-05 0.000340187558913445 0.000162117032696682)
(0.000563586358811799 0.000379511334892509 0.000229490804099986)
(-4.87435234898025e-05 -5.9915107971869e-05 -0.000234248749786873)
(-8.87697265016573e-05 -8.12559253476171e-05 2.79546606666656e-05)
(-6.94114864568321e-05 -4.84281860110508e-05 -0.0002632141601684)
(-5.60729723020949e-05 -6.81246371164366e-05 0.00020586262796039)
(-0.000144251295363169 -6.91403331511105e-05 -0.000120035267550777)
(-8.60302725187709e-05 -1.32285885716967e-05 -0.000107985621507001)
(-2.02421837942518e-05 -1.15131542580585e-05 0.000261332692579325)
(-0.00010694064513399 -9.88872772345478e-05 -3.50100435608871e-05)
(-0.000197494936038379 -2.32340104494685e-05 -9.78597719409766e-05)
(-7.92658981678877e-05 1.57394962394198e-05 1.73214842327209e-05)
(8.90034709138045e-06 6.35896307358295e-05 0.000299726286771545)
(-4.91714043532153e-05 -9.60692215884031e-05 3.08010837448889e-05)
(-0.000119184814029936 -1.63690815054186e-05 -2.52267784095706e-06)
(-0.000215539183505424 3.69140159061893e-05 -2.49630175353497e-05)
(-7.07955830143488e-05 5.34724249346458e-05 9.85711024491142e-05)
(3.20962828547845e-05 0.000142986387209447 0.000329428314669687)
(-1.56268270605181e-06 -7.14449645216405e-05 8.13573007576086e-05)
(-3.96321598892778e-05 9.92928511879009e-06 6.16381230408688e-05)
(-0.000108245787363404 7.31780095856644e-05 4.84064242754201e-05)
(-0.000220458217906036 0.000101824074710951 2.86956655207657e-05)
(2.11862241078931e-06 9.24317674637739e-05 0.000156118932008558)
(4.10618314670453e-05 0.00022413510976061 0.00035299948660671)
(3.33735542802565e-05 -3.20541078664798e-05 0.000124105603967981)
(2.04878616266796e-05 4.86674755491343e-05 0.000107474076719534)
(-1.97309748259399e-05 0.000114920030116077 9.78118708855377e-05)
(-8.67620157358038e-05 0.000158454769495693 8.55666374220112e-05)
(-0.000198102549645276 0.000161870944778045 6.94208701257501e-05)
(0.000120244220648558 0.000152300573938144 0.000168096209138239)
(4.10707027942745e-05 0.000303649179378271 0.000368859062624067)
(5.60167002891323e-05 1.8830958977443e-05 0.000159750255434088)
(6.23089912070203e-05 9.4656439329983e-05 0.000144237167519368)
(4.61501518036876e-05 0.000162662627786631 0.000134198628890705)
(1.06043486514806e-05 0.000216101426593673 0.00012548070817915)
(-4.51591681109481e-05 0.00024612742816544 0.000117384339655847)
(-0.000118753835560945 0.000236800955715704 0.000104683757266564)
(0.00032838644562257 0.000249087226071706 0.000190091458721998)
(4.1126672931987e-05 0.000401029138212841 0.000367604470786447)
(6.82525603036741e-05 8.03582205647822e-05 0.000186767984751998)
(8.95754603785261e-05 0.000146868805036454 0.00017388337424084)
(9.32534003965958e-05 0.000213013363153752 0.000163501752988734)
(7.92283149526297e-05 0.000272614348279095 0.000154813213617517)
(5.49350796071405e-05 0.000322141546355496 0.000149725182065491)
(2.81432995869929e-05 0.000344388049848697 0.000145257999781098)
(1.31851624440952e-05 0.000338333223188673 0.000136804718694179)
(0.000564233368289695 0.000378265919501641 0.00020696147774304)
(4.55519007199521e-05 0.000496452630197325 0.000394170268934541)
(7.43087959046358e-05 0.000153698418195304 0.000207851605099818)
(0.000106050867725215 0.000206610726338899 0.000197231394353491)
(0.000124955110605663 0.000265817730491005 0.000187269238582924)
(0.000127828620172565 0.000326843545263155 0.0001783296755758)
(0.000120665100430156 0.000387624645519583 0.000173201045520368)
(0.000115947252640604 0.00043893686722776 0.000171317092062835)
(0.000129286489310131 0.000467172353412191 0.000169666388821403)
(0.000172838200159317 0.000471222579502445 0.000164415405817998)
(0.000889637769449201 0.000599977707233133 0.000218910217185309)
(-3.76336844528194e-05 -6.13116068463208e-05 -0.000257075749564794)
(-5.75333563124557e-05 -4.76971540853066e-05 -0.000293728842318709)
(-8.08981029819283e-05 -8.12238439214212e-05 -4.8201190536775e-06)
(-5.12321799896045e-05 -6.51076844937044e-05 0.00018503940751237)
(-0.000131794844811906 -6.30871085616287e-05 -0.000150555994642505)
(-6.80093733290463e-05 -1.11346410763664e-05 -0.00013908521964967)
(-1.77875086419922e-05 -6.47665077807764e-06 0.000245887031423796)
(-9.91390410289815e-05 -9.18787618087246e-05 -6.35032127549694e-05)
(-0.000182724943730955 -1.77460860334513e-05 -0.000131405311354166)
(-5.64093439333346e-05 1.93592755999753e-05 -1.19166147774956e-05)
(9.8313711541571e-06 7.02164557862741e-05 0.00028780742868423)
(-4.53509933845566e-05 -8.90667453309546e-05 5.36361398268645e-06)
(-0.000111394639473229 -1.20059640046236e-05 -3.22266842427932e-05)
(-0.000200925282187218 3.98878332159132e-05 -5.91238525811516e-05)
(-5.16861970193606e-05 5.28454298815701e-05 5.98476017273927e-05)
(3.27743214081072e-05 0.000150847314911488 0.000319913420328426)
(3.24428142333936e-07 -6.46485520702593e-05 5.92814649828728e-05)
(-3.58598054976062e-05 1.37982004568787e-05 3.67167374689885e-05)
(-0.000101454588963862 7.50155866407677e-05 2.1177432789202e-05)
(-0.000207385539904609 0.000102019266991465 -2.14085599744429e-06)
(2.5669620134639e-05 9.38571226312709e-05 0.000129874856660772)
(4.09710887699162e-05 0.000233410231301033 0.000345017684802844)
(3.45538865547043e-05 -2.52286434954295e-05 0.000105051394104245)
(2.23603459545596e-05 5.25748361909067e-05 8.61289769435047e-05)
(-1.58708620799872e-05 0.000117247553735102 7.47549813653455e-05)
(-7.97072940213954e-05 0.000159818198619009 6.07486823441684e-05)
(-0.000184841634729004 0.00016347589586581 4.14360352900169e-05)
(0.000137508341286212 0.00015361594684011 0.000135156275153826)
(4.12053654677302e-05 0.000314228035788734 0.000366109386943059)
(5.68893868250323e-05 2.56229087004991e-05 0.000144129272791634)
(6.30099855817572e-05 9.80775357885824e-05 0.000126064904344951)
(4.77386482872321e-05 0.000164390781974531 0.00011430659938419)
(1.38231640782627e-05 0.000216687571976178 0.000103855570049398)
(-3.95575902198259e-05 0.000246123840877862 9.33745007892172e-05)
(-0.000110402745125578 0.000236744320018122 7.53988697075499e-05)
(0.000342172835235507 0.000248065805747053 0.000160948029797904)
(4.01171930963375e-05 0.00039647722964002 0.000371613108753547)
(6.77570893210759e-05 8.21492264236037e-05 0.000175532653390014)
(8.91947535650915e-05 0.000147988631927053 0.000158579901392688)
(9.29968695926045e-05 0.000213197762055276 0.000146271735262967)
(7.95649305012192e-05 0.00027202435549049 0.000136115735393717)
(5.62648847872209e-05 0.000321078018209438 0.000129615454237733)
(3.03311063004038e-05 0.000343358389130303 0.000123075067880452)
(1.63277542286073e-05 0.000337514887667244 0.000111221254471073)
(0.000575603044946645 0.000378895392865151 0.000183486531100097)
(4.54366345610152e-05 0.00048165811358038 0.000362811514390004)
(7.26120483321288e-05 0.000150388099187614 0.000195978081830726)
(0.000104471742417015 0.000203036369381391 0.000183975462553709)
(0.000123147852825316 0.000262926101858147 0.000172172687108829)
(0.000126038106804781 0.000324132213346626 0.00016202836250231)
(0.000119056757609834 0.000384795831560969 0.000155934723881782)
(0.000114168430270887 0.000436113547245745 0.000153028977662121)
(0.000125950725488284 0.000464478620110373 0.000149874572592524)
(0.000167106471489668 0.00046780582279634 0.000142605093678548)
(0.000889044890987819 0.000599404687072946 0.000200170999665147)
(5.1339563691792e-05 0.000621618248761415 0.000415353619502458)
(7.91808328065652e-05 0.000222477996519385 0.000218943440127753)
(0.000113109902863472 0.000264191367656424 0.000204037808340266)
(0.000141962825856538 0.000314974135052495 0.000192817467631795)
(0.000157569363560545 0.000373845417399272 0.000182952713365394)
(0.000162432514241899 0.000439686875631013 0.000176724601873848)
(0.000165947003054509 0.000506830309957153 0.000174079862998737)
(0.000184359765215659 0.000569438552912703 0.000173791315258596)
(0.000235242581924337 0.000615456346837471 0.000173108295775473)
(0.000346965097194621 0.000658606106834982 0.000168755362024147)
(0.00136625678433615 0.00107334681684308 0.000210175817905939)
(-2.58634537261497e-05 -6.40359262887183e-05 -0.000266784658048583)
(-4.19414455578662e-05 -4.884453519163e-05 -0.000316186490312564)
(-7.26069670175378e-05 -8.20225238823164e-05 -3.29932854430174e-05)
(-4.94247806100842e-05 -1.15042552533569e-05 -0.000167056300088838)
(-0.000119514677103322 -5.89624258946904e-05 -0.000178154455651872)
(-4.66346114332329e-05 -6.24978252599967e-05 0.000166330399543289)
(-1.55813573944288e-05 -2.1271774751678e-06 0.000232566590674366)
(-9.15145283328854e-05 -8.6022379136802e-05 -8.97124720429774e-05)
(-0.00016804617329114 -1.42064887349265e-05 -0.000162608594999684)
(-3.52512154074983e-05 1.92643497895429e-05 -3.83162454416138e-05)
(1.05604210667727e-05 7.58143707993338e-05 0.000277567210395948)
(-4.15884301973836e-05 -8.2767623925945e-05 -1.81782753099418e-05)
(-0.00010312157882974 -8.39385837454055e-06 -6.00211108382507e-05)
(-0.000184595866781952 4.2186016006959e-05 -9.00882516451953e-05)
(-2.32616655206323e-05 5.49492443972875e-05 3.33255535559094e-05)
(3.26816201440414e-05 0.000157085398093188 0.000311981923823481)
(1.81216211361371e-06 -5.86816378147623e-05 3.85069815360452e-05)
(-3.1990134109398e-05 1.69708618311915e-05 1.27840660429854e-05)
(-9.33119450943115e-05 7.63550243134086e-05 -5.74705552812273e-06)
(-0.00019233187359677 0.000101733192788305 -3.51216123927816e-05)
(1.80522205244752e-05 9.11916166831815e-05 8.50535531880098e-05)
(4.13398757755811e-05 0.000240815535963501 0.000337932010287222)
(3.50329690159536e-05 -1.95623003494555e-05 8.69694198789992e-05)
(2.38149710242709e-05 5.54000018320068e-05 6.57373182298266e-05)
(-1.22405908920703e-05 0.000118206432171082 5.24555762819715e-05)
(-7.24250573014269e-05 0.000159249568510034 3.59286614184007e-05)
(-0.000168526783248857 0.000164123877392084 1.40433712732929e-05)
(0.000163662538462983 0.000157418354868959 0.000117512333338861)
(4.05642594079142e-05 0.00032037953650378 0.000359166698488014)
(5.71165625821125e-05 3.12066856829516e-05 0.000128512646169928)
(6.33388262316493e-05 0.000100798538199017 0.00010870426616932)
(4.91407073604744e-05 0.000165394761962909 9.53031489636883e-05)
(1.71962533121529e-05 0.000216560828961966 8.31458197376564e-05)
(-3.30725684665148e-05 0.000245733563958467 7.04291930394011e-05)
(-0.000100735556889911 0.000236178769643033 4.65516262078095e-05)
(0.000353161435772731 0.000246998557362748 0.000131803988946583)
(4.22723016611223e-05 0.000399437960231724 0.000376616591544108)
(6.82391729964623e-05 8.68125580539579e-05 0.000163800367392791)
(8.90729656308761e-05 0.000150366072837853 0.000144227752794403)
(9.30652939830293e-05 0.000213790376057323 0.000130170304989738)
(8.05359301245727e-05 0.000271450697380525 0.000118429322358487)
(5.87558284079491e-05 0.00031977493568885 0.000110301799618122)
(3.45928302270424e-05 0.000341962018575994 0.000101240684847112)
(2.20693270641038e-05 0.000336219910368858 8.51976204068755e-05)
(0.000588019828001641 0.000377964265042757 0.000159291206846575)
(4.19383427934172e-05 0.000478301745398708 0.000354944637649412)
(7.15067658313314e-05 0.000148152861425068 0.000188439796952366)
(0.000103613511241145 0.000202652029521005 0.000172620730299108)
(0.00012212039955404 0.000262078860961561 0.000158532269427954)
(0.000125193740123517 0.000322569698355298 0.000146873581923955)
(0.000118836260207878 0.000382669730162587 0.000139582391141088)
(0.000114753789854451 0.000433791647080105 0.000135465468856344)
(0.000126889122546219 0.000462415327120317 0.000130527931016771)
(0.000168052321987544 0.000465693451992674 0.000120368009937796)
(0.00089908145778413 0.000601548101084223 0.000180499323790122)
(4.22478358735301e-05 0.000612493119274292 0.000400424489033677)
(7.85735883536849e-05 0.000216020015754407 0.000202407889126509)
(0.000111174133629178 0.000260088907086013 0.00019351506895337)
(0.000139795094800244 0.000311278129692806 0.000181046455092225)
(0.000155319307953182 0.000370356164654434 0.000169884039279256)
(0.000160286602843248 0.000436101968363367 0.00016273659085393)
(0.000163953821987298 0.000503143987397176 0.000159358296522413)
(0.000181952391931245 0.000565835822223972 0.00015830866214296)
(0.00023066626689821 0.00061171550768648 0.000156494026727797)
(0.000339306866885351 0.000652945276530427 0.000150762155613511)
(0.0013659559911784 0.00107197217505924 0.000196547726121445)
(4.26487545954942e-05 0.000670721234047417 0.000407431597863522)
(8.21921841109892e-05 0.000290123722539601 0.00022616100984324)
(0.000116378462950459 0.000320363184131075 0.00021201302426361)
(0.000150091556391778 0.000362472738683108 0.000198848255419998)
(0.000174454391878581 0.000416544855238058 0.000188195703320067)
(0.000188356639696617 0.000482910406410521 0.000181188626256463)
(0.000197379479688503 0.000557219920493596 0.000177735338339229)
(0.000213090452398009 0.000636713125384028 0.0001771549102557)
(0.000252981331786123 0.000719884871713661 0.000178202000756703)
(0.000339711957536792 0.00080408165454619 0.000178431346353531)
(0.000525624805132261 0.000929009626608399 0.000175107880898559)
(0.00181824188292069 0.00245312880159598 0.000198955897088855)
(-1.48182995491664e-05 -6.71450426233252e-05 -0.000259172357473778)
(-2.3829814441688e-05 -5.17480415162237e-05 -0.000328880283094587)
(-6.39944092634048e-05 -8.34831455455633e-05 -5.54489588238949e-05)
(-2.84796658190117e-05 -1.31076847567005e-05 -0.000191304526617268)
(-0.000106927441155934 -5.67773865961519e-05 -0.000202761316172887)
(-4.23098831358663e-05 -6.07977303797791e-05 0.00014959597993512)
(-1.7624203543507e-05 1.67020386429452e-05 -6.35289056507294e-05)
(-0.000153355775274889 -1.25789051449264e-05 -0.000192225059934854)
(-8.41706728874803e-05 -8.14823700269013e-05 -0.000113920250189649)
(-1.36904099746323e-05 1.50557905351505e-06 0.000221025953179065)
(1.114459681015e-05 8.04516430775942e-05 0.000269156462792671)
(-3.80746037024891e-05 -7.75536510552245e-05 -3.98893655811927e-05)
(-9.50540876302469e-05 -6.30579800752217e-06 -8.61979655669058e-05)
(-0.000168797872266042 4.28817135558933e-05 -0.000119267357725234)
(1.05332739207439e-05 5.49255273833795e-05 1.59559897657864e-05)
(3.20354449698459e-05 0.000161231183925716 0.000305913780293137)
(2.9223858574296e-06 -5.37954341940761e-05 1.92870124768917e-05)
(-2.8323782194502e-05 1.90122000025464e-05 -9.72853465901579e-06)
(-8.48069067732396e-05 7.66279003380179e-05 -3.11087867937082e-05)
(-0.000175283486506199 0.000100870968227185 -6.45018969789036e-05)
(4.68445909131785e-05 8.99833302548667e-05 5.64035246121893e-05)
(4.12572325233427e-05 0.000245851497441152 0.000331741475767391)
(3.48319321586925e-05 -1.5168477546264e-05 7.01189189570459e-05)
(2.4848197508017e-05 5.7107593206349e-05 4.63530861967148e-05)
(-8.60717257995663e-06 0.000118086930074228 3.08587539524879e-05)
(-6.44696865937426e-05 0.000157787777464499 1.10138326742701e-05)
(-0.000158087227651319 0.000161306464743804 -1.79092123777638e-05)
(0.000191427347852486 0.000154739748093699 0.000101296670441057)
(4.03188224704453e-05 0.000328243260975421 0.000354044036079594)
(5.65443703855087e-05 3.53861816012505e-05 0.000113632558410437)
(6.30791616357676e-05 0.000102288491271034 9.21855386652771e-05)
(5.00807310928077e-05 0.00016509888247531 7.70662723854566e-05)
(2.04144370918763e-05 0.000214843067074716 6.29764000159291e-05)
(-2.55939209083831e-05 0.000243979083181449 4.79523857859345e-05)
(-8.77060183364468e-05 0.000236777693353472 2.19707860260503e-05)
(0.000364912227978076 0.000246720891166285 0.000114245289531104)
(4.21321233396324e-05 0.000397876476627131 0.000373646166658341)
(6.75569026987482e-05 8.99468250861146e-05 0.00015076484180066)
(8.84016658927874e-05 0.000151806004921682 0.000130282789551492)
(9.27008542429514e-05 0.000213486119155407 0.000114780250300871)
(8.12786374052054e-05 0.000269920881695426 0.000101462293287696)
(6.13397368127733e-05 0.000317571343305993 9.16595207235362e-05)
(3.92835953141552e-05 0.000339783292183573 7.97229549759134e-05)
(2.75643426214845e-05 0.00033352861851093 5.90469810161357e-05)
(0.000598064770043831 0.000376299517113958 0.000135729920769625)
(4.14719012218004e-05 0.000495826275175248 0.000372562272860459)
(7.38350415328514e-05 0.000147350832091834 0.000180650480233361)
(0.000103268822352792 0.00020338759545259 0.000161652461763067)
(0.000121218199734568 0.00026156649640605 0.000145805049958183)
(0.000124588500573711 0.000320892806355825 0.000132640136227349)
(0.000119120028410123 0.000380177669121342 0.000124015416402916)
(0.000116296372994447 0.000430913861504416 0.000118458809755416)
(0.000129565496998126 0.000459739251875741 0.000111449736797736)
(0.000171406652016646 0.000463050757686761 9.79225600080216e-05)
(0.000910228639698745 0.000601827585339068 0.000160748614702427)
(4.31840165821483e-05 0.000563523114378599 0.000372049391110989)
(7.45375691999277e-05 0.000214424334317313 0.000193663811542336)
(0.000109850621321229 0.000257634773259109 0.000185183136152099)
(0.000138280091818337 0.000309293895992204 0.000170629749995024)
(0.000153664135633383 0.000367875627596787 0.000157887208991168)
(0.000158922581316702 0.000433068401540375 0.000149623688962068)
(0.00016316561307788 0.000499746427215796 0.000145342087349716)
(0.000181702612654153 0.000562440223006613 0.00014337094578358)
(0.000230176510009002 0.000608581344617929 0.00014013807774724)
(0.000337986194712499 0.000649117186688957 0.000132179555393064)
(0.00137433432944577 0.00107450915646329 0.000181438797115831)
(4.04848821429114e-05 0.000671440705239713 0.000426669387308408)
(7.76410807841625e-05 0.000282891387104201 0.000213540528955789)
(0.000114907932692699 0.000314934107774196 0.000201820371671335)
(0.000147741924818776 0.00035812393728576 0.000189726752301202)
(0.000171874271388079 0.000412355812584089 0.000178004212454046)
(0.000185772381833899 0.000478660188722865 0.000170094036953823)
(0.00019493239648872 0.000552829239134082 0.000166008621565225)
(0.00021071045640629 0.000632284882774991 0.000164971911503295)
(0.00024989560476037 0.000715494569832758 0.000165578068957718)
(0.000333971058344688 0.000798966575903376 0.000165159445663497)
(0.000516234315236542 0.000919387027514059 0.000161602060895388)
(0.0018092722381272 0.00245167141745693 0.000191843495545092)
(3.94913062757466e-05 0.000737140540329545 0.000420581276784287)