/*--------------------------------*- C++ -*----------------------------------*\
  =========                 |
  \\      /  F ield         | OpenFOAM: The Open Source CFD Toolbox
   \\    /   O peration     | Website:  https://openfoam.org
    \\  /    A nd           | Version:  12
     \\/     M anipulation  |
\*---------------------------------------------------------------------------*/
/*   Windows 32 and 64 bit porting by blueCAPE: http://www.bluecape.com.pt   *\
|  Based on Windows porting (2.0.x v4) by Symscape: http://www.symscape.com   |
\*---------------------------------------------------------------------------*/
FoamFile
{
    format      ascii;
    class       volScalarField;
    location    "0";
    object      p;
}
// * * * * * * * * * * * * * * * * * * * * * * * * * * * * * * * * * * * * * //

dimensions      [0 2 -2 0 0 0 0];

internalField   uniform 83333.3333333333;

boundaryField
{
    door
    {
        type            totalPressure;
        rho             rho;
        psi             none;
        gamma           1;
        p0              nonuniform List<scalar> 0();
        value           nonuniform List<scalar> 0();
    }
    window
    {
        type            zeroGradient;
    }
    fan
    {
        type            zeroGradient;
    }
    constraint
    {
        type            symmetry;
    }
    wall
    {
        type            zeroGradient;
    }
    defaultFaces
    {
        type            zeroGradient;
    }
    procBoundary0to1
    {
        type            processor;
        value           uniform 83333.3333333333;
    }
    procBoundary0to2
    {
        type            processor;
        value           uniform 83333.3333333333;
    }
    procBoundary0to3
    {
        type            processor;
        value           uniform 83333.3333333333;
    }
    procBoundary0to4
    {
        type            processor;
        value           uniform 83333.3333333333;
    }
    procBoundary0to5
    {
        type            processor;
        value           uniform 83333.3333333333;
    }
    procBoundary0to7
    {
        type            processor;
        value           uniform 83333.3333333333;
    }
}


// ************************************************************************* //
