/*--------------------------------*- C++ -*----------------------------------*\
  =========                 |
  \\      /  F ield         | OpenFOAM: The Open Source CFD Toolbox
   \\    /   O peration     | Website:  https://openfoam.org
    \\  /    A nd           | Version:  12
     \\/     M anipulation  |
\*---------------------------------------------------------------------------*/
/*   Windows 32 and 64 bit porting by blueCAPE: http://www.bluecape.com.pt   *\
|  Based on Windows porting (2.0.x v4) by Symscape: http://www.symscape.com   |
\*---------------------------------------------------------------------------*/
FoamFile
{
    format      ascii;
    class       surfaceScalarField;
    location    "0";
    object      phi;
}
// * * * * * * * * * * * * * * * * * * * * * * * * * * * * * * * * * * * * * //

dimensions      [0 3 -1 0 0 0 0];

internalField   nonuniform List<scalar> 
28900
(
-4.50514130394976e-06
2.01428780432618e-07
-4.62267453632532e-09
-4.69580084302261e-06
1.94957963730937e-07
-4.29929437024997e-09
-4.55917899856863e-06
4.02930436773427e-07
-2.57445660095319e-09
-4.8347957756631e-06
2.14812468482153e-07
-8.22212026246528e-09
-4.88035237084669e-06
1.88523711792515e-07
-3.97301294886864e-09
-4.7518683729238e-06
3.89959143423811e-07
-2.31269529447257e-09
-5.03941853795768e-06
2.07879883716392e-07
-7.5573237109369e-09
-4.69256626532472e-06
6.03920154391257e-07
3.21241308297942e-09
-5.03169073484098e-06
4.33977614032929e-07
-2.19021055122987e-09
-5.35070593095334e-06
2.38194988925882e-07
-1.26472874132091e-08
-5.0588602862083e-06
1.82153813827201e-07
-3.64669291091792e-09
-4.93836120105854e-06
3.77066753119564e-07
-2.05107025435285e-09
-5.23748587110743e-06
2.00981253132709e-07
-6.88781825396235e-09
-4.89031239709692e-06
5.84455804482282e-07
3.24855285717678e-09
-5.24435701004164e-06
4.20067887995088e-07
-1.83536163077031e-09
-5.57718653058128e-06
2.30571930505523e-07
-1.16496120164011e-08
-4.83233662485783e-06
8.03725957155355e-07
9.56963565205126e-09
-5.25568441489435e-06
6.61973447614248e-07
3.93224620242266e-09
-5.68603102191138e-06
4.89228336517492e-07
-5.10526679857039e-09
-5.88089669095857e-06
2.60693155215631e-07
-1.63736215165096e-08
-5.23140727520142e-06
1.7587245930506e-07
-3.32622685952812e-09
-5.11872507187041e-06
3.64305929212518e-07
-1.78903949671815e-09
-5.42906334611971e-06
1.94147505991163e-07
-6.21755354703334e-09
-5.08164917339198e-06
5.6512250245698e-07
3.28015369770761e-09
-5.45018340065004e-06
4.06236688559665e-07
-1.48100643357777e-09
-5.79641290383743e-06
2.22982136316377e-07
-1.06445113038536e-08
-5.03500546274087e-06
7.77699687017319e-07
9.4240105856828e-09
-5.47717012203432e-06
6.4064711863728e-07
4.15406956739967e-09
-5.92637375709617e-06
4.73600908013866e-07
-4.52257562583709e-09
-6.12985134339712e-06
2.52451572222086e-07
-1.51475583256627e-08
-4.92127799973958e-06
1.00340979378136e-06
1.2255563920076e-08
-5.39286971623734e-06
8.95105137614083e-07
1.00969332785834e-08
-6.02787711495579e-06
7.55886760516884e-07
-3.5730429720354e-10
-6.27775993477441e-06
5.39374027132479e-07
-9.83929567467999e-09
-6.27226601239628e-06
2.76308232417471e-07
-1.85577852665789e-08
-5.3980985489543e-06
1.69699782302265e-07
-3.00925656347757e-09
-5.29304701781803e-06
3.51723869685453e-07
-1.53023019079706e-09
-5.61424482137842e-06
1.87408955856006e-07
-5.55451189429853e-09
-5.2666497682996e-06
5.45995278564054e-07
3.31043131957259e-09
-5.64924502948506e-06
3.92544033435471e-07
-1.12477874452459e-09
-6.00845263459413e-06
2.15460078292639e-07
-9.63876877672809e-09
-5.23102397635586e-06
7.51861566681376e-07
9.27855023942087e-09
-5.69147178925513e-06
6.19467669908393e-07
4.34991828140427e-09
-6.15898494238315e-06
4.58031575537047e-07
-3.92020451623055e-09
-6.37083224378234e-06
2.44267711133321e-07
-1.39323142880092e-08
-5.12630569027378e-06
9.70690904780497e-07
1.20355366157306e-08
-5.6190460795305e-06
8.66114513194059e-07
1.01320150816023e-08
-6.28194726899149e-06
7.31536649663877e-07
2.87477041587438e-10
-6.54312572236462e-06
5.22133459856434e-07
-8.83972622741404e-09
-6.53784157823387e-06
2.67528237053386e-07
-1.71013859710389e-08
-4.95128441045237e-06
1.20651724357611e-06
8.46527490587707e-09
-5.442683737477e-06
1.12972477784003e-06
1.20217007233954e-08
-6.18553920858599e-06
1.02922092928766e-06
4.76691170745668e-09
-6.6760974336072e-06
8.3864913862419e-07
-9.1536879096273e-09
-6.66273605290986e-06
5.7278314677037e-07
-1.55063363050944e-08
-6.48529450150958e-06
2.84643526501775e-07
-1.96900743589632e-08
-5.5590621300708e-06
1.63654991062376e-07
-2.69214557519485e-09
-5.46143352842808e-06
3.39361647070139e-07
-1.27610135683204e-09
-5.79314469978511e-06
1.80786565169713e-07
-4.89672093288412e-09
-5.44540959914531e-06
5.27143172180814e-07
3.33975019354794e-09
-5.84163810005403e-06
3.79041866443081e-07
-7.70869849166585e-10
-6.21341616807042e-06
2.08042237255913e-07
-8.63404210796997e-09
-5.4204739849699e-06
7.26312246955878e-07
9.1321937001188e-09
-5.89867553268928e-06
5.98512848977105e-07
4.54450022524748e-09
-6.38395311711121e-06
4.42613498910539e-07
-3.31089572712092e-09
-6.60391305633582e-06
2.36166300696804e-07
-1.27251681885907e-08
-5.32448831285261e-06
9.38227675011102e-07
1.18156183425512e-08
-5.83779925772641e-06
8.37334576410036e-07
1.0163889722587e-08
-6.52774877149762e-06
7.07377012989929e-07
8.05028708722597e-10
-6.79996831232723e-06
5.05051040802375e-07
-7.86192137711116e-09
-6.7949073647897e-06
2.587967642922e-07
-1.56643501148829e-08
-5.15579929288935e-06
1.16682690863183e-06
8.37796643758075e-09
-5.66942749120757e-06
1.09287938973463e-06
1.20134430364903e-08
-6.44496674223613e-06
9.95903354518779e-07
5.19179547191161e-09
-6.95739340363053e-06
8.11843802022661e-07
-8.12795969074161e-09
-6.94444005507711e-06
5.5450083729698e-07
-1.41093817444435e-08
-6.75996358236829e-06
2.75597255604909e-07
-1.80306811443799e-08
-4.94797250950285e-06
1.41411810818682e-06
1.82392943574307e-09
-5.45400791286246e-06
1.36348628097502e-06
7.75659560840414e-09
-6.20219375114206e-06
1.30251343035447e-06
5.81842440716563e-09
-6.82987089603078e-06
1.14315562497001e-06
-3.81460585720933e-09
-7.05159321607562e-06
8.85094362768327e-07
-1.45455376594071e-08
-6.84879550175631e-06
5.87544138054739e-07
-1.9390453839954e-08
-6.57143386069957e-06
2.88028630665623e-07
-2.03425716867861e-08
-5.71445669354197e-06
1.57766496243667e-07
-2.37267303282313e-09
-5.62400942387248e-06
3.27252618675414e-07
-1.02248015465046e-09
-5.96589300505691e-06
1.74300178323097e-07
-4.24480222922935e-09
-5.61804538542438e-06
5.08627861092315e-07
3.36881663445685e-09
-6.02747926415108e-06
3.65774819743367e-07
-4.23979485462749e-10
-6.41143260360004e-06
2.00746428851134e-07
-7.62752431052253e-09
-5.60346099377023e-06
7.01144624439033e-07
8.98476067700588e-09
-6.09888881864169e-06
5.77856981434628e-07
4.73709716491668e-09
-6.60138891624777e-06
4.27407227100217e-07
-2.70090301689866e-09
-6.82921681686837e-06
2.28179787291409e-07
-1.15109465126193e-08
-5.51591969804721e-06
9.06149203831711e-07
1.15935846489449e-08
-6.04922171106251e-06
8.08875904278093e-07
1.01907298195738e-08
-6.76540923546478e-06
6.83467356290477e-07
1.35020480342341e-09
-7.048377992935e-06
4.8816118554308e-07
-6.89703979842046e-09
-7.04354120877423e-06
2.50148824782544e-07
-1.42411696352147e-08
-5.35333243753704e-06
1.12747369813352e-06
8.28624452441516e-09
-5.88860298152132e-06
1.05632437830729e-06
1.20003657367051e-08
-6.69588195032454e-06
9.62825925333985e-07
5.62919647647495e-09
-7.22961478856525e-06
7.85146420846068e-07
-7.07004142302835e-09
-7.21708682055458e-06
5.36315189990365e-07
-1.27347581481966e-08
-7.0258294935272e-06
2.66597602939751e-07
-1.63972854673589e-08
-5.15021988355919e-06
1.36710446694452e-06
1.96894427808534e-09
-5.67928555286034e-06
1.31862991055415e-06
7.90418101440302e-09
-6.46058480853594e-06
1.26005184387618e-06
6.25498919146914e-09
-7.11633196242337e-06
1.10623584064631e-06
-2.74029227642218e-09
-7.34884092361006e-06
8.5675325747841e-07
-1.31338545125527e-08
-7.13844746530509e-06
5.6880369475488e-07
-1.76650860846814e-08
-6.84984659512264e-06
2.78899892904892e-07
-1.85190520225297e-08
-4.94226182829278e-06
1.62729961027438e-06
-6.36985976438435e-09
-5.45973765669511e-06
1.59607961287986e-06
3.38866179784959e-10
-6.19105059870435e-06
1.57262177848781e-06
2.19383078986307e-09
-6.8140085722184e-06
1.44487394630822e-06
-2.42552847073497e-09
-7.17686863129745e-06
1.20566802761105e-06
-1.33775219644438e-08
-7.20517123832057e-06
9.0591705899892e-07
-1.92106961107286e-08
-6.91805747805019e-06
5.92206763310649e-07
-2.14178368350631e-08
-6.59538992949159e-06
2.89015966047423e-07
-2.08195294686889e-08
-5.86446703178264e-06
1.52048082129012e-07
-2.03845196338221e-09
-5.78094284552829e-06
3.15418092301413e-07
-7.18899015721074e-10
-6.1326598280745e-06
1.68002075437551e-07
-3.60868731574696e-09
-5.78469503183432e-06
4.90502554347759e-07
3.3989711560269e-09
-6.20688731023459e-06
3.52778361688348e-07
-9.33872734768019e-11
-6.60264746013798e-06
1.93583705243588e-07
-6.61445400332556e-09
-5.78011328512163e-06
6.76441021819584e-07
8.8383534980613e-09
-6.29224156114632e-06
5.5756804900007e-07
4.92754070833257e-09
-6.81143258065004e-06
4.12467364218594e-07
-2.10204844736252e-09
-7.04688252228964e-06
2.20307316568352e-07
-1.02699746992172e-08
-5.70071863354128e-06
8.74572055636323e-07
1.13707056187303e-08
-6.25343007422932e-06
7.80841581174924e-07
1.02076945818195e-08
-6.99505164321755e-06
6.5988756626297e-07
1.89833048050051e-09
-7.2884882923452e-06
4.71503773878616e-07
-5.91543242102767e-09
-7.28386012072594e-06
2.41628754886065e-07
-1.28217029693929e-08
-5.54399640478906e-06
1.08862131394671e-06
8.19103491273751e-09
-6.10031172756898e-06
1.02020428477533e-06
1.19730706945724e-08
-6.93839422597338e-06
9.30108032142847e-07
6.06138067251586e-09
-7.49285259879771e-06
7.58679308475757e-07
-5.93103807941219e-09
-7.48075841691399e-06
5.1829697561071e-07
-1.13744701435456e-08
-7.28297129551711e-06
2.57684824494628e-07
-1.47851117672402e-08
-5.34538217445381e-06
1.32053630754969e-06
2.09885284161914e-09
-5.89687870159957e-06
1.27415807370294e-06
8.04483573732743e-09
-6.71036276545793e-06
1.21792471166194e-06
6.67855681395652e-09
-7.39341816221894e-06
1.06954720037623e-06
-1.68656097275305e-09
-7.63645732268023e-06
8.28600670916276e-07
-1.17402883500681e-08
-7.41878169694811e-06
5.50166589810234e-07
-1.59705811091793e-08
-7.11933108735496e-06
2.69813855992047e-07
-1.67278081438914e-08
-5.14178168246744e-06
1.57236612446408e-06
-5.74263430726772e-09
-5.68290947488047e-06
1.5429771310014e-06
7.92628411742361e-10
-6.44678643874222e-06
1.5209604102796e-06
2.73050850738744e-09
-7.09793517333482e-06
1.39777089913609e-06
-1.35460413299007e-09
-7.47792830502332e-06
1.16677560098588e-06
-1.17043615885204e-08
-7.50896947776698e-06
8.76841431946356e-07
-1.73746566605968e-08
-7.21074275744143e-06
5.73385273298587e-07
-1.94663735539541e-08
-6.87492843516512e-06
2.79890607755843e-07
-1.88723257502064e-08
-4.95386458596769e-06
1.84233777466229e-06
-1.04826079020101e-08
-5.47395496707852e-06
1.82982498653004e-06
-1.10408782859445e-08
-6.20087035108783e-06
1.84147533863954e-06
-6.05607036352957e-09
-6.78722903706741e-06
1.74350543164064e-06
-6.35485115698436e-09
-7.1341244755313e-06
1.52219648147444e-06
-1.16401341407794e-08
-7.30093856623574e-06
1.22798557366727e-06
-1.89578203930997e-08
-7.2504966821558e-06
9.10983288056433e-07
-2.21793382240328e-08
-6.93834450994535e-06
5.93136901316151e-07
-2.23745111650112e-08
-6.59681374963792e-06
2.88999578099987e-07
-2.10897814970921e-08
-6.00923006736295e-06
1.46528077817153e-07
-1.76572201414004e-09
-5.9324081551123e-06
3.03890191453841e-07
-3.77505398227148e-10
-6.29363559362478e-06
1.61891124946136e-07
-2.95455583662258e-09
-5.94552281831485e-06
4.72811901621771e-07
3.43325556023223e-09
-6.38007448713614e-06
3.4005773098547e-07
4.11865359829808e-10
-6.78721947316645e-06
1.86544193277166e-07
-5.58164023519471e-09
-5.95058078135291e-06
6.52273096360604e-07
8.69620417215723e-09
-6.4788864995469e-06
5.37705624726444e-07
5.11586983511949e-09
-7.01427224026616e-06
3.97845629467783e-07
-1.51644820054969e-09
-7.2570633952317e-06
2.1255163311928e-07
-8.98603937956361e-09
-5.87902658694676e-06
8.4359840282294e-07
1.11498014133107e-08
-6.45056564651055e-06
7.53323399597711e-07
1.02177875669912e-08
-7.21682530351435e-06
6.36717945748423e-07
2.44980409356139e-09
-7.52044249841507e-06
4.55156809641266e-07
-4.99817938334157e-09
-7.51601319164173e-06
2.33282941125088e-07
-1.14007666540653e-08
-5.72792467886767e-06
1.05040316737687e-06
8.09637813486374e-09
-6.30468329470082e-06
9.84647489452774e-07
1.19355235198764e-08
-7.17262832851952e-06
8.97877196632781e-07
6.45128935291414e-09
-7.74720869251291e-06
7.32512550816907e-07
-4.75529626236537e-09
-7.73555720101809e-06
5.00532807203589e-07
-1.00217314370715e-08
-7.53150498663686e-06
2.48898817198787e-07
-1.31879289352048e-08
-5.53358414246527e-06
1.27460051128328e-06
2.22199092365623e-09
-6.10690568770371e-06
1.23024669629342e-06
8.17479958441373e-09
-6.95162764017303e-06
1.17630546875667e-06
7.03958772720514e-09
-7.66127742162937e-06
1.03317642347765e-06
-5.77470772945798e-10
-7.91451165958575e-06
8.0076934922109e-07
-1.03501243258803e-08
-7.68988287163663e-06
5.31711841859418e-07
-1.43013939165428e-08
-7.37996536035068e-06
2.60812402651255e-07
-1.49642972783742e-08
-5.33410393634144e-06
1.51801287761593e-06
-5.15510294771977e-09
-5.89826962287191e-06
1.49038226860717e-06
1.23393363091869e-09
-6.69380486269054e-06
1.46973914274468e-06
3.24792462304598e-09
-7.37246953125467e-06
1.35103064393078e-06
-2.7163337265273e-10
-7.76908558929393e-06
1.12814712653732e-06
-1.00769386605481e-08
-7.80291051245304e-06
8.47944353343216e-07
-1.55782245316415e-08
-7.49400818034657e-06
5.546608040349e-07
-1.75533080793006e-08
-7.14549695771292e-06
2.70802849384757e-07
-1.69633064039938e-08
-5.15096574324622e-06
1.77918569462107e-06
-9.71920058980547e-09
-5.69494427521619e-06
1.76805487639732e-06
-9.83189351710484e-09
-6.45437065372355e-06
1.78006673110859e-06
-4.81433538193004e-09
-7.06765210410894e-06
1.68597266791062e-06
-5.04920747350702e-09
-7.43141250279528e-06
1.47265934568315e-06
-9.95157300039676e-09
-7.6072831763522e-06
1.18843691461932e-06
-1.69565398533146e-08
-7.55632349457098e-06
8.81903663347383e-07
-2.00675045039337e-08
-7.23200943324701e-06
5.74363485563988e-07
-2.0275508303095e-08
-6.87653293065647e-06
2.79912253420228e-07
-1.90665359259861e-08
-4.98872943327845e-06
2.05658323478065e-06
-1.13967046605063e-08
-5.50435497124807e-06
2.06398172019378e-06
-1.73338093825381e-08
-6.23304244624685e-06
2.10766236420032e-06
-1.63505714625769e-08
-6.80468637627171e-06
2.03914418865388e-06
-1.36013589205969e-08
-7.10054446967558e-06
1.83440011251448e-06
-1.50098359449812e-08
-7.24169583546755e-06
1.54740282997512e-06
-1.90094657560428e-08
-7.32822910422622e-06
1.23248484617697e-06
-2.26420743058328e-08
-7.2606253353284e-06
9.11202155023504e-07
-2.38490017796528e-08
-6.94157260131009e-06
5.92802678997593e-07
-2.27319550434651e-08
-6.5934437225801e-06
2.88595324095749e-07
-2.09691231573038e-08
-6.14892577174276e-06
1.41159176533641e-07
-1.46410517383943e-09
-6.07861038414245e-06
2.92702862409854e-07
2.67762374504641e-11
-6.44895707125386e-06
1.56004491599656e-07
-2.44943281957318e-09
-6.10070559253221e-06
4.55598335968433e-07
3.47393140484795e-09
-6.54720689434732e-06
3.27655324343424e-07
9.89976909810953e-10
-6.96529545761577e-06
1.79659465982479e-07
-4.53877724066289e-09
-6.11503444325048e-06
6.2870372534838e-07
8.56110181668914e-09
-6.65900892062412e-06
5.18318371718617e-07
5.29428427924141e-09
-7.21002897312289e-06
3.83607729509553e-07
-8.95695052214923e-10
-7.45994750049068e-06
2.04960424690029e-07
-7.65873410767233e-09
-6.05100442084481e-06
8.13316872204107e-07
1.09333112831552e-08
-6.64079577242798e-06
7.26400766648982e-07
1.02304123098613e-08
-7.43091432851486e-06
6.14035880227863e-07
3.01386279076029e-09
-7.74437574784877e-06
4.39194754867239e-07
-4.22710408103391e-09
-7.74018004752746e-06
2.25148914768095e-07
-9.96894126018982e-09
-5.90527643837305e-06
1.01294688423183e-06
8.00252615235689e-09
-6.50187266797766e-06
9.49767381001369e-07
1.18943916660619e-08
-7.3987390327213e-06
8.66242175798473e-07
6.80340384796814e-09
-7.99283650182465e-06
7.0674038789237e-07
-3.50679204103303e-09
-7.98164943835677e-06
4.83062185993427e-07
-8.68595944950096e-09
-7.77158092300439e-06
2.40270553544207e-07
-1.15962093312455e-08
-5.71497947153264e-06
1.22945359321108e-06
2.34416398154154e-09
-6.30951249350746e-06
1.18705220536332e-06
8.29770357530142e-09
-7.18452358797887e-06
1.1353409632337e-06
7.36683679334583e-09
-7.91998830145859e-06
9.97354587652354e-07
3.19082093415598e-10
-8.18316012110922e-06
7.7339570290347e-07
-8.97075765196879e-09
-7.95187008390602e-06
5.13515002022619e-07
-1.2651637452706e-08
-7.63186790238466e-06
2.5193502146928e-07
-1.32214379922904e-08
-5.51936816540287e-06
1.46445488555629e-06
-4.590884096744e-09
-6.1059551881886e-06
1.43849483112957e-06
1.65860034477426e-09
-6.93223175160581e-06
1.41916063221689e-06
3.74567856195361e-09
-7.63760735855323e-06
1.30491330666858e-06
4.39505835732721e-10
-8.05040676617631e-06
1.09000074699541e-06
-8.48897774982947e-09
-8.08708679106434e-06
8.19351610539295e-07
-1.38147657830242e-08
-7.76793842878681e-06
5.36113636211664e-07
-1.56733892746424e-08
-7.40717144937333e-06
2.61795605159406e-07
-1.50864327745459e-08
-5.34072113985091e-06
1.71677491976927e-06
-9.00738800986292e-09
-5.90797420491883e-06
1.70693515811185e-06
-8.67883728558663e-09
-6.69900547657337e-06
1.719234168583e-06
-3.62716788459698e-09
-7.33851801032902e-06
1.62892554688978e-06
-3.78204895209444e-09
-7.71868471494147e-06
1.42347254632782e-06
-8.32609476675233e-09
-7.90354812647735e-06
1.14914488486785e-06
-1.50140101935593e-08
-7.85222209466803e-06
8.52985721087124e-07
-1.80058534203486e-08
-7.51621793137986e-06
5.55677905150016e-07
-1.82210372260044e-08
-7.14727130525098e-06
2.70858077955749e-07
-1.70841660088626e-08
-5.18390942463748e-06
1.98493339187937e-06
-1.05684595162471e-08
-5.72336684641282e-06
1.99325175515257e-06
-1.59050488549436e-08
-6.48472272757077e-06
2.03651926273144e-06
-1.46050091595438e-08
-7.0829325230191e-06
1.97124318920171e-06
-1.18397401354209e-08
-7.39397404020118e-06
1.77401846642896e-06
-1.29798861287326e-08
-7.54355896724216e-06
1.4972168165919e-06
-1.68696976094931e-08
-7.63585987542616e-06
1.1929440077081e-06
-2.03675758259454e-08
-7.56701877211918e-06
8.8224762359004e-07
-2.15594852802753e-08
-7.23550694016728e-06
5.74120158545776e-07
-2.05502298447959e-08
-6.87314724319775e-06
2.79559251586225e-07
-1.8923383967388e-08
-5.04475707758325e-06
2.26944683769577e-06
-1.13128017351869e-08
-5.55395854773666e-06
2.29835210115703e-06
-1.99075681306827e-08
-6.28348624637306e-06
2.37286665313341e-06
-2.29997395991481e-08
-6.85350987700534e-06
2.33198034087222e-06
-2.22492173231775e-08
-7.12652413573287e-06
2.14297671672603e-06
-2.03468777886033e-08
-7.20591468077581e-06
1.86191495514926e-06
-2.13412208297864e-08
-7.26135477916676e-06
1.55009439148899e-06
-2.35502871443322e-08
-7.33057339219772e-06
1.23162000089002e-06
-2.49719558698716e-08
-7.2613751606891e-06
9.10178898814193e-07
-2.46362500580122e-08
-6.93985706526558e-06
5.91938136452324e-07
-2.25565763484346e-08
-6.59136681753033e-06
2.88062803199995e-07
-2.02710680902107e-08
-6.28376690089553e-06
1.359809389139e-07
-1.1404218538353e-09
-6.21965444203821e-06
2.81900700312487e-07
3.01897217618421e-10
-6.5988580537677e-06
1.50364907221558e-07
-1.92870131915312e-09
-6.25043735761261e-06
4.38899628102403e-07
3.53433885069339e-09
-6.70844682655966e-06
3.15595582405385e-07
1.67492180839396e-09
-7.13716298504325e-06
1.72970350417239e-07
-3.55296349437589e-09
-6.27366023379614e-06
6.05787730612659e-07
8.43569759215575e-09
-6.8327980588647e-06
4.99452787867595e-07
5.46487601262657e-09
-7.39885483354769e-06
3.69748952737803e-07
-2.74391302057203e-10
-7.65573679802657e-06
1.97529684448385e-07
-6.27991919515429e-09
-6.21683292202272e-06
7.83806202615759e-07
1.07252958159336e-08
-6.82431192872564e-06
7.00144983207077e-07
1.02499079033591e-08
-7.63751942243897e-06
5.91910039658604e-07
3.596301255425e-09
-7.96053161722779e-06
4.23627541653009e-07
-3.40773169245885e-09
-7.95655523510066e-06
2.17222231205718e-07
-8.50662862088422e-09
-6.07621842741703e-06
9.76352728899563e-07
7.90539885976587e-09
-6.69205590075293e-06
9.15662804839839e-07
1.18537199594215e-08
-7.61692385158715e-06
8.35288134448112e-07
7.16217218503877e-09
-8.22994483419044e-06
6.81496646382066e-07
-2.18056508947303e-09
-8.2192751197321e-06
4.65915963173728e-07
-7.36943810274887e-09
-8.00338008775897e-06
2.31825919697015e-07
-9.99672742428297e-09
-5.8897438872682e-06
1.18524613238597e-06
2.46445563925666e-09
-6.50486985567516e-06
1.14471325022717e-06
8.41328335297509e-09
-7.40922968321289e-06
1.09515450752017e-06
7.68732227230485e-09
-8.16966503137757e-06
9.62233514057355e-07
9.86133619539589e-10
-8.44258526050069e-06
7.46572151550997e-07
-7.59252905003606e-09
-8.20490644702327e-06
4.95634062065838e-07
-1.1014058071492e-08
-7.87518687434304e-06
2.43209382174135e-07
-1.14875564174849e-08
-5.69774577361817e-06
1.41186859252749e-06
-4.03809064651987e-09
-6.30613053585485e-06
1.38749827662604e-06
2.07266185597617e-09
-7.16223544116153e-06
1.36940819157627e-06
4.23336721582225e-09
-7.89351049165922e-06
1.25955596901059e-06
1.06760760357716e-09
-8.32209708107836e-06
1.05239365491026e-06
-6.98960691074904e-09
-8.36164100623474e-06
7.91177702200153e-07
-1.20802818564264e-08
-8.0326542524214e-06
5.17817348611751e-07
-1.3819191154555e-08
-7.66007034384452e-06
2.52909355687132e-07
-1.32329372565203e-08
-5.52328795108364e-06
1.6553494722188e-06
-8.32847193714482e-09
-6.11319530469875e-06
1.64669931658647e-06
-7.57499336226438e-09
-6.93491934137628e-06
1.65921557642311e-06
-2.48331895092e-09
-7.5999497745356e-06
1.57259639351739e-06
-2.50654831221558e-09
-7.99617506481672e-06
1.3747656365474e-06
-6.83616795969388e-09
-8.18983876141251e-06
1.11027993809029e-06
-1.31278355880286e-08
-8.13828805326048e-06
8.24351894959523e-07
-1.59881780178854e-08
-7.79105306204445e-06
5.37160807781387e-07
-1.62044870444579e-08
-7.40910192780696e-06
2.61879842497e-07
-1.51366586122263e-08
-5.3715507029836e-06
1.91421398878364e-06
-9.7985027445841e-09
-5.93423017806784e-06
1.92334740655458e-06
-1.45571057719446e-08
-6.72733869354839e-06
1.96611471364379e-06
-1.29442357739568e-08
-7.35144305091099e-06
1.90396412024182e-06
-1.0156196731223e-08
-7.67737327451265e-06
1.71412302599714e-06
-1.10343797203338e-08
-7.83530340065468e-06
1.44737241126885e-06
-1.4810477248216e-08
-7.93336808815288e-06
1.15363901273795e-06
-1.81604867691437e-08
-7.86346073696193e-06
8.53439042292533e-07
-1.93263183700345e-08
-7.51997092428683e-06
5.55515744902802e-07
-1.84158716351029e-08
-7.1438648123809e-06
2.70551617990821e-07
-1.6919361521646e-08
-5.23836167949862e-06
2.18897290384928e-06
-1.04356250882654e-08
-5.77126650999333e-06
2.21830187650062e-06
-1.83113633283069e-08
-6.53355958128102e-06
2.29159089911666e-06
-2.09042307018067e-08
-7.13033309786617e-06
2.25334155475005e-06
-1.98810728946909e-08
-7.41802908537486e-06
2.07183074714989e-06
-1.8148190468375e-08
-7.50381500610821e-06
1.80107956595324e-06
-1.89434903726643e-08
-7.56420431772521e-06
1.50001947468475e-06
-2.10969865399582e-08
-7.63846516549405e-06
1.1922731726539e-06
-2.25027962655661e-08
-7.56795311144308e-06
8.81384603290553e-07
-2.22472370891653e-08
-7.23385881711632e-06
5.73363392345277e-07
-2.03537530798695e-08
-6.87111230449731e-06
2.79081482307356e-07
-1.82604830515256e-08
-5.11768542906743e-06
2.48031118743933e-06
-1.045702554286e-08
-5.62178294275281e-06
2.53250474907991e-06
-2.08357386103243e-08
-6.35138996256654e-06
2.63806283195441e-06
-2.67404185679895e-08
-6.9210936205242e-06
2.62249048658239e-06
-2.75180722536762e-08
-7.18748997810696e-06
2.44808803353951e-06
-2.62888311467119e-08
-7.23667065119899e-06
2.17383849594903e-06
-2.55761491714461e-08
-7.2247710459038e-06
1.8639092836222e-06
-2.59585752366539e-08
-7.26078178113644e-06
1.54778002029801e-06
-2.64671873473656e-08
-7.32877934292497e-06
1.22968000539956e-06
-2.62777817903577e-08
-7.25947522156237e-06
9.08667499465172e-07
-2.46906353866469e-08
-6.93764618834111e-06
5.90825237226352e-07
-2.17478590671187e-08
-6.59070588252574e-06
2.87434692617119e-07
-1.88398147026312e-08
-6.41396165551745e-06
1.3100733029306e-07
-8.13150530314764e-10
-6.3557790869709e-06
2.71480014933346e-07
6.24979511260461e-10
-6.74354948992914e-06
1.44951221975581e-07
-1.40083350494564e-09
-6.39489826036954e-06
4.22747924429927e-07
3.61306217644321e-09
-6.86407103479045e-06
3.03872183853278e-07
2.41818053762039e-09
-7.30306440554332e-06
1.66537652768497e-07
-2.56560662699815e-09
-6.42665734530386e-06
5.83570279841614e-07
8.32579152464844e-09
-7.00045455436855e-06
4.81142679767232e-07
5.64305659755564e-09
-7.58104313797213e-06
3.56226122250344e-07
6.06773675469395e-10
-7.84465365229844e-06
1.90212248342043e-07
-4.84906085994907e-09
-6.37671082377516e-06
7.55135997385969e-07
1.05289398302834e-08
-7.00131994803154e-06
6.74617206774455e-07
1.02785764185823e-08
-7.83683932748518e-06
5.70393915997038e-07
4.13910517121993e-09
-8.16917237372882e-06
4.08416100047819e-07
-2.52075021356675e-09
-8.16536579185891e-06
2.09527475224683e-07
-6.99758727554353e-09
-6.24093920823704e-06
9.40720739773687e-07
7.8055357066468e-09
-6.87543611179266e-06
8.82427963289042e-07
1.1821772729895e-08
-7.82740482799328e-06
8.05101364894414e-07
7.53875719350466e-09
-8.45884511014773e-06
6.56863869819174e-07
-7.40496170556731e-10
-8.44861342690899e-06
4.49177264839554e-07
-6.02511572770342e-09
-8.22710198163861e-06
2.23588049187107e-07
-8.37347599108159e-09
-6.05805866450338e-06
1.14209958772014e-06
2.56722915272305e-09
-6.69315722192979e-06
1.10334759986659e-06
8.50725933121562e-09
-7.62594191898835e-06
1.05584163510624e-06
8.01165553899383e-09
-8.41057422111655e-06
9.27862956871788e-07
1.70408365210162e-09
-8.69298735782258e-06
7.20334732262723e-07
-6.19815056536883e-09
-8.44919301003195e-06
4.78118585507647e-07
-9.37633854217069e-09
-8.11009718531873e-06
2.34659804109808e-07
-9.74714237408324e-09
-5.86943119695794e-06
1.36042435623947e-06
-3.49347251680291e-09
-6.49898965870607e-06
1.33756008703811e-06
2.47599320529926e-09
-7.38402383752261e-06
1.32064307704899e-06
4.71234823538588e-09
-8.14039977826215e-06
1.21506040808249e-06
1.74879869794053e-09
-8.5844014353516e-06
1.01542849116558e-06
-5.56701380568103e-09
-8.62675204443812e-06
7.63515475748875e-07
-1.03639122603742e-08
-8.28831460039477e-06
4.99833827985337e-07
-1.19790327922381e-08
-7.90433917453313e-06
2.44170544019409e-07
-1.13901802874327e-08
-5.69885762105212e-06
1.59510494882352e-06
-7.66734440679094e-09
-6.31078725577315e-06
1.58755676301079e-06
-6.50530748084413e-09
-7.16230256004973e-06
1.60022333535883e-06
-1.3600547469396e-09
-7.85214384264005e-06
1.5171885743432e-06
-1.20602424605276e-09
-8.26403930042331e-06
1.32675025272437e-06
-5.42587131360694e-09
-8.46632224923312e-06
1.07196928528537e-06
-1.1299058260898e-08
-8.41465836151566e-06
7.96112505645162e-07
-1.40063041729989e-08
-8.05663311327914e-06
5.18885901937447e-07
-1.42167208490861e-08
-7.662140808566e-06
2.53018805105796e-07
-1.32138850951459e-08
-5.5518313181687e-06
1.84469969469156e-06
-9.07027585532233e-09
-6.13711556209844e-06
1.85453355333989e-06
-1.32780769586285e-08
-6.96105937720434e-06
1.89671866485968e-06
-1.13581611178741e-08
-7.61036961273419e-06
1.83757033942068e-06
-8.53161994414427e-09
-7.95089016938985e-06
1.65494108557966e-06
-9.16611848020812e-09
-8.11707812305736e-06
1.39805531653716e-06
-1.28380670051113e-08
-8.22086293956131e-06
1.11473269715686e-06
-1.60151273566243e-08
-8.15004506274337e-06
8.24898271126565e-07
-1.71424468119111e-08
-7.79504502375441e-06
5.37070515033468e-07
-1.63220670424739e-08
-7.40566698855626e-06
2.61615497542998e-07
-1.49509758582513e-08
-5.42419433283376e-06
2.10963951906172e-06
-9.59355354947952e-09
-5.98019282017695e-06
2.13930314226601e-06
-1.6828628021875e-08
-6.77432737326048e-06
2.21124944960987e-06
-1.89248811714516e-08
-7.39718330403052e-06
2.17550280607949e-06
-1.76335874828515e-08
-7.69932396753191e-06
2.00131198651021e-06
-1.60513535463391e-08
-7.79152917873313e-06
1.74069803797123e-06
-1.66469886735446e-08
-7.85691082956069e-06
1.45026597695114e-06
-1.87322556211432e-08
-7.93622220908988e-06
1.15314099328365e-06
-2.0106797670864e-08
-7.86456798314146e-06
8.52720816600159e-07
-1.99177840694606e-08
-7.51838224256079e-06
5.5485704582119e-07
-1.81990119654492e-08
-7.14186445583722e-06
2.70123406013035e-07
-1.629175950596e-08
-5.30984220638327e-06
2.39069354718153e-06
-9.56455083845588e-09
-5.83754100040737e-06
2.44280097294813e-06
-1.91774424382179e-08
-6.59997725023103e-06
2.54638089564355e-06
-2.45148613798884e-08
-7.19665762302868e-06
2.53299023309769e-06
-2.49898690608051e-08
-7.47794489201069e-06
2.36597278320558e-06
-2.35692008185645e-08
-7.53286352741388e-06
2.10198806466351e-06
-2.28649820836232e-08
-7.52364882422019e-06
1.80319029462829e-06
-2.32377329919606e-08
-7.5637978187208e-06
1.49798699102906e-06
-2.37961188103481e-08
-7.63677249846063e-06
1.19056739144393e-06
-2.36938531282508e-08
-7.5661335610093e-06
8.80047607618305e-07
-2.22743499257469e-08
-7.23169673676349e-06
5.72363816872152e-07
-1.95866614946028e-08
-6.87055071630999e-06
2.78507977481798e-07
-1.6924740460584e-08
-5.20406189820941e-06
2.69013348906255e-06
-1.06004485449181e-08
-5.70524488874694e-06
2.76589337630002e-06
-2.03824907635791e-08
-6.43542558385827e-06
2.90266310136558e-06
-2.81770463520895e-08
-7.00403493310534e-06
2.91261252455226e-06
-3.17726096224434e-08
-7.265350307889e-06
2.75299729104631e-06
-3.19812017851977e-08
-7.3032238809641e-06
2.4846636237995e-06
-3.09349024114555e-08
-7.25701989454887e-06
2.17608554113881e-06
-2.99440221424545e-08
-7.2237933898768e-06
1.86035093570616e-06
-2.91365473128424e-08
-7.25797457086982e-06
1.54474481171336e-06
-2.81942489202605e-08
-7.32624622829932e-06