/*--------------------------------*- C++ -*----------------------------------*\
  =========                 |
  \\      /  F ield         | OpenFOAM: The Open Source CFD Toolbox
   \\    /   O peration     | Website:  https://openfoam.org
    \\  /    A nd           | Version:  12
     \\/     M anipulation  |
\*---------------------------------------------------------------------------*/
/*   Windows 32 and 64 bit porting by blueCAPE: http://www.bluecape.com.pt   *\
|  Based on Windows porting (2.0.x v4) by Symscape: http://www.symscape.com   |
\*---------------------------------------------------------------------------*/
FoamFile
{
    format      ascii;
    class       volVectorField;
    location    "0";
    object      U;
}
// * * * * * * * * * * * * * * * * * * * * * * * * * * * * * * * * * * * * * //

dimensions      [0 1 -1 0 0 0 0];

internalField   nonuniform List<vector> 
10123
(
(-2.1227258365567e-06 0.00275929103111616 5.58926805141233e-05)
(-2.01470265948139e-06 0.00288059803586713 5.40979225023306e-05)
(-3.79695999479915e-06 0.00276260499586783 0.000173511496970222)
(-4.97740736448724e-06 0.00275916260502299 5.63316692590082e-05)
(-1.90705085146825e-06 0.00299806803024183 5.231375507232e-05)
(-3.6359862028457e-06 0.0028838999173333 0.000167931129758061)
(-4.68848484996009e-06 0.00288046952838275 5.45145824764488e-05)
(-2.58410860634093e-06 0.0027698549390667 0.000298159470817181)
(-7.48392962278596e-06 0.00276254553716813 0.000172474935091186)
(-6.74161474811794e-06 0.00275889640887547 5.73789777357065e-05)
(-1.7999417678522e-06 0.00311173269963843 5.05473983190704e-05)
(-3.47591996109508e-06 0.00300134354227214 0.000162384737759455)
(-4.39991029625531e-06 0.00299793999523018 5.27072603158401e-05)
(-2.47240708290489e-06 0.00289112118510076 0.00028855597330283)
(-7.1454944569034e-06 0.0028838415939673 0.00016693618813424)
(-6.30765935995826e-06 0.00288020280764547 5.55430826973434e-05)
(1.41984175174731e-07 0.00278151931312254 0.000424603626538131)
(-5.01084476355771e-06 0.00276983087151931 0.000295668689157708)
(-8.69418348631134e-06 0.00276233633586882 0.000173799580780914)
(-7.52138828791725e-06 0.00275850066012047 5.79892108592446e-05)
(-1.69363180775298e-06 0.00322163885290543 4.88051475138975e-05)
(-3.31688091825074e-06 0.00311496927412591 0.00015689468871766)
(-4.11217390518853e-06 0.00311160528956828 5.0917121533783e-05)
(-2.36225623080485e-06 0.00300850569645738 0.000279015077212636)
(-6.80877344096455e-06 0.00300128674056442 0.000161428625061181)
(-5.87362437893685e-06 0.00299767382801884 5.37178925397605e-05)
(1.69303885328544e-07 0.00290273247278643 0.000410884281279285)
(-4.75224524729681e-06 0.00289110158861175 0.000286167463980952)
(-8.26998230821807e-06 0.00288363348837614 0.00016824728422481)
(-7.00298686785104e-06 0.00287980432369066 5.61561841644902e-05)
(2.05422709304972e-06 0.00279776860491769 0.00054940186090602)
(1.4829203727207e-07 0.00278158404709776 0.000423369651760578)
(-6.22760943140045e-06 0.00276969808179607 0.000296449366442392)
(-8.41973281587011e-06 0.00276197432877478 0.000175162094793091)
(-7.74767834974542e-06 0.00275800578948929 5.80761886465548e-05)
(-1.5886229303586e-06 0.00332784637187428 4.70932470859115e-05)
(-3.15978891198106e-06 0.0032248253006998 0.000151480935760295)
(-3.82634727780831e-06 0.00322151242920455 4.91510491974514e-05)
(-2.25342872515602e-06 0.00312204483643104 0.000269574351709119)
(-6.47391909228386e-06 0.00311491338392105 0.000155975736876043)
(-5.4392091965712e-06 0.00311133990022378 5.19086297897076e-05)
(1.96416174056039e-07 0.00302001613538126 0.000397261182900739)
(-4.50100976494399e-06 0.00300848948442158 0.000276726964301985)
(-7.84295979950891e-06 0.00300107977287324 0.000162718320973347)
(-6.48478169061946e-06 0.00299727408656203 5.4338721094175e-05)
(2.02109995352061e-06 0.00291890028351973 0.000531544823764424)
(2.45278318209444e-07 0.00290279930942996 0.000409695130507786)
(-5.83404347758171e-06 0.00289098558901162 0.000286938777388235)
(-7.92457394522975e-06 0.00288325959368338 0.000169585797788789)
(-7.16539458206941e-06 0.00287931255329901 5.62311135978467e-05)
(2.12575242990774e-06 0.00281854127849547 0.000673082477516965)
(3.62290995325027e-06 0.0027978689423771 0.000551644744445662)
(-7.14611443421975e-07 0.00278156326780537 0.000424285849125369)
(-7.08138132176155e-06 0.00276946411573564 0.000298096055478731)
(-7.92074313093452e-06 0.00276153166587236 0.000176343294384481)
(-7.94428457698652e-06 0.00275740432881325 5.79505066686715e-05)
(-1.48479514574625e-06 0.00343042787025171 4.54170112783653e-05)
(-3.00541835128993e-06 0.00333097213114522 0.000146161308233772)
(-3.5430976210081e-06 0.00332772122335285 4.74156505347565e-05)
(-2.14626807479455e-06 0.00323178974069323 0.000260267926423848)
(-6.14258067715239e-06 0.00322476984103899 0.000150597830212569)
(-5.00604400160975e-06 0.00322124852709881 5.01232846506524e-05)
(2.22861276497677e-07 0.0031334111977836 0.000383787735266664)
(-4.25235723890857e-06 0.00312202999579085 0.000267384686465098)
(-7.41642468366002e-06 0.00311470738802248 0.00015724275835219)
(-5.96817027144708e-06 0.00311093978325987 5.25388023582293e-05)
(1.9881320511223e-06 0.00303603559096069 0.000513822218118756)
(3.41072469942073e-07 0.00302008510880567 0.000396117506114016)
(-5.4721299537595e-06 0.00300838196073873 0.000277486439209178)
(-7.43141871414052e-06 0.00300069834386935 0.00016405804266684)
(-6.58900177061275e-06 0.00299678514224528 5.43970810921286e-05)
(2.09144178946966e-06 0.00293955634082131 0.000651030994357809)
(3.61302172367307e-06 0.00291900162214862 0.000533715451777759)
(-5.09791446354623e-07 0.00290277994430294 0.000410587755271353)
(-6.58733795425846e-06 0.00289069777834261 0.000288574156106022)
(-7.34436776008815e-06 0.00288282482689235 0.000170724099283735)
(-7.28584338443879e-06 0.00287871901235695 5.61086258942252e-05)
(1.09997797069871e-06 0.00284371681235017 0.000797674855430311)
(3.62007161773301e-06 0.00281857979462852 0.000678883684258445)
(2.73465655353479e-06 0.00279787243402539 0.000553425338169144)
(-2.2728713512023e-06 0.00278131247834447 0.000426165488067221)
(-7.43916806157901e-06 0.00276909936536347 0.000299548055753734)
(-7.95268324570715e-06 0.00276093901893197 0.000176682855057281)
(-8.27300454552823e-06 0.00275670457059429 5.78204681225937e-05)
(-1.38119169851747e-06 0.00352947249639909 4.37839443496123e-05)
(-2.853437630812e-06 0.00343348091514012 0.000140951351127536)
(-3.26360344173425e-06 0.00343030325657136 4.57165417491619e-05)
(-2.04104145657034e-06 0.00333780454654181 0.000251126216572273)
(-5.81706693018401e-06 0.00333091670306836 0.000145312957886645)
(-4.57462068486352e-06 0.00332746007880219 4.8367370825132e-05)
(2.48249466542122e-07 0.00324297299938363 0.00037051256818364)
(-4.00713382884283e-06 0.00323177538611245 0.000258174218892185)
(-6.99276148386239e-06 0.00322456637877912 0.000151841229980632)
(-5.45093208914774e-06 0.00322084821709395 5.07630812922385e-05)
(1.95479843751034e-06 0.00314922141095319 0.00049630459554703)
(4.34643095621038e-07 0.00313348151718115 0.000382688341886768)
(-5.10713172554373e-06 0.00312192401106843 0.000268130110116701)
(-6.94087002744414e-06 0.00311432334088642 0.000158591403773555)
(-6.01707815902503e-06 0.00311045116608004 5.25800623522966e-05)
(2.05679785000486e-06 0.00305648907276179 0.000629159691386932)
(3.60226422386935e-06 0.00303613865799311 0.000515921935716291)
(-3.03893467658969e-07 0.0030200688815572 0.000396991936442691)
(-6.11293585165509e-06 0.00300806006557123 0.000279109597971693)
(-6.77739211253967e-06 0.0030002703027546 0.000165135971078072)
(-6.63694515879838e-06 0.00299619825145055 5.42770238628979e-05)
(1.10205658082477e-06 0.00296457184850778 0.000771286707680322)
(3.61552129028218e-06 0.0029395959149451 0.000656643113496786)
(2.841337451434e-06 0.00291900606270948 0.000535447830685952)
(-1.90378396974993e-06 0.00290252093061201 0.000412469500771212)
(-6.87320793051902e-06 0.0028903645584042 0.000289970998652437)
(-7.29017446301166e-06 0.00288224207309423 0.000171053853025991)
(-7.5375364880275e-06 0.00287803113777161 5.59877463458723e-05)
(-5.71453868633632e-07 0.00287324161405037 0.000924609299060578)
(1.49191615099626e-06 0.00284364256497502 0.000805215359010253)
(2.64607595325455e-06 0.00281850092603134 0.00068173450895003)
(4.15380742742087e-07 0.00279760497009439 0.000555290781069047)
(-4.52406954546544e-06 0.00278103005253897 0.000427328799780082)
(-7.60295863178077e-06 0.00276854258340204 0.000300802369024228)
(-8.29487874552588e-06 0.00276022613955688 0.000176616719450346)
(-8.62656833617278e-06 0.00275592440195341 5.77572015351938e-05)
(-1.27555877864323e-06 0.00362508720802922 4.21981965730573e-05)
(-2.69276209189132e-06 0.00353244218570607 0.00013586541039086)
(-2.9888056761313e-06 0.00352934606068143 4.4065387112422e-05)
(-1.93778776209961e-06 0.00344016587671447 0.000242174931708903)
(-5.49953565034012e-06 0.00343341967397036 0.000140136738589775)
(-4.14496001323577e-06 0.00343004714728269 4.66443968240803e-05)
(2.72713562726803e-07 0.00334877034299623 0.000357478997361285)
(-3.76606365802091e-06 0.00333778998099659 0.000249125957010106)
(-6.5766306531733e-06 0.00333071989578234 0.000146532075697339)
(-4.92857785687806e-06 0.00332705884753136 4.90131093198849e-05)
(1.92113507651823e-06 0.00325851937616368 0.000479055833775281)
(5.24332528450258e-07 0.003243043738735 0.00036945579046224)
(-4.74485058270964e-06 0.00323167074302581 0.000258902444311042)
(-6.44892576361651e-06 0.00322418526562058 0.000153199104387625)
(-5.44572840866066e-06 0.00322035369285559 5.07889520277954e-05)
(2.02171239718639e-06 0.00316939391554882 0.000607556646179406)
(3.5882005888956e-06 0.00314932605640476 0.000498334199210462)
(-1.00999029342804e-07 0.0031334699304124 0.000383540970105806)
(-5.6186331036611e-06 0.00312159312849603 0.000269737186192915)
(-6.21631665301112e-06 0.0031138949802757 0.000159600140701113)
(-5.99544947364139e-06 0.00310986847877677 5.24624854400307e-05)
(1.10196892719622e-06 0.00308124086874052 0.00074513623001772)
(3.60929833728078e-06 0.00305653016636069 0.00063458527121896)
(2.94455637828349e-06 0.00303614885590029 0.00051760617104539)
(-1.53665790068134e-06 0.00301980827730785 0.000398846421777234)
(-6.30509352525969e-06 0.00300775507237611 0.00028045298052383)
(-6.6386357763531e-06 0.0029996948979793 0.000165456071514518)
(-6.81477537738919e-06 0.0029955205055354 5.41644223191367e-05)
(-4.72722753002309e-07 0.00299387750495993 0.000893621566125028)
(1.57255216086039e-06 0.00296450406729658 0.000778568690479884)
(2.75714301347316e-06 0.00293951705406488 0.000659423060361905)
(7.17987538429854e-07 0.0029187450735411 0.000537269544979634)
(-3.9533528405546e-06 0.0029022453784791 0.000413590926515381)
(-6.93689631540551e-06 0.00288981981648143 0.000291172014475017)
(-7.54720435359875e-06 0.0028815426997534 0.00017100807335496)
(-7.82586125687124e-06 0.00287726596829029 5.59335972987877e-05)
(-1.58564613975831e-06 0.00290734596697745 0.0010536334687486)
(-2.34156459657617e-06 0.00287312221126938 0.000931655628162855)
(-4.42441161432442e-08 0.00284340528901966 0.000809259648440814)
(-1.64349349217005e-07 0.00281816516690083 0.000683807408859835)
(-2.75124331608864e-06 0.00279731905016617 0.00055666806401274)
(-6.6311745155686e-06 0.00278057175511761 0.000428580818204566)
(-8.21320630093995e-06 0.00276781225164961 0.00030105188842683)
(-8.70515755812878e-06 0.00275942785979699 0.000176453260098951)
(-8.88650354350887e-06 0.00275508543517741 5.77135162800583e-05)
(-1.18497036830562e-06 0.00371737241063443 4.06673649598641e-05)
(-2.52648330395528e-06 0.00362796230665018 0.000130916941417568)
(-2.7102096303925e-06 0.00362495319496614 4.24648953864376e-05)
(-1.83605394301593e-06 0.00353896468532509 0.000233433621547513)
(-5.13921771764347e-06 0.00353237128929781 0.000135084813742537)
(-3.71657739609385e-06 0.00352909078313239 4.49497584989901e-05)
(2.96760083271325e-07 0.00345088487834405 0.000344724554514389)
(-3.52953493653282e-06 0.00344014995010022 0.000240265706013515)
(-6.17137358835651e-06 0.00343324883697665 0.000141331390511278)
(-4.39612617784298e-06 0.0034296417777331 4.72897409551453e-05)
(1.88755838843241e-06 0.00336400502313919 0.000462132017697127)
(6.10538362902766e-07 0.00334884002368432 0.00035646320678047)
(-4.38617631367113e-06 0.00333768657296345 0.000249835633491237)
(-5.97544908943941e-06 0.00333034697699085 0.000147899249395166)
(-4.86861083099429e-06 0.00332655082045732 4.90347317887486e-05)
(1.98700014852006e-06 0.00327834141138826 0.000586300528359723)
(3.57139930382531e-06 0.00325862449801415 0.000481015671232098)
(9.01818300836326e-08 0.00324303696007198 0.000370283717118073)
(-5.11843451807145e-06 0.00323133796742163 0.000260479806536364)
(-5.65491392174592e-06 0.00322373818227295 0.000154142191551423)
(-5.35833735683855e-06 0.00321977204656418 5.06731882998764e-05)
(1.1007676453808e-06 0.0031937874819094 0.000719326683466519)
(3.60070732320953e-06 0.00316943759552499 0.000612798022758093)
(3.03282691336113e-06 0.00314934346729691 0.000499969780953773)
(-1.16037335640287e-06 0.00313322391972539 0.000385341521664413)
(-5.72262672135024e-06 0.00312129293251458 0.000271035643234853)
(-5.99534266323943e-06 0.00311332439701322 0.000159912628222316)
(-6.10235564693176e-06 0.00310919829935118 5.23573909390023e-05)
(-3.80936849129952e-07 0.00311021197826192 0.000862944163639354)
(1.64871143462075e-06 0.00308117579953252 0.000752163613154229)
(2.8634393830393e-06 0.00305645624029844 0.000637294639528942)
(1.02041219762839e-06 0.00303591125302106 0.000519375619038396)
(-3.39577669649537e-06 0.00301952859575505 0.000399945515260584)
(-6.28231389649357e-06 0.0030072144766357 0.000281598787927055)
(-6.8138675519087e-06 0.00299900703992763 0.000165428460930134)
(-7.04045907396566e-06 0.00299476831014513 5.41183570383275e-05)
(-1.45221074204314e-06 0.00302769289749134 0.00101777894229793)
(-2.01743945052352e-06 0.00299375948024023 0.000900422557704401)
(2.53972600013455e-07 0.00296425966537839 0.00078246444825177)
(1.78050465369695e-07 0.00293919349306468 0.000661371440865854)
(-2.20982101801654e-06 0.00291846213218698 0.00053862600550547)
(-5.9072720411953e-06 0.00290180325234106 0.000414799030346531)
(-7.43915266598815e-06 0.0028891062901165 0.000291458275419493)
(-7.88793276051526e-06 0.0028807611168293 0.000170872361043222)
(-8.039914398685e-06 0.00287644408442892 5.58987249255184e-05)
(-1.96649636440327e-06 0.00294621129130734 0.00118308424041459)
(-4.65924776928036e-06 0.0029071992676715 0.00105873959730205)
(-4.46167103930721e-06 0.00287285418110549 0.000936180696482422)
(-3.13486166449413e-06 0.00284308828610999 0.000811486715773115)
(-3.86565024841148e-06 0.00281781016564884 0.000684944597203903)
(-5.94293041318254e-06 0.00279684971886033 0.000557026447259088)
(-8.06644126283741e-06 0.00277979657734314 0.000428867640505059)
(-8.85071763957892e-06 0.00276697903152559 0.000300879767803193)
(-9.02317924111619e-06 0.00275856947124921 0.000176245965850761)
(-8.97362749963404e-06 0.00275421079090407 5.76435370958928e-05)
(-1.08755593495458e-06 0.00380642866915342 3.91784917176337e-05)
(-2.34975133143924e-06 0.00372015797170061 0.00012612426227429)
(-2.48006594055274e-06 0.00371722100298326 4.09222961399375e-05)
(-1.73558303523038e-06 0.00363430377974383 0.000224924483155363)
(-4.7607379988817e-06 0.00362787756756509 0.000130168304706271)
(-3.2833326973021e-06 0.00362467131635433 4.3294073414165e-05)
(3.20908161157851e-07 0.00354941076319117 0.000332281578235)
(-3.29876999871178e-06 0.00353894610969384 0.000231607857786714)
(-5.72832452682547e-06 0.00353222981612542 0.000136252630277953)
(-3.85103502404262e-06 0.00352868035480791 4.56029444306573e-05)
(1.85458136452388e-06 0.00346576609048119 0.000445581469005946)
(6.95416845695137e-07 0.00345095183848891 0.000343748374089366)
(-4.0301537895436e-06 0.00344004991073754 0.000240960782702213)
(-5.53834017704455e-06 0.00343287043981155 0.000142709740035094)
(-4.28016811318002e-06 0.00342911660502056 4.73258764480987e-05)
(1.95259019718909e-06 0.00338341629565041 0.000565460590395803)
(3.55337425530707e-06 0.00336410898678651 0.000464022288134565)
(2.7051289111645e-07 0.00334883453255998 0.000357265088137404)
(-4.60602031367038e-06 0.00333734907351271 0.000251375005142318)
(-5.11180521529801e-06 0.00332985747630212 0.000148780979515725)
(-4.72223332145579e-06 0.00332596637880002 4.89158816612888e-05)
(1.09978592205791e-06 0.00330229269548236 0.000693952015155654)
(3.59094359464067e-06 0.00327838784481168 0.000591359624926471)
(3.11218692359712e-06 0.00325864616243915 0.00048260418171507)
(-8.34379353885405e-07 0.00324281500424729 0.000372018024150651)
(-5.13644148279533e-06 0.00323102351996342 0.00026176420381971)
(-5.35803335114659e-06 0.00322317329159335 0.000154445968179849)
(-5.3970446228068e-06 0.0032191061804385 5.05745289577347e-05)
(-2.93555005671448e-07 0.00322231520718272 0.000832695429358382)
(1.72088353664756e-06 0.00319372731690066 0.00072610261550222)
(2.96423033031758e-06 0.00316936925430863 0.000615438792926482)
(1.23802784648039e-06 0.00314913536734853 0.000501681803943301)
(-2.83551492434107e-06 0.00313290266116941 0.000386464411886948)
(-5.63510937259728e-06 0.00312075510615075 0.000272123546820799)
(-6.09240817693324e-06 0.0031126456345136 0.000159901142842272)
(-6.26770678173542e-06 0.00310845613761715 5.23184464216199e-05)
(-1.32817952458764e-06 0.00314360550023242 0.000982324465583432)
(-1.71105260517506e-06 0.0031100960524414 0.000869503247367683)
(5.39476522037627e-07 0.00308093894923879 0.000755909402496212)
(5.09249103719004e-07 0.00305614489246376 0.000639117103696053)
(-1.67843493574532e-06 0.00303558920875684 0.000520709225492461)
(-5.20371915077936e-06 0.00301909799561098 0.000401104721097891)
(-6.68269304401446e-06 0.00300651512444911 0.000281916851068009)
(-7.08772890768684e-06 0.0029982401358695 0.000165317734797209)
(-7.2103779452358e-06 0.00299396137954505 5.40915431449629e-05)
(-1.8126968445439e-06 0.00306618406904614 0.0011421839489654)
(-4.25467525170732e-06 0.00302754904116114 0.00102271606024817)
(-3.90841999428034e-06 0.00299350004771457 0.000904763113784516)
(-2.56333767780499e-06 0.0029639594564568 0.000784581913223137)
(-3.2154171843755e-06 0.00293885143965713 0.0006625174071247)
(-5.19278476941188e-06 0.00291801130022391 0.000539017465971953)
(-7.23766781282333e-06 0.00290105118402511 0.000415138005806527)
(-7.99700310872768e-06 0.00288829352667808 0.000291333633462472)
(-8.15764839999702e-06 0.00287992168017112 0.000170695333565146)
(-8.10435777723864e-06 0.00287558785751675 5.58386701439976e-05)
(-2.09435297840206e-06 0.00299008348867544 0.00131208478710347)
(-5.66398581764949e-06 0.0029460490157799 0.00118608597582285)
(-7.31453403395672e-06 0.00290687795603955 0.00106244727679653)
(-7.09032727334702e-06 0.00287241124806222 0.000938133150935558)
(-6.41911652022797e-06 0.00284260494048937 0.000811914759843366)
(-7.0862550493732e-06 0.00281723766649868 0.000684292193654605)
(-8.2903441762031e-06 0.00279601303883073 0.00055663916688712)
(-9.14093026982763e-06 0.00277890429161681 0.000428533777291688)
(-9.32619834341572e-06 0.00276607861168016 0.000300515953272953)
(-9.15740292446884e-06 0.00275767429482905 0.000175978109221571)
(-8.83547544885603e-06 0.00275332497391301 5.75373932186832e-05)
(-9.85906053549691e-07 0.00389238035390145 3.77424469210989e-05)
(-2.20280956184484e-06 0.0038091269313919 0.000121484343695514)
(-2.24024183258252e-06 0.00380625882431467 3.94452042763785e-05)
(-1.63410171523438e-06 0.00372629447773568 0.000216668959902553)
(-4.35205697923749e-06 0.0037200306808615 0.000125404327462497)
(-2.89667629578985e-06 0.00371690428422753 4.16843298417527e-05)
(3.4559347791999e-07 0.00364445290676421 0.000320179542833916)
(-3.07331263430441e-06 0.00363427905593449 0.000223176519274456)
(-5.27563819300816e-06 0.00362773088002543 0.000131302367614562)
(-3.29326116804582e-06 0.00362426968731788 4.39522253111921e-05)
(1.8231467760885e-06 0.00356390176348296 0.000429446763569647)
(7.80266148447871e-07 0.0035494736149197 0.000331343877865962)
(-3.6778895641553e-06 0.00353885096714695 0.000232309812011267)
(-5.08829114498992e-06 0.00353184081489303 0.000137643065243981)
(-3.67577258802962e-06 0.00352813608853545 4.56605911945655e-05)
(1.91804465550802e-06 0.00348471386981193 0.000545095410494319)
(3.53540341418375e-06 0.00346586673758356 0.000447402335925665)
(4.5005810192815e-07 0.00345094384001297 0.000344524139935353)
(-4.07951584336786e-06 0.00343970329774248 0.000242468323591695)
(-4.60420391078639e-06 0.003432338514969 0.000143531611992315)
(-4.08192503884202e-06 0.00342852328373941 4.71968451327283e-05)
(1.09867861861272e-06 0.00340685237690295 0.000669095059182548)
(3.57991824082279e-06 0.00338346473679132 0.000570338935360589)
(3.18891209817172e-06 0.00336413170652835 0.000465564646469828)
(-5.6152833272296e-07 0.00334862184983028 0.000358928756103227)
(-4.53799803221802e-06 0.00333701514176426 0.000252666092085278)
(-4.72737137962336e-06 0.0033293004677078 0.000149075117089688)
(-4.695004294782e-06 0.00332530024090761 4.8822458755518e-05)
(-2.08075507781733e-07 0.00333027863168982 0.000802983406133292)
(1.79112351797403e-06 0.00330223868644142 0.000700479129620459)
(3.06197947449839e-06 0.00327832444840014 0.00059393416279811)
(1.43273728014064e-06 0.00325845042650244 0.000484268427995506)
(-2.33413323905331e-06 0.00324242136778939 0.000373186420249578)
(-4.99611866595039e-06 0.00323048814418949 0.000262784176777526)
(-5.37991057208551e-06 0.00322250111263535 0.000154447846195184)
(-5.50394365075586e-06 0.003218370163842 5.05416614923792e-05)
(-1.21060491460493e-06 0.0032551643669185 0.000947403817917593)
(-1.41835607412682e-06 0.00322220581507745 0.000839015242992958)
(8.1374445938225e-07 0.00319349881345012 0.000729699216404522)
(8.38536719894692e-07 0.00316906736894831 0.000617150335868365)
(-1.24666733928321e-06 0.00314874942548264 0.000502988006038101)
(-4.51884128008063e-06 0.00313248922894247 0.000387557290793441)
(-5.94125512151384e-06 0.00312006786165523 0.000272467761515728)
(-6.30189110722984e-06 0.00311189050391255 0.000159812652807883)
(-6.39496957104207e-06 0.00310766087787654 5.22987573654907e-05)
(-1.66977483572477e-06 0.00318157175588847 0.00110179130058109)
(-3.87525347743677e-06 0.00314346496191122 0.000987092982889263)
(-3.38254911237589e-06 0.00310984737129525 0.000873656487701073)
(-2.01793307921176e-06 0.00308065089888501 0.000757914324671101)
(-2.58951594198431e-06 0.003055807048407 0.000640260760646888)
(-4.47088083301482e-06 0.00303516547894563 0.000521128531274817)
(-6.43336899345722e-06 0.00301836810374919 0.000401488025553789)
(-7.16411563747264e-06 0.0030057207364178 0.000281834670042467)
(-7.310855298148e-06 0.00299741743785366 0.000165168110010372)
(-7.25277151792945e-06 0.00299312126708318 5.40404636780322e-05)
(-1.92535269449349e-06 0.00310957676893007 0.00126594830771485)
(-5.20158622385493e-06 0.00306602640333401 0.00114509258018052)
(-6.63752955345722e-06 0.00302724295259523 0.00102630789263582)
(-6.29053672089942e-06 0.00299307793807521 0.000906685579554975)
(-5.64047852766911e-06 0.00296349937387206 0.000785067295298405)
(-6.20984418621846e-06 0.00293830412013199 0.000662009566891254)
(-7.3894195249129e-06 0.00291720689712166 0.000538712147527491)
(-8.22448892647935e-06 0.00290018565337601 0.00041487443682629)
(-8.4186832345582e-06 0.00288741602293286 0.000291023047731516)
(-8.26764409985312e-06 0.00287904675289044 0.000170459755511829)
(-7.96772216515702e-06 0.00287472096407806 5.57435511424913e-05)
(-2.01091020747408e-06 0.00303924164767844 0.00144025888497306)
(-6.08794702863672e-06 0.00298990871137567 0.00131345429613134)
(-8.8473281986402e-06 0.00294568650135605 0.00118851512057349)
(-9.68470836811262e-06 0.00290634368049577 0.00106371115914968)
(-9.45066851952874e-06 0.00287176051801709 0.000937503355532798)
(-9.07814023381368e-06 0.00284176647236401 0.000810159710999121)
(-9.3651945651198e-06 0.00281627946761615 0.000682983961271061)
(-9.78202735923136e-06 0.00279503347458181 0.00055585018703441)
(-9.86037032297854e-06 0.00277793477294717 0.000427925329214032)
(-9.56374888102734e-06 0.00276513773242148 0.000300027519454946)
(-9.05387586588654e-06 0.00275676729066279 0.000175649520774057)
(-8.43485570176662e-06 0.00275245331698487 5.74009140090996e-05)
(-8.85965276726724e-07 0.00397535838687375 3.63640826900242e-05)
(-2.04888163782717e-06 0.00389497674294854 0.000117008000645426)
(-1.99531279815099e-06 0.00389219639670295 3.80260151049307e-05)
(-1.53065996547757e-06 0.00381504916276974 0.000208691933421471)
(-3.96248826613207e-06 0.00380895424038563 0.000120795215831104)
(-2.50619869722433e-06 0.00380592890358761 4.01369531471319e-05)
(3.71772080337571e-07 0.00373612469477236 0.000308443648274406)
(-2.84778192611859e-06 0.00372625388907549 0.000214987839275805)
(-4.7514463409713e-06 0.00371986228147841 0.000126481586911069)
(-2.73659551923173e-06 0.00371651266212784 4.232606445142e-05)
(1.79379075888345e-06 0.00365852224820413 0.000413765990582736)
(8.658910669724e-07 0.00364450985568418 0.000319279085288744)
(-3.34056836514216e-06 0.00363418338258826 0.000223893951185215)
(-4.62765183340911e-06 0.0036273725352546 0.000132690025855323)
(-3.04953092901385e-06 0.0036237047522216 4.40444075204899e-05)
(1.88377484826134e-06 0.00358233902868446 0.000525257263494845)
(3.52009882138869e-06 0.00356399718493583 0.000431200597261456)
(6.31623321386405e-07 0.00354946126369164 0.00033209778969436)
(-3.53109021015043e-06 0.0035385108285924 0.000233779949763855)
(-4.08303570099916e-06 0.00353126982948135 0.000138410496746535)
(-3.42976271972817e-06 0.00352752611596396 4.55198057617318e-05)
(1.09501258256162e-06 0.00350757103345879 0.000644827010578526)
(3.56435003946577e-06 0.00348476110680333 0.000549794422085106)
(3.26583003258389e-06 0.0034658868107759 0.00044889398052401)
(-2.79246457453869e-07 0.00345072386359426 0.000346114753368482)
(-3.92308849256064e-06 0.00343934461052186 0.000243755519987223)
(-4.1012627138354e-06 0.0034317803957471 0.000143816318118631)
(-3.99031454523293e-06 0.00342785027783053 4.71064856089807e-05)
(-1.24024816358974e-07 0.00343420986773343 0.000773904050681555)
(1.85927485446014e-06 0.00340680540976327 0.000675377103709171)
(3.15685748014042e-06 0.00338340953232304 0.000572848265530153)
(1.63627057164809e-06 0.00336393683229442 0.000467190526415707)
(-1.89281208944274e-06 0.00334817397591219 0.000360151414279057)
(-4.36154170228951e-06 0.00333647709326119 0.000253611370532018)
(-4.67288507149509e-06 0.00332863116262308 0.000149087791447334)
(-4.74443064444492e-06 0.00332456504677353 4.87950152800006e-05)
(-1.09635536522992e-06 0.00336247312263811 0.000913138315447331)
(-1.13433020431562e-06 0.00333017728718561 0.000809066535504475)
(1.0823586487611e-06 0.00330201760563463 0.000703928150007498)
(1.17113453578699e-06 0.00327802863076309 0.000595544315843313)
(-8.46806600141429e-07 0.00325802083742287 0.000485517731183874)
(-3.86240446055273e-06 0.0032420300604653 0.000374205146455825)
(-5.21244365780255e-06 0.00322981019927797 0.000263147472639157)
(-5.52681048365007e-06 0.00322175388997691 0.000154378766665673)
(-5.58967579062761e-06 0.00321758211020715 5.0528221741174e-05)
(-1.5352111949129e-06 0.00329246959423192 0.0010620549075175)
(-3.51549686203967e-06 0.00325503203467111 0.000952005015960819)
(-2.8807051040257e-06 0.00322196724286326 0.000842981294279891)
(-1.49249001164695e-06 0.00319321902127889 0.000731590473355371)
(-1.97711649678054e-06 0.00316872522880952 0.000618247591895767)
(-3.79266958201468e-06 0.00314835499270758 0.000503431087275782)
(-5.65194445871001e-06 0.00313178119153653 0.000387974649262287)
(-6.34933684672429e-06 0.00311928895596952 0.000272422879483117)
(-6.47992669955543e-06 0.00311108121207204 0.000159687619271651)
(-6.41603180085851e-06 0.0031068333672163 5.22557459293408e-05)
(-1.76274145705814e-06 0.0032243170220216 0.00122044219533246)
(-4.77245206352991e-06 0.0031814192905746 0.00110460881029251)
(-5.99924367766629e-06 0.00314317432293273 0.000990564651269815)
(-5.53146949887613e-06 0.00310944494673106 0.00087554285862274)
(-4.89765515348206e-06 0.0030802092148269 0.000758446972692778)
(-5.37036010960318e-06 0.00305528205405459 0.000639886559522609)
(-6.52175651664079e-06 0.0030343937703528 0.000520896633073577)
(-7.33530602011616e-06 0.00301752758218842 0.000401287338701587)
(-7.53381508384986e-06 0.00300486381774281 0.00028157228148078)
(-7.39744548168982e-06 0.00299656039557646 0.000164961922891525)
(-7.11782888704026e-06 0.0029922709109654 5.39552517199803e-05)
(-1.83545823725791e-06 0.00315813538149583 0.00138868531750447)
(-5.59380626549659e-06 0.00310940545395398 0.00126730233678956)
(-8.10087115620599e-06 0.00306568591760445 0.00114749396000675)
(-8.77519780309734e-06 0.00302673724330745 0.00102761372279465)
(-8.44229768956453e-06 0.00299246093461122 0.0009062082038546)
(-8.10021325632641e-06 0.00296270325538722 0.000783524041585371)
(-8.34773868411166e-06 0.00293738784911547 0.000660819319581735)
(-8.77576986572415e-06 0.00291626319776461 0.000538023167193665)
(-8.88353232738019e-06 0.0028992454782746 0.000414345404530142)
(-8.62924366527136e-06 0.00288649937529215 0.000290591491824843)
(-8.16530736527729e-06 0.0028781604033696 0.000170164692413526)
(-7.59353885803067e-06 0.00287386789746217 5.56183669513467e-05)
(-2.08546491006662e-06 0.00309394718634192 0.00156765189430909)
(-5.99497557409299e-06 0.00303900208943831 0.00144056026311945)
(-9.52919770837573e-06 0.00298943173761311 0.00131439119050787)
(-1.14535969370741e-05 0.00294495468126357 0.00118865270339335)
(-1.17444171309277e-05 0.00290541059244918 0.00106230171582435)
(-1.13830959038128e-05 0.00287068666027515 0.000935288039293516)
(-1.10811677513023e-05 0.00284066725458185 0.000808250911985492)
(-1.0948187169462e-05 0.00281517447139017 0.000681615419965242)
(-1.07215392332469e-05 0.00279396428482462 0.000554864587927626)
(-1.02398341659875e-05 0.0027769191258952 0.000427162766868302)