/*--------------------------------*- C++ -*----------------------------------*\
  =========                 |
  \\      /  F ield         | OpenFOAM: The Open Source CFD Toolbox
   \\    /   O peration     | Website:  https://openfoam.org
    \\  /    A nd           | Version:  12
     \\/     M anipulation  |
\*---------------------------------------------------------------------------*/
/*   Windows 32 and 64 bit porting by blueCAPE: http://www.bluecape.com.pt   *\
|  Based on Windows porting (2.0.x v4) by Symscape: http://www.symscape.com   |
\*---------------------------------------------------------------------------*/
FoamFile
{
    format      ascii;
    class       volScalarField;
    location    "100";
    object      k;
}
// * * * * * * * * * * * * * * * * * * * * * * * * * * * * * * * * * * * * * //

dimensions      [0 2 -2 0 0 0 0];

internalField   nonuniform List<scalar> 
10116
(
0.000456309701938239
0.000460260666775473
0.00129881055406213
0.00045794161026983
0.000463155642825175
0.00131011389095564
0.000461914651961455
0.00190486874174035
0.0013000149333757
0.000460063229060834
0.00046528309918181
0.00131842047129702
0.00046482580810092
0.00192110375159955
0.00131135502933643
0.000464085555769965
0.00239307286496483
0.00190463232085871
0.00129841202337358
0.000457638266972518
0.000466832309450363
0.00132452723453323
0.000466964656760395
0.00193315849172019
0.0013196871765583
0.000467039480172984
0.00241292733602621
0.00192091440255203
0.00130982305517971
0.000461685170546607
0.00281198396852014
0.00239160492376583
0.00189616827471922
0.00128827999963397
0.000449341976427302
0.000467950012495925
0.00132897540217169
0.0004685221669448
0.00194206341894845
0.00132581097005305
0.000469213300129026
0.00242778853066164
0.00193299241212815
0.00131822683649581
0.000464666073863541
0.00283466839943557
0.00241151596020502
0.0019125112000828
0.00129972788713396
0.000453366315477928
0.00318021616110806
0.00280869499424317
0.00237757781089048
0.00187646218061792
0.00126640778677882
0.000436882122032708
0.000468751844156013
0.00133218305098902
0.000469645917311867
0.00194856664324229
0.00133027107704473
0.000470798690016805
0.00243882052777813
0.00194191064081354
0.00132441229792433
0.000466865490602391
0.00285173730706622
0.00242639610379294
0.00192465414240707
0.00130818621350958
0.000456339776155504
0.00320517659751152
0.00283143765388767
0.00239754798249773
0.00189282038654877
0.00127780578931095
0.000440843660661071
0.00350653870884902
0.00317470143345011
0.00278957968072017
0.00234933917132002
0.00184357260391894
0.00123417142724213
0.000422158865668349
0.000469329392987594
0.00133448050838146
0.000470452173089147
0.00195326107335981
0.00133348727887335
0.000471944329747671
0.0024469019844036
0.00194842286910203
0.00132892382448767
0.000468473696332898
0.00286445787689602
0.00243743528199617
0.0019336311161362
0.00131442779443705
0.000458539683925061
0.00322402100210616
0.00284851696160231
0.00241248794372171
0.00190500970660392
0.00128625358432176
0.000443778516346936
0.00353335269772058
0.00319971852301174
0.00281237979869022
0.00236930764529565
0.00185985103357334
0.00124542098326591
0.000426031176040151
0.00379619759310051
0.00349918476134212
0.00315073696509955
0.00275367332558973
0.00230652303269381
0.00179840042099033
0.00119439548462148
0.000405769026603733
0.000469752343114425
0.00133612762333516
0.000471031303044871
0.00195662115572375
0.00133579086519919
0.000472767757406407
0.00245274580024876
0.00195312386459465
0.00133218206546453
0.000469638596477592
0.0028738028459791
0.0024455205352961
0.00194019532957532
0.00131899159370354
0.000460152684049589
0.00323810520272714
0.00286123539834659
0.00242358171278199
0.00191404233375443
0.00129250496706793
0.000445955858668102
0.0035536416583512
0.00321856499340682
0.00282951386945618
0.00238428429701433
0.00187201574353783
0.00125378147765241
0.00042890584059017
0.0038245327075401
0.00352605727559193
0.00317581013298218
0.00277645942927536
0.00232638482402741
0.001814483077149
0.00120541305817951
0.000409529824377663
0.00405301548753456
0.00378769959416943
0.00347124155762172
0.00310800618518223
0.00270181591181059
0.00225035312379177
0.00174284949814772
0.00114850795242318
0.000387393065991106
0.000470074012819602
0.00133732615208797
0.000471458589376736
0.00195902270453548
0.00133744229064168
0.000473359692560634
0.0024569302249107
0.00195648882487145
0.00133451943415109
0.000470477944325353
0.00288057326252855
0.00245136697595621
0.00194494121501303
0.00132229583672392
0.00046132419487208
0.00324847618834821
0.00287057632868941
0.00243171711982207
0.00192066315686496
0.00129708850802685
0.000447556021978872
0.0035688375948456
0.00323263851208893
0.00284228207955265
0.00239542919388389
0.00188105436039302
0.00125998432265325
0.00043104361375903
0.00384600768526304
0.00354634484302336
0.00319470825483663
0.00279362285220949
0.00234132151667877
0.00182653021695592
0.00121361857323199
0.000412325823855331
0.0040826087650962
0.00381610009430579
0.00349817514781949
0.00313305898047148
0.00272447451846307
0.00226998110306921
0.00175862096046691
0.00115921783899216
0.000391016815358727
0.00427991289002695
0.00404389056781666
0.00375694111313262
0.00342296110026827
0.00304819799854211
0.00263576521577794
0.00218219714049852
0.00167788590508434
0.00109641124721516
0.000366575015150686
0.000470335012178195
0.0013382299065375
0.000471782340517679
0.00196075893389959
0.00133864414803542
0.000473796912101819
0.00245991716982786
0.00195889399104623
0.00133619759722389
0.000471084304870067
0.00288542573642037
0.00245555341259183
0.0019483438631533
0.00132467214352151
0.000462170584394661
0.00325600333184395
0.00287734329302278
0.00243760860675794
0.00192546208699935
0.00130041612197626
0.000448721612724552
0.00358004812453862
0.00324299831635339
0.00285167004839569
0.0024036206944224
0.00188769764967348
0.00126454407174051
0.00043261853147785
0.00386211806310114
0.00356152591784224
0.00320882846998327
0.00280643818719546
0.00235246494098775
0.00183550344507209
0.0012197200178797
0.000414408867580323
0.00410506642506891
0.00383757503349421
0.00351851740617607
0.00315198394788707
0.00274158602117965
0.00228477547018492
0.00177045735918107
0.00116720731456826
0.000393713581664212
0.00431055363780563
0.0040735582367922
0.00378541529597704
0.00344987772864863
0.0030731116365351
0.00265816128012222
0.00220145868801172
0.00169323340122955
0.00110673534330555
0.000370031407385806
0.00447916239244423
0.00427042291286094
0.00401125264162954
0.00370449527507101
0.00335657392100032
0.00297347810525598
0.00255668744310784
0.00210251965635081
0.00160342252450523
0.00103745583014098
0.000343028894477207
0.00047056432221091
0.00133895410995492
0.000472046850030532
0.00196205465466122
0.00133955054724181
0.000474128013681989
0.00246206908979705
0.0019606329013611
0.00133742020409131
0.000471529989557845
0.00288888868169905
0.00245854191655982
0.00195077980104935
0.00132638227282077
0.000462783064306239
0.00326140426053737
0.00288219323391641
0.00244183412801186
0.0019289116907716
0.00130281587034681
0.000449565746711451
0.00358819729100268
0.00325051644952196
0.00285848064003054
0.00240956740508992
0.00189252646135788
0.00126786357724022
0.000433768489266899
0.00387402127486853
0.00357272166312493
0.00321923327761568
0.00281588100331588
0.00236067681351746
0.00184211546707778
0.0012242156491459
0.000415947145094561
0.00412193616860215
0.003853670437365
0.00353374719196576
0.00316615066946862
0.0027543936780325
0.00229583857957732
0.00177929173768426
0.00117315902810092
0.000395725884280303
0.00433383105026305
0.00409601943418388
0.00380695406601994
0.00347025190973655
0.00309197935123852
0.00267511188079184
0.00221600296597285
0.00170476870607559
0.00111444689937087
0.00037260660430555
0.00451067708600851
0.00430114657798883
0.0040410108469412
0.0037329652221517
0.00338335084417654
0.00299811162306318
0.00257867772397698
0.00212128018882711
0.00161823093500041
0.00104731045921435
0.00034628602845516
0.00465267931061305
0.00446941385345544
0.00423649970744012
0.0039557579904753
0.00363289550286413
0.0032745117331862
0.00288493501012789
0.00246471450208954
0.0020110569530816
0.0015189286376105
0.000971044195898028
0.000316592043040293
0.000470782048961012
0.00133958274979258
0.000472275915965961
0.00196307907679913
0.00134027698557862
0.000474397968293294
0.0024636651806297
0.00196193062775919
0.00133834229294584
0.000471867913267156
0.00289137900607383
0.00246069501437107
0.00195254311633256
0.00132763016318747
0.000463233682757624
0.00326525961829847
0.00288565439369409
0.00244485534456482
0.00193138735097498
0.00130454708896149
0.00045017746191686
0.00359405123453424
0.00325591066769691
0.00286336947671571
0.00241384352945499
0.00189600749227868
0.00127026380994608
0.000434601848817213
0.00388268572436133
0.00358085899377987
0.00322679412413375
0.00282274759716264
0.00236665469158846
0.00184693420121326
0.00122749600346146
0.00041707208577363
0.00413441636725836
0.00386555850592604
0.00354498978371252
0.00317661113670637
0.00276385459266176
0.00230401119470008
0.00178581555468995
0.00117755261500999
0.000397214879703397
0.00435133585042164
0.00411287599084267
0.00382310500005657
0.00348553325791412
0.00310613661488631
0.00268782789542601
0.00222690029285689
0.00171339268840214
0.00112020025621291
0.000374531389943809
0.0045346404387803
0.00432443157203524
0.00406354809527353
0.00375454769613559
0.00340367057657526
0.00301680796439727
0.00259535035646846
0.00213546615634037
0.0016293740138916
0.00105467941688581
0.000348714296022924
0.00468492043405046
0.00450101850259683
0.00426733137454732
0.00398553026656011
0.00366123483484763
0.00330100238406492
0.00290913757812242
0.00248615112771543
0.0020291782029401
0.00153307819322851
0.000980341446764301
0.000319616477225335
0.00480228368181234
0.00464271531862456
0.00443456139342701
0.00417874406266269
0.00388007971446673
0.00354476348692221
0.00317786934888492
0.00278249400286208
0.00235938961500605
0.00190728770619101
0.00142383774921484
0.000896764511519471
0.00028721444577133
0.000471003825892169
0.00134017504055052
0.000472494919884379
0.00196395725322174
0.00134090708529609
0.000474631066796685
0.00246491653555163
0.00196295654336184
0.0013390802738872
0.000472140641938932
0.00289321920757504
0.00246229197744392
0.00195385959737269
0.00132857131058253
0.000463575076959793
0.0032680298410615
0.00288814344276216
0.00244703485022762
0.00193318290256157
0.00130581204926076
0.000450627494256776
0.00359823258654386
0.00325976123008255
0.00286686387799795
0.00241690860933479
0.00189851245552247
0.0012719991874941
0.000435207315522644
0.00388891702467985
0.00358670413282987
0.00323222716624142
0.00282768905855028
0.00237096537321882
0.00185041709078268
0.00122987288337335
0.000417888054257963
0.00414351201934153
0.00387421084170364
0.00355317169893006
0.00318422981230483
0.00277075266484462
0.00230997561161975
0.00179058051108744
0.00118076441940492
0.000398305237537343
0.00436430066825863
0.00412534229515252
0.00383504540302994
0.00349683636495942
0.00311661561838156
0.00269724331933191
0.00223496705835978
0.00171977229471054
0.00112445416472563
0.000375957866894813
0.00455267810101689
0.00434192551941002
0.00408046929823088
0.00377076012200181
0.00341894645384911
0.00303086777192389
0.00260788147209539
0.00214611169218309
0.00163771585247508
0.00106018431443737
0.000350531508129988
0.00470945550382942
0.00452499280726553
0.00429070503272552
0.00400812662160176
0.00368277243333137
0.00332114859025744
0.00292753855376821
0.00250242628429997
0.00204289602066047
0.00154373542003551
0.000987299716878118
0.000321872809214496
0.00483512136030205
0.00467505162640175
0.00446629003609231
0.00420960996417049
0.00390973667306406
0.00357282000010749
0.0032039163432442
0.00280610874848908
0.00238011973698045
0.00192462710485858
0.00143720509672364
0.000905413673757596
0.000289972698953679
0.00492985936521594
0.00479213060366566
0.00460716568411166
0.00437509394813707
0.00409986366487887
0.00378698264678385
0.00344126448231927
0.003066472597561
0.00266554013819666
0.00224012257651757
0.00179069641599829
0.00131771249150852
0.00081437945316132
0.000254912038099166
0.000471238170865749
0.00134077976905902
0.000472717889067857
0.00196478056462434
0.00134150196189883
0.000474853845315087
0.0024659797687477
0.00196383562421996
0.00133971883627345
0.000472379390893234
0.00289465410747859
0.0024635439634324
0.00195489938683693
0.00132932265223882
0.000463849841096078
0.003270071951771
0.00288998271241088
0.00244865233489355
0.00193452431230161
0.00130676568253678
0.000450969498827612
0.00360123557403376
0.00326252784400698
0.00286938015241067
0.00241912432034748
0.00190033295753778
0.00127326903924744
0.000435653168548024
0.00389337037751211
0.00359087887045189
0.00323611140241453
0.00283122989775179
0.00237406363340747
0.00185292940021377
0.00123159479363211
0.00041848163907731
0.00415006012768851
0.00388043288799192
0.00355905749566818
0.00318971786838944
0.00277573050902144
0.00231428768154992
0.00179403200476283
0.0011830957706386
0.000399097308122726
0.00437376003283917
0.0041344266437872
0.00384374684802952
0.00350508066968037
0.00312426754659786
0.00270412514581894
0.00224086681906943
0.0017244402601465
0.00112756876930966
0.000377003829044049
0.00456605099927176
0.00435487786492343
0.00409299507699819
0.00378276935802593
0.00343027246272976
0.00304129857492353
0.00261717847501965
0.0021540052102703
0.00164389542145124
0.00106426005204539
0.000351878969051885
0.00472793845767491
0.00454302157044702
0.00430827297284693
0.00402512167828648
0.00369898808879457
0.00333632702973571
0.00294140173767593
0.0025146771090337
0.0020532030397902
0.00155172187132861
0.000992503338552835
0.000323563887809437
0.00486012704659721
0.00469960022452605
0.00449036445192003
0.00423305898146732
0.0039323017746695
0.00359418871980355
0.0032237589499481
0.00282408688855408
0.00239587542524644
0.00193776464281799
0.00144728116998441
0.000911892250899665
0.000292033262135982
0.00496317560134107
0.00482506705944234
0.00463963968815379
0.00440687647106049
0.00413063252710185
0.00381636700773138
0.00346887480225468
0.00309191210175478
0.00268840441614159
0.00225998860377628
0.00180710801649753
0.00133017330076991
0.000822288956415733
0.000257369064929624
0.00503740619310141
0.00491954225266189
0.00475605910943022
0.00454639142091254
0.00429368951240254
0.00400272060183614
0.00367772497837661
0.00332220440332044
0.0029395994566812
0.00253339495018865
0.00210639502738597
0.00166088119481286
0.00120025993490715
0.00072371056629713
0.000219625449636403
0.000471491534713448
0.00134141951233855
0.000472953879142305
0.00196560882026177
0.00134210594024316
0.000475079430646573
0.0024669688498066
0.00196465856811251
0.00134032005073451
0.000472604494472905
0.00289586605696144
0.00246460764511942
0.00195578821282161
0.00132997067561967
0.000464089315576175
0.00327165827629222
0.00289141689978847
0.00244991957955198
0.00193558232947796
0.00130752553136831
0.000451244365096597
0.00360344572000102
0.00326456737414819
0.00287124078570381
0.00242077023031558
0.00190169393792237
0.00127422690005202
0.000435992173408917
0.00389656872433257
0.00359387722033774
0.00323890587899045
0.00283378499896816
0.0023763082891121
0.00185475862039318
0.00123285674477551
0.000418919882302664
0.00415474353987451
0.00388487970034035
0.00356326757462028
0.00319365109990701
0.00277930706732067
0.00231739454623295
0.00179652673785623
0.00118478753401793
0.000399673911279016
0.00438057692871567
0.00414096630597862
0.00385001322002183
0.00351102562616341
0.00312979446284231
0.00270910380536007
0.00224514133170095
0.00172782750956302
0.00112983307905319
0.000377764874271408
0.00457581818097807
0.00436432699505071
0.0041021341778424
0.00379154012204788
0.0034385543547977
0.00304893358010432
0.00262398782580313
0.00215978822106625
0.00164842348590666
0.00106724833012822
0.000352868632309945
0.00474165364772103
0.00455638325704791
0.00432129190314373
0.00403772618761398
0.00371102778064617
0.00334760605924992
0.00295170653246194
0.00252378068997486
0.00206085561538719
0.00155764462750082
0.000996360187180784
0.000324818456399783
0.00487897732973812
0.00471807578400746
0.00450847561889441
0.00425071346777799
0.0039493113811869
0.00361031163836235
0.00323873552053641
0.00283765122958391
0.0024077492318156
0.0019476452684198
0.00145483857785115
0.000916741888070014
0.000293578024295224
0.00498855937671558
0.00485008815751363
0.00466429818565624
0.00443104166066972
0.00415406554508395
0.0038387724433827
0.00348993897704934
0.00311131725733137
0.00270582926316374
0.00227510027133996
0.00181955136968831
0.00133957244063719
0.00082821925889446
0.000259210100648222
0.00507109098798037
0.00495295953922397
0.00478914463784507
0.004578937297481
0.00432539403849927
0.00403323118233429
0.00370666821350942
0.00334919900816557
0.00296426159303189
0.00255534077745077
0.00212523586199616
0.00167621731169865
0.00121168898529645
0.000730783636304095
0.00022171716427273
0.00512702044201836
0.00502695073636018
0.00488309475861878
0.00469429866365851
0.00446300279944601
0.00419326077339173
0.00388865559548572
0.00355213022727351
0.00318680023387571
0.00279649198001348
0.00238550355781188
0.00195783224714743
0.00151758079242286
0.00107127359023791
0.000624524399839819
0.000181313276741849
0.000471768452524653
0.00134211592067615
0.000473209008713746
0.00196649076747946
0.00134274715338852
0.000475317938550606
0.00246796498758365
0.00196548874565371
0.00134092807075367
0.000472831392947148
0.00289698829934679
0.00246559703692812
0.00195661746025721
0.00133057772313409
0.000464314495205247
0.00327299230258385
0.00289262827896365
0.00245099395005692
0.00193648368881487
0.00130817876379504
0.000451482098306098
0.00360515763692152
0.0032661517565938
0.00287269091869158
0.00242205852951224
0.00190276606239953
0.001274989108222
0.000436264152809151
0.00389892016700008
0.00359608408794652
0.00324096746238119
0.00283567640969183
0.00237797744513777
0.0018561271977807
0.00123380918559949
0.000419253040532332
0.00415810747643381
0.00388807333791635
0.00356629536714509
0.0031964868318973
0.00278189381591819
0.00231964994285024
0.00179834608621284
0.0011860291312174
0.000400100565057753
0.00438545640207493
0.00414564363063843
0.00385449846011629
0.00351528834086513
0.00313376612559879
0.00271268969152979
0.00224822743080041
0.00173027983225176
0.00113147848841665
0.000378320048547872
0.00458286378502917
0.00437113626435947
0.00410872268113534
0.00379787136127043
0.00344454223120964
0.00305446188093506
0.00262892442122837
0.0021639853863806
0.00165171383633245
0.0010694238607394
0.000353589453045552
0.00475168027948805
0.00456614108693115
0.00433080130294686
0.0040469425028647
0.00371984254048322
0.00335587287760499
0.00295926444260179
0.00253045942349801
0.00206646967830328
0.00156198926531721
0.000999191142028021
0.000325740560194307
0.00489297582332984
0.0047317807125705
0.00452191020592758
0.00426382099841806
0.0039619555140079
0.00362230867537525
0.00324988535900777
0.00284774933823933
0.00241658362005237
0.00195498870006424
0.00146044803984991
0.000920339697587776
0.000294725418624142
0.0050077050923267
0.00486893218173104
0.00468286330085298
0.00444925117537408
0.00417174670367796
0.00385569697990621
0.00350585980907495
0.00312598410774793
0.00271899083644572
0.00228649904412844
0.00182891694227594
0.00134662722807943
0.000832662256115795
0.000260591274967577
0.00509676578772151
0.004978360092993
0.00481428380186763
0.00460370041964567
0.00434955851939275
0.00405651627465338
0.00372877338442697
0.00336981934157776
0.00298309233257626
0.00257207904373837
0.002139577070853
0.00168785183670361
0.00122031532629502
0.00073609735590614
0.000223315166247757
0.00516096914211794
0.00506073784338795
0.00491667047079782
0.00472747208830816
0.00449548922294968
0.00422472340600115
0.00391873536432627
0.00358045833989936
0.0032130038195423
0.0028202013491715
0.0024063590370949
0.00197548486157593
0.00153169452738638
0.0010815450909852
0.000630623848314957
0.000182727597098373
0.00520083937876203
0.00511645131208104
0.00499025057206026
0.00482061301573875
0.00460936832295494
0.00435992227579288
0.00407520569182903
0.00375751660922462
0.00340938209797596
0.00303422941632237
0.00263654225850351
0.00222148065816637
0.00179420609652509
0.00136064900786926
0.000930658688827787
0.000516700094260261
0.000139682135074106
0.000472074985759301
0.00134288389513036
0.000473487398982457
0.00196745588120255
0.00134344571978912
0.000475575420377467
0.00246902513633156
0.00196637167456273
0.00134157268698219
0.000473070605055367
0.00289811634259744
0.00246659339149554
0.00195745193268034
0.00133118876205916
0.000464540332258251
0.00327422320233467
0.00289375004579888
0.00245199016738198
0.00193732066232897
0.00130878830582555
0.000451704935087591
0.00360659217192823
0.00326748422103483
0.00287391340852528
0.00242314731130142
0.00190367635076677
0.00127564216489856
0.00043649870394571
0.00390073712720378
0.00359779355905938
0.00324256834229548
0.00283714947666128
0.00237928279043072
0.00185720427074889
0.00123456628761741
0.000419520141054017
0.00416057849288819
0.00389042136698545
0.0035685256385651
0.00319858130711597
0.00278381096804587
0.00232132876189108
0.00179970825768177
0.0011869667664855
0.00040042489751516
0.00438896169467856
0.0041490032440365
0.00385772399519477
0.00351836050044156
0.00313663612721162
0.00271528851509662
0.00225047149172073
0.00173207056304636
0.00113268748529129
0.000378730270366488
0.00458791076821801
0.00437601020408812
0.0041134419532055
0.00380241390774824
0.0034488470164492
0.00305844411567419
0.00263248720027298
0.00216702056269363
0.00165409902877728
0.00107100688619994
0.000354115906456403
0.00475891969362044
0.00457317972830128
0.00433766370326495
0.00405360214083625
0.0037262220443104
0.00336186425064253
0.00296474812199338
0.00253530941630953
0.00207054967419112
0.00156514961068561
0.00100125437237511
0.000326412578188154
0.00490321815325236
0.0047417986266371
0.00453173309978125
0.00427341527303213
0.0039712231491134
0.00363111217800546
0.00325807334092007
0.00285516741406075
0.00242307313946059
0.00196038146848181
0.00146456637803241
0.000922982890662294
0.000295568840299837
0.0050219319956839
0.00488292112680191
0.00469664642511023
0.00446278334094076
0.00418490328552292
0.00386830460659259
0.00351772780801731
0.00313691929041705
0.00272880053129043
0.00229498791667847
0.00183588284874126
0.00135186732293256
0.000835960873068909
0.000261617548032817
0.00511613867554555
0.00499750044003348
0.00483322334433725
0.00462237432321816
0.00436780648906904
0.00407412146328014
0.00374549902557514
0.00338542523666265
0.00299733979271074
0.00258473248525613
0.00215040199850835
0.0016966135405137
0.0012267939137271
0.000740082314606374
0.000224517900687063
0.00518685129646761
0.00508643043267272
0.00494219588521094
0.00475272803398954
0.00452026612308149
0.00424875274945733
0.00394172781768889
0.00360211924215322
0.00323303801893119
0.00283831769209544
0.00242227518201602
0.00198892845147487
0.00154240688870171
0.00108930365174546
0.000635247191666796
0.000184073950244235
0.00523495114108731
0.00515050287880549
0.00502420383838864
0.00485429080232397
0.00464249977322305
0.00439218390922932
0.00410625113734772
0.00378698845298234
0.00343691605768518
0.00305946120104189
0.00265911889951804
0.00224107127095395
0.00181050732655174
0.00137339493807181
0.000939640734610508
0.000521632118727415
0.000141607697376424
0.00526097551902482
0.00519017876770845
0.00507959957187896
0.00492726725031672
0.00473450908852604
0.00450416878427941
0.00423857787213357
0.00393938965882273
0.00360846549800463
0.00324860444510094
0.00286382159386298
0.00245931760808357
0.0020410787483926
0.0016153620607003
0.00119006862077027
0.000778894244754768
0.000400551082160468
7.869240428257e-05
0.000472421999331871
0.00134373677653738
0.000473792637932727
0.00196852517803431
0.00134421599364643
0.000475855463014516
0.00247018872324111
0.00196733759350595
0.00134227430815403
0.00047332855257107
0.00289931794670945
0.00246765378070048
0.00195833685648116
0.00133183468391341
0.000464777929939995
0.00327545795641673
0.00289487769031037
0.00245299016743405
0.0019381588870472
0.00130939902060654
0.000451927567068137
0.0036079111800699
0.00326871370483862
0.00287504206114147
0.00242415211716102
0.00190451744728235
0.00127624897438069
0.000436716870172705
0.00390225421577443
0.00359922600296537
0.00324391219291606
0.00283838763663481
0.0023803824773122
0.00185811606070889
0.0012352130909773
0.000419750057700456
0.00416248354667053
0.00389223577580169
0.00357025265058644
0.00320020678837597
0.00278530310814284
0.00232264078114936
0.00180077949908582
0.00118771158073135
0.000400684706626901
0.00439153471417174
0.00415147113418973
0.00386009731819434
0.00352062621405717
0.00313875865845561
0.00271721678789661
0.00225214330633577
0.00173341208006388
0.00113360103060753
0.000379042978712568
0.00459153753547033
0.00437951175039084
0.00411683620905973
0.003805687552944
0.00345195659112327
0.0030613276992592
0.00263507365774249
0.00216923049947033
0.00165584243369988
0.00107217122868073
0.000354504960288491
0.00476410931662803
0.00457822171625069
0.00434258288131925
0.0040583836412952
0.00373081106028131
0.00336618174405533
0.00296870605374524
0.00253881526658981
0.00207350376824317
0.00156744263187652
0.00100275712628433
0.000326903561850716
0.00491061947840792
0.00474903152323491
0.00453882852331536
0.00428035472820563
0.00397793685266138
0.00363749847313089
0.00326401934240668
0.00286055828933042
0.00242779172581975
0.00196430450903375
0.00146756450211537
0.000924911010049759
0.000296184289978862
0.00503234887099738
0.00489315519422525
0.00470673333763588
0.00447269791062071
0.00419455613150095
0.00387756584269237
0.00352645286081083
0.00314496176527931
0.00273601537393168
0.00230122948910304
0.00184100213631932
0.00135571707938349
0.000838386000062388
0.000262372188178416
0.00513054134574173
0.00501171836932373
0.00484729484473971
0.00463626281348703
0.00438139658929818
0.00408724838883485
0.00375797988871947
0.00339707438297367
0.00300797371319374
0.00259417142002743
0.00215846889522262
0.00170313374309086
0.00123160857563203
0.000743042653980715
0.000225411647673947
0.00520638514966144
0.00510579870548818
0.00496143673636728
0.00477178541873304
0.00453898938370828
0.0042669342286036
0.00395913925761944
0.00361852851317574
0.00324821426939688
0.0028520345481475
0.00243431424955481
0.00199908067559959
0.00155047756051088
0.00109513363237881
0.000638723988621428
0.000185101924769676
0.00526095913745233
0.00517640361181197
0.00505002701467978
0.00487994363378596
0.00466778287694858
0.00441683860648417
0.0041299973421492
0.00380954013237034
0.00345798573011333
0.00307876382120412
0.0026763784388819
0.00225602877888185
0.00182292661919792
0.0013830732142396
0.000946437044315787
0.000525499380461848
0.000143111289267824
0.00529515237899975
0.00522439350318041
0.00511382383428267
0.00496133523819743
0.00476816120036269
0.00453709245604729
0.0042704377231708
0.00396983909146085
0.00363714871740078
0.00327516050439071
0.00288789574604034
0.00248057762358807
0.00205922848481569
0.00163015049329743
0.00120130382220524
0.000786453071145961
0.000404668806792044
7.99953696365723e-05
0.00530945366772015
0.00525024230068872
0.0051532541917989
0.00501629274540599
0.00484029517811799
0.00462763943042508
0.00438013546466309
0.00409884171925973
0.00378495590947638
0.00344057941820612
0.00306905841041522
0.00267506727938141
0.00226449463007058
0.00184405629087954
0.00142117046839721
0.00100640634733896
0.000617808490923579
0.00027631229324982
2.63865793421275e-05
0.00134468984894727
0.00047414264046777
0.00196971993718863
0.00134506955929088
0.000476161122336346
0.00247148256270227
0.00196840723928607
0.00134304701417151
0.000473608877462792
0.00290063910527601
0.00246881721794688
0.00195930270534949
0.00133253680131104
0.00046503323472259
0.00327677274586401
0.00289607850226025
0.00245405130443877
0.00193904402673512
0.00131004227972528
0.000452161027848089
0.00360923172564504
0.00326994727163607
0.00287617288108266
0.00242515562335149
0.00190535548516207
0.00127685436950847
0.000436934745740358
0.00390364431103275
0.00360054325173162
0.0032451485029687
0.00283952542548266
0.00238139238819854
0.00185895491825119
0.00123581169783963
0.000419962378247302
0.00416406857616672
0.00389375083813727
0.00357169716167526
0.00320156744111496
0.00278655357258431
0.00232374313935868
0.00180168418152223
0.00118834641923333
0.000400908208417015
0.00439351392302344
0.00415337385822769
0.00386193071508205
0.00352237981046985
0.00314040507220476
0.0027187168751629
0.0022534492297249
0.00173446646825517
0.00113432634166178
0.000379293335969693
0.00459419735209823
0.00438208189989071
0.00411933148491811
0.00380809925779568
0.00345425297298495
0.00306346283464626
0.00263699459437877
0.00217087800785494
0.00165714902910891
0.00107305159673535
0.000354802348794644
0.00476783945621139
0.00458184491897819
0.00434612161905586
0.00406182984372087
0.00373412568695266
0.00336930690110983
0.00297157690294679
0.00254136377702794
0.00207565678246323
0.00156911971376712
0.00100386332067215
0.000327266284581258
0.00491592868746336
0.00475421645201177
0.00454391851432876
0.0042853406782725
0.00398276938500746
0.00364210299896821
0.00326831243118326
0.00286445525834035
0.00243120666787794
0.00196714748014879
0.00146974131749257
0.000926316541135533
0.000296633452882643
0.00503988173468897
0.00490055029493292
0.0047140259377636
0.00447987551863915
0.0042015551938422
0.00388429016130519
0.00353279433484182
0.00315081107573392
0.0027412648527324
0.00230577194873256
0.00184472876928185
0.0013585214777753
0.000840156406736928
0.000262923278005096
0.00514109284979665
0.00502212734102587
0.00485760107885256
0.00464644716077396
0.00439137634598787
0.00409689993249695
0.00376716431896545
0.0034056507095161
0.00301580329618559
0.00260111947852194
0.0021644040211891
0.00170792776636125
0.00123514747381856
0.000745220328026065
0.0002260691172086
0.00522091201470346