/*--------------------------------*- C++ -*----------------------------------*\
  =========                 |
  \\      /  F ield         | OpenFOAM: The Open Source CFD Toolbox
   \\    /   O peration     | Website:  https://openfoam.org
    \\  /    A nd           | Version:  12
     \\/     M anipulation  |
\*---------------------------------------------------------------------------*/
/*   Windows 32 and 64 bit porting by blueCAPE: http://www.bluecape.com.pt   *\
|  Based on Windows porting (2.0.x v4) by Symscape: http://www.symscape.com   |
\*---------------------------------------------------------------------------*/
FoamFile
{
    format      ascii;
    class       volScalarField;
    location    "100";
    object      nut;
}
// * * * * * * * * * * * * * * * * * * * * * * * * * * * * * * * * * * * * * //

dimensions      [0 2 -1 0 0 0 0];

internalField   nonuniform List<scalar> 
10116
(
0.000105359272119597
0.000105820558068928
0.000871522494843546
0.00010741891717771
0.000106158828896778
0.000875418427950262
0.00010788968118024
0.00205065462314622
0.000884627160141165
0.000109875197285649
0.000106407668722036
0.00087827970922978
0.000108234856509769
0.00206029339939346
0.000888591187810781
0.000110360236696591
0.00332127383912639
0.00206768387527483
0.000900919137303455
0.000111327447786564
0.000106589224712437
0.000880380385700447
0.000108488685915288
0.0020673659629632
0.000891503630391208
0.000110716570789025
0.0033377469282927
0.002077422129829
0.000904986579001242
0.000111824132253482
0.00453237977977996
0.00333411797605552
0.002087022225969
0.000910901143276378
0.000111043053646397
0.000106720583824267
0.000881911296256635
0.000108673862460338
0.00207257016886697
0.000893640422733803
0.000110979006369157
0.00334988201786404
0.00208457083973445
0.000907984347569541
0.000112190012489154
0.00455597109496
0.00335067736259471
0.00209692602797895
0.000915059236245494
0.000111544120739276
0.00562130557942102
0.00453708877274565
0.0033440682801589
0.00209687476733122
0.000909397788088379
0.000109517170780221
0.000106815122707777
0.000883019970788396
0.000108807827818696
0.00207637284312447
0.000895196669163274
0.000111170736550197
0.00335882808098787
0.00208982947310941
0.000910186513670647
0.000112460127561984
0.0045734671496668
0.00336287986812545
0.00210421514999347
0.000918136464920323
0.000111914450769009
0.00565188021109419
0.00456072334064913
0.00336079562379622
0.0021069327842937
0.00091360253563623
0.000110015572766123
0.00657131483341779
0.00561767715618658
0.00453248982908144
0.00334182747174493
0.00208966896320998
0.000898397375679746
0.000107510480442601
0.000106883561354568
0.000883821663306506
0.000108904244383059
0.0020791310170654
0.000896323167538634
0.000111309635192551
0.00336537238655277
0.00209367108617189
0.000911791820602629
0.00011265793293583
0.00458640625876865
0.00337187330854863
0.00210958422315988
0.000920402932035997
0.000112188465741035
0.00567468953417447
0.00457825293769186
0.00337314575488766
0.00211436214043572
0.000916727512175509
0.00011038588206562
0.00660851710846456
0.00564824226013902
0.00455625260674381
0.00335871251179413
0.00209981214306188
0.00090260089362942
0.000108004570062551
0.00738737337465626
0.00656192616933205
0.00559866023020444
0.00451224445984354
0.00332091550568191
0.00206645396822925
0.000882320719787166
0.000105327000818937
0.000106933826335699
0.000884406193781922
0.000108973594935107
0.00208112475574418
0.000897137470399581
0.000111409808698576
0.00337011984529068
0.00209645707917757
0.000912954962022169
0.000112801510929727
0.00459588580919235
0.00337845114011772
0.00211351141537765
0.000922058859082899
0.000112389494402992
0.00569161558349588
0.00459121307274631
0.00338225895762419
0.00211984836389691
0.000919036055937102
0.000110660502229746
0.00663639498432211
0.00567104323898399
0.00457390162546269
0.00337121500708332
0.00210733088808037
0.000905740142130847
0.000108372461781879
0.00743072930234451
0.00659907642701595
0.00562929647248117
0.00453611619254845
0.00333787636851631
0.00207659811283834
0.000886499873811159
0.000105815599778567
0.00808286593225214
0.00737499659669739
0.00653209278354609
0.00556026005850007
0.00447215930767411
0.00328111275378991
0.00203194291482091
0.00086352242115867
0.000102903207193364
0.000106972115293181
0.000884843057346389
0.000109025383211766
0.00208257273249839
0.000897731044904375
0.000111481858865898
0.00337354587991415
0.00209847068793729
0.000913796879523133
0.000112905276974919
0.00460276399490259
0.00338322245782355
0.00211636310443409
0.000923261117659789
0.000112535395130236
0.00570403981437256
0.00460070624468356
0.00338893275949619
0.00212387066506968
0.000920726661262226
0.000110862091496095
0.00665714404346388
0.0056879576030706
0.00458696340411291
0.00338046181633924
0.00211289919184295
0.000908066207343127
0.000108645863773105
0.00746332737447005
0.00662691291033741
0.00565217410129559
0.00455388716818747
0.00335047074994757
0.00208414148196233
0.000889631861090194
0.000106179802480355
0.00813184495214992
0.007418275083939
0.00656926538650457
0.00559093099172731
0.00449604223641918
0.00329803583014192
0.00204202001540558
0.000867661582392968
0.000103384537697814
0.00867261001822544
0.00806908186402221
0.00733840137283284
0.00647900500800871
0.00550009804508869
0.00441151710501358
0.00322509048622045
0.00198899715796954
0.000842085652416227
0.000100104631641503
0.000107003170611201
0.000885184960537893
0.000109064466805172
0.00208364389777251
0.000898174927724359
0.000111535726519292
0.00337602203244015
0.00209993296053804
0.000914411716025293
0.000112980520421783
0.00460772012064439
0.0033866654573363
0.00211842686128504
0.000924133154402697
0.000112640904580931
0.00571306062791037
0.00460759362044832
0.00339378011054242
0.00212679806449235
0.000921956262516457
0.000111008851544562
0.00667240438364361
0.00570037072958767
0.0045965423122332
0.00338724879865324
0.00211699262278285
0.000909773776397417
0.00010884690877424
0.00748764911590139
0.00664762431944581
0.00566916007800782
0.00456706597934403
0.0033598098443779
0.00208974367391462
0.000891959453606949
0.000106450773324145
0.00816876602188535
0.00745081208597034
0.00659714229543615
0.00561387933083218
0.00451386376855565
0.00331063280679412
0.00204953323670548
0.000870771758300735
0.000103743643162633
0.00872665421501671
0.00811796823605478
0.00738167178312071
0.00651613991147408
0.00553068073579012
0.0044352687624594
0.00324186161148623
0.00199894982389361
0.000846166649718265
0.000100576183874198
0.00917019137234306
0.00865798633438685
0.00802840420599663
0.00727469394920645
0.00640107390428825
0.00541729001817038
0.00433084869251762
0.00315431407651053
0.00193784313662619
0.000817264715218861
9.68368660099437e-05
0.000107030422155309
0.000885470431512641
0.00010909665431924
0.00208446659404121
0.000898522831398787
0.000111576332055493
0.00337783505182438
0.0021010146124132
0.000914872022964043
0.000113036033533327
0.00461128665360098
0.00338915365952174
0.0021199274323566
0.000924771254088429
0.000112717139042914
0.00571955485129795
0.00461255603977031
0.00339728259187164
0.00212892124754874
0.000922849946596893
0.000111115107084991
0.00668349546336687
0.00570938249164995
0.00460350088987782
0.00339218959035879
0.00211997956785921
0.000911020143930864
0.000108993685040783
0.00750556958226593
0.00666285384418095
0.00568163926579413
0.00457675114573039
0.00336668226892784
0.00209387300716192
0.00089367321361681
0.000106650732276061
0.00819636846260573
0.00747508055658063
0.00661789988382429
0.00563094894824219
0.00452711104422956
0.0033199966082159
0.00205512719792041
0.000873089297599198
0.000104011093346199
0.00876747697610395
0.00815481668516108
0.00741422734768377
0.00654403711863712
0.00555361092919756
0.00445302833962433
0.00325437053879677
0.00200638621309459
0.000849239440127214
0.000100928311038874
0.00922872800150741
0.00871192543292353
0.00807726530857585
0.0073178679855667
0.00643801151051415
0.00544760640827278
0.00435431015308938
0.00317082219289551
0.00194761277795796
0.000821264637291858
9.7295671237186e-05
0.00958752852642409
0.00915483500670227
0.00861455031374711
0.00795705634613262
0.00718219104725747
0.00629728263186964
0.00531082000908665
0.00422968769094004
0.00306822542252051
0.00187731017144801
0.000788261803925208
9.3027684930434e-05
0.00010705610636657
0.000885726758245148
0.000109124006702554
0.00208513574397611
0.000898813861919501
0.000111609685471644
0.00337920266134579
0.00210184544456382
0.000915232628306198
0.000113078009924685
0.00461387492163858
0.00339097527018501
0.0021210383231266
0.0009252498701755
0.000112773180996973
0.00572421247586037
0.00461612684219667
0.00339981681849822
0.00213046806739741
0.000923504687259114
0.000111192067055912
0.00669147783226376
0.00571586977576109
0.00460852126820671
0.0033957675108182
0.0021221514725656
0.000911928684950188
0.000109100034973421
0.00751860878476906
0.00667392129131609
0.00569071018123923
0.00458380234719785
0.00337169820298203
0.00209689461109469
0.00089492762298801
0.000106796996095151
0.0082167390379608
0.00749295832308337
0.00663317888906401
0.00564351427414367
0.00453686997994859
0.00332690415456774
0.00205926077690577
0.00087479978764497
0.000104208878690689
0.00879804727371603
0.00818235663031807
0.00743852737885623
0.00656484479448467
0.00557070351319287
0.00446625813386976
0.00326368849449861
0.00201193505234742
0.000851534294858479
0.000101190938030592
0.00927302031666042
0.00875266725844666
0.00811412064701398
0.00735040337931566
0.00646581366395494
0.00547037803531788
0.00437188160752263
0.00318315530365697
0.00195492530229264
0.000824282882894444
9.76383803611722e-05
0.00964998034100092
0.00921325387258995
0.00866845211408167
0.00800577441536805
0.00722506285192149
0.00633379849786896
0.00534066368354521
0.00425269251136751
0.00308435629806544
0.00188683105149103
0.00079215489278846
9.34703532966714e-05
0.00993514915103046
0.009571434520081
0.00910922713384652
0.00853737665859215
0.00785273374347913
0.0070597027150173
0.00616575663507766
0.00517853934442947
0.00410606183668952
0.00296481542576536
0.00180561406851784
0.000754314054891002
8.86208134435713e-05
0.000107081993923274
0.000885970887571557
0.000109150179904619
0.00208572022495152
0.000899074315911936
0.000111637916779364
0.0033802867937195
0.00210252118053617
0.000915533566237504
0.000113111808209175
0.00461579727205312
0.00339234916159269
0.00212189148875538
0.000925624225644154
0.000112815444531591
0.00572756861295641
0.00461871792958697
0.00340167366489932
0.00213161486602006
0.000923994716613097
0.000111248683300022
0.00669719059823715
0.00572052236537851
0.00461213827094431
0.00339836150326708
0.00212373715126837
0.00091259517402607
0.000109177333693768
0.00752799562430338
0.00668188622756895
0.00569724855480781
0.00458890070464475
0.00337533969812305
0.00209909733886575
0.000895843771145734
0.000106902915979116
0.00823157886054431
0.00750596523574281
0.00664429542145381
0.00565266688699451
0.00454399237172791
0.0033319582185522
0.00206229255609914
0.000876054467940048
0.000104353666320039
0.00882064176721652
0.00820267781839002
0.00745644594203888
0.00658018906790273
0.00558331402487895
0.00447602612499577
0.00327057698652426
0.00201604366978284
0.00085323186269607
0.000101385404829553
0.00930623634505081
0.00878316861828763
0.00814168515505362
0.00737472687239442
0.00648659164021335
0.0054873859200426
0.00438499520176949
0.00319235852617125
0.00196039167803078
0.000826541644608111
9.78941712636986e-05
0.00969730559118976
0.00925745677015749
0.00870919322602519
0.0080425776151374
0.00725742839667615
0.00636132900335526
0.00536311272825208
0.004269944789528
0.00309642421240783
0.00189396900121765
0.000795098707993491
9.38011966958152e-05
0.0100009442365841
0.00963375499157187
0.00916759728614489
0.00859109573655226
0.00790105234278203
0.00710199205211678
0.00620159060378838
0.00520768719137318
0.00412843466556316
0.00298044670267194
0.00181481393132487
0.000758071608979318
8.90436588840084e-05
0.0102224941210118
0.00991833168558501
0.00952397068768663
0.00902733463512974
0.00842331451890948
0.0077139986176714
0.00690497860571958
0.00600320026831812
0.00501699030367281
0.00395663168694415
0.00284096334685865
0.00172050338326688
0.00071457279087576
8.35597980196921e-05
0.000107109125294774
0.000886224592094181
0.000109176655341779
0.00208627051997138
0.000899323909492542
0.00011166498419563
0.00338120522989192
0.00210311036295655
0.000915802085195005
0.000113141381287379
0.00461728669939884
0.00339343803670299
0.00212258419898454
0.000925934469233123
0.000112849286246077
0.00573002871263325
0.0046206421611711
0.00340307425493361
0.00213249502611028
0.000924375843680497
0.000111291578945522
0.00670128264485742
0.00572387421474412
0.00461476538914141
0.00340026489811306
0.00212491340120363
0.000913093957837004
0.000109234221279393
0.0075347019748986
0.0066875856010129
0.00570194376552074
0.00459258142702397
0.0033779856279836
0.00210070826409978
0.000896517251736327
0.00010697996112643
0.00824226593730748
0.00751532764423209
0.00665230578707713
0.00565927826444371
0.00454915478634554
0.00333563605977967
0.00206450710299115
0.000876972802839777
0.000104458582838943
0.00883712096957592
0.00821748017502732
0.00746949746257175
0.00659137536588284
0.00559252096308273
0.00448317144990538
0.00327562775685839
0.00201906295598849
0.000854479779955007
0.00010152786315745
0.00933081903726129
0.00880570851083983
0.00816204396216861
0.00739269447776759
0.00650194640514442
0.00549996007187928
0.00439469594964394
0.00319917431145791
0.00196444635079445
0.000828215997081096
9.80834064482221e-05
0.00973284089044052
0.00929059742126458
0.00873971513363367
0.00807014486862345
0.00728167024587786
0.00638194168930735
0.00537990730393489
0.00428283946281261
0.00310544274089603
0.00189931252768695
0.000797305803463791
9.40485178901995e-05
0.0100508689225378
0.0096809818384717
0.00921179208953935
0.00863175732444558
0.00793761565587872
0.00713396763085644
0.00622864274384489
0.00522963774599566
0.00414523101030534
0.00299215498814964
0.00182172411675977
0.000760919227158944
8.93603374729757e-05
0.0102910763817501
0.00998398163496726
0.00958623042282721
0.00908548623818307
0.00847654464741648
0.00776157731493509
0.00694636578301935
0.00603806971328266
0.00504520401338633
0.00397818512523007
0.00285596193998492
0.00172930579400315
0.000718162872230525
8.39583050360427e-05
0.0104580911271506
0.0102050069229145
0.00986927275760082
0.00943813889032718
0.0089051261402181
0.00827059825030209
0.00753843916802163
0.00671405932741858
0.00580493704577082
0.00482140131909305
0.0037766632585889
0.0026923152735515
0.00161885928048412
0.000667730104364211
7.76919541424564e-05
0.000107138213719007
0.000886487078415798
0.000109204458489928
0.00208681038211702
0.000899578625443436
0.000111692180146318
0.00338204153021875
0.0021036621440714
0.000916059069597407
0.000113168554294321
0.00461851331581201
0.00339436011839663
0.00212318627210458
0.000926210386621066
0.000112878719756972
0.00573189703492178
0.0046221328971301
0.00340418315296471
0.00213320726464569
0.000924690582755256
0.000111325899646416
0.00670425019399506
0.0057263312626834
0.00461671720447043
0.00340170084808541
0.00212581470145768
0.000913481954570411
0.000109277411170883
0.00753948597432519
0.00669166828945747
0.00570532994440176
0.00459525923455306
0.00337992983312281
0.00210190410252897
0.000897022216507262
0.000107036901577603
0.00824989520983493
0.00752201671327794
0.00665804485601295
0.00566403577215556
0.00455289017510022
0.00333831370166132
0.00206612954585543
0.000877649395080485
0.000104534894874684
0.00884899605967694
0.00822813958837213
0.00747890339893159
0.00659945273513334
0.00559918726587527
0.00448836212408229
0.00327931047056353
0.00202127251587572
0.000855395339722307
0.000101631198186957
0.00934876899040938
0.00882214654413164
0.00817689024969322
0.00740580683709662
0.00651316516097456
0.0055091601451398
0.00440180581536591
0.00320418047526271
0.00196743102199656
0.000829449582708557
9.82222674289176e-05
0.00975917205092995
0.00931512061319042
0.00876229125629852
0.00809054041632021
0.00729961348968464
0.00639720396659201
0.00539234543513513
0.00429239315927785
0.00311213152545515
0.00190328146489369
0.000798944765007646
9.42313458935208e-05
0.0100883985307542
0.00971643506220273
0.00924494923851972
0.00866226418443493
0.00796505209479222
0.00715795867870571
0.00624892798262091
0.00524608107055006
0.00415780008256907
0.00300091527659941
0.00182690466084135
0.000763058659703021
8.95967611471016e-05
0.0103431779761723
0.0100337989114973
0.00963344107632056
0.00912957625848031
0.00851690111194787
0.00779763361266351
0.00697769750247446
0.00606442036728117
0.00506646985808015
0.00399438071647375
0.00286720944980337
0.00173593105548366
0.000720892042778029
8.42579543019141e-05
0.0105289301898528
0.0102734309624369
0.00993485001313898
0.00950014744218882
0.00896270720203882
0.00832293939324649
0.00758489625332353
0.00675419988150739
0.00583853949976596
0.00484842595223956
0.00379719520938056
0.00270653442221116
0.00162717327557053
0.000671113385097866
7.80508632194989e-05
0.0106496327657174
0.0104400131761267
0.0101546178825356
0.00978015282608275
0.00930908765462881
0.00874045515622849
0.00807670612743845
0.0073217301308459
0.00648140450620571
0.0055649633458061
0.0045855019481419
0.0035597051305972
0.00251269589536054
0.00149576936829838
0.00061144139860198
7.06709332364116e-05
0.000107169777810833
0.000886767381910772
0.000109234250338244
0.00208737037739065
0.000899846243391605
0.000111720739254495
0.00338285226482017
0.00210420878789564
0.00091632043035323
0.000113195798586094
0.00461959807342808
0.00339519934891636
0.00212374805001993
0.000926472585633184
0.000112906243493485
0.00573339627155801
0.00462336052219964
0.0034051201518349
0.00213382394524166
0.000924970366367247
0.000111355398870138
0.00670646558691103
0.00572819731121358
0.00461822866914243
0.00340283589687882
0.00212654220959686
0.000913801976914944
0.000109311937122645
0.00754292643005151
0.00669462944856151
0.00570781405774736
0.00459725023105801
0.00338139660917391
0.00210282021608502
0.000897415459817865
0.000107080081134694
0.00825532065458289
0.0075267883070512
0.00666216105916034
0.00566747311857777
0.00455561251316722
0.00334028374888329
0.00206733539468594
0.000878157899217336
0.000104591498498498
0.00885747034523506
0.00823574893211884
0.00748563227388995
0.00660525182509834
0.00560399519102377
0.00449212564397307
0.00328199625566926
0.00202289397870207
0.000856071419169166
0.000101706496671425
0.00936171359568124
0.00883399138362589
0.00818759418902874
0.00741527566759639
0.00652128440347557
0.00551583578390308
0.00440698042280607
0.00320783667047107
0.0019696188253084
0.000830356893141228
9.83230627296026e-05
0.00977842013126268
0.00933302580761774
0.00877877368238568
0.00810544110211518
0.00731273581804691
0.00640837768889218
0.00540146224851465
0.00429940617286489
0.00311705134542183
0.00190620678128385
0.000800154711876587
9.43655322662949e-05
0.0101162385754239
0.00974270165885988
0.00926950703211613
0.0086848663818586
0.00798538983625231
0.00717574889717191
0.00626397203561344
0.00525827602161569
0.00416712406715369
0.00300742003596295
0.00183075753093774
0.000764650185649571
8.97717272548777e-05
0.0103823843216566
0.0100712398203188
0.00966890596794796
0.00916270159728187
0.00854723080989626
0.00782473376705554
0.00700123864436226
0.00608420312709784
0.00508241665880694
0.00400651185326322
0.00287563370101971
0.00174090568583913
0.000722946010880596
8.44816164768466e-05
0.0105828045623678
0.0103254167767142
0.00998464281103014
0.00954722970002964
0.00900643179996223
0.00836267699368603
0.00762014257060126
0.00678461556852526
0.00586395182270636
0.00486880956201187
0.00381263506291783
0.00271721053660072
0.00163344849541806
0.000673700372108949
7.83293523909096e-05
0.010722232168751
0.0105106823063738
0.0102229585433854
0.00984545026584307
0.00937045288475607
0.00879701006430231
0.0081277157789246
0.00736665919761096
0.00651993206627055
0.00559697678311001
0.00461106473748826
0.00357899561748628
0.00252597087434734
0.00150348377958929
0.000614284461095047
7.08678176202923e-05
0.0108040116173896
0.0106310514269723
0.0103885587126084
0.0100628026737878
0.00964539106831989
0.00913427582610161
0.00853068222489176
0.00783709568942862
0.00705776337018045
0.00620008942940912
0.0052757778198365
0.00430114827995072
0.00329696308065813
0.00229305026537508
0.00134305682830037
0.00054099146779075
6.30301002210626e-05
0.000107204813952432
0.000887072150962722
0.00010926647517932
0.00208796177279107
0.000900134039770339
0.000111751319778749
0.00338367452336326
0.00210477426634498
0.000916596269731863
0.00011322454737166
0.00462062368371978
0.00339601297734287
0.00212430477127222
0.000926738697706722
0.000112933718396021
0.00573468508005246
0.00462444624469099
0.00340597061430458
0.0021343969124667
0.000925237428698975
0.000111382969665634
0.00670820228552525
0.00572969481832904
0.00461947159935324
0.00340379199442353
0.00212717025353999
0.00091408568647767
0.000109341562833719
0.00754545813600542
0.00669684033764716
0.00570970079291108
0.00459879106918643
0.0033825542592963
0.00210355844765913
0.000897739538175819
0.000107114585360305
0.0082591964239434
0.00753022009906365
0.00666514958819899
0.00566999782896723
0.00455763823839194
0.00334177034864132
0.00206825937102043
0.000878554367256128
0.000104634371496641
0.00886348282572102
0.00824116029469615
0.00749043840616566
0.00660941919722838
0.00560747577990425
0.00449487281611654
0.00328397459549203
0.00202410056046393
0.000856580621916329
0.000101762090512504
0.0093709505503482
0.00884244380771933
0.00819524511331714
0.00742206358097002
0.00652712673155823
0.00552066029863941
0.00441073864856628
0.00321050686995213
0.00197122652071328
0.000831028609318972
9.83965886899106e-05
0.00979231234479757
0.00934593765469304
0.00879066461155485
0.0081162053856695
0.00732223269668625
0.00641648097227753
0.00540808919489149
0.00430451791123374
0.00312064915931929
0.00190835348521188
0.000801046497568476
9.44629463561885e-05
0.010136611351464
0.00976190124338045
0.00928745662894466
0.0087013975557046
0.0080002785343165
0.00718878425650352
0.00627500430730173
0.0052672271707183
0.00417397671207464
0.00301220959350977
0.00183360074936259
0.000765827306746397
8.98999942981843e-05
0.0104114982302535
0.0100990103176297
0.00969520469662872
0.0091872750658238
0.00856974320659478
0.00784485725224895
0.00701872148839072
0.00609889300310209
0.00509425594316481
0.00401551938478603
0.00288189463848752
0.00174461017982972
0.000724476252898043
8.46470618168168e-05
0.0106233830245348
0.0103645283445084
0.0100220901749662
0.0095826466855663
0.00903933657840617
0.00839258798660517
0.00764666895543374
0.0068074932553153
0.00588304722370685
0.00488410659090913
0.00382420883045745
0.00272521392730476
0.00163816784085152
0.000675650319024134
7.85383509680959e-05
0.0107774999006609
0.0105644336508473
0.0102749123497957
0.0098950933905855
0.00941711513888265
0.00884001197706398
0.00816648346568414
0.00740077419005787
0.00654914425695894
0.00562120033588704
0.00463035589233809
0.00359351208938945
0.00253595448393738
0.00150933399031706
0.000616659102073601
7.11195844060243e-05
0.0108779157198484
0.0107034710124845
0.0104591360991442
0.0101308401416055
0.0097099826141488
0.00919449247939001
0.00858571163262867
0.00788630783698962
0.00710073620440806
0.00623661712738027
0.00530586131755571
0.00432495709636881
0.00331476851292975
0.00230518458543137
0.00134994990370286
0.000542326222787452
6.38993077649841e-05
0.0109273455306835
0.0107850117877425
0.0105787779410112
0.0102945909273245
0.00992334056452368
0.00946206847924281
0.00891093270602611
0.00827111727864377
0.00754529439420024
0.00673898832047224
0.00586174710955246
0.00492807981079619
0.00395783068191236
0.00297645376824974
0.00202010082149253
0.00114789535348953
0.000443294926417127
3.44084748316498e-05
0.000107244631840093
0.000887403948607606
0.000109301542584336
0.00208859277720389
0.000900449240161797
0.000111784265053535
0.00338453017123449
0.00210537200891249
0.000916894900686689
0.00011325579564611
0.00462164477668469
0.00339683865343383
0.0021248799596638
0.000927020655270161
0.000112962729936679
0.00573587111488762
0.00462547311403473
0.00340679331786258
0.00213496308908984
0.000925508108355149
0.000111410405840721
0.00670965398949793
0.0057309821790563
0.00462056843960562
0.00340465629793536
0.00212775208474402
0.000914355837814148
0.000109368918882235
0.00754740073305908
0.00669857339153866
0.00571121353381865
0.00460005533738064
0.00338352647100699
0.0021041938480454
0.000898025928524238
0.000107144186250373
0.00826201436050471
0.00753274578547878
0.00666738192169401
0.00567191561771367
0.00455920501124862
0.00334294219408248
0.00206900291736478
0.000878880888788753
0.000104668624098691
0.00886775599105803
0.00824502631668945
0.00749389898316542
0.00661244956290653
0.00561003557958803
0.00449691853506592
0.00328546781049873
0.0020250253334176
0.00085697805491575
0.000101804486471206
0.00937749478267346
0.00884844140251435
0.00820069319664469
0.00742692170784425
0.0065313339791494
0.00552415903368517
0.00441348550764861
0.00321247559339611
0.00197242391077023
0.000831535470796954
9.8450816624594e-05
0.00980222753178987
0.00935515115527717
0.00879916067349136
0.00812391521155438
0.00732905595001973
0.00642232363311819
0.00541288651739089
0.00430823537378535
0.00312327949963866
0.00190993222272026
0.000801707971244503
9.45340153446947e-05
0.0101513279824721
0.00977575802579368
0.00930041558772965
0.00871334652096345
0.00801105707474278
0.00719823681213417
0.00628301842076972
0.00527374262947776
0.00417897712747468
0.00301571531266599
0.00183568943160695
0.000766696612095241
8.99932796320356e-05
0.0104328247362415
0.0101193308988853
0.00971444781241458
0.00920526752485595
0.0085862409932224
0.00785961600815237
0.00703155157616652
0.00610967934413594
0.00510295509614967
0.00402214512507316
0.00288650817559023
0.00174734710482149
0.000725609918748246
8.47683037239433e-05
0.0106535445019056
0.0103935681450034
0.0100498897860032
0.00960895069204629
0.00906378982389814
0.0084148265073628
0.00766639417220818
0.00682450291147565
0.00589723981865767
0.00489547203023926
0.00383280812171823
0.00273116591679067
0.00164168611307444
0.000677104600054209
7.86926677560949e-05
0.0108191635827422
0.010604912154911
0.0103140254969543
0.00993247796583462
0.00945227174098654
0.00887242090354134
0.00819570068626326
0.00742647465440705
0.00657113389243568
0.005639413883689
0.0046448410664658
0.00360439980369966
0.00254344604326869
0.00151374224274031
0.000618481176631116
7.13132757168019e-05
0.0109342272220326
0.0107586098704954
0.0105128494810606
0.0101826263662459
0.00975915802546121
0.00924033852638155
0.00862759488524755
0.00792373691021684
0.00713338316462031
0.00626432398384817
0.00532863245546419
0.00434293201238314
0.00332817757993769
0.0023143336433512
0.00135525983046253
0.000544418334489716
6.45777459262206e-05
0.0110021446752335
0.0108587282424954
0.0106511004559552
0.0103648480624911
0.00999062113501532
0.00952540603240568
0.00896945023277978
0.00832409976776114
0.00759222268423567
0.00677955737665844
0.00589587047069791
0.00495587492399998
0.00397957182728018
0.00299249961662469
0.00203084497895289
0.00115331482545151
0.000446105745064506
3.4978379861818e-05
0.0110250021053669
0.0109080036918491
0.0107321338452566
0.0104831395942823
0.0101513275483398
0.00973296716947734
0.0092272812543868
0.00863425700324841
0.00795505342136652
0.00719335466095789
0.00635649491567991
0.00545640900086684
0.00451051153914108
0.00354229214722838
0.0025827410589254
0.00167699488609063
0.000891705729638381
0.000296165930698394
1.10789796963842e-05
0.000887760175462734
0.00010934293589885
0.00208927167900753
0.000900789663514534
0.00011181986994921
0.00338542830052435
0.00210601028020532
0.000917224263757313
0.000113290391298823
0.0046226892447813
0.00339769755918977
0.00212548799732632
0.000927329214074232
0.000112994190512903
0.00573702504811429
0.00462649476687236
0.00340762637518726
0.00213554707018723
0.00092579489598344
0.000111439326355571
0.00671095434758507
0.00573216773424244
0.00462160320328511
0.00340548909228888
0.00212832510440273
0.000914628787134213
0.000109396298797896
0.00754898263939476
0.00670002265565321
0.00571251168062452
0.00460116710337567
0.00338440187463867
0.00210478036737209
0.000898297307775986
0.000107171296545637
0.0082641366294561
0.00753468416713477
0.00666913094971054
0.00567345114033709
0.00456048769969353
0.00334392366187528
0.00206964092631974
0.000879168383231351
0.00010469811393144
0.00887083189768857
0.00824783759125511
0.00749644771370226
0.00661471471302133
0.00561198035983129
0.00449849997786405
0.0032866436141862
0.00202576853200417
0.000857305042157845
0.000101838373448646
0.00938212603662368
0.00885270387768952
0.00820459021166206
0.00743042590131358
0.00653439841350801
0.00552673518857547
0.00441553220588039
0.00321396177702246
0.00197334158605848
0.000831931480586521
9.84923884457165e-05
0.00980924528106608
0.00936167899113785
0.0088051973385392
0.00812941657599765
0.00733394998700311
0.00642653899268166
0.00541637047005
0.00431095509653791
0.00312522004658758
0.001911108206536
0.000802207926951102
9.45863184720117e-05
0.0101618354932517
0.00978564787501171
0.00930967427617306
0.00872190127710286
0.00801879411289299
0.00720504176005119
0.00628880625115446
0.00527846522803145
0.00418261703421309
0.00301827993961372
0.0018372267496861
0.000767342731311782
9.00611243964527e-05
0.0104482436491912
0.0101340094084653
0.00972835185460334
0.0092182816981651
0.00859819044258043
0.00787032074112489
0.00704087007158535
0.00611752477301801
0.00510929333935923
0.00402698347253585
0.00288988692328231
0.00174935993651706
0.000726449003931786
8.48565378402093e-05
0.0106756593203922
0.0104148390494192
0.010070252376643
0.00962823036770911
0.00908172815033239
0.00843115204726602
0.00768088204744577
0.00683700040701445
0.0059076705334524
0.00490382875361327
0.00383913680690102