/*--------------------------------*- C++ -*----------------------------------*\
  =========                 |
  \\      /  F ield         | OpenFOAM: The Open Source CFD Toolbox
   \\    /   O peration     | Website:  https://openfoam.org
    \\  /    A nd           | Version:  12
     \\/     M anipulation  |
\*---------------------------------------------------------------------------*/
/*   Windows 32 and 64 bit porting by blueCAPE: http://www.bluecape.com.pt   *\
|  Based on Windows porting (2.0.x v4) by Symscape: http://www.symscape.com   |
\*---------------------------------------------------------------------------*/
FoamFile
{
    format      ascii;
    class       volScalarField;
    location    "100";
    object      omega;
}
// * * * * * * * * * * * * * * * * * * * * * * * * * * * * * * * * * * * * * //

dimensions      [0 0 -1 0 0 0 0];

internalField   nonuniform List<scalar> 
10116
(
4.33098760800345
4.34944471258291
1.49027771715209
4.26313746499816
4.36285561585762
1.49655735945974
4.28136080214919
0.928907637707319
1.46956253656993
4.18714359952212
4.37264630237552
1.50113962265305
4.29460363407942
0.932441831908558
1.47576866316581
4.20518811540661
0.720528622714919
0.921142899857236
1.44120817242251
4.1107406670267
4.37973266725424
1.50449425730835
4.30427055891358
0.935082866968241
1.48029366518586
4.21833404742049
0.72292099666779
0.924662530051197
1.44733975682297
4.12867206069675
0.620421082334072
0.717312626890083
0.908552027441314
1.41429178033548
4.04655637315393
4.38481496003135
1.5069263856951
4.31126819584419
0.937031444397436
1.48360675762312
4.2279464871784
0.724738518465689
0.927285547357261
1.45181669708778
4.14177753931939
0.62218752936589
0.719709986740586
0.91205468126413
1.42037568241677
4.06445729701551
0.56574333420878
0.619052245817855
0.710983631822704
0.894885192884537
1.39257847706107
3.98916552464126
4.38844081505588
1.50866695551584
4.31628796132596
0.938447374562141
1.48600986003234
4.23491563181488
0.726092693336316
0.929219663996902
1.45509989220031
4.15138681347369
0.623539475357113
0.721523277352595
0.914666041831818
1.4248276410883
4.0775768725112
0.56709917369091
0.620830829322936
0.713387022263959
0.898377205319007
1.3986451870135
4.00710235448431
0.533612952314635
0.565127070350404
0.615462976402421
0.703010311329243
0.88223189240797
1.37374780988016
3.92667639406315
4.39103438395616
1.50989793957864
4.31986995322591
0.93946031170116
1.48773046058287
4.23992342559805
0.727082088799696
0.930625102467533
1.45748601211332
4.1583729092539
0.624553891496098
0.722872735406931
0.916593466574128
1.42810039895184
4.08722662259691
0.568140509307207
0.622184269932103
0.715204180022766
0.900985536097114
1.40309259538782
4.02024704647583
0.534666497752554
0.566498102532343
0.617257215837322
0.705421388992306
0.885722582240792
1.37981359430965
3.94456619561019
0.513876502590767
0.533255734832249
0.562766239698117
0.610266874965638
0.694544329341555
0.870283320431949
1.35369764965918
3.85246920019373
4.39292559904967
1.51076239936943
4.32243520391677
0.940174850317463
1.48894780261963
4.24350210209499
0.727791862855016
0.931630742166611
1.45919801182063
4.16340696686384
0.625299009873381
0.72385848836366
0.917996143980436
1.4304852458285
4.09426776491788
0.568925493161688
0.623198129342121
0.716557112612216
0.902914739729709
1.40637024926081
4.0299460935234
0.535477720471184
0.567543723045824
0.618621496733645
0.707247770315649
0.888334980579678
1.38426179798409
3.9577013711604
0.514691432284231
0.534325873414136
0.564157554768547
0.612078551655333
0.696965545509851
0.873776714873791
1.35974419601134
3.87022164250507
0.501432972104891
0.51358662265222
0.531413388120503
0.558967773536233
0.604141249434999
0.685850591751978
0.857725620850589
1.33002678828202
3.76463549151739
4.39436026417969
1.51137101770178
4.32430114426652
0.940674327462894
1.48980287384864
4.24606924728482
0.728293111274723
0.932340316268413
1.46041145910622
4.16701465981848
0.625835533978864
0.724565708142404
0.91900166419368
1.43220136907268
4.09936975240717
0.569504472981233
0.623942537519442
0.717546582477362
0.904322089123985
1.40876610029807
4.03705194389768
0.536091388671326
0.56833027558852
0.619643504677651
0.708610043250819
0.890271702339145
1.38754675866618
3.96741853568596
0.51532078016826
0.535142817025913
0.565217595492032
0.613458952546117
0.698803747716766
0.876394540756484
1.36418065304537
3.88327925107618
0.502051968417921
0.514418790234386
0.53250629134361
0.560382337951827
0.605971735851162
0.688282729472811
0.861216318742897
1.33602531507169
3.78215953822458
0.493497676135874
0.501158698841221
0.511956340660381
0.528315859616892
0.554207938395571
0.59747364750835
0.676631291376846
0.843583862531611
1.30201867716091
3.66191862593805
4.39552407177887
1.51180822788076
4.32571995570702
0.941024008946881
1.49040471595778
4.24793854747401
0.728643695506293
0.932836441856852
1.46126473863654
4.1696064340242
0.626215495054165
0.725065242943477
0.919712593698626
1.4334212956332
4.10304397069716
0.569922768881043
0.624478530453129
0.718257673555741
0.905333759300248
1.41049654397575
4.04221471063883
0.536545436801548
0.568910070974974
0.620394604180249
0.70960854584348
0.891688345702425
1.38995440904873
3.97455964849813
0.515798484052789
0.535759204596441
0.566014793343226
0.614494776271778
0.700178001122362
0.878339036497106
1.36746128195327
3.89296248998059
0.502532012065325
0.515054599312772
0.533339626251529
0.561462718048811
0.607370129395134
0.690132552754287
0.863834422137497
1.34042853760669
3.7950622289889
0.493952611344229
0.501795291425271
0.51281273500035
0.529435797192421
0.555647990427
0.599323608666332
0.67907238242735
0.84706148247955
1.30794016010208
3.67911560304023
0.488448082550732
0.493235118182173
0.499632621714965
0.509230395249151
0.524376686035708
0.548886638020578
0.590343284798892
0.666553680246303
0.827426376366465
1.2694244726608
3.54233783693478
4.39654738096879
1.51213870311581
4.32686825252423
0.941274213878057
1.49083640440883
4.24936010126394
0.728889674013916
0.933183848307048
1.46186589000534
4.17150155413779
0.626482129330022
0.725414709260117
0.920210650267768
1.4342814690193
4.10570271953094
0.570219946364752
0.624858150029097
0.71876096909165
0.906051218659483
1.41173099175124
4.0459462129446
0.536874351253782
0.569328899276915
0.620936263163492
0.710328046503751
0.892709764778054
1.39169653457897
3.97975799336072
0.51615286920023
0.536214923316259
0.566602898743822
0.615257616954504
0.701187883188407
0.879764656584701
1.36986946737649
3.90008709942937
0.502897861096368
0.515535639809587
0.533968064491739
0.562276571599356
0.608421938654092
0.691518350921167
0.865781806344995
1.34368733109757
3.80465074973434
0.49430766252082
0.502282220719591
0.513466054855905
0.53029221057647
0.556751164360965
0.600739918268187
0.680931362779656
0.849671262167523
1.31228820367072
3.69179470527386
0.488764766419786
0.493707919231519
0.50029443042446
0.510116502445024
0.525527305853844
0.55035393498881
0.592212688879641
0.669000044713959
0.830879193910968
1.27524114841701
3.55911032887567
0.485284533734617
0.488202556374131
0.491784196869743
0.497138366048887
0.505819948113377
0.519988052722037
0.543218374034868
0.582717846371717
0.65544628446157
0.809098390192452
1.23188031065649
3.40320242599868
4.39752635266793
1.51241083926
4.32788283932126
0.941463443073385
1.49116189943526
4.25050896155265
0.72906701004092
0.933432395247471
1.46229740019505
4.17294143734437
0.626670435410715
0.72565997045352
0.920560036583561
1.43488824584828
4.10765820971262
0.570429492627749
0.625124588717085
0.719113844976146
0.906555409363342
1.41260472952582
4.04864729864669
0.537108741092304
0.569626460264024
0.62132066015829
0.710838866843798
0.893436456723081
1.39294204789211
3.98351704399629
0.516410127925094
0.536544984196798
0.567028371040866
0.615809187079854
0.701917713007447
0.880794958144827
1.37161483446344
3.90527918408904
0.503169973898115
0.515892166918574
0.534433013642535
0.562878196527354
0.60919854544588
0.692539095704557
0.867211950384109
1.34608241981866
3.81171820188567
0.494579730597852
0.50265176362556
0.513959928536879
0.530939171759616
0.557584263375385
0.601807556765009
0.682326238123104
0.851614313495377
1.31550809283504
3.70123449029182
0.489014397028023
0.494070143916644
0.500799565602826
0.5107947825967
0.526410248341944
0.551480710276354
0.593646074953787
0.67086458329163
0.833471239019085
1.27951148661772
3.5714879203547
0.485484971834102
0.488537335977212
0.492282972598436
0.49783194726414
0.506740897606715
0.521172624164718
0.544714617976335
0.5846063690403
0.657893578706466
0.812514820559601
1.23756282475692
3.41944227182799
0.483363018391551
0.485059507943567
0.486820816768288
0.489464648189926
0.494105599554897
0.502112288578645
0.515406224567099
0.537312515710669
0.574611320736534
0.643307401066509
0.788561506049635
1.1888476765146
3.24093668982414
4.39853432529144
1.51266261606398
4.32885149889142
0.941620659246082
1.49143075445994
4.25152206785373
0.729203374143102
0.933620341870353
1.46262280627275
4.17410568723129
0.626808119388684
0.725836834639949
0.920810327826307
1.43532469632367
4.1091455064912
0.570578907368975
0.625312800390135
0.719362023311557
0.906910030220901
1.41322458427816
4.05063215931731
0.537274926517844
0.569836287995504
0.621591051608037
0.711198207433566
0.893948883640622
1.39382633581379
3.98624238931645
0.516593953923787
0.536780186114424
0.567331253875838
0.616201840167989
0.702437557481179
0.881529911224871
1.37286536222762
3.90904261526037
0.503367833745997
0.516150917307071
0.53477027638735
0.563314604586202
0.609761733334733
0.693278684816006
0.868247575152167
1.34782078354257
3.81687823325531
0.494782668136385
0.50292628657238
0.514326186073212
0.531418828376302
0.558201742637811
0.602597760604996
0.683355587582405
0.853043175843399
1.31787643416474
3.70820501754534
0.489207229670034
0.494346141820573
0.501182399039109
0.511308443993604
0.52707903371834
0.552333627721296
0.59472846653128
0.672265246709938
0.835402369244995
1.28267501263053
3.58071888862267
0.485645776503947
0.488794376210579
0.492663892208046
0.498363436873501
0.507448676313232
0.522084078422247
0.545865563918948
0.586055887756944
0.659759735915476
0.815079559931039
1.2417322616077
3.43143606427844
0.483466485355938
0.485278235796088
0.4871821805308
0.489996863410566
0.494837460055024
0.503072936985701
0.516628160086385
0.538839727765822
0.576518688023317
0.645751223510614
0.791929724538997
1.19436430943069
3.25652272815303
0.482256023516106
0.48315893797244
0.483744210812007
0.48464958096396
0.486728075471371
0.490923428234553
0.498374387354187
0.510806313383264
0.531302629037429
0.566169093754516
0.630313100652399
0.765887765362281
1.13967319153482
3.05065407217826
4.39960805924667
1.51291194243517
4.32984402744346
0.941766921315313
1.49167830159858
4.25248656716927
0.729319754668227
0.933776780719774
1.46289122718931
4.17512483512456
0.626916692839427
0.725972873760186
0.920999688856708
1.43565521795489
4.11034802723179
0.570690325610642
0.625450448575402
0.719541259302119
0.907164747685354
1.41367355223581
4.05214395465056
0.537394968230053
0.569985943367351
0.621782454891933
0.711451722978978
0.894310778246945
1.39445566178496
3.98824803660874
0.516725199016847
0.53694697678457
0.567545303056664
0.616478976527683
0.702804539409661
0.882049845701832
1.37375470605482
3.91177595010289
0.503509612436046
0.516335823491355
0.535011108867253
0.563626264576862
0.610164006147449
0.693807010139705
0.868988051512906
1.34906780097119
3.82062725030517
0.494930424501031
0.503125843412631
0.514592429716968
0.531767722988858
0.558651021108678
0.603172369389534
0.684103013346856
0.854079490207002
1.31959678363487
3.71330408539566
0.489351575787494
0.494551671743684
0.501466923722707
0.511690205702676
0.52757624394069
0.552967391613144
0.595531182363525
0.673300358331736
0.836823780291287
1.28500301346048
3.58754841205113
0.485771678680028
0.488991327947203
0.492953478113617
0.49876696686525
0.50798621248862
0.522776169410255
0.546738367689826
0.587151848876976
0.661162742674747
0.816991331710086
1.24482141512207
3.44039326794276
0.483552923041212
0.485446652306493
0.48745829348658
0.490405235267571
0.495400879199433
0.503813432550165
0.517570052180918
0.540015776564349
0.577983571793737
0.647615063555351
0.794456831673631
1.19840873821051
3.26804117346019
0.482279541734101
0.483280842839628
0.483990002692367
0.485045748299079
0.487301453471469
0.491699928104536
0.499379806737859
0.51206962631669
0.532863370640416
0.568095383355388
0.632749334365104
0.769194959840335
1.14498951172706
3.06543902737361
0.481675492387292
0.482071427273164
0.481905731682949
0.481704229376406
0.482159314174226
0.483969899237935
0.487862924460235
0.494813084202781
0.506396440392553
0.525447848565572
0.557739698554167
0.616896992387504
0.741423265985304
1.08383695982409
2.82687508713832
4.40077838099893
1.51318563462395
4.33090265436303
0.941920184558266
1.49192733384654
4.25347083407462
0.729431861721414
0.933923051117956
1.46313714390007
4.17611144208655
0.62701260317841
0.726089029788511
0.92115714881811
1.43592718763561
4.11139776013902
0.57078106189967
0.625559014450616
0.719679132839355
0.907357836979541
1.41401410996567
4.05336374131986
0.537486760745981
0.570097541408805
0.621922603993059
0.711635249077844
0.894571825389284
1.39491195603448
3.98977399571748
0.516821536322485
0.537067449383257
0.567698259443972
0.616675763939524
0.70306438489481
0.882418288332744
1.37438819472709
3.91378932058251
0.503611674354546
0.51646783680801
0.535182272225494
0.563847268692585
0.610448958887855
0.694181180480341
0.869513115215833
1.34995539296108
3.82335402697961
0.495036600668979
0.503268844858997
0.514783119216626
0.532017694053911
0.558972992726482
0.603584053707339
0.684638234730833
0.85482165120839
1.32083146422094
3.71701683154897
0.489456760100956
0.494701258159648
0.501674114801321
0.511968541098801
0.527939069532699
0.553429833183211
0.596116215904677
0.674053236932345
0.837855796455741
1.2866946374765
3.59255229538772
0.485866385281034
0.489138406924755
0.493169169654968
0.499067550477728
0.508386887318125
0.52329206270928
0.547388250246245
0.587965872725288
0.662200680957977
0.818399514854638
1.24709520710264
3.44703191193745
0.483622580418952
0.485576834899142
0.487669050697384
0.490716211982546
0.495829949909439
0.5043772673769
0.518286581241415
0.540908764356243
0.579092112174829
0.649017079424795
0.796340722663189
1.2014042123928
3.27665889410023
0.482304315772946
0.483375060661832
0.484177787428554
0.485350199748187
0.487743780335368
0.492299668600543
0.500156244350192
0.513044457491369
0.534065994461292
0.569575218996255
0.634607063607819
0.771673757667733
1.14888112192616
3.07638730130354
0.481634021362169
0.482113478674616
0.482055051813702
0.481985919202326
0.482599056400653
0.484592160506058
0.488690693941297
0.49586909877149
0.507706009893521
0.527045437554928
0.559685700842032
0.619322369574455
0.744658853170754
1.08891232469984
2.84067536382275
0.481426970751793
0.481508083519988
0.480874299269987
0.479982138023371
0.479424296453675
0.479753136242979
0.481465529899008
0.485149024041278
0.491683589694867
0.50251759198396
0.52022735674085
0.549998433948647
0.60396516555184
0.716202385837476
1.02139698304327
2.56559901558553
4.40206616232215
1.51349265664712
4.33205709059616
0.942090004140859
1.49219620935192
4.25451837968823
0.729551512860655
0.934074962979003
1.46338336059664
4.17711080140066
0.627108301046852
0.726200963049507
0.921303946689367
1.4361760334492
4.11238989836765
0.570864483730241
0.625654924610429
0.719796612385665
0.90751802328076
1.41429262099803
4.05442486746975
0.537564472701938
0.570188416903858
0.622033061698742
0.711776472010838
0.894769948046433
1.39525755079502
3.99100193714135
0.51689754674877
0.537159541924941
0.567812376085051
0.616820113583251
0.703253040085919
0.882684683922429
1.37484725954007
3.91532240253875
0.503688184919318
0.516564725790673
0.535306086940289
0.564005645023587
0.610651983213586
0.694446974340348
0.869885985039229
1.35058755637734
3.82536411468949
0.49511386785891
0.503371783769502
0.514919557772142
0.532195960721421
0.559202143966562
0.603876629134209
0.685018280236261
0.85534874811479
1.32171038897055
3.71972352729914
0.489532577363117
0.494808753431832
0.501822951440482
0.512168600537204
0.52819997075635
0.553762294709522
0.596536441964597
0.674593381359039
0.838595679077056
1.28790869272342
3.59620055792968
0.485935377668669
0.489245522411843
0.493326455338115
0.499287139574503
0.508680011563268
0.523669646285333
0.547863579610421
0.588560215470838
0.662956573153153
0.819422782802815
1.2487474324617
3.45190190073938
0.483675408290258
0.485674392817672
0.48782639575767
0.490948370526983
0.496150544338023
0.504798694503213
0.518821817934489
0.541574715083959
0.579916407841199
0.650055089307892
0.797728817262788
1.20360880682445
3.28305389276253
0.482327077979683
0.483449135220465
0.484321940494249
0.485582895845256
0.488081671884627
0.492757593381624
0.500748508536849
0.513786940121282
0.5349799158505
0.570695689385302
0.636004836647798
0.773521069540505
1.15176270922577
3.08459148670523
0.481608231323244
0.482146164232338
0.482168856010476
0.48220275035714
0.482939150153892
0.485073891735401
0.489331183751429
0.496685377018382
0.508717060229784
0.528276781208823
0.561180662598105
0.621170797760538
0.747079157817398
1.09261830092488
2.85097679773072
0.481333463115931
0.481485187723641
0.480943989935192
0.480168195527759
0.479751542240075
0.480245375999375
0.482144734254569
0.486035561555572
0.492797131455415
0.503879408198015
0.521866244368907
0.551966270068646
0.606378538621172
0.719359334412403
1.02659905671516
2.57842844939041
0.481380394888786
0.481274250926859
0.480360241503345
0.479052722388743
0.477882989948881
0.477314497481475
0.477711580902398
0.47945268989035
0.483068348873928
0.489384782408136
0.499744748270164
0.516485485636832
0.544199632398352
0.59337949473458
0.69294066283519
0.955098416561563
2.21611792753311
4.40348682447008
1.51383841063318
4.33332729188347
0.942285393746727
1.49249518453039
4.25565820000188
0.729687539177802
0.934243498699466
1.4636462434815
4.17816291640816
0.627213238076194
0.726320366839549
0.921455319948298
1.43642298023518
4.11338915300089
0.570950829318203
0.625750607247515
0.719909372407378
0.907666540845032
1.41454319208195
4.05542190555332
0.537639149569241
0.570271947221743
0.622130333895254
0.711896412962745
0.894933702461617
1.3955389344451
3.99206571255538
0.516964915435717
0.537237469860812
0.567905124962295
0.616933762368814
0.703398262981806
0.882886935143455
1.37519429090315
3.91655477769776
0.503751004253475
0.516641122809837
0.535400682511818
0.564123903324066
0.610801213794467
0.694640421007648
0.870155978934997
1.35104532027152
3.82689638010599
0.495173486650438
0.503448919287095
0.515019787362424
0.532325215794598
0.559366861369695
0.60408572748952
0.685288946756771
0.855723572671393
1.32233610743757
3.7217225831259
0.489588622153976
0.494886967816287
0.501930314020897
0.512312225066022
0.528386709541619
0.55399969391849
0.596835906640869
0.674977706160753
0.839121740396814
1.28877258158131
3.59886365138503
0.485985283766888
0.489322730074587
0.493439790384373
0.499445485693789
0.508891508732949
0.523942058765154
0.548206217603417
0.588988004833942
0.663499665769147
0.820157074050582
1.24993290079209
3.45545624797007
0.483713736597408
0.485745400246956
0.487941239548614
0.491118265275731
0.496385611085812
0.505107963800761
0.519214518646451
0.542062706148934
0.580519084462314
0.650811773757617
0.79873788148349
1.20521021192567
3.28775149105662
0.482344796553036
0.483504915157664
0.484429836405969
0.485757018154609
0.488334735899958
0.493100700523727
0.50119210654473
0.514342404239838
0.535662236396226
0.571529532486807
0.637040238814827
0.774882170562886
1.15388305651829
3.09068669860011
0.481592225727887
0.482173454876158
0.482257020238152
0.482369273843784
0.483199895388693
0.485442806174039
0.48982099884337
0.497308643533258
0.509487630939352
0.529212955767004
0.562312910681481
0.62256159911514
0.748881697671109
1.09536293222699
2.85870403337431
0.481266652217695
0.481467402870649
0.480996403371674
0.480311589429912
0.480005400424341
0.480627487890402
0.482671376762369
0.486721949575528
0.493658086015719
0.504930890645361
0.523129374574466
0.553477601299178
0.608215525346075
0.721711469253164
1.03014321775303
2.58823152274556
0.481245789718278
0.481199311213901
0.480365088546819
0.479159747313385
0.478116177721913
0.477697264865315
0.478265671274417
0.480197898846911
0.484022495519772
0.490564217516274
0.501166302767792
0.518171908071765
0.546194197118013
0.595785234185401
0.696056003288056
0.961841963027948
2.21610690834468
0.481450458782717
0.481239971717716
0.480168843717444
0.478626813352873
0.477108394873808
0.476023693356302
0.475660406375551
0.476282650349347
0.478240517795874
0.482061147847974
0.488561096263607
0.499041757135471
0.515706434264738
0.542713640618778
0.589113477955519
0.678541160034301
0.90357696037234
2.28700646185534
4.40508761348795
1.51423348819417
4.33472965458975
0.942512681035738
1.49282817252963
4.25690917041519
0.729846861533552
0.93443704256435
1.46393475102627
4.17928769005409
0.627334658287879
0.726455988189476
0.921622347452986
1.4366828574335
4.11443606400558
0.571048039750262
0.625855478767493
0.720029053295506
0.907818452202591
1.41478935601511
4.05642151339292
0.537719409334231
0.570358378845433
0.6222269183371
0.712010818428593
0.895084282110562
1.3957902619528
3.99306196528237
0.517032863868193
0.53731231899493
0.5679900031241
0.617033367744451
0.703521162819145
0.883053651371006
1.37547597652016
3.91761860713177
0.503809769027834
0.516708765521456
0.535480446825721
0.564219745861797
0.61091859244558
0.694789393983775
0.870361024613447
1.35139083791914
3.82812624200637
0.495225028586716
0.503512175065638
0.515098659171388
0.532423904419115
0.559489973624391
0.604239718088818
0.685486340526313
0.855995256680778
1.32278886735201
3.72324434660133
0.489633707283313
0.494947251291778
0.5020107581569
0.512417890298274
0.528522443063436
0.554170812352046
0.597050483835483
0.675251978234364
0.839496228299767
1.28938724364114
3.60083311081375
0.486023131087032
0.489379769526027
0.493522398608069
0.499560068712079
0.509043877645833
0.524137669845357
0.548451559848369
0.589293538147413
0.663886715384601
0.820679714824679
1.25077604595565
3.45805222235344
0.483741584045645
0.485796754656204
0.488024269507224
0.491241191648642
0.496555799758685
0.505331870576848
0.519498610988763
0.542415223932475
0.580953580688019
0.651356081518596
0.799462303833542
1.20635854581664
3.29118231038917
0.482357271230295
0.483545329539946
0.484508582322189
0.48588461970753
0.488520661697237
0.493353089854565
0.501518451882478
0.514750707547008
0.536162933512012
0.572139845168115
0.637795573173071
0.775871648879972
1.15542246377874
3.09516855537016
0.481580693150906
0.482194208899573
0.482323184428421
0.482494182983439
0.483395651755508
0.485719864248965
0.490188712490509
0.497776091099818
0.510064675287094
0.529912417843116
0.563156001207539
0.623592192850799
0.750209535077051
1.09738237477818
2.86445553444194
0.48121882157011
0.48145601122436
0.481037858383459
0.480422451995046
0.480200898586793
0.480921078360979
0.483075140146994
0.487247136974799
0.494315642104941
0.505732440812067
0.524089891283848
0.554622346152522
0.609597189849678
0.723461102860089
1.03272987562948
2.59561663531977
0.481145949377331
0.48114056315099
0.480367099688589
0.479242138350708
0.478297704040712
0.47799532385896
0.47869625278896
0.480775696560336
0.484760968296785
0.49147582869953
0.502263659813398
0.5194713553998
0.547725166525535
0.597611851779887
0.698343611344829
0.965249234220592
2.21610846298858
0.481283652897188
0.481123883617866
0.480121641461323
0.478669364788068
0.477263739253523
0.476314861604008
0.476109194247385
0.476909119570606
0.479062439113236
0.483093559421279
0.489816687865343
0.500532733700621
0.517449759468987
0.544745430957184
0.591529060393687
0.681906669185556
0.907114089583244
2.28699470794799
0.481583007148412
0.481320180026334
0.480170510925611
0.47851053592208
0.476814008322448
0.475460293849279
0.474694045180502
0.47471852154941
0.475792645126725
0.478299705821534
0.482822443992617
0.490261503299411
0.502048295502599
0.520582779238691
0.550256659871474
0.600124875565406
0.692838983073623
0.932964479061594
2.38167954678526
1.51469944937141
4.33628964294853
0.942778269087679
1.49321158287156
4.25828721275231
0.730035417474201
0.934661743006385
1.46425151104252
4.18048584732634
0.627478714592514
0.726614766305335
0.921813112007279
1.43696195599891
4.11554994652125
0.57116235651456
0.625976824397898
0.720164429500847
0.907984681679301
1.41504590855804
4.0574637575013
0.537811991962636
0.570455615264411
0.622332284830995
0.71213137309493
0.89523704871055
1.39603562392696
3.99405419142721
0.517108661856153
0.537392698022241
0.568077350979513
0.617131558512498
0.70363759281772
0.88320612785465
1.37572681910766
3.91860872998274
0.503872184460819
0.516776914833572
0.535556609790408
0.564306867534728
0.611020960054681
0.694915127953465
0.870529838587028
1.35167101308353
3.82918271746082
0.495276426573729
0.503571246678204
0.515168098621309
0.532506685970281
0.559589462337172
0.604360762152051
0.685638448902185
0.856201703626619
1.32313037469915
3.72446380598331
0.489675510024541
0.494999263550923
0.502076444849478
0.512500805252962
0.52862601182142
0.554298827448592
0.59720877833638
0.675452341522905
0.839767955439927
1.28983170101802
3.6023326715261
0.486055687221353
0.489425553185017
0.493585941570379
0.499645922404019
0.509156142811188
0.524280161521885
0.54862881322063
0.589512931616681
0.66416340338327
0.821052260882311
1.25137546881077
3.45997486600662
0.483763852576429
0.485835635282971
0.488085660092142
0.491331023147736
0.496679342172382
0.505493669608145
0.519703152022419
0.542668206494678
0.581264468630785
0.651744543085869
0.799978183282867
1.20717445195836
3.29369031166933
0.482366405676147
0.483574673893563
0.484565732018932
0.485977285715934
0.488655749358031
0.49353645030101
0.501755365306202
0.515046721123372
0.536525243445152
0.572580435072056
0.638339429276569
0.776582022611133
1.15652496209606
3.09844455945396
0.481571460413348
0.482208828883047
0.482371334617123
0.482585790256648
0.483539726503171
0.485924095488879
0.490459858085986
0.498120594818461
0.510489418647925
0.530426246349929
0.563773611114478
0.624344468249063
0.751174721981057
1.09884719831462
2.86868855655989
0.4811830121478
0.481447580308934
0.481069019077958
0.480505802681564
0.480348029481688
0.481142060516447
0.483378862858417
0.48764180015123
0.494809147160093
0.506333020669959
0.524807898001048
0.555475098886057
0.610621094850404
0.724749470674026
1.03462771685083
2.60112068507375
0.481072061284204
0.481097407352807
0.480369904631232
0.479306524003654
0.478438280145752
0.478225179956606
0.479027181418282
0.481218532961858
0.485325745679026
0.492171853769416
0.503100083272442
0.520459478973194
0.548884662637165
0.598984495420634
0.700034511423548
0.967608889043447
2.21609857667638
0.481157213523767
0.481032130720596
0.480082690688322
0.478701596851477
0.477385107838836
0.476542373413024
0.476458720144678
0.477395337185347
0.479698694938211
0.483891595381178
0.490786452682662
0.501683221452008
0.518792555431364
0.546303336845446
0.593354725929095
0.684154947793955
0.909328958071318
2.28699512467784
0.481390816570244
0.481171804351386
0.480082060748906
0.47850120158576
0.476905708152048
0.475675539494689
0.475054672490455
0.475245200127029
0.476504113752096
0.479211471743587
0.483946217854078
0.491606157610182
0.50362192256195
0.522398396224025
0.55234790532212
0.602599563185184
0.695723309992983
0.935724651712394
2.38167999921591
0.481745308720868
0.481460981166775
0.480280749322793
0.478575402737281
0.476808382914048
0.47534289601026
0.474401339118544
0.474157337272951
0.47482862230139
0.476735583551785
0.480362883664759
0.486462834826617
0.496233320528706
0.511666764813465
0.536295633167019
0.576906838983128
0.648111513197097
0.790517963109956
1.19484779027902
3.68516613460284
0.94309088823658
1.49367732406815
4.25982066925138
0.730258655571187
0.934924634466751
1.46462099183066
4.1818278116784
0.627650737791359
0.72680247276573
0.922033561243731
1.43726094469923
4.11672716012492
0.571299216670313
0.626120714158176
0.72032241018468
0.908172935437732
1.4153183370818
4.05856695449907
0.537922398181552
0.570569929267747
0.62245378012468
0.712266892310285
0.895402986186936
1.39629002253394
3.99508326075185
0.517198115904936
0.537485350577494
0.568175138668607
0.617237909829466
0.703759372192245
0.883359929144773
1.37597122831005
3.91958554522687
0.50394441730475
0.516852853473346
0.535637881655084
0.564395770150691
0.611121107566449
0.695033604195061
0.870683848193217
1.35192059477129
3.83016032008625
0.495334109856513
0.503633883618181
0.515237519525885
0.532585016455206
0.559679259146628
0.604465894751169
0.685766632652691
0.856371752109788
1.32340747223615
3.72550811055163
0.48972049636425
0.495050989797965
0.5021372670227
0.512573193781466
0.528712408224105
0.554402020791704
0.597333165681892
0.675606869529263
0.839974708543038
1.29016681576294
3.6035346866526
0.486089028783583
0.489467844151786
0.493640333667066
0.499715596630259
0.509243968797603
0.524388817710562
0.548761522663993
0.589675014780296
0.664365855339084
0.82132302887459
1.25180834146582
3.46144110935132
0.483785607570503
0.485868914521393
0.488134650232107
0.491399934247227
0.496771889615121
0.505613020363281
0.519852406261165
0.542851322427395
0.581488106017522
0.65202268750046
0.80034611084949
1.20775343466352
3.29554815994522
0.482375364022882
0.483598007685244
0.484608917290454
0.486045882227825
0.488754703915078
0.493669896742108
0.501926970985573
0.515260292982361
0.536785724234457
0.572896170412034
0.638728032621656
0.777087862623212
1.15730682255196
3.10084360772587
0.481564754336186
0.482219500721813
0.482406442231905
0.482652595402638
0.483644801401991
0.486072986659888
0.490657361514567