/*--------------------------------*- C++ -*----------------------------------*\
  =========                 |
  \\      /  F ield         | OpenFOAM: The Open Source CFD Toolbox
   \\    /   O peration     | Website:  https://openfoam.org
    \\  /    A nd           | Version:  12
     \\/     M anipulation  |
\*---------------------------------------------------------------------------*/
/*   Windows 32 and 64 bit porting by blueCAPE: http://www.bluecape.com.pt   *\
|  Based on Windows porting (2.0.x v4) by Symscape: http://www.symscape.com   |
\*---------------------------------------------------------------------------*/
FoamFile
{
    format      ascii;
    class       surfaceScalarField;
    location    "100";
    object      phi;
}
// * * * * * * * * * * * * * * * * * * * * * * * * * * * * * * * * * * * * * //

dimensions      [0 3 -1 0 0 0 0];

internalField   nonuniform List<scalar> 
28915
(
-1.49173410774269e-06
7.24705449614555e-08
6.32963417741416e-08
-1.63019945200173e-06
7.65992339765375e-08
6.18606565736394e-08
-5.91079698065117e-07
1.11049468798886e-07
1.23623529815169e-08
-1.90141862668346e-06
9.02318730083204e-08
1.4558812681663e-07
-1.77028734822684e-06
8.00073176733546e-08
6.00759581667168e-08
-6.43700939872655e-07
1.16841959255721e-07
1.23756344629449e-08
-2.07667275393265e-06
9.50944777116007e-08
1.42005029159623e-07
-4.98471520718032e-07
1.47075246280382e-07
7.81798375461526e-09
-7.19010780227911e-07
1.38953726634234e-07
2.56731265124151e-08
-2.17165999654177e-06
1.06531894926871e-07
2.35242851136016e-07
-1.91150759810917e-06
8.28397513369868e-08
5.83759131359915e-08
-6.97628080310984e-07
1.21791979463778e-07
1.21390371343432e-08
-2.25366330352025e-06
9.89028458008528e-08
1.38142459562715e-07
-5.43766947865255e-07
1.54200824237391e-07
7.9358893945614e-09
-7.82821668448083e-07
1.45923515240028e-07
2.53513398895543e-08
-2.37065897996734e-06
1.11929888177247e-07
2.29061472434272e-07
-4.67983632746681e-07
1.83853572861574e-07
6.71456277815366e-09
-5.96201105934539e-07
1.82957238290943e-07
1.6333641198652e-08
-8.36046006054791e-07
1.65920343144321e-07
3.76905178576972e-08
-2.47866982400794e-06
1.23311126685186e-07
3.34169913937524e-07
-2.05340154615377e-06
8.50535788798184e-08
5.68359423993726e-08
-7.52388520798082e-07
1.25811932923836e-07
1.17841061965731e-08
-2.43188238236471e-06
1.02179805289217e-07
1.34400179609088e-07
-5.901167890328e-07
1.60340485692272e-07
7.80064987252563e-09
-8.48329585004597e-07
1.51863076769923e-07
2.46795944586679e-08
-2.5714235027098e-06
1.15970812555991e-07
2.22926698304173e-07
-5.12825026046726e-07
1.92084363022147e-07
6.95737016067389e-09
-6.50258319420125e-07
1.91413468141676e-07
1.65008349246241e-08
-9.09330663676993e-07
1.73696170418389e-07
3.68658937513084e-08
-2.7038314188941e-06
1.29155538526962e-07
3.25052844714479e-07
-4.47074322353075e-07
2.21749445919212e-07
7.01222406155105e-09
-5.48962313084283e-07
2.2699694556075e-07
1.3824471421691e-08
-7.01555081504891e-07
2.20251352328819e-07
2.31346827777313e-08
-9.52545334873483e-07
1.91824172615694e-07
4.92915989970748e-08
-2.73504907334009e-06
1.36202926362868e-07
4.40407044407057e-07
-2.19545587703519e-06
8.66272248865798e-08
5.54205558974712e-08
-8.07560481611436e-07
1.28862698087893e-07
1.13596315279184e-08
-2.61077431041101e-06
1.04823554064158e-07
1.30888556575576e-07
-6.37132176131034e-07
1.65297079662733e-07
7.52944584626643e-09
-9.14923618070788e-07
1.56759498890649e-07
2.37909773185415e-08
-2.77351994403656e-06
1.19519076219931e-07
2.16962920463023e-07
-5.58594476288239e-07
1.99147171702444e-07
6.96215656386601e-09
-7.05594190150252e-07
1.98755249574784e-07
1.62419604513988e-08
-9.84635423300969e-07
1.80294883177896e-07
3.56540216002948e-08
-2.93067556367402e-06
1.33382978350254e-07
3.16375408144667e-07
-4.93217813193166e-07
2.31013164047342e-07
7.21417708839191e-09
-6.01530581664874e-07
2.36827309743277e-07
1.41098179498946e-08
-7.64340159682528e-07
2.29777643702878e-07
2.32025619230454e-08
-1.03459554675306e-06
2.00157255468684e-07
4.79096849351148e-08
-2.98046915929129e-06
1.42089359613543e-07
4.28371687948479e-07
-4.25859386567403e-07
2.61294812938105e-07
7.49922928876975e-09
-5.14323656281367e-07
2.71690664160204e-07
1.41484866720723e-08
-6.43662191376429e-07
2.72745491984424e-07
2.06370911156216e-08
-7.97215638717128e-07
2.54161166449031e-07
2.89235687283844e-08
-1.03771725410487e-06
2.09089889679358e-07
6.16681349410173e-08
-2.90823381477018e-06
1.4434376134313e-07
5.50004830447519e-07
-2.33716606472482e-06
8.75995119996341e-08
5.41071049539836e-08
-8.62770225950512e-07
1.30951712372625e-07
1.08818753887831e-08
-2.7897201011314e-06
1.06749778342457e-07
1.27604713150334e-07
-6.84447227567911e-07
1.69004745077319e-07
7.17211282298092e-09
-9.82027197620668e-07
1.60531098666873e-07
2.27498343646641e-08
-2.9763590637834e-06
1.22454459526227e-07
2.11262350699596e-07
-6.04907664066421e-07
2.04806715911799e-07
6.80284900080206e-09
-7.61745772008961e-07
2.04746384771997e-07
1.56918426733774e-08
-1.06124487627732e-06
1.85776588140552e-07
3.41361981319297e-08
-3.15886944428473e-06
1.37123959261433e-07
3.08018220328841e-07
-5.40157369034172e-07
2.38898309050647e-07
7.18777606679031e-09
-6.55131302569853e-07
2.45360561013628e-07
1.3955514037813e-08
-8.28621849196172e-07
2.38092975738788e-07
2.27224430910451e-08
-1.11884808588836e-06
2.07182071989219e-07
4.61019427286828e-08
-3.22744561701458e-06
1.46208157893581e-07
4.17124103330159e-07
-4.73996174162471e-07
2.71514827364712e-07
7.63467142190566e-09
-5.67438395632724e-07
2.8274690610785e-07
1.44077663770481e-08
-7.04514383176078e-07
2.83782960704932e-07
2.09544972501136e-08
-8.6705417398326e-07
2.64344417299594e-07
2.88517204224095e-08
-1.12487978130057e-06
2.17328738395303e-07
5.98274145257092e-08
-3.16514644096395e-06
1.49902002340568e-07
5.35376902932352e-07
-4.03788345488376e-07
3.02679716513251e-07
8.33789924382389e-09
-4.84412285892687e-07
3.16914083567144e-07
1.59752536577599e-08
-5.97272993022286e-07
3.24206423704243e-07
2.21370020374857e-08
-7.26620868924875e-07
3.12909191076634e-07
2.73972557284078e-08
-8.5973425340333e-07
2.74477203186802e-07
3.4822427837888e-08
-1.09072248366269e-06
2.17883349312682e-07
7.50770253387973e-08
-3.01598698246313e-06
1.49502617622399e-07
6.59309490593318e-07
-2.47808649940372e-06
8.80357476921907e-08
5.28824678913919e-08
-9.17684426363138e-07
1.32137973125892e-07
1.03727380164543e-08
-2.96812874838496e-06
1.07976609355189e-07
1.24520102461448e-07
-7.31723896362438e-07
1.7147512636511e-07
6.75217440811728e-09
-1.04918990018786e-06
1.63174894391707e-07
2.16159561329818e-08
-3.17926681805748e-06
1.24622366331554e-07
2.05874829333372e-07
-6.51414098821155e-07
2.08981519443283e-07
6.52880756399181e-09
-8.18257132381863e-07
2.09278873043865e-07
1.49340029625706e-08
-1.13845440923553e-06
1.90027482732007e-07
3.23816018155607e-08
-3.38784654825716e-06
1.40244567062843e-07
2.99981418859693e-07
-5.87504647993744e-07
2.45143613074547e-07
7.00963495725743e-09
-7.09350334699642e-07
2.52290510564106e-07
1.34760737505053e-08
-8.93869562296848e-07
2.44907531735548e-07
2.18065974322097e-08
-1.20455536123393e-06
2.13032700285766e-07
4.39288774000532e-08
-3.47570233342714e-06
1.49878055677786e-07
4.06384522687645e-07
-5.22769825708251e-07
2.80118173496742e-07
7.55311906345612e-09
-6.21383067212323e-07
2.9226317274113e-07
1.42280206921753e-08
-7.66547259922462e-07
2.93417205871846e-07
2.06622791869328e-08
-9.38505757548599e-07
2.73246576640859e-07
2.8106474355539e-08
-1.21430336032087e-06
2.24225045886614e-07
5.75032896695496e-08
-3.42351375815252e-06
1.53660469280576e-07
5.21819646895962e-07
-4.54422905224842e-07
3.13737669733289e-07
8.41125134778623e-09
-5.39231772421588e-07
3.29042753772129e-07
1.61568754348831e-08
-6.5812678012156e-07
3.36565941198106e-07
2.24764889034646e-08
-7.9373415120138e-07
3.24633460436493e-07
2.77752337248355e-08
-9.32688522418441e-07
2.84439159571658e-07
3.4691662583676e-08
-1.17943665909091e-06
2.25506931991821e-07
7.29304482568917e-08
-3.27769706533125e-06
1.54518916644938e-07
6.42552144802128e-07
-3.8218206161396e-07
3.46202310491587e-07
9.49471291944726e-09
-4.57585329121961e-07
3.63201393401387e-07
1.86167813784685e-08
-5.59239886052978e-07
3.7551113982182e-07
2.57927722028761e-08
-6.69263526210317e-07
3.69207023911792e-07
3.08735839423891e-08
-7.77825991275447e-07
3.35379050325987e-07
3.42744092564616e-08
-8.94262912679286e-07
2.82777502611705e-07
4.12197262896391e-08
-1.12457823215283e-06
2.22061956232719e-07
8.90434148459054e-08
-3.0920273119405e-06
1.53627718271351e-07
7.66022316019958e-07
-2.61782644407527e-06
8.79819903295271e-08
5.17516046570517e-08
-9.72015625110966e-07
1.32510498570072e-07
9.85232840759802e-09
-3.14546732644345e-06
1.08576171368159e-07
1.21630652664982e-07
-7.78658244040319e-07
1.72772344451531e-07
6.29925025648071e-09
-1.11603671284363e-06
1.64742638034257e-07
2.04490887274949e-08
-3.38157042090379e-06
1.2600205546019e-07
2.00808151497289e-07
-6.97789565070478e-07
2.11677317410176e-07
6.17279657513488e-09
-8.74727813177072e-07
2.12354125695508e-07
1.40419071443918e-08
-1.21574177264469e-06
1.93023404670845e-07
3.04977200607282e-08
-3.61686050567522e-06
1.42555784426118e-07
2.92323476910612e-07
-6.34917809642011e-07
2.49658098540371e-07
6.73577278394944e-09
-7.637871894083e-07
2.57485164076124e-07
1.27576852085683e-08
-9.59536421701484e-07
2.50065054744821e-07
2.05615074038356e-08
-1.29093419554044e-06
2.17562621181148e-07
4.14367517014841e-08
-3.72472139852897e-06
1.52967252790289e-07
3.96021464563796e-07
-5.71785170184628e-07
2.86825833954326e-07
7.33247839459989e-09
-6.75756998703543e-07
2.99891340867947e-07
1.37809608535146e-08
-8.29290873585739e-07
3.01225001545226e-07
1.98993839794408e-08
-1.01101784001373e-06
2.80546399888856e-07
2.68025551525605e-08
-1.3052414808521e-06
2.29975676368361e-07
5.47627807302809e-08
-3.68307608878293e-06
1.57035675830779e-07
5.08895766483976e-07
-5.05501591609954e-07
3.22927845365373e-07
8.26850654057673e-09
-5.94679801127293e-07
3.39356275558788e-07
1.59064920571283e-08
-7.19953373731288e-07
3.47274593998385e-07
2.21950226256978e-08
-8.62097480353844e-07
3.34904470818353e-07
2.73644971948583e-08
-1.00726379672266e-06
2.93150824317077e-07
3.37523157637199e-08
-1.2703687120371e-06
2.3183736539768e-07
7.02531301386587e-08
-3.54072259686053e-06
1.57747724100748e-07
6.27080418692901e-07
-4.35889876352019e-07
3.5795365731813e-07
9.49144782751876e-09
-5.15062612751644e-07
3.76233787294141e-07
1.86961183979683e-08
-6.21582207474217e-07
3.89001103176431e-07
2.60621002290641e-08
-7.3575203800067e-07
3.82241333022719e-07
3.13543594316778e-08
-8.47171685054042e-07
3.46766557043894e-07
3.47901365531709e-08
-9.67090285652212e-07
2.9187884910305e-07
4.11431823837808e-08
-1.21266718208284e-06
2.28816702280935e-07
8.67161907620061e-08
-3.35512116189533e-06
1.57985457833582e-07
7.47645093985003e-07
-3.61699916231987e-07
3.92124122637053e-07
1.11902968930615e-08
-4.32767521913961e-07
4.11403445204749e-07
2.164951238852e-08
-5.27942025905348e-07
4.27871764405983e-07
3.04684317678219e-08
-6.24471007865301e-07
4.24847490502197e-07
3.66220694023858e-08
-7.13096660688606e-07
3.93311202597885e-07
3.97029512725231e-08
-8.04386755087591e-07
3.42986618129121e-07
4.11153292508354e-08
-9.1532758882255e-07
2.85072797299072e-07
4.78896849636039e-08
-1.15121974505798e-06
2.24717180719809e-07
1.03117990375433e-07
-3.16219616111624e-06
1.57910186184835e-07
8.69067388831517e-07
-2.75602812188502e-06
8.74862965807538e-08
5.07092217528215e-08
-1.02553013893548e-06
1.32147083712564e-07
9.34464592845238e-09
-3.32125890500049e-06
1.08592208996022e-07
1.18934936248147e-07
-8.24988922964892e-07
1.73001764825238e-07
5.8386222637142e-09
-1.1822448016834e-06
1.65329410629897e-07
1.93019273373308e-08
-3.58264725635728e-06
1.26639571348426e-07
1.96055977736034e-07
-7.43748829485826e-07
2.12964365127007e-07
5.76679576943741e-09
-9.30811132380548e-07
2.14040063427391e-07
1.30834902876046e-08
-1.29267517849311e-06
1.94802207498723e-07
2.85788294208351e-08
-3.84517842604525e-06
1.44024075854633e-07
2.85093015058142e-07
-6.82076353121677e-07
2.52457519857276e-07
6.37777189232028e-09
-8.1806936526898e-07
2.60918299594323e-07
1.18889920365761e-08
-1.02515703280235e-06
2.53571939102011e-07
1.91117473658966e-08
-1.37740282125991e-06
2.20741038803921e-07
3.87759113562341e-08
-3.97373927236772e-06
1.55234580474208e-07
3.86099707573214e-07
-6.20693747316318e-07
2.91550889687733e-07
7.01523758156634e-09
-7.30208925127576e-07
3.05461697056014e-07
1.32090177960652e-08
-8.9226668744619e-07
3.07005076185956e-07
1.87909956999936e-08
-1.08398734815505e-06
2.86035255009701e-07
2.5056662252863e-08
-1.39687434378228e-06
2.3440900887112e-07
5.16238022145535e-08
-3.94335622583185e-06
1.59878581189458e-07
4.96407915023675e-07
-5.56613423674066e-07
3.29964796121952e-07
7.97228115081361e-09
-6.50371268744306e-07
3.47461312995807e-07
1.54522701291784e-08
-7.82272828819049e-07
3.55864882140011e-07
2.14580791784599e-08
-9.31226054227749e-07
3.43246647026042e-07
2.63250281187491e-08
-1.08291467332465e-06
3.0028900677949e-07
3.21367108655139e-08
-1.36278948346764e-06
2.37105793639871e-07
6.71080251460533e-08
-3.80481105825524e-06
1.60637057486563e-07
6.12334100696956e-07
-4.89803557908962e-07
3.67535705761843e-07
9.30542536591475e-09
-5.72960985808875e-07
3.87161940795771e-07
1.83596864436184e-08
-6.84677679859682e-07
4.00566660848282e-07
2.57077802236595e-08
-8.03243270013472e-07
3.93579314261113e-07
3.10083911302979e-08
-9.17753108234511e-07
3.56761782150281e-07
3.43306171749157e-08
-1.04146753352755e-06
2.99834106562522e-07
4.01284933363084e-08
-1.30285980891172e-06
2.34359990968285e-07
8.38260056126066e-08
-3.61937519061056e-06
1.60608057825295e-07
7.3071445252682e-07
-4.19188914120094e-07
4.04375859537265e-07
1.10664400647976e-08
-4.93757284541854e-07
4.2512738754412e-07
2.15863258965034e-08
-5.93141538693018e-07
4.42293284820869e-07
3.06018158808381e-08
-6.92204877590866e-07
4.38993327312331e-07
3.70416639102932e-08
-7.81282198153007e-07
4.05910136021603e-07
4.03924568056138e-08
-8.72890657564688e-07
3.53326886187476e-07
4.18414904058336e-08
-9.86354041212924e-07
2.93042168259325e-07
4.79402414408628e-08
-1.23772492421276e-06
2.30503637686758e-07
1.0069739316406e-07
-3.42574685385016e-06
1.61594139891252e-07
8.49588244610738e-07
-3.42117203419459e-07
4.41352143719688e-07
1.2765209513224e-08
-4.0928463435084e-07
4.62701021096599e-07
2.48943874047598e-08
-5.00248518829434e-07
4.82542595808402e-07
3.54740626441062e-08
-5.89746306222447e-07
4.81673064019007e-07
4.3329428898785e-08
-6.64746759305288e-07
4.50505685716954e-07
4.73955190110219e-08
-7.35706836068699e-07
4.00267126566267e-07
4.80558012213276e-08
-8.20478821169746e-07
3.43416859396999e-07
4.76829929092118e-08
-9.3289189861356e-07
2.85480229559621e-07
5.45990432199909e-08
-1.17726945864051e-06
2.27319049012099e-07
1.17249127942326e-07
-3.24133469456801e-06
1.63214728369846e-07
9.67968895699506e-07
-2.89239740229316e-06
8.66106866966056e-08
4.97532270637976e-08
-1.0780446541408e-06
1.31135825624206e-07
8.86090261041042e-09
-3.4950770102214e-06
1.08051219030995e-07
1.16456695428021e-07
-8.70511043982907e-07
1.72281395429777e-07
5.38726170436635e-09
-1.24754064179089e-06
1.65032745485554e-07
1.81934323805064e-08
-3.78197323750002e-06
1.26628300781954e-07
1.9161981109571e-07
-7.89051652239146e-07
2.12963110259562e-07
5.34093439247366e-09
-9.86213426754281e-07
2.14454865014874e-07
1.21138347851448e-08
-1.36888912962216e-06
1.95447643201513e-07
2.67026005173644e-08
-4.07213010872093e-06
1.44684832442962e-07
2.7831327370467e-07
-7.2870778179103e-07
2.53628085754487e-07
5.96722117032553e-09
-8.71874751392233e-07
2.62669218775569e-07
1.09417639241701e-08
-1.09033703702224e-06
2.55499204237933e-07
1.75646724249828e-08
-1.46349039061944e-06
2.22609827682537e-07
3.60784461800577e-08
-4.22196995036691e-06
1.56615133080069e-07
3.76702004595121e-07
-6.6918305713442e-07
2.94323897795546e-07
6.62239634148339e-09
-7.84358632892566e-07
3.08994957175964e-07
1.24492541630648e-08
-9.55057224328869e-07
3.10794116142968e-07
1.74555347958657e-08
-1.15690293215694e-06
2.89728753310717e-07
2.30381707686005e-08
-1.48859907067435e-06
2.3746217904653e-07
4.82682643231713e-08
-4.20356494085563e-06
1.618668196325e-07
4.84427766166999e-07
-6.07401629980073e-07
3.34767878653784e-07
7.57066211775943e-09
-7.05930645390024e-07
3.53218294935406e-07
1.48165005113526e-08
-8.44598874142696e-07
3.62135544891616e-07
2.04022391262052e-08
-1.00060730577791e-06
3.49399769429645e-07
2.48046130940093e-08
-1.15902982154161e-06
3.05611983672046e-07
2.99657211653434e-08
-1.45588060465746e-06
2.41112396065814e-07
6.34774061031267e-08
-4.06950856537799e-06
1.63015134580395e-07
5.98084816505048e-07
-5.43493107574758e-07
3.74693621634328e-07
8.96032284023101e-09
-6.30847541893347e-07
3.95617002638599e-07
1.77016959214944e-08
-7.48013944476441e-07
4.09746712219202e-07
2.49048812016501e-08
-8.71249539622306e-07
4.02689620182858e-07
3.00183846733771e-08
-9.89096751175843e-07
3.64869709407845e-07
3.30841723773355e-08
-1.11687499689931e-06
3.06321360590788e-07
3.83248638020027e-08
-1.39446474222812e-06
2.38917745943429e-07
8.04242405270575e-08
-3.88455848981156e-06
1.62906344570285e-07
7.14592854117969e-07
-4.76562252845008e-07
4.14170773139651e-07
1.07379334887094e-08
-5.54875970148005e-07
4.36460976768935e-07
2.11237299063782e-08
-6.58805912451361e-07
4.5448379451735e-07
3.01051593509773e-08
-7.60701296962009e-07
4.51163630861312e-07
3.66172448559901e-08
-8.50450629277228e-07
4.16889016984443e-07
4.00456708543e-08
-9.42557844772484e-07
3.62410923363325e-07
4.14161056457647e-08
-1.05880493758324e-06
2.99995963356523e-07
4.69393107211541e-08
-1.32617681501845e-06
2.35186684525446e-07
9.76897130673786e-08
-3.69034703128355e-06
1.63673386424601e-07
8.31627821451729e-07
-4.04112493642156e-07
4.53794322279318e-07
1.25765167352002e-08
-4.74591180113373e-07
4.76844345289392e-07
2.46551710894234e-08
-5.69435616487845e-07
4.97661160006243e-07
3.54040515074023e-08
-6.60459169907732e-07
4.96731009006208e-07
4.35748072575642e-08
-7.33959636042795e-07
4.64139477294805e-07
4.80223066763904e-08
-8.02674257332006e-07
4.11680203518329e-07
4.90021163843057e-08
-8.86686679947303e-07
3.52430988784489e-07
4.86556176738217e-08
-1.00149027496767e-06
2.92247258860892e-07
5.47916363462711e-08
-1.26191743678751e-06
2.32144576178635e-07
1.14790341935259e-07
-3.50589409483618e-06
1.6631007229645e-07
9.47825522439415e-07
-3.22912000019951e-07
4.94766832180541e-07
1.4260009374642e-08
-3.86584583626818e-07
5.17970010827667e-07
2.80566724121437e-08
-4.7415056110787e-07
5.40771545207013e-07
4.04867921329871e-08
-5.59905573685662e-07
5.41196459039851e-07
5.02552822280761e-08
-6.28757234119505e-07
5.09014078614052e-07
5.59847885673619e-08
-6.86039803513688e-07
4.56897875418578e-07
5.73822872778616e-08
-7.49764678593557e-07
3.98960533472411e-07
5.57175919720663e-08
-8.34642606247216e-07
3.41537115692899e-07
5.39254219091655e-08
-9.5104562988648e-07
2.85666372361948e-07
6.13660652200834e-08
-1.20626381970267e-06
2.30790576491252e-07
1.31703284193928e-07
-3.3372330681246e-06
1.70359098526417e-07
1.06218787261873e-06
-3.02673953022395e-06
8.54089856952823e-08
4.89245559179352e-08
-1.12942127081465e-06
1.29578794658579e-07
8.40464096115339e-09
-3.66657636279328e-06
1.07027472022278e-07
1.14212171769274e-07
-9.15074830474429e-07
1.70734151332865e-07
4.96456533163544e-09
-1.31170465813234e-06
1.63932855682894e-07
1.71385336977552e-08
-3.97909171167956e-06
1.26002999869132e-07
1.87559051261868e-07
-8.33506893760918e-07
2.1181786974145e-07
4.9181670014815e-09
-1.0407005776163e-06
2.13736672788237e-07
1.11690400948305e-08
-1.44407677689435e-06
1.95088855262487e-07
2.49161035812701e-08
-4.2971084925456e-06
1.44567792688722e-07
2.72018890249806e-07
-7.74588330250991e-07
2.53308498431383e-07
5.53465634406898e-09
-9.2493498224028e-07
2.62878670919234e-07
9.975693639823e-09
-1.15474932476323e-06
2.55966048831159e-07
1.60062571543948e-08
-1.54879943500332e-06
2.23237731941763e-07
3.3454328622904e-08
-4.46868142955929e-06
1.57112293043142e-07
3.6790375978768e-07
-7.16994258946531e-07
2.95252947468173e-07
6.1857481221656e-09
-8.37903282575809e-07
3.10596635152583e-07
1.15828482627037e-08
-1.01730120458311e-06
3.1268310303099e-07
1.59997459454071e-08
-1.22934077516145e-06
2.91714832146083e-07
2.08958676610018e-08
-1.5799367033726e-06
2.39151659842674e-07
4.48730538818853e-08
-4.46291485158952e-06
1.62965133549798e-07
4.73080162100869e-07
-6.57562756868885e-07
3.37382023677021e-07
7.10247198249498e-09
-7.60996096547098e-07
3.56679507006972e-07
1.40018732791001e-08
-9.06564541976429e-07
3.66096482953938e-07
1.91104043539947e-08
-1.06978548851682e-06
3.53384300498716e-07
2.29749504651609e-08
-1.23509103483351e-06
3.09110691905758e-07
2.74483273546147e-08
-1.54906782200784e-06
2.43746015086995e-07
5.95705255782064e-08
-4.33411880260463e-06
1.64626202690071e-07
5.84402357241272e-07
-5.96599772076906e-07
3.79367302389915e-07
8.50681326023959e-09
-6.88335723057216e-07
4.01462847241011e-07
1.68127007525706e-08
-8.11141726462734e-07
4.16309191577295e-07
2.37687618645856e-08
-9.39287694941392e-07
4.09293962167616e-07
2.85435071474457e-08
-1.06069599615523e-06
3.70793145867551e-07
3.12189684916316e-08
-1.19272329892287e-06
3.11075747964597e-07
3.58467324925551e-08
-1.48670809538099e-06
2.42277040157939e-07
7.64526156008075e-08
-4.15029915432262e-06
1.64836727845474e-07
6.98980853092053e-07
-5.3339423051358e-07
4.212608785831e-07
1.02643557979804e-08
-6.156840428818e-07
4.45030938152945e-07
2.03531502417588e-08
-7.24446358136893e-07
4.6395796117088e-07
2.91290236719799e-08
-8.29456676558393e-07
4.60806556424453e-07
3.5541014814633e-08
-9.20128609656291e-07
4.2568665137198e-07
3.88755345580854e-08
-1.01294582427562e-06
3.69736660676443e-07
4.00522726731903e-08
-1.13221281724154e-06
3.05604559963489e-07
4.50420506777607e-08
-1.41596199050253e-06
2.38952076154073e-07
9.41569540291187e-08
-3.95575594422439e-06
1.65445818441103e-07
8.14544546554435e-07
-4.65604017566878e-07
4.63474362384027e-07
1.21876585851595e-08
-5.39677040928179e-07
4.88276369435042e-07
2.40073401488504e-08
-6.38759696687947e-07
5.10229534425514e-07
3.47007325282239e-08
-7.31652630997434e-07
5.09500514055298e-07
4.29594767108485e-08
-8.03921476003552e-07
4.75881094162981e-07
4.75839289724721e-08
-8.70567065834325e-07
4.21629336279522e-07
4.87160853790176e-08
-9.53949984694192e-07
3.603486275082e-07
4.83224674919825e-08
-1.07135242997388e-06
2.98137967788238e-07
5.38464721895873e-08
-1.34833903078989e-06
2.36014571422524e-07
1.11760501758237e-07
-3.77134933559108e-06
1.67794127473854e-07
9.2927219179551e-07
-3.90120574152916e-07
5.07029177136545e-07
1.39735552577894e-08
-4.57021702682195e-07
5.32227797708501e-07
2.76294138935369e-08
-5.48290791775606e-07
5.56299210753986e-07
4.01562964104016e-08
-6.34930517451392e-07
5.56929587948073e-07
5.02284644299536e-08
-7.00940188061068e-07
5.23499648656374e-07
5.63950003653294e-08
-7.53836115708845e-07
4.69240535697913e-07
5.82544729714744e-08
-8.14178518206709e-07
4.0890239895852e-07
5.69398622399207e-08
-8.98052215749742e-07
3.49167564389378e-07
5.51400223033805e-08
-1.01703808849473e-06
2.91241977658632e-07
6.16824857521953e-08
-1.28912052234118e-06
2.34719504834654e-07
1.29230422936764e-07
-3.60407392886255e-06
1.72826100976188e-07
1.04183096451356e-06
-3.03688381426482e-07
5.53226619226846e-07
1.56610112274517e-08
-3.64129174330348e-07
5.78151950950265e-07
3.10825172871774e-08
-4.48659785174634e-07
6.03638091560762e-07
4.53450126962891e-08
-5.31864714514091e-07
6.04695197666548e-07
5.70686911237672e-08
-5.98356578470241e-07
5.70385368782914e-07
6.47242298762568e-08
-6.50048354852731e-07
5.14882768779997e-07
6.76525913450843e-08
-6.99665392039221e-07
4.53908938300678e-07
6.6401317542944e-08
-7.62546694788356e-07
3.94864300871427e-07
6.27392468573206e-08
-8.49828843824943e-07
3.39168444670445e-07
5.99885689389941e-08
-9.7152000070362e-07
2.86490141603289e-07
6.84717760913858e-08
-1.24051456879393e-06
2.36030786492689e-07
1.46863070267285e-07
-3.45445019527195e-06
1.80149775115781e-07
1.15091916104578e-06
-3.15890760645111e-06
8.39462663093674e-08
4.82208347673743e-08
-1.17957532742434e-06
1.27562851308867e-07
7.99790925922974e-09
-3.83553950259323e-06
1.05668380960974e-07
1.12209525092346e-07
-9.58569459547243e-07
1.6849204838665e-07
4.58048647569487e-09
-1.37459990612423e-06
1.62143260880617e-07
1.61792766244544e-08
-4.1736354854799e-06
1.24840037211304e-07
1.83899730750581e-07
-8.76972130662984e-07
2.09682649874425e-07
4.51617145349693e-09
-1.09410456065532e-06
2.12020942322606e-07
1.02786954472328e-08
-1.51801216404558e-06
1.93804181099833e-07
2.32671690676511e-08
-4.51961227624401e-06
1.43783461087084e-07
2.66270405931165e-07
-8.19540572584e-07
2.51666550434168e-07
5.10302421440231e-09
-9.77037470063929e-07
2.61716626420287e-07
9.03931831160023e-09
-1.21812693996411e-06
2.5513078031948e-07
1.4502682438475e-08
-1.63301189413523e-06
2.22699219153374e-07
3.09923685505871e-08
-4.71326920485815e-06
1.56842985443256e-07
3.59751204801331e-07
-7.63918940417976e-07
2.94500349509412e-07
5.73225958423328e-09
-8.90595322207226e-07
3.10429447756255e-07
1.0674488073124e-08
-1.07869558810764e-06
3.12823505689248e-07
1.45108683833018e-08
-1.30095089534905e-06
2.92103292225508e-07
1.87488794864921e-08
-1.67049018043297e-06
2.39532900355899e-07
4.15844082896975e-08
-4.72074024691234e-06
1.63294040586654e-07
4.62425880285803e-07
-7.06852185528476e-07
3.37936151700575e-07
6.6057618935468e-09
-8.15283811744979e-07
3.57983102618285e-07
1.30856922257529e-08
-9.67839011105414e-07
3.67855634231457e-07
1.76829442478395e-08
-1.1383730532095e-06
3.55314702540587e-07
2.09847789567413e-08
-1.31066922691962e-06
3.1085775160765e-07
2.47651837493482e-08
-1.64190227885795e-06
2.45051656600626e-07
5.56167274920446e-08
-4.59792545087432e-06
1.65501314148313e-07
5.71380972980373e-07
-6.48829654713644e-07
3.81624051717982e-07
7.9874452642166e-09
-7.45085362872943e-07
4.04752006268137e-07
1.57781752625328e-08
-8.73703255021293e-07
4.20260447958918e-07
2.2397621064559e-08
-1.00694118556357e-06
4.13399365605523e-07
2.67463035381616e-08
-1.13209337980012e-06
3.74529427554083e-07
2.89499001441125e-08
-1.26852641250422e-06
3.14069956847403e-07
3.29240644469779e-08
-1.57906967890638e-06
2.44393927039225e-07
7.21611443636186e-08
-4.41595777367283e-06
1.66134473385867e-07
6.83916297286097e-07
-5.89327734584104e-07
4.25608021231632e-07
9.69241438524187e-09
-6.75795512774899e-07
4.50718291994088e-07
1.93615278483621e-08
-7.89628068681563e-07
4.70501396330006e-07
2.78003771063768e-08
-8.98002874623286e-07
4.67633923441597e-07
3.39725364894254e-08
-9.8984432581971e-07
4.31981929766181e-07
3.70672503465379e-08
-1.08357541438497e-06
3.74986866962901e-07
3.79333934509023e-08
-1.20603914072451e-06
3.09597704509504e-07
4.23489815422092e-08
-1.50635065365552e-06
2.41666881037305e-07
9.00062370737063e-08
-4.2216337451309e-06
1.66922572865575e-07
7.97925884903365e-07
-5.26165271351306e-07
4.70170398539684e-07
1.16514485833261e-08
-6.04088857280477e-07
4.96649795586596e-07
2.30561583102758e-08
-7.07726809654665e-07
5.19761530819578e-07
3.3515270229541e-08
-8.02816157708223e-07
5.19418079895035e-07
4.16786433648703e-08
-8.74143356545022e-07
4.85140744745974e-07
4.63058053776974e-08
-9.38941715727295e-07
4.29543449154781e-07
4.74390452770729e-08
-1.02187421450751e-06
3.66663098688739e-07
4.6913275685538e-08
-1.14209449664955e-06
3.02806773531721e-07
5.19251724882554e-08
-1.43598863267914e-06
2.39022932500311e-07
1.08222081975114e-07
-4.03743222137518e-06
1.69024098820091e-07
9.11594478676504e-07
-4.56351369089343e-07
5.16217038344463e-07
1.34878555128267e-08
-5.26794911814914e-07
5.4344477305357e-07
2.67917569387754e-08
-6.22168741483018e-07
5.68931611405769e-07
3.9181925290273e-08
-7.10094162979857e-07
5.70037640561575e-07
4.93257755310179e-08
-7.7360345866182e-07
5.35785860854214e-07
5.57152828415164e-08
-8.22344439810587e-07
4.79862224846445e-07
5.78558464302106e-08
-8.79436631133697e-07
4.17559996412619e-07
5.67579888636096e-08
-9.62387314500983e-07
3.55862521600455e-07
5.49283409775419e-08
-1.08410632078751e-06
2.96087871817681e-07
6.08375251458902e-08
-1.37357215506181e-06
2.37754055151888e-07
1.26242852604854e-07
-3.87163028879214e-06
1.73687381732162e-07
1.02312525294267e-06
-3.767662053759e-07
5.6484735615742e-07
1.52594940337363e-08
-4.40473962966349e-07
5.92113047982692e-07
3.0432506989901e-08
-5.28656387599505e-07
6.19218762896661e-07
4.47055487371368e-08
-6.12270451958799e-07
6.20804265970317e-07
5.66859681775847e-08
-6.74919621549859e-07
5.85495957656745e-07
6.47934440703325e-08
-7.2067765911816e-07
5.27994540274464e-07
6.82672868022921e-08
-7.64715862671275e-07
4.64668010752288e-07
6.7535780149071e-08
-8.23954845202668e-07
4.03283649587423e-07
6.42279757870617e-08
-9.10294720518727e-07
3.45430294389388e-07
6.14132305418655e-08
-1.03491402499382e-06
2.90907271860802e-07
6.88840093011166e-08
-1.32188697043121e-06
2.39047490137136e-07
1.44376989099297e-07
-3.72534630439561e-06
1.81922901402866e-07
1.13079288410992e-06
-2.84418907293886e-07
6.17544457516003e-07
1.69594781545344e-08
-3.41633249005816e-07
6.44160744581343e-07
3.39466976967751e-08
-4.2322510517376e-07
6.72181085509369e-07
4.99991124365771e-08
-5.04364606891484e-07
6.73314631325746e-07
6.36545735520435e-08
-5.69843940596934e-07
6.35876316848406e-07
7.32707719649258e-08
-6.20074020883319e-07
5.75712465604929e-07
7.80535886782645e-08
-6.6403759592215e-07
5.10195343985102e-07
7.81280805133327e-08
-7.12190889559233e-07
4.47628910224191e-07
7.45224378612196e-08
-7.76384743396777e-07
3.89986772543099e-07
6.92973440119012e-08
-8.6708915579529e-07
3.37173434786565e-07
6.61677065256275e-08
-9.95624661513005e-07
2.88826080388299e-07
7.63528666410128e-08
-1.28190040925553e-06
2.44079712212503e-07
1.63095780621562e-07
-3.59415809475709e-06
1.93794728029492e-07
1.23245660534819e-06
-3.28879680484946e-06
8.232354967009e-08
4.75601422716684e-08
-1.22847576866111e-06