/*--------------------------------*- C++ -*----------------------------------*\
  =========                 |
  \\      /  F ield         | OpenFOAM: The Open Source CFD Toolbox
   \\    /   O peration     | Website:  https://openfoam.org
    \\  /    A nd           | Version:  12
     \\/     M anipulation  |
\*---------------------------------------------------------------------------*/
/*   Windows 32 and 64 bit porting by blueCAPE: http://www.bluecape.com.pt   *\
|  Based on Windows porting (2.0.x v4) by Symscape: http://www.symscape.com   |
\*---------------------------------------------------------------------------*/
FoamFile
{
    format      ascii;
    class       volVectorField;
    location    "100";
    object      U;
}
// * * * * * * * * * * * * * * * * * * * * * * * * * * * * * * * * * * * * * //

dimensions      [0 1 -1 0 0 0 0];

internalField   nonuniform List<vector> 
10116
(
(-2.59326744149194e-07 0.000316547740935863 2.03086869936811e-05)
(-3.4201341730185e-07 0.000344631231821575 2.1312864976447e-05)
(-5.85503275813928e-07 0.000254436792210409 3.6886806737591e-05)
(-9.27010604871636e-07 0.000323908978458665 2.09863400406179e-05)
(-4.45776647831783e-07 0.000374054269710512 2.22133337552971e-05)
(-5.88728847866331e-07 0.000276698468013109 3.85981684561012e-05)
(-1.23397472251167e-06 0.00035166486330422 2.17987414816612e-05)
(-1.98515740477217e-07 0.000247036774636652 5.80294956967416e-05)
(-2.65488980297576e-06 0.000248642680913925 3.74281609817016e-05)
(-2.14802795130793e-06 0.000326629093478562 2.19205771523519e-05)
(-5.75105803124813e-07 0.000404284458678852 2.29456147154432e-05)
(-6.16956885345586e-07 0.000300013848947192 4.01259080587936e-05)
(-1.57378895248648e-06 0.000381164591976256 2.25288865861277e-05)
(-1.83843548310448e-07 0.00026957781779334 6.05219718383437e-05)
(-2.6761121660514e-06 0.000269651470748242 3.89022667262939e-05)
(-2.7121140752019e-06 0.00035383628129377 2.25926409155936e-05)
(1.00579678560546e-07 0.000238862531137351 8.04781545682853e-05)
(-6.70755592445076e-07 0.000246444631210377 5.90902920358349e-05)
(-5.48356555828653e-06 0.000249020347578499 3.85157804449383e-05)
(-3.0262180827426e-06 0.000335288545855551 2.25376232524009e-05)
(-7.15256277868487e-07 0.000434931815326877 2.34883707789691e-05)
(-6.76983923849644e-07 0.000323964576807509 4.1365728589516e-05)
(-1.97073127893945e-06 0.000411632681191869 2.31715516781524e-05)
(-1.99911882369324e-07 0.000292970550023365 6.27168989000412e-05)
(-2.76028675807361e-06 0.000292007468795513 4.0260674644746e-05)
(-3.31569595169186e-06 0.000383005595569275 2.31993112747373e-05)
(1.20135405808154e-07 0.000262013990999496 8.37224869024661e-05)
(-6.01653066320168e-07 0.000268458184992478 6.12981669309309e-05)
(-5.54605891383139e-06 0.000269347140328083 3.97875326016879e-05)
(-3.81173214913486e-06 0.00036243328498856 2.31055818653502e-05)
(4.56123202753774e-07 0.000230828644350875 0.000103101540008006)
(6.2985252461025e-07 0.000239651177862255 8.18342601079439e-05)
(-1.71663636032014e-06 0.000248156420838407 6.0462857805616e-05)
(-8.58395986411786e-06 0.000252390971021677 3.94900191976398e-05)
(-4.23343655084801e-06 0.000344141921120488 2.27085653052909e-05)
(-8.52003813868236e-07 0.000465730474470079 2.38312229358075e-05)
(-7.5877659762735e-07 0.00034824476395605 4.22786352919395e-05)
(-2.40200550606751e-06 0.000442512660485177 2.36565387539819e-05)
(-2.45477960007635e-07 0.000316892551209585 6.44865134456793e-05)
(-2.9292155816999e-06 0.000315157792182929 4.1404640557888e-05)
(-3.992834857726e-06 0.000413219267379775 2.37664875971416e-05)
(1.0583354538767e-07 0.000285905228753114 8.65486191121942e-05)
(-6.23035042004658e-07 0.000291493843293435 6.33000970063232e-05)
(-5.72532634496223e-06 0.000291190926117565 4.09869537228321e-05)
(-4.65510368236401e-06 0.000391594242831489 2.36197776288614e-05)
(4.83827595945662e-07 0.000255009413662098 0.000107007952210708)
(7.45172114440748e-07 0.000262520881738146 8.47430175377131e-05)
(-1.59987490167699e-06 0.000269733468856792 6.240710162631e-05)
(-8.64167770801534e-06 0.000272216119378037 4.05743366529768e-05)
(-5.18606702314915e-06 0.000371034940414761 2.31654622373355e-05)
(8.24897757598073e-07 0.000222784234641721 0.000126137710667017)
(1.76780464774166e-06 0.000231992801639597 0.000104557537352163)
(7.972710013551e-07 0.000241695617486969 8.33820457204907e-05)
(-2.95533618596759e-06 0.000251478570780849 6.16071274543635e-05)
(-1.22500222063957e-05 0.000256263751167539 3.98100446718129e-05)
(-5.91420869715407e-06 0.000352301770925201 2.25967712091999e-05)
(-9.81081746611879e-07 0.000496437959319182 2.39915249974184e-05)
(-8.49999244885497e-07 0.000372624495071531 4.28570558489869e-05)
(-2.82899073761313e-06 0.000473521750532859 2.39608434510829e-05)
(-3.1155229497649e-07 0.000341088749878343 6.57720107275229e-05)
(-3.16232023021185e-06 0.00033864753998559 4.22538135367241e-05)
(-4.72007407929535e-06 0.00044383324822944 2.42084926175369e-05)
(6.30264621985681e-08 0.000310256613453233 8.88044856968845e-05)
(-7.34982751198052e-07 0.000315139269055901 6.49461880554895e-05)
(-6.02929313743235e-06 0.000313919028961964 4.20255356934727e-05)
(-5.59137024665688e-06 0.000421838600813103 2.41279194792178e-05)
(4.74993464770953e-07 0.000279845164410469 0.000110376458702033)
(7.54210065694762e-07 0.000286214449392453 8.73439427763278e-05)
(-1.64454851459727e-06 0.000292435896787552 6.4210623428096e-05)
(-8.88025115876546e-06 0.000293598513101615 4.16212497693807e-05)
(-6.22626311662081e-06 0.000399924178092947 2.35889350479099e-05)
(8.55370718971021e-07 0.000248407663320409 0.000130641970545382)
(1.90909243200419e-06 0.000255950022832423 0.000108085437406484)
(1.01385079146229e-06 0.000264225768204183 8.59565837718195e-05)
(-2.75297074151779e-06 0.00027258072992459 6.32857670610017e-05)
(-1.22576313382413e-05 0.000275425294681808 4.06830855600365e-05)
(-6.98555698057339e-06 0.000378664184035884 2.29259038399481e-05)
(1.19389620365987e-06 0.000214498525223083 0.000149763907025577)
(2.78752151290521e-06 0.00022414053743545 0.000127428179531937)
(2.91686130834032e-06 0.000234109261645897 0.000106023197539721)
(8.45041807354475e-07 0.000244944100473847 8.44970501884085e-05)
(-4.57107952378656e-06 0.000255250461719588 6.18005741867224e-05)
(-1.64168967390118e-05 0.000260411595993502 3.9449307059366e-05)
(-8.11185112748779e-06 0.000359771252142237 2.22899762831544e-05)
(-1.09988498917849e-06 0.0005268553479293 2.3997832616621e-05)
(-9.44084215900785e-07 0.000396897046299968 4.31265272919879e-05)
(-3.23611274261978e-06 0.000504417582271141 2.41049306733138e-05)
(-3.88700109577364e-07 0.000365351041568857 6.65649838121064e-05)
(-3.4287242341902e-06 0.000362229652703205 4.27952540180624e-05)
(-5.44842757640666e-06 0.000474561464046977 2.45002994817665e-05)
(-2.11250786545432e-10 0.000334830027166724 9.04202217865913e-05)
(-9.14069283629927e-07 0.00033906465522733 6.61451076231223e-05)
(-6.43612201043586e-06 0.000336983468209347 4.2803324681184e-05)
(-6.60784169591175e-06 0.000452471357407874 2.45196065155619e-05)
(4.37598704776557e-07 0.000305071945972028 0.000113035222501342)
(6.68133720960655e-07 0.000310408928461066 8.94520692580954e-05)
(-1.83809562805173e-06 0.000315796322822544 6.57151625976644e-05)
(-9.28786951972796e-06 0.000315908338189179 4.25496314177372e-05)
(-7.38355328133037e-06 0.000429891127192035 2.40401023273627e-05)
(8.47995388280784e-07 0.000274604916104804 0.000134475681739429)
(1.93532743132761e-06 0.000280610416030245 0.000111196454498854)
(1.04169512956656e-06 0.000287636236414181 8.83031189302981e-05)
(-2.79223042494088e-06 0.000294839522345481 6.48755738467406e-05)
(-1.25151179598594e-05 0.000296123855639217 4.15533174138036e-05)
(-8.17019588151841e-06 0.000406973423427357 2.32680545289734e-05)
(1.22242925590372e-06 0.000241947720613858 0.000154805483143401)
(2.92895858490678e-06 0.000249519243565821 0.000131517120790443)
(3.17945481643689e-06 0.000257728077391417 0.000109169290865387)
(1.18723730632031e-06 0.000267003120885633 8.67413767118545e-05)
(-4.25320475672312e-06 0.000275677302263173 6.31761494525133e-05)
(-1.63394866253534e-05 0.000278732327462563 4.01006835251983e-05)
(-9.25496754423593e-06 0.000385374177210754 2.24811037232738e-05)
(1.54749865538879e-06 0.000205775462626537 0.000174263102390912)
(3.75832578184115e-06 0.000216017548159111 0.000150731125973878)
(4.79491680630696e-06 0.000226325530621971 0.000128599652203258)
(3.99453964087972e-06 0.000237282316098865 0.000106900970131846)
(6.39603984615157e-07 0.000248637119932759 8.43800698217579e-05)
(-6.54435738303111e-06 0.000259267211869433 6.10170737871546e-05)
(-2.09049379214996e-05 0.000264792172208937 3.85203241735148e-05)
(-1.06984416070929e-05 0.000367010580916648 2.1645088435386e-05)
(-1.2078511567092e-06 0.000556822954504504 2.38593001535205e-05)
(-1.03714980386211e-06 0.000420890219278383 4.31228611951229e-05)
(-3.61045887634565e-06 0.000535005792443849 2.41191737449912e-05)
(-4.70154056436223e-07 0.000389490429891171 6.68868564631562e-05)
(-3.70383483182552e-06 0.000385699887926104 4.30381460614871e-05)
(-6.14884126788297e-06 0.000505181544540451 2.4631822268637e-05)
(-7.54914553922113e-08 0.000359425231045997 9.13823737663323e-05)
(-1.1318560539946e-06 0.000363052871351836 6.68765374150519e-05)
(-6.89621454395006e-06 0.000360133333276514 4.32951346688747e-05)
(-7.64484297703765e-06 0.00048319950227492 2.47808818728619e-05)
(3.78348083617667e-07 0.000330458142930775 0.000114909699350038)
(5.1191609749235e-07 0.000334828478169259 9.09616064871971e-05)
(-2.14728141095746e-06 0.000339432293032823 6.68110733731683e-05)
(-9.84361932236667e-06 0.00033854625098301 4.32405132559618e-05)
(-8.65924331917832e-06 0.00046023014557853 2.44056389743401e-05)
(8.11433965032004e-07 0.000301110230841556 0.000137455370006402)
(1.86001931313257e-06 0.000305686483087672 0.000113677405636148)
(9.08234531476964e-07 0.000311570709936173 9.02182998269481e-05)
(-3.04229239073282e-06 0.000317778924055165 6.62170635405223e-05)
(-1.2987810102526e-05 0.00031775749869846 4.23494906278538e-05)
(-9.51327623502698e-06 0.000436335840503654 2.36826608936889e-05)
(1.21162311678645e-06 0.000269875764116085 0.000159033794887146)
(2.94991459234003e-06 0.000275505840622511 0.000135064039455352)
(3.23776262488489e-06 0.000282091126859302 0.000111987000954179)
(1.2486842504106e-06 0.000289956298957013 8.882202065214e-05)
(-4.25927095946503e-06 0.000297247291450933 6.45129794153143e-05)
(-1.65748375526672e-05 0.000298544476483512 4.07825210468084e-05)
(-1.05240075704768e-05 0.000412865344983903 2.2711027220391e-05)
(1.57015810570901e-06 0.00023540674824918 0.000179755011017754)
(3.88579793017108e-06 0.000243164969232892 0.000155311989300102)
(5.06609477654361e-06 0.000251323864417344 0.00013225585378293)
(4.39818646008723e-06 0.000260394728593427 0.000109651674320837)
(1.14103433472371e-06 0.000269996093403355 8.62447878195105e-05)
(-6.08642131894831e-06 0.000278828099694257 6.2073124472863e-05)
(-2.07281448779995e-05 0.000282134657595675 3.89512009372991e-05)
(-1.18706122813612e-05 0.000391678081659917 2.16783895306323e-05)
(1.85631926474193e-06 0.000196441688036611 0.000200024630976649)
(4.70378101077605e-06 0.00020743892604361 0.000174878486636833)
(6.5161999850901e-06 0.000218299972742632 0.000151531467129871)
(6.79208253709712e-06 0.000229485886047108 0.000129101871604093)
(4.90331480379933e-06 0.000240926752897263 0.000106352798403889)
(1.18786889154164e-07 0.000252559872158955 8.30301292100775e-05)
(-8.77929800427618e-06 0.000263441835200739 5.94145202623603e-05)
(-2.55238273097874e-05 0.000269415924970562 3.70825543307326e-05)
(-1.3402318149843e-05 0.000374602050625021 2.06344411052334e-05)
(-1.31133312670035e-06 0.00058620263092347 2.35886348771682e-05)
(-1.1227305181798e-06 0.000444459627159308 4.28564619853367e-05)
(-3.95199305912715e-06 0.000565129810040439 2.39818639226776e-05)
(-5.50383103986374e-07 0.000413345687970676 6.67800667384517e-05)
(-3.97144526097843e-06 0.000408896282849785 4.30106388784869e-05)
(-6.80669466267419e-06 0.000535499647123646 2.46050968803184e-05)
(-1.56268510393334e-07 0.000383864501640967 9.17153618564071e-05)
(-1.36557877330715e-06 0.000386916369142392 6.71543770135456e-05)
(-7.36988565227579e-06 0.000383173575368736 4.34973753571009e-05)
(-8.65828503934838e-06 0.000513814621984026 2.48963772078529e-05)
(3.05782943985967e-07 0.000355805558233158 0.000115988986366412)
(3.10754403712173e-07 0.000359268235960609 9.18461400796526e-05)
(-2.52431938751333e-06 0.000363124993312702 6.74697844230722e-05)
(-1.04840644694377e-05 0.000361258521675296 4.36662668652552e-05)
(-9.98929393284742e-06 0.000490651576246594 2.46515095677181e-05)
(7.53463135182209e-07 0.00032769023784227 0.000139509755339711)
(1.7118510671322e-06 0.000330925569864893 0.000115417049479604)
(6.53357287868835e-07 0.000335724608729621 9.1584983362086e-05)
(-3.46251769016013e-06 0.000340984689168704 6.71831943622414e-05)
(-1.36576223838141e-05 0.000339702241968084 4.29383891866306e-05)
(-1.10201930821343e-05 0.000466046339619783 2.40163117327397e-05)
(1.16936279514249e-06 0.000298007161953334 0.000162259724599443)
(2.868461376599e-06 0.000301818367147983 0.000137840108038296)
(3.12315866223941e-06 0.000306884080475694 0.000114243660265051)
(1.07792618865577e-06 0.000313443257887375 9.05283912318397e-05)
(-4.5385980681367e-06 0.000319492993664785 6.56551465733427e-05)
(-1.70731638079553e-05 0.000319270190452089 4.14267463372079e-05)
(-1.19926621629211e-05 0.000441360719587432 2.30282302745702e-05)
(1.55254162601839e-06 0.000265396793747576 0.00018428361101373)
(3.88813511087829e-06 0.000270818097809091 0.000159219688538478)
(5.12098990976656e-06 0.000276958466076635 0.000135478312600396)
(4.49780459220039e-06 0.000284253709952522 0.000112153161742335)
(1.26601655311666e-06 0.000292232573018332 8.80074508195366e-05)
(-6.02846581954805e-06 0.000299495271174462 6.31361112760516e-05)
(-2.09109088089019e-05 0.000300907595764881 3.94403440680133e-05)
(-1.31529492742954e-05 0.000418182648511974 2.17748828487158e-05)
(1.87644766977181e-06 0.000228602199988733 0.000205865390864499)
(4.80961944023524e-06 0.00023669986104073 0.000179873502435663)
(6.77362747243206e-06 0.000244999256698733 0.000155633106321087)
(7.21369258889319e-06 0.000253913839609843 0.000132306951850137)
(5.48839882687706e-06 0.000263286166207964 0.000108659140839527)
(7.99468378230649e-07 0.000273014853845524 8.4493989646674e-05)
(-8.17240756919528e-06 0.000281991360939159 6.0155063897938e-05)
(-2.52519674312394e-05 0.00028567942705532 3.72928580911387e-05)
(-1.45610739481453e-05 0.000398222181434176 2.05074484759705e-05)
(2.13878322788897e-06 0.000186373667190072 0.000227496386710138)
(5.59249120009406e-06 0.000198248911542584 0.000200321005751412)
(8.1291340498297e-06 0.000209849356101075 0.000175305140212797)
(9.34881875758578e-06 0.000221512899142723 0.000151606377025261)
(8.65709406258978e-06 0.000233157925863744 0.000128051710941822)
(5.50692710724911e-06 0.000244817420839982 0.000104388542314155)
(-6.86521913710638e-07 0.000256614191783337 8.06409597208384e-05)
(-1.11736975398451e-05 0.000267790114861727 5.71259821634928e-05)
(-3.01008314320876e-05 0.000274368485456635 3.51722404650458e-05)
(-1.59762244485089e-05 0.000383062169663816 1.93795809004915e-05)
(-1.4047265039534e-06 0.000614876940118012 2.32035490327616e-05)
(-1.19859683805119e-06 0.000467489802320267 4.23540445571026e-05)
(-4.26395266730738e-06 0.000594642337256257 2.36970195198776e-05)
(-6.25727425611938e-07 0.000436782300383685 6.62945371830055e-05)
(-4.22238561523745e-06 0.000431679096481198 4.27315223144339e-05)
(-7.41105225992004e-06 0.000565350898782704 2.44411043999336e-05)
(-2.37113996546937e-07 0.000407997637078737 9.14748535593626e-05)
(-1.5995057431493e-06 0.000410496943823103 6.7014954792462e-05)
(-7.8289161009481e-06 0.000405938312768263 4.34214134483369e-05)
(-9.61982694853502e-06 0.000544131281213405 2.48641371459234e-05)
(2.26157925914266e-07 0.000380942587821114 0.000116302568132178)
(8.58263605379364e-08 0.000383552384095743 9.21219739027872e-05)
(-2.93013457052419e-06 0.000386694074853484 6.76986879507163e-05)
(-1.11554283532838e-05 0.000383859669836042 4.38261136724775e-05)
(-1.13000547315468e-05 0.000520951488263472 2.47524210988058e-05)
(6.82010128140094e-07 0.000354148799380341 0.000140630568141476)
(1.51333951753832e-06 0.000356125225552387 0.000116392934360464)
(3.18776400000915e-07 0.000359895212353797 9.23684501365479e-05)
(-3.98876272711168e-06 0.000364237426439997 6.77420810277591e-05)
(-1.44505026517332e-05 0.000361708345765736 4.32766858256034e-05)
(-1.25871563470985e-05 0.000495805040443178 2.41952642493293e-05)
(1.1046005229869e-06 0.000326104496819292 0.000164411384743081)
(2.71334491272417e-06 0.000328212518348603 0.000139734904978128)
(2.88256525340281e-06 0.000331833771039809 0.000115809337487612)
(7.25077119524905e-07 0.000337145431877394 9.17183111492065e-05)
(-5.04235280868483e-06 0.000341989643805492 6.64631941997395e-05)
(-1.78254799745799e-05 0.000340278819202754 4.18837197261158e-05)
(-1.36399880045864e-05 0.000470119980990596 2.32448211689446e-05)
(1.50220398250664e-06 0.000295456014387954 0.000187658247198415)
(3.78817527788148e-06 0.000298690293538877 0.000162217020252594)
(4.99677758273861e-06 0.000302930732474315 0.000138015285528218)
(4.35415756801405e-06 0.000308545994482019 0.000114163462528955)
(1.0834635048934e-06 0.0003149944673255 8.94595152963754e-05)
(-6.30580000394099e-06 0.000320812714164232 6.40524104442385e-05)
(-2.14031270758696e-05 0.000320550841239984 3.99010499667163e-05)
(-1.46574636165029e-05 0.000445614820650325 2.19391330621099e-05)
(1.85172681524867e-06 0.000260959744635044 0.000210581892208485)
(4.78543520109759e-06 0.00026633859154109 0.000184054562089388)
(6.80399489257664e-06 0.000272224013526374 0.000159182483418787)
(7.3138140700427e-06 0.000278979188770631 0.000135166286840588)
(5.66587739144561e-06 0.000286375601766777 0.00011078763885793)
(1.01371842354445e-06 0.000294312998561677 8.59118085869273e-05)
(-8.03084235363023e-06 0.000301592843891336 6.09416077749075e-05)
(-2.5365987380814e-05 0.000303306853632227 3.75945198249259e-05)
(-1.58359532110624e-05 0.000423656209171484 2.0514984178153e-05)
(2.14821337459264e-06 0.000221404363821189 0.000233554994083431)
(5.67777896128545e-06 0.000229961344739834 0.000205628531190819)
(8.35615816277717e-06 0.000238579230813097 0.000179778918465969)
(9.7587091516501e-06 0.000247559004690105 0.000155210253582143)
(9.26883795854832e-06 0.000256758487153656 0.000130759273551603)
(6.29164267743405e-06 0.000266212021854558 0.000106230951982664)
(1.7703275773597e-07 0.000276012813821619 8.17083745857171e-05)
(-1.04272804917551e-05 0.000285227100697889 5.7564020923891e-05)
(-2.97419521370119e-05 0.00028948754310553 3.51906222893775e-05)
(-1.71475067372225e-05 0.000405634725693017 1.91441209443828e-05)
(2.40175113736354e-06 0.00017553987483523 0.000257165351054696)
(6.43561667192814e-06 0.000188347991715922 0.000227516779329248)
(9.66153882279806e-06 0.000200821369996874 0.000200383300370553)
(1.17225378039725e-05 0.000213180988679437 0.000174936391965964)
(1.20598479846358e-05 0.00022529446882204 0.000150023417744792)
(1.02065849739779e-05 0.000237113416818463 0.000125447814804101)
(5.78175330983665e-06 0.00024884702967601 0.000101212442168176)
(-1.71894052266789e-06 0.00026081512809793 7.73809699984116e-05)
(-1.3635992934472e-05 0.00027241716282508 5.42508410420975e-05)
(-3.44702995323517e-05 0.000279818328092488 3.29073338808958e-05)
(-1.82842349075531e-05 0.000392870067045239 1.79756151486144e-05)
(-1.45716863833022e-06 0.000642775042040141 2.27277407491354e-05)
(-1.26977521095773e-06 0.000489898452322312 4.16586049613713e-05)
(-4.52113472360474e-06 0.000623389962408285 2.32760004212306e-05)
(-6.91903798728351e-07 0.000459696947739203 6.54817868142887e-05)
(-4.45023129375372e-06 0.00045392204865427 4.22053429490732e-05)
(-7.90837176542366e-06 0.000594583320737199 2.41513781826781e-05)
(-3.14037914602534e-07 0.00043170140089537 9.07278644648988e-05)
(-1.8212782204557e-06 0.000433662635027001 6.65062278866068e-05)
(-8.25572581380331e-06 0.000428286357532298 4.31083790497899e-05)
(-1.04689142048165e-05 0.000573967406624641 2.46797853575136e-05)
(1.44754040311881e-07 0.000405727771694623 0.00011591117185762)
(-1.45242001607078e-07 0.000407532659184645 9.18396883397653e-05)
(-3.33650625740364e-06 0.000409985150262725 6.75262028736414e-05)
(-1.18145044953045e-05 0.000406186281593026 4.37185858349382e-05)
(-1.25019912958389e-05 0.000550920667535134 2.46939633356456e-05)
(6.0287970226307e-07 0.00038032013577486 0.000140854302430508)
(1.28499263367349e-06 0.000381117110818416 0.000116627052956035)
(-5.91989787145583e-08 0.00038391172490802 9.25768924520227e-05)
(-4.56599776237159e-06 0.000387365788984356 6.78990231065396e-05)
(-1.5296296978347e-05 0.000383597629217343 4.33468384886353e-05)
(-1.40917086674283e-05 0.000525380810718829 2.42093383236803e-05)
(1.02617807102158e-06 0.000353972808317048 0.000165488583654098)
(2.50809702422965e-06 0.000354489675346144 0.000140731832203418)
(2.55465301041714e-06 0.000356745140287248 0.000116655321692369)
(2.52518034551464e-07 0.000360861502750908 9.23633036264723e-05)
(-5.69279172860535e-06 0.000364526971920017 6.68955296760411e-05)
(-1.87397650531846e-05 0.0003613288871675 4.20823358595894e-05)
(-1.53353972258296e-05 0.000498861659171913 2.32986898796255e-05)
(1.42796977139204e-06 0.000325343867425946 0.000189811533347731)
(3.61244052489448e-06 0.000326537047020707 0.000164195444514503)
(4.74033583761518e-06 0.000328983691618066 0.000139726733520133)
(4.0209013921407e-06 0.000332995477399757 0.000115531392667719)
(6.56617828707562e-07 0.000337961247952436 9.04472871559277e-05)
(-6.86740292514079e-06 0.000342359129922046 6.46739641775462e-05)
(-2.21975911663267e-05 0.000340436526990899 4.01754041989247e-05)
(-1.6353143056719e-05 0.000473223332125072 2.20397731489272e-05)
(1.79213403451413e-06 0.000293219150495636 0.000213987532485358)
(4.65633804762394e-06 0.000296063570724381 0.000187182743041899)
(6.65233242157675e-06 0.000299679760358402 0.000161915659277246)
(7.15878298551345e-06 0.000304386071498449 0.000137416398993685)
(5.51545876656079e-06 0.000309891874278788 0.000112494922419776)
(8.46494185493493e-07 0.00031611409807924 8.70763724156042e-05)
(-8.28194555003425e-06 0.000321806293232175 6.16188305758824e-05)
(-2.58167042897237e-05 0.000321748426582663 3.78646050346911e-05)
(-1.73247654971555e-05 0.000449968285819713 2.05900845384364e-05)
(2.10996485467876e-06 0.000256428484117252 0.000238316955157995)
(5.62403070115111e-06 0.000261893509815859 0.000209971456630148)
(8.34549898456965e-06 0.000267706827074646 0.000183570349332448)
(9.83107392740753e-06 0.000274135397436018 0.000158359136209922)
(9.45026316407794e-06 0.000280984581584231 0.000133199997196046)
(6.5708284238341e-06 0.00028830741184588 0.000107959654164293)
(4.95249381881772e-07 0.000296207194851599 8.27788816679748e-05)
(-1.01966121390198e-05 0.000303650544401774 5.80851024497638e-05)
(-2.97859623522779e-05 0.000305903471801913 3.53594057815856e-05)
(-1.84331045987465e-05 0.000430002037468893 1.90589290159352e-05)
(2.39699780680941e-06 0.000213784941064738 0.00026326397480617)
(6.48776484225842e-06 0.000222854011632202 0.000233004982803341)
(9.84373076255476e-06 0.00023191524698262 0.000205133344948856)
(1.20965512510023e-05 0.000241162785430323 0.000178871504009186)
(1.26602811239833e-05 0.000250422981560171 0.000153085893008139)
(1.10268244167477e-05 0.000259671163274069 0.000127641771621151)
(6.76760707804142e-06 0.000269121329107962 0.000102598041598125)
(-6.84157079143285e-07 0.000279051750712191 7.80686808742823e-05)
(-1.27732708774334e-05 0.000288678065026558 5.44086798591818e-05)
(-3.40571942285919e-05 0.000293759778760542 3.27879455147937e-05)
(-1.95433104645952e-05 0.000414429718176379 1.76344862523876e-05)
(2.64836043804362e-06 0.000164015159824104 0.000289507808150088)
(7.23230840510418e-06 0.000177716082203822 0.000256913415360959)
(1.11106277573393e-05 0.000191127725234791 0.000227209366172767)
(1.39464911080455e-05 0.000204343985362031 0.000199556545766865)
(1.51944903234768e-05 0.000217159220421853 0.00017279639406277)
(1.4430611709108e-05 0.00022941677983966 0.000146761581454297)
(1.13733424991959e-05 0.000241235273706706 0.000121489845555029)
(5.75288990846245e-06 0.000253020348464971 9.70139990022123e-05)
(-2.91889554143941e-06 0.00026525886678327 7.3381406989785e-05)
(-1.60691158797215e-05 0.000277486287863233 5.08990102224415e-05)
(-3.84992903904079e-05 0.000285992442629397 3.03866431839219e-05)
(-2.02813193126072e-05 0.000404451342969459 1.63031481224822e-05)
(-1.46449409614998e-06 0.000669870511546979 2.2173009700382e-05)
(-1.33020193213475e-06 0.000511627289097333 4.07931596769772e-05)
(-4.67271321269308e-06 0.000651321500708803 2.27784617133404e-05)
(-7.47113460849064e-07 0.000482021971724259 6.43986610446809e-05)
(-4.6487282460513e-06 0.000475545893422844 4.14728968097273e-05)
(-8.25492171350991e-06 0.000623054782017022 2.37314329899395e-05)
(-3.83393670964031e-07 0.000454879870204763 8.95453572302366e-05)
(-2.02106162730303e-06 0.000456311584134902 6.56744862470989e-05)
(-8.63817817128235e-06 0.000450104673606475 4.25562768828459e-05)
(-1.11346536454571e-05 0.000603154333953753 2.43665683639123e-05)
(6.57501747065192e-08 0.000430046751447717 0.000114894902671258)
(-3.68574082531243e-07 0.000431087363296502 9.10644699386217e-05)
(-3.72160443295296e-06 0.000432868730172135 6.69945494957158e-05)
(-1.24277405807451e-05 0.000428101726599787 4.33391170428785e-05)
(-1.35248274562251e-05 0.000580377255643068 2.44813295991031e-05)
(5.20861916858225e-07 0.000406067799947591 0.000140253198723224)
(1.04593850400822e-06 0.000405760286892191 0.000116176232146113)
(-4.50625437336898e-07 0.000407629484590255 9.22497935851198e-05)
(-5.15107687226342e-06 0.000410222934834391 6.76733379399849e-05)
(-1.61273777512464e-05 0.000405214456844968 4.31359794397218e-05)
(-1.54536476725253e-05 0.000554615359142593 2.40993309357638e-05)
(9.40059370408476e-07 0.000381449891721315 0.000165542203824427)
(2.27313811826255e-06 0.000380484676501978 0.00014086256091)
(2.17428265241494e-06 0.000381452245931504 0.000116796030108219)
(-2.85735652295881e-07 0.000384427197406905 9.24764008172043e-05)
(-6.42139816771083e-06 0.000386942425905001 6.69495013348441e-05)
(-1.97131495913404e-05 0.000382256616564988 4.20269301879232e-05)
(-1.69706837238058e-05 0.000527434930739539 2.32472653678343e-05)
(1.33864596629139e-06 0.000354865662842876 0.000190754302848158)
(3.38483394019773e-06 0.000354164329522927 0.000165143731446802)
(4.39317069994735e-06 0.000354925382920475 0.000140585154530332)
(3.5585278785499e-06 0.000357411412017455 0.00011622104928419)
(6.55208199442781e-08 0.000360940775334434 9.09302623985417e-05)
(-7.62033873112498e-06 0.000363937862917647 6.49513728496989e-05)
(-2.31766490221309e-05 0.000360345830549835 4.02446841259023e-05)
(-1.81251528664177e-05 0.000500800472046681 2.20410525589584e-05)
(1.70777955318848e-06 0.000325135064948896 0.000216025123568173)
(4.44883012464539e-06 0.000325631480813532 0.000189152260672485)
(6.36298392076557e-06 0.000327119667925371 0.000163691341388744)
(6.80553036156654e-06 0.000329877539683077 0.000138899284705141)
(5.10633141365953e-06 0.000333560864293652 0.000113618305253917)
(3.71641804371988e-07 0.000338104582509497 8.78277657057956e-05)
(-8.87330678646999e-06 0.000342223984048778 6.20375144160777e-05)
(-2.66037496917469e-05 0.000340390319607261 3.8003086034312e-05)
(-1.9040834832239e-05 0.000476360839069172 2.06157992659106e-05)
(2.03561445618078e-06 0.000291143313509129 0.000241606910332732)
(5.46083242642139e-06 0.000293745678340791 0.000213113020909376)
(8.14693814309285e-06 0.000296935759572508 0.000186408538875363)
(9.6356650871176e-06 0.000300950834547596 0.000160776830932827)
(9.28772168466618e-06 0.000305550025528175 0.000135108505618357)
(6.44106840519232e-06 0.000310813225493499 0.000109332323344805)
(3.64831439292265e-07 0.000316872432898711 8.36451645965792e-05)
(-1.0404802924272e-05 0.000322638607444631 5.8528809583069e-05)
(-3.01710841543699e-05 0.000323071258425079 3.54827814159262e-05)
(-1.9894143987126e-05 0.000455156014752991 1.90520232850847e-05)
(2.34226259273634e-06 0.000251767981974026 0.000267887183623051)
(6.39312855228657e-06 0.00025737867742004 0.000237368750209497)
(9.77654718294765e-06 0.000263250264267253 0.000209060289273059)
(1.21167152137137e-05 0.000269552478931171 0.000182230392703911)
(1.28093237654943e-05 0.000276077078755899 0.000155779812524138)
(1.13132060275041e-05 0.000282832847461501 0.000129639909873427)
(7.16104439487121e-06 0.000290057352016257 0.000103926504314369)
(-2.58935310900707e-07 0.000298027211536261 7.880441497615e-05)
(-1.24562787511963e-05 0.000305850489448961 5.46866418634435e-05)
(-3.4043016563658e-05 0.000308920229082086 3.28139230955248e-05)
(-2.08380102900567e-05 0.000437730694954132 1.74529502756548e-05)
(2.62710736045628e-06 0.000205817949028147 0.000295420117260753)
(7.24357444476095e-06 0.000215357366302818 0.000262412264404458)
(1.12372165664889e-05 0.000224921641372804 0.000232108946003617)
(1.42635394451402e-05 0.000234586363693028 0.000203733088402409)
(1.57533315899815e-05 0.000244120253633554 0.00017615326123937)
(1.52415410452123e-05 0.000253409561459184 0.000149270517658033)
(1.24039314728324e-05 0.000262593660585808 0.000123180802049267)
(6.9276880098462e-06 0.000272067232850107 9.79633249364045e-05)
(-1.73707755656828e-06 0.00028226656269587 7.37133299870349e-05)
(-1.51226975764919e-05 0.00029253475972774 5.07980801822631e-05)
(-3.80847327128031e-05 0.000298739944261662 3.01216197761258e-05)
(-2.1663402747582e-05 0.000425082015339534 1.58589653771215e-05)
(2.87893020502437e-06 0.00015200206943144 0.000324981374659616)
(7.98103338980137e-06 0.000166437985235504 0.000288957553496514)
(1.24773764352453e-05 0.000180759799880503 0.000256215435346494)