/*--------------------------------*- C++ -*----------------------------------*\
  =========                 |
  \\      /  F ield         | OpenFOAM: The Open Source CFD Toolbox
   \\    /   O peration     | Website:  https://openfoam.org
    \\  /    A nd           | Version:  12
     \\/     M anipulation  |
\*---------------------------------------------------------------------------*/
/*   Windows 32 and 64 bit porting by blueCAPE: http://www.bluecape.com.pt   *\
|  Based on Windows porting (2.0.x v4) by Symscape: http://www.symscape.com   |
\*---------------------------------------------------------------------------*/
FoamFile
{
    format      ascii;
    class       volScalarField;
    location    "200";
    object      k;
}
// * * * * * * * * * * * * * * * * * * * * * * * * * * * * * * * * * * * * * //

dimensions      [0 2 -2 0 0 0 0];

internalField   nonuniform List<scalar> 
10052
(
0.00023412785277186
0.000230409155143799
0.000650049876159822
0.000234965208398805
0.000225798034618957
0.000639004921687095
0.000231298020025103
0.000650155074277382
0.000235707419333404
0.000220273496380428
0.000625672183572852
0.000226701519173427
0.000929693898780589
0.0006391028739093
0.000232042815291319
0.000648577730153987
0.0002338523995248
0.000213834213439517
0.000610097432460234
0.000221157683910832
0.000910340402479277
0.000625762362105489
0.000227407029562555
0.00116163326918082
0.000928781421603316
0.000637497795204019
0.000230208228496778
0.000642144226123985
0.000207169485659132
0.00059208945474664
0.000214645550157316
0.000888078050357499
0.000610164252071924
0.000221786959871051
0.00113773579778812
0.000909442530151105
0.000624131043385209
0.00022559441246024
0.00136076552725874
0.00115997504797191
0.000923510572629744
0.000631098470915445
0.000225191594620707
0.000206418445360825
0.00057128854080574
0.000207714075869732
0.000862616511511717
0.000592112235963616
0.000215173094387918
0.0011104123332746
0.000887179101816933
0.000608499561804114
0.000219959510276276
0.00133307476115012
0.00113611031018341
0.000904209421579193
0.000617766902493377
0.000220638848437173
0.00153771357317011
0.00135815272574908
0.00115186763886668
0.000911894717079633
0.000618182632905304
0.000217821024799053
0.000203176140613706
0.000548397235255806
0.000200710995131727
0.000833574881460821
0.000571213455782244
0.000208107913734191
0.00107939785983792
0.000861711926981164
0.000590402092163439
0.000213313239360642
0.00130157250593821
0.00110880340151456
0.000881989593175298
0.000602192852998872
0.000215122573964715
0.00150671904540946
0.00133051526382387
0.00112808696263202
0.000892711087602182
0.000604966690139774
0.000213407213980602
0.00169771900241129
0.00153396694860614
0.00134751689639417
0.00113581758057478
0.000892666619153685
0.000599302501744561
0.000209133427575493
0.000193374033362363
0.000522241953839412
0.000198359145970949
0.000800795485836424
0.000547619202572356
0.000200532752597705
0.00104436939669767
0.000832647875953667
0.0005694091184235
0.000206138943610964
0.00126602071892468
0.00107780382471437
0.000856576966968005
0.000584175132491971
0.000208615274644958
0.00147160645781676
0.00129904862825239
0.00110087704109665
0.00087063935433039
0.000589609606970978
0.00020809368935182
0.00166377517367531
0.00150304827069757
0.00132000225020126
0.00111220886904224
0.000873727662743183
0.000586392714619494
0.000204907057713061
0.00184385575928242
0.00169300621659734
0.00152090900639381
0.00132755703144997
0.00111120252011424
0.000866300563389197
0.000576149636038914
0.0001996598886962
0.000178053400900149
0.000492449371489278
0.000192907773685287
0.000763905690861292
0.000521507100300071
0.000193205408022383
0.0010049959423635
0.000799840186908431
0.000545515123344828
0.000198333365412401
0.0012261321771712
0.00104278035214322
0.000827575783747223
0.000563269433146996
0.00020142158739984
0.00143216081240313
0.00126353183291082
0.00106999487223932
0.000845416751562388
0.000571892561486936
0.000201853806835807
0.00162545425905056
0.00146799182968067
0.00128867447713943
0.00108521467905595
0.000851960346806035
0.000571426524695943
0.00019987132527775
0.00180722949172938
0.00165915663824648
0.00149014977404363
0.00130026310494493
0.00108788982759944
0.000847736343043251
0.000563646355400863
0.000195728173334929
0.00197817628473759
0.00183849592874654
0.00167788917865535
0.00149744891006678
0.00129814051431806
0.00107866440697583
0.000834027239106901
0.000549791795792678
0.000190291017140341
0.000158561302119604
0.000457305347542686
0.000180133130148925
0.000722804929742748
0.000491900325049196
0.000187327662179874
0.000961138683021615
0.000763012294538258
0.000518548261886407
0.000190268374012857
0.0011815946410961
0.00100345393033475
0.00079483920683998
0.000539456696761016
0.000193818726142637
0.00138812832285183
0.00122368349333241
0.00103511507218599
0.000816656690278335
0.000551421576078945
0.000194838964991882
0.00158256255538871
0.00142860085751231
0.00125331875804275
0.00105459944396601
0.000827124968173297
0.000554220469106431
0.000194096308332705
0.00176599764692924
0.0016209079019847
0.00145526894501188
0.00126920490288301
0.00106126241966447
0.000826434920725516
0.000549205876689704
0.000191137674920129
0.00193907173266165
0.00180197600604898
0.00164422842617075
0.0014669539319735
0.00127119258613856
0.00105577930194415
0.000815953915807448
0.000537794536457944
0.00018688774117071
0.00210204986442765
0.00197241710255982
0.00182182199273388
0.00165148920810504
0.00146380363325287
0.0012601785202913
0.00103925260551734
0.000796730445371283
0.000520790149338994
0.000186953584284925
0.000135965762380079
0.000416035441282219
0.000161951991022591
0.000676822663770355
0.000457533015529904
0.00017964642175882
0.000912594404049933
0.000721872429036254
0.000488964661745688
0.000184514311440467
0.00113228179590452
0.000959646695534302
0.000758071136449378
0.00051264216879832
0.000186429380128475
0.00133926000861692
0.00117919320794768
0.000995970661728316
0.000784216846879769
0.000528142339545506
0.000188032596910055
0.00153487448703381
0.00138462700808676
0.00121366163636066
0.00102005451417946
0.000798873168948276
0.000534453547047755
0.000187659744968456
0.0017199859844652
0.00157808591574897
0.00141607526515148
0.00123417133596628
0.00103109681904843
0.000802182763685928
0.000532705246934905
0.000186573680335106
0.00189515245068414
0.00176082591483359
0.00160618371899542
0.00143238789711558
0.00124055553143427
0.00102967358912234
0.000795257463848799
0.000524010433316926
0.0001828151207913
0.00206062552624049
0.00193342632250584
0.00178551150422948
0.00161812773189587
0.00143370040647948
0.00123371025698041
0.00101692027072403
0.000779252849749081
0.000509367546450431
0.000184302627663039
0.00221632681355942
0.00209602296419539
0.00195459453325241
0.00179308141353404
0.00161425400958917
0.00142109434771334
0.00121469839088202
0.000993684682594708
0.000754817547001854
0.000489783688037504
0.000178166151279591
0.000111946518081684
0.000368470739753868
0.000140044122434711
0.000625174609869686
0.000416874810755165
0.00016358676103224
0.000859055026806669
0.000676036357133183
0.000455841419492565
0.000178124168000927
0.00107800693659172
0.000911138822149077
0.000717101623159601
0.000483409563097189
0.000181504621381012
0.00128533537097787
0.00112993732301466
0.000952382346823103
0.000747843752891134
0.000502153044796151
0.00018359321880662
0.00148218327894395
0.00133581248096223
0.00116939606164999
0.000981300275931257
0.000767007507252128
0.000512016420775388
0.00018212103083317
0.00166899391601142
0.00153047111113664
0.00137232806787893
0.00119489772421277
0.000997112455604577
0.000774697330005529
0.000513915306244294
0.000181562164356963
0.00184626100046558
0.00171489224595287
0.00156358719036797
0.00139356150903957
0.00120602401762676
0.00100013729923123
0.000771747025870677
0.00050846042090537
0.000183469425890816
0.00201418870114657
0.00188959379224079
0.00174458487804826
0.00158043350076194
0.00139960272973095
0.00120364870294095
0.00099148004638877
0.00075927920112321
0.000496253704252818
0.000178051899288546
0.00217270954345192
0.00205471759679889
0.0019158273017203
0.00175709612171105
0.00158132221405374
0.00139151885004175
0.00118884194321862
0.000972023893960269
0.000738014529201382
0.0004788372493624
0.000173929658437823
0.00232150258300269
0.00221008840385008
0.00207730686985455
0.00192398865343979
0.00175286051600238
0.00156744853076774
0.00137037221598773
0.00116234109237301
0.000942325148948142
0.000708415139745896
0.000454222952378241
0.000157996051278984
8.73716982017811e-05
0.000315183471070851
0.000116057977575934
0.000567320655355502
0.000369897485676126
0.000142464358689362
0.00080007115024798
0.000624602856122179
0.000416190548339532
0.000162801360439816
0.00101856199265363
0.000857679638362038
0.000671692825898338
0.00045106003318348
0.000174309558057659
0.00122628889030017
0.00107572601634211
0.000904136782905284
0.000707366264006215
0.000473655238240483
0.000180167382612222
0.00142428680047856
0.00128196778773211
0.00112040629183754
0.000938194924185568
0.000731377717248145
0.000487322640924099
0.000177807775047346
0.00161285383976301
0.00147785685735132
0.00132377275882955
0.00115108444226395
0.000958996826328709
0.000743636344634073
0.000492489361536799
0.000178372091904659
0.00179221881229334
0.00166398049878971
0.00151622468040018
0.0013502397870656
0.00116734569652697
0.000966910582297165
0.000745162929214816
0.000490689507160539
0.000178879842705483
0.00196259540469186
0.0018407840467229
0.0016988944698697
0.00153823732627775
0.00136132355574306
0.001169797130282
0.000962735189826938
0.00073665402956971
0.000482108373338601
0.000176645507717366
0.00212388805264813
0.00200837057086861
0.00187223104555877
0.00171654549131291
0.00154413420520272
0.00135804510615208
0.00115950596083027
0.00094738271650164
0.00071883233123193
0.000465675013609406
0.000168149141030025
0.00227579915081035
0.00216659468035615
0.00203623580272104
0.00188556605062182
0.00171733491497045
0.00153508567620845
0.00134146228211554
0.00113722807885828
0.000921448016929395
0.000692322412655619
0.000443680091105602
0.000152935293267297
0.00241787477789112
0.00231507589318308
0.0021906243494962
0.00204515997982065
0.00188126414617232
0.00170253676492362
0.0015121751621899
0.00131225224720478
0.00110345674424419
0.000885369500685577
0.000657119705493757
0.000413629525743075
0.000133356671254479
6.53070142120485e-05
0.000256951831746679
9.15071108496109e-05
0.000502972691046512
0.000317217362862785
0.000118498385712742
0.000735182659153897
0.000567056538091249
0.000370153544587776
0.000141997181299249
0.000953670279005171
0.000798834013774685
0.0006208368740808
0.00041241932301754
0.000158613477139756
0.00116194534716579
0.00101636829902935
0.000851029036604746
0.000662639377467943
0.000441926755112986
0.000168699764954388
0.00136111302630809
0.00122300267274178
0.00106650467673816
0.000890519471094198
0.000691778215906476
0.000460474408912839
0.000172744392887262
0.00155143117939014
0.00142003394001331
0.00127022212757025
0.00110262279846901
0.000916665306264129
0.000709018686224951
0.000469070388827349
0.000174655946135112
0.00173289226015199
0.00160792352014867
0.00146389220087074
0.00130217935368744
0.00112423611833328
0.000929691397404231
0.000715173155851932
0.000470503569205051
0.000174092437590605
0.00190568451848432
0.00178682443431653
0.0016482506135535
0.00149132930619465
0.00131863608964001
0.00113191888153237
0.000930447709915015
0.000711099253339727
0.00046534595687191
0.000170007337540669
0.00206972697303231
0.00195686078870588
0.00182367568412461
0.00167127858711943
0.00150252000253781
0.00132049109919102
0.00112650395991861
0.000919582172486027
0.000697235400560366
0.00045193112300465
0.000161063355927106
0.00222470170933946
0.00211786559068063
0.00199013464481803
0.00184236449867115
0.00167731965626448
0.00149856201339434
0.00130876801700148
0.00110876649477835
0.000897731244457951
0.000673870196347033
0.000431415375697004
0.000146857428110565
0.0023701801141991
0.00226950046317324
0.00214737451759383
0.00200444955924245
0.0018433255990964
0.00166761453232861
0.00148052435611848
0.00128414890187119
0.00107922085980745
0.000865385904043433
0.000641881855222665
0.000403400455642842
0.000128563000100989
0.00250566066841858
0.00241127352158806
0.00229495352404346
0.00215715297705079
0.00200028983597335
0.00182789701172548
0.00164328778032156
0.0014490608156514
0.00124707882442671
0.00103829278889993
0.00082291650850098
0.000601101944830695
0.000368147507666679
0.000107336563495994
4.60427121286177e-05
0.000197980201548733
6.84954287105991e-05
0.000432206146626958
0.000260071041893345
9.36480266081082e-05
0.000663981765032189
0.00050317288915096
0.000318431896493615
0.000118137499473223
0.000882980753563541
0.000734168075702562
0.00056404953952737
0.000367545886038753
0.000137871375158608
0.00109211749223879
0.000951602095112124
0.000792656606868282
0.000612718718886551
0.000404285032726778
0.000151631983180321
0.00129258882729258
0.00115875906302614
0.00100751994115389
0.000838110391142823
0.000648084529827127
0.000428928809082501
0.000159786753822164
0.00148460134489131
0.00135695400348984
0.00121159445457752
0.0010493344211446
0.000869909629132798
0.00067079521830543
0.000443023604955447
0.000163867401404427
0.00166820058339125
0.00154658471404451
0.00140638184367856
0.00124918188063965
0.00107658022889758
0.000888406064135061
0.000681854197941017
0.00044842201807077
0.000164169561798684
0.00184334972751321
0.00172758103949451
0.00159248685809217
0.001439509184145
0.00127131564196306
0.0010897680577497
0.000894367974843443
0.000682351837217151
0.000446066733705416
0.000160741190213719
0.00201007660690864
0.00190003295141233
0.00176999254452286
0.00162110734514818
0.00145627353934082
0.00127863976057547
0.00108961712996906
0.000888404829492852
0.000672860617559672
0.000435581621871824
0.000152582131448567
0.00216807882202119
0.0020637897568758
0.00193888738589945
0.00179424891929062
0.00163266028132275
0.00145770944646477
0.0012721146617997
0.00107678260738277
0.000871031129658801
0.000653286276438772
0.00041741289340707
0.0001397813156857
0.0023169022820199
0.00221849852077888
0.00209890007288976
0.00195875856305014
0.00180068273321357
0.00162829656528151
0.00144482558150108
0.00125239319480769
0.00105178575375929
0.000842709977945878
0.000624530291907115
0.000391597628519093
0.000123040065504217
0.00245606451729973
0.00236371154297702
0.00224963154041293
0.00211427864207415
0.00196008480991463
0.0017905912835323
0.0016091173853288
0.00141827039820103
0.0012199283729317
0.00101507215189795
0.000803968185320769
0.000586731501112681
0.000358485083758913
0.000103230321360553
0.00258506816674374
0.00249889811239948
0.00239056086879476
0.0022603136277396
0.00211040596843119
0.00194425832767223
0.00176514917683281
0.00157577946530727
0.00137845547552327
0.00117511911911884
0.000967063566531158
0.000755127406577551
0.000540104462996755
0.000318546313618127
8.14546616861262e-05
3.17975912370907e-05
0.000142632067239497
4.86076268274023e-05
0.000356177929770233
0.00020189885157437
7.00466774645172e-05
0.000586246056266858
0.000433097641778208
0.000262506561025919
9.33553874397522e-05
0.000806143023789446
0.000663309673814115
0.000501168337803465
0.000317222259566656
0.000114413060993089
0.00101655964677011
0.000881106358373155
0.000728624500741497
0.000557142537113317
0.000360864399494437
0.000130901477933688
0.00121860256728304
0.00108905971711266
0.000943219788086713
0.000780620079223423
0.000599447965335204
0.000392184817696255
0.000142294509614345
0.00141242320179654
0.00128852917738672
0.00114774358732953
0.000991070692263425
0.000818589666276249
0.000628360868632979
0.000412215845852245
0.000148967116266064
0.00159811045880899
0.00147983367171836
0.00134364660193789
0.00119118732052793
0.00102422952993942
0.00084291562754397
0.000645016850015111
0.000422461309561483
0.000151109732676605
0.00177555253892106
0.00166297000303035
0.00153146456494081
0.00138257581505176
0.00121914276093455
0.00104317024155865
0.000854369590855943
0.000650476977404879
0.000423878901059428
0.000149166372694564
0.0019448483358265
0.00183777971616235
0.00171104647436796
0.00156586531310962
0.00140520138573715
0.00123228194758496
0.00104863554951279
0.000853648604391575
0.000645442694537188
0.000416731302606775
0.000142767824192535
0.00210578456255563
0.00200422313519441
0.00188234192865373
0.00174105002676509
0.00158316892722444
0.00141232713886582
0.00123129707587591
0.0010410764713666
0.000841145007591532
0.000630096563373493
0.000401339721469358
0.000131743569808516
0.00225790822688202
0.00216196325267499
0.00204509462461018
0.00190796455610822
0.00175319450092727
0.0015844272986626
0.00140491486926571
0.00121681944920599
0.00102099426021937
0.000817252208159936
0.000604958503127887
0.000378128085210826
0.000116762625614812
0.00240069638956325
0.00231053281812623
0.00219889353242685
0.00206622913740422
0.00191497308197044
0.00174867354984396
0.00157066228533178
0.00138356308982765
0.00118927666460924
0.000988819752201005
0.000782515106635162
0.000570393618343103
0.000347442922157451
9.85789938078192e-05
0.00253365976627363
0.00244943952861943
0.00234326234762048
0.00221538214960945
0.00206805738720585
0.0019047127798047
0.00172863016483948
0.00154251564145805
0.00134868051575377
0.00114907315413004
0.000945003105836057
0.000737309851995635
0.000526690571468647
0.000309705457383824
7.81735119485697e-05
0.00265633047053431
0.0025781590372645
0.00247765717304298
0.0023548796584678
0.00221190333891692
0.00205201676118472
0.00187840700764478
0.00169373566405545
0.00150037829521921
0.00130063564948536
0.00109661838511631
0.000889950154078609
0.000681954683127167
0.000474153826201937
0.000265313521611859
5.65678754130968e-05
2.04993777076817e-05
9.71412088260666e-05
3.30645759477322e-05
0.0002777443338384
0.000148002483461673
4.96606444276078e-05
0.000502201651220953
0.000358025789231013
0.000205733160854538
6.98917075080339e-05
0.000722938150174825
0.000586038103955858
0.000432443939361304
0.000263071403582717
9.03394695733206e-05
0.000935051918646151
0.000804555635186998
0.000658603709670618
0.000495827804746549
0.000312469631600063
0.000108238011801776
0.00113905866743972
0.0010136843986186
0.000873322076423272
0.000717701596151926
0.000545515360803706
0.000350410809711537
0.000122131008926193
0.00133490263154942
0.00121466342000982
0.00107851317679416
0.000927635480709719
0.000762398906768474
0.000581262188229013
0.000376725702382808
0.000131441480941457
0.00152262226745227
0.00140774079794502
0.00127561000323211
0.00112806161831118
0.00096705309670379
0.00079301236571394
0.000604082219266128
0.000392391285565992
0.000135933790439068
0.00170232636825029
0.00159295164877259
0.00146505049984664
0.00132046823125779
0.00116208599264058
0.000992060825137187
0.000810368016720161
0.000615057847419958
0.000398394178551374
0.000135787875682312
0.0018740299528043
0.00177005816906104
0.00164674860600583
0.00150541282053372
0.00134911590951596
0.001181207594437
0.00100336234690523
0.000815168102033953
0.00061495212600426
0.00039513062050687
0.000131669558364439
0.00203773670938981
0.00193907561010395
0.00182038792868098
0.00168262917907027
0.00152867941098202
0.0013622304557298
0.00118612437618995
0.00100146429799516
0.000807879776778863
0.000604092271533235
0.00038310021440688
0.000122763835418593
0.00219304868808698
0.00209975462248904
0.00198581680583894
0.00185191301788091
0.00170068859840139
0.00153581990310657
0.00136059835119087
0.00117723569620497
0.000986663582710818
0.000788802235427712
0.000582946783641375
0.000362876994500216
0.000109737012687849
0.0023394168790287
0.00225162974231147
0.00214263768549841
0.00201289060501676
0.00186482419376966
0.0017019989244713
0.00152776798464343
0.00134478062997649
0.00115496836215036
0.000959395840570519
0.00075842447243045
0.000551961807350676
0.000334929864535891
9.3346062808383e-05
0.00247629199958964
0.00239417468908111
0.00229035782160282
0.0021650847160492
0.00202060742839226
0.00186035161859105
0.00168760823075948
0.00150509639817806
0.00131513912616311
0.00111969621225965
0.000920095667217122
0.000717161868178759
0.000511486186328107
0.000299676873730515
7.45013501151974e-05
0.00260320187243652
0.00252689322129751
0.00242847260219491
0.00230798745764593
0.00216751834783193
0.00201035340887677
0.00183968020111184
0.00165816406586531
0.00146818340675153
0.00127203711435416
0.0010718310388801
0.000869180079204296
0.000665365956412399
0.000461846586697902
0.000257479388911472
5.4179500148323e-05
0.00271971811618073
0.00264929054537349
0.00255645039378531
0.00244104946241229
0.0023049882303993
0.00215141378576229
0.00198339471809342
0.00180349740237077
0.00161404371220905
0.00141736789198243
0.00121585478965744
0.00101177267794875
0.000807005518714975
0.000603326807322585
0.000403365545675873
0.000208883103727278
3.38885109274277e-05
9.58181916240666e-06
5.99886498201584e-05
2.07841539585051e-05
0.000201536727787767
0.000103041277490855
3.34138915568851e-05
0.000412596271961784
0.000281026067895738
0.000153208912589317
4.96031212531005e-05
0.00063337704350686
0.000502525727255858
0.000359119079215939
0.000208365708232011
6.775118084904e-05
0.000847561894069807
0.000721698083076389
0.000582394577283727
0.000429132246684301
0.000260773695082697
8.54476424839324e-05
0.00105398129593445
0.000932426487046388
0.000797527795982494
0.000649087894874026
0.000486298314841716
0.000304372527764183
0.000100742258604985
0.00125215718163007
0.00113527069997475
0.00100371316470741
0.000858788813257724
0.000701057747332323
0.000529297967670347
0.000336930262945643
0.000112293824340031
0.00144196969201858
0.00133030860639107
0.00120218704004354
0.00105967134127665
0.000904883692549064
0.000738462318146385
0.000558780476439903
0.000358433903887093
0.000119237602613222
0.0016237836782335
0.00151752193922091
0.00139331650085768
0.0012531307834391
0.00110002309890612
0.000936299163917539
0.000762141771107319
0.00057575898749767
0.000369528934992831
0.000121363509726321
0.00179769190895962
0.00169689460310116
0.00157705278435441
0.0014396170954275
0.00128792207735504
0.00112537811591333
0.000953755538527315
0.000772845634509152
0.000581032772803919
0.00037073952931512
0.000119397086262713
0.00196393077348959
0.00186832957117383
0.00175297420096104
0.0016188902168007
0.00146905268340335
0.00130725343814349
0.00113641806491603
0.000957780835366659
0.000771106755381545
0.000575095604094678
0.000362576569044871
0.000112864062643977
0.00212223708675536
0.00203178872249119
0.00192097228832181
0.00179048706529063
0.00164302149232644
0.00148230976593026
0.00131170101919308
0.00113346797140346
0.000948624455715804
0.000757181110904645
0.000558335471043726
0.000345757934475302
0.00010198123262698
0.00227206727908029
0.00218685922372096
0.00208072655962819
0.00195411801281885
0.00180947793535839
0.0016503924066434
0.00148025035425242
0.00130173746141402
0.00111682414816025
0.000926626727209061
0.000731523476279462
0.000531292388145677
0.000320863834623093
8.75290359728105e-05
0.00241281541165454
0.00233299045865654
0.00223174496743966
0.00210931144548846
0.00196793268838542
0.00181103823591733
0.00164193676950644
0.00146336987800879
0.00127767971407146
0.00108684307873635
0.000892204153321995
0.000694554414959669
0.000494379081800226
0.000288372010069346
7.03933185373611e-05
0.00254392984914051
0.00246963340898996
0.00237349328778892
0.00225554070692478
0.00211784203719566
0.00196367934508639
0.00179624532345722
0.00161821687561649
0.00143198206504026
0.0012398424481936
0.0010439005446285
0.000845756512475303
0.000646640239912828
0.000447946325634845
0.000248657695451677
5.15458232101832e-05
0.00266496640752315
0.00259630960462456
0.00250546960700699
0.002392288029537
0.0022586643807919
0.002107740236121
0.00194258111875647
0.0017657557192136
0.00157958857065685
0.00138641104691122
0.00118859672148131
0.000988393301989673
0.000787650404739654
0.00058809371294459
0.000392327619176104
0.000202181575113861
3.23578198002662e-05
0.00277553789981774
0.00271256330171848
0.00262717343632498
0.00251902481031943
0.00238984131845509
0.00224262362524081
0.00208030867528701
0.00190533956684708
0.00171993542442872
0.0015263621856834
0.00132699999199661
0.00112430606076185
0.00092065682755782
0.000718147341593625
0.000519178996140801
0.000328102165060329
0.000150242141175744
1.55202083548403e-05
2.35956791845401e-05
8.64666262436212e-06
0.000128071865763553
6.54264817998565e-05
2.02675275458046e-05
0.00031845400002227
0.0002064702103588
0.000108352297484588
3.31542794323404e-05
0.000537319965664674
0.000413656575430602
0.000284192647868382
0.000157417899113286
4.81879765648946e-05
0.000754219831486323
0.000632417435076466
0.000500147317732069
0.000358293967992146
0.000208737222711373
6.42685339146372e-05
0.000963759067926501
0.000845187042321993
0.000715544129544243
0.000574631466801362
0.000422230928708631
0.000255650046084068
7.96291854153277e-05
0.00116461440199445
0.00105036573876849
0.000923140445161826
0.000784267592428489
0.000634378491782351
0.000472569304611497
0.00029360443593938
9.25320652298419e-05
0.00135651828417834
0.00124764431433695
0.00112329968669734
0.000985853007545358
0.000837524469871999
0.000679066565207686
0.000509055820127784
0.000320929759930419
0.000101591331826323
0.00154014538162056
0.00143691021311997
0.00131626144282788
0.0011804840051601
0.00103283872885654
0.000875744181738297
0.000709508344382616
0.000532465219166245
0.000337465778545132
0.000106038888034709
0.00171599724891306
0.00161839185931194
0.00150193965810271
0.00136852481739153
0.0012215955230751
0.00106469299687769
0.000899688906128315
0.000726502758147147
0.000543563669403807
0.000343570072156826
0.0001061276564443
0.00188444170058936
0.00179204679327475
0.00168011330830021
0.00154977551959522
0.00140415949448639
0.00124725493865965
0.00108207277278298
0.000909903917382474
0.000730617442721078
0.000542947367739608
0.00033973094534524
0.000102123644264722
0.00204546026546296
0.00195805530730823
0.00185053299614909
0.00172362288792963
0.0015800887003121
0.00142376119907501
0.00125807206157193
0.00108536527342195
0.000906732857725845
0.000722237950542672
0.000530987113263099
0.00032670395809027
9.35425264399766e-05
0.00219854822328445
0.00211613312747516
0.00201307156537072
0.00188980839610627
0.00174880834077191
0.00159370619471621
0.00142794791974744
0.00125426846493034
0.0010746826958128
0.000890353856597895
0.000701658654208275
0.000508264709797833
0.000305183253061887
8.11558133457081e-05
0.0023430573839625
0.00226573470120318
0.00216728358751791
0.00204792070076123
0.00190988056370578
0.00175660662671197
0.00159143972737043
0.00141715623872773
0.00123612546458215
0.00105034466401376
0.000861167774021851
0.000669341696451146
0.000475256148075343
0.000275720492303142
6.58459220202383e-05
0.00247835238187225
0.00240625719675466
0.00231261187506089
0.00219742889423605
0.00206275408454382
0.00191186329299556
0.00174796168505673
0.00157374740158964
0.00139162613496004
0.00120390701981784
0.00101268950513868
0.000819551323983776
0.000625662034245521
0.000432354521115762
0.00023874645734117
4.85947326759339e-05
0.00260389281532156
0.00253715054899845
0.0024485075631102
0.00233778542981544
0.00220686248695254
0.00205886670062725
0.00189686365057681
0.00172343173024107
0.00154090517689114
0.00135161732558174
0.00115793233331982
0.000962074635562817
0.000765852520858169
0.000570937821125457
0.000379906353373101
0.000194693220364246
3.06970318012796e-05
0.00271926601475783
0.00265796423159371
0.00257448883632053
0.002468484908635
0.0023416715213259
0.00219703873497427
0.00203751628295789
0.00186554756028525
0.0016833542385946
0.00149320026011604
0.00129745478597257
0.00109855202257341
0.00089883118734011
0.000700341355612945
0.000505446964204562
0.000318471849223268
0.000144796632102479
1.47221615144891e-05
0.00282412403310029
0.0027682834887094
0.00269009448069008
0.0025890336623809
0.00246665317347
0.00232580608008349
0.00216929182408882
0.00199941653321589
0.00181827072584827
0.00162801194544736
0.00143093464146633
0.00122944971207534
0.00102604171301367
0.000823143127320713
0.000623151437006999
0.000429653383636573
0.000249240992178138
9.14859483573473e-05
4.13591665877368e-06
5.15101122523383e-05
2.50916248196686e-05
7.63321744622549e-06
0.000215835334683771
0.000135310099888812
6.88130413145423e-05
1.9366659768675e-05
0.00043304717092931
0.000320881130363517
0.000211279219986256
0.000112549279233536
3.19760826190284e-05
0.000654469790793608
0.000536592611630879
0.00041281682825197
0.000285907933818479
0.000159712641752007
4.58298333216187e-05
0.000869020821707469
0.000751893062904594
0.00062712208539285
0.000494474597011675
0.000354445364997974
0.000206693262170513
6.01388722821473e-05
0.00107342455435934
0.000960226639711185
0.00083659063619564
0.00070377063216729
0.000562272527265179
0.00041153246678563
0.000248162330886365
7.33128434538805e-05
0.00126722240629981
0.00116012433670619
0.00103892103719795
0.00090640372164002
0.000764757681601459
0.00061471435119151
0.000455086603819205
0.000280562828806539
8.3720412659231e-05
0.00145199814138015
0.00135145030484982
0.00123396501117997
0.00110244601939603
0.000960390686113523
0.000810242389631745
0.000652344871080122
0.000485207547732973
0.000302498609500792
9.01906706798421e-05
0.00162923977365439
0.00153475328539145
0.00142161128803631
0.00129213510026173
0.00115005453772745
0.000999053219581315
0.000841044998059057
0.000676017138262238
0.000502500834767727
0.000313739152074844
9.23184970683797e-05
0.00179942126018297
0.00171037819214606
0.00160188597411599
0.0014752481817265
0.00133399631329965
0.00118224535050445
0.00102305546797022
0.000857781676832913
0.000686356500029252
0.000507539684533693
0.000314584142122286
9.06837434946793e-05
0.0019627722034308
0.00187862034721659
0.00177454325905144
0.00165131199632695
0.00151181950020094
0.00136005321382651
0.00119956789391986
0.00103278278915949
0.000860834245075275
0.000683833373848522
0.000500809568795155
0.000305693726768013
8.45127357166916e-05