/*--------------------------------*- C++ -*----------------------------------*\
  =========                 |
  \\      /  F ield         | OpenFOAM: The Open Source CFD Toolbox
   \\    /   O peration     | Website:  https://openfoam.org
    \\  /    A nd           | Version:  12
     \\/     M anipulation  |
\*---------------------------------------------------------------------------*/
/*   Windows 32 and 64 bit porting by blueCAPE: http://www.bluecape.com.pt   *\
|  Based on Windows porting (2.0.x v4) by Symscape: http://www.symscape.com   |
\*---------------------------------------------------------------------------*/
FoamFile
{
    format      ascii;
    class       volScalarField;
    location    "200";
    object      nut;
}
// * * * * * * * * * * * * * * * * * * * * * * * * * * * * * * * * * * * * * //

dimensions      [0 2 -1 0 0 0 0];

internalField   nonuniform List<scalar> 
10052
(
7.58204189700265e-05
7.52516729175184e-05
0.000619133930518912
7.73176553167337e-05
7.451333380855e-05
0.000613271033763768
7.67565637176735e-05
0.000628470424423134
7.90088075925069e-05
7.35997767485826e-05
0.00060592335465378
7.60039754834496e-05
0.00146031108490183
0.000622524244808063
7.84498974771162e-05
0.000640007395294072
7.99200454115029e-05
7.24877424121121e-05
0.000597045535497952
7.50612547193496e-05
0.00144214166500369
0.000615050653993319
7.76723196022875e-05
0.00239626916165859
0.00147226565925806
0.000633947280256062
7.93551060857644e-05
0.000646662003772583
7.12910836131179e-05
0.000586302821967403
7.39185350995399e-05
0.00142040946568325
0.000606001911313784
7.66884636480399e-05
0.00236528151964169
0.0014539362803687
0.000626312207073653
7.85683798487852e-05
0.00331141294184316
0.00240497639860391
0.00148573295120516
0.000640501544220098
7.89702652604139e-05
8.3679322168246e-05
0.000572532473385209
7.27294352731669e-05
0.00139450785735127
0.00059500593123265
7.55009013261124e-05
0.00232841440863651
0.00143199714169584
0.000617046316386936
7.75560599737439e-05
0.00326688953753274
0.00237387405793441
0.00146719481716962
0.000632762743044104
7.81831110809916e-05
0.00415581229580919
0.00331380021228278
0.00241117215817951
0.00149155452239686
0.000638414721166604
7.76580523473474e-05
8.23624256784862e-05
0.000568634223726278
7.14865630670055e-05
0.00136327332559116
0.000580128985741569
7.42826823355515e-05
0.00228474898953727
0.00140576658572448
0.000605751307909196
7.63338826210639e-05
0.0032140976328304
0.00233685468658998
0.00144499428836281
0.000623364630906815
7.71753805936204e-05
0.00409786640285196
0.00326926050572015
0.00237994836107993
0.00147290903941895
0.000630684480488352
7.68833819197319e-05
0.00491234160113194
0.00415148143369813
0.00330845713893528
0.00240712608644352
0.00148393171911711
0.000629128647759743
7.5973012571417e-05
7.83808179954279e-05
0.000551351264340687
8.32715217403717e-05
0.00132942339802464
0.000563511461062345
7.29031697113392e-05
0.00223296259593523
0.0013734794781048
0.00059017613022482
7.50759389091347e-05
0.0031517468574414
0.00229295901679103
0.00141837173889041
0.000611914183470421
7.59564495514959e-05
0.00402932851612633
0.00321643735762897
0.00234278964153681
0.00145059424574819
0.000621332453930137
7.58971962178023e-05
0.0048415092422247
0.00409363385468453
0.00326395822566758
0.00237591160630337
0.00146537667030431
0.000621526747951073
7.52180670713657e-05
0.00558052599410634
0.00490305747869737
0.00413419839153243
0.00328952218260218
0.00238751307395732
0.00146366408120774
0.000615934727320597
7.4186784237208e-05
7.21314375507391e-05
0.000524740388006921
8.09585479514665e-05
0.00128625214569905
0.000553581628461848
7.11321935352769e-05
0.00217157936433999
0.00133579922712159
0.000570581559266836
7.36991768136091e-05
0.00307809317093123
0.00224060721792928
0.00138523161168387
0.00059614865170975
7.46325631878482e-05
0.00394854162343428
0.00315403698124253
0.00229869215485159
0.00142384584571691
0.000610024926899905
7.47054080828198e-05
0.00475788504826387
0.00402520309694572
0.00321120742902564
0.00233881362813582
0.00144325240842177
0.000612381416570925
7.42688133537271e-05
0.00549753201688363
0.00483241690873929
0.00407657799632994
0.00324524046884954
0.0023565545756767
0.00144542010549547
0.000608538790499952
7.34742720612047e-05
0.00616713822595622
0.00556835604483477
0.00487618677212243
0.00409962415448259
0.00325315294368509
0.00235218474640425
0.00143445026737715
0.000600893820070496
7.25607421439625e-05
6.41820625865086e-05
0.0004870657743614
7.55449514930477e-05
0.00123028105287035
0.000530023992440355
6.95561309459513e-05
0.00209830819609057
0.00129299702450379
0.000547006967099881
7.21139611847912e-05
0.00299063514415903
0.00217833173891843
0.00134529094053494
0.000576096915802623
7.32574552630823e-05
0.00385336655606347
0.00308028202764743
0.00224593561725446
0.00139054866573684
0.000595029414652038
7.33197010763551e-05
0.00465946710181895
0.00394454229608098
0.00314890272445092
0.00229483762786305
0.0014168934161742
0.000601426409016528
7.31323233956889e-05
0.00539969388417202
0.00474901044001669
0.00400844647230762
0.00319281459739273
0.00231987207853659
0.00142379851258081
0.000599707454273463
7.25721113131403e-05
0.00607279038674906
0.00548561580653946
0.00480593425853795
0.00404245476834852
0.0032093648127433
0.00232176415511351
0.0014167139270231
0.000593875504982922
7.19190839577562e-05
0.00668085108847449
0.00615333132264141
0.00553482435770635
0.00482813656580023
0.00404516647896212
0.00319882757800983
0.00230350819886828
0.00139894830830578
0.000586503877863194
8.51801389535785e-05
5.48895400813651e-05
0.000437895453319761
6.78389606385579e-05
0.00115767193879064
0.000495991139618578
7.8442390758398e-05
0.00200924781779199
0.00123818764243334
0.000522870825649257
7.03069906617766e-05
0.00288705485383023
0.0021047497088811
0.00129822237455424
0.000551789990331879
7.17972521133689e-05
0.00374102981025723
0.00299263017590685
0.00218288626344443
0.00135010870677028
0.000575562449252006
7.19253004741338e-05
0.00454371859170822
0.0038495160775649
0.00307524878483562
0.0022423027077921
0.00138460136402583
0.000587509897847076
7.17119054629696e-05
0.00528467987810459
0.00465085367308753
0.00392817255901723
0.00313097161499648
0.00227655829192892
0.00139828188898996
0.000589371200662139
7.16229639469441e-05
0.00596170515075283
0.00538806809075587
0.00472301874164684
0.00397493410152695
0.00315764060686536
0.00228587281749147
0.00139583846298404
0.000585507905637465
7.10067274685802e-05
0.00657599804692841
0.00605927724310275
0.00545259410074699
0.00475855245374292
0.00398875617219694
0.00315583666030035
0.0022738780742283
0.00138200795712693
0.000579685483529553
8.39724998499516e-05
0.00712995684938024
0.00666589758675024
0.00611517041088538
0.00547616950244545
0.0047568680016882
0.00397019913345711
0.00312740300775732
0.00224313629219676
0.00135926084267509
0.00058591101766749
8.11765575621194e-05
4.51929753458931e-05
0.000378007964030625
5.85504405383631e-05
0.00106583155905739
0.00044805904330113
7.13408267386727e-05
0.00190028014721765
0.0011675725656301
0.000504237578308124
8.02615151127088e-05
0.00276387017310903
0.00201597524809324
0.00124332826890226
0.000527546352109605
6.99723233594953e-05
0.00360804137278364
0.00288903930587357
0.00210847403000979
0.00130226190935013
0.000552848077330217
7.03924565528918e-05
0.00440746731913612
0.00373729276028035
0.00298769794021531
0.00217937057851518
0.00134509371747218
0.000568791697914872
7.02227162279741e-05
0.00514954943912413
0.00453543041927949
0.00383365111494313
0.0030579533162399
0.00222517596346147
0.00136784327608517
0.000576579030742343
7.00080421040431e-05
0.00583123976553431
0.00527340223464806
0.00462549051098206
0.00389548020997343
0.00309678028421938
0.00224372366568214
0.00137157319714085
0.000577017473881969
8.35798097787479e-05
0.00645268662541008
0.00594852933514583
0.00535568308640444
0.00467651319410113
0.00392225499850046
0.00310520531534141
0.00223908293255782
0.0013621778638232
0.000571380054272316
6.9110977031738e-05
0.00701547445359758
0.00656136891206246
0.00602171922064164
0.00539479468580236
0.0046883093598927
0.00391487645734636
0.00308548215689101
0.0022145473870561
0.00134308025142962
0.000577290063071459
7.92465112112515e-05
0.00752180610856863
0.00711398220644941
0.00662415838333701
0.006048128186639
0.00539027628740812
0.004661705758322
0.0038744775088153
0.00303908118043817
0.00217157437950547
0.00131799599972966
0.000563227795919692
7.19759186024909e-05
3.50029790279965e-05
0.000310564779793861
4.8451643528702e-05
0.00095386291956158
0.000388673797458902
6.20287350703333e-05
0.00176812311637979
0.00107673090141218
0.000459884040850778
7.32663328844423e-05
0.00261712685654707
0.00190775461637303
0.00117795009543434
0.000511554256425586
7.95798361911626e-05
0.00345117362158827
0.00276610001329166
0.00202009074278781
0.00124786941749613
0.000529891244073938
8.23563526314023e-05
0.00424662410600297
0.0036046478433236
0.00288443128326326
0.00210525341779159
0.00129889186810127
0.000549560256006319
6.90837699961465e-05
0.00499066483495995
0.00439958656090147
0.00372209222436287
0.00297126586603303
0.00216356930032737
0.00133014785938266
0.000558879671021714
6.86746806870637e-05
0.0056780639423931
0.00513870634671275
0.00451087578693077
0.0038020456956819
0.0030251409314019
0.0021941349200009
0.00134292484929515
0.000564825140701701
8.14873408621206e-05
0.00630799730811031
0.00581846829413445
0.00524182301264609
0.00458012312083837
0.00384415446464528
0.00304583160720032
0.00219850419132667
0.00133992064742486
0.000576079557076891
8.04829964185178e-05
0.00688100027548846
0.00643843059656677
0.00591171895044584
0.00529898621635836
0.00460760945200812
0.00384980833195178
0.00303626970826032
0.0021811013739022
0.00132414446577816
0.000555737337176877
7.66125343491598e-05
0.0073985880868268
0.00699985230123009
0.00652031072753505
0.00595569554307568
0.00531018331745928
0.00459454857108544
0.00382054409887548
0.00299845659758438
0.00214407697147896
0.00130156515581589
0.000554420531890754
6.96706368196933e-05
0.00786287666223638
0.00750483838506689
0.00706915949411893
0.00655014037662496
0.00594963521527334
0.0052764227840577
0.00454183485372997
0.00375696955163843
0.00293290615238942
0.00208783417702644
0.00126184639426215
0.000526918606218199
6.07588672702807e-05
2.63669701045936e-05
0.000238421022971257
3.81102428190314e-05
0.000822460695039629
0.000320991727977903
5.15169832957185e-05
0.00161065961144997
0.000965342357380517
0.000401322642846159
6.38023110911085e-05
0.00244318026405393
0.00177628047061454
0.00108972070916589
0.000468673655578058
7.23215337084232e-05
0.00326601757468329
0.00261987876230376
0.00191370996672972
0.00118501197764051
0.000512836983849277
7.70537673106247e-05
0.00405688985729335
0.00344826036820622
0.00276234402703063
0.00201803507206535
0.00124636277260808
0.000541219202461573
7.87570857462182e-05
0.0048034472431854
0.00423923464803718
0.00359037882704935
0.00286919920441876
0.00209123920861879
0.00128739274594555
0.000542779176787751
7.9554580110329e-05
0.00549804905310025
0.0049803756002627
0.00437608330620252
0.00369196304214672
0.00294034323375827
0.00213494933652951
0.00130792826471414
0.000550825494994456
7.93016110832343e-05
0.0061382546703457
0.00566579696243344
0.005108159025678
0.00446698735378868
0.00375251219293067
0.00297622709874201
0.00215103091188447
0.00131311192343211
0.000565775834754439
7.74569735251626e-05
0.00672338586616001
0.00629418740245134
0.00578259827633575
0.00518653887373621
0.00451295189565389
0.00377357780423223
0.00297877283667046
0.00214239296095199
0.00130617419631471
0.000558468254549493
7.33836489726563e-05
0.00725404062348531
0.00686578282570135
0.00639821239048057
0.00584699414146668
0.0052160225960423
0.00451565507081073
0.00375726997770663
0.002950899374149
0.00211192440547102
0.0012797300255891
0.000542969462139006
6.69016211333955e-05
0.00773181720799028
0.00738199950465207
0.00695578228652224
0.00644746000912302
0.00585873041461482
0.00519805904168119
0.00447643348170625
0.00370467940474451
0.00289367981065397
0.00206102352435711
0.00124503526307811
0.000517687994945234
5.85748970637443e-05
0.00815892968566565
0.00784495281724428
0.00745721910994738
0.00698907006062755
0.0064406647973547
0.00581889717779778
0.00513362272879284
0.00439543627912055
0.00361556496380943
0.00280650005974775
0.00198622969977681
0.00118762254127511
0.000481721651068175
4.89690143050206e-05
1.83140904289904e-05
0.00017130429105523
2.85319361407057e-05
0.000674079916895213
0.000249007176329991
4.06832190785566e-05
0.00142680739605541
0.000834418636046369
0.000333529965040025
5.30130398246781e-05
0.00223900292913129
0.00161950256116848
0.000979924746397605
0.000410974846749045
6.27593932255697e-05
0.00304813820953595
0.00244660327008502
0.00178402521388425
0.00109922728874505
0.000470467106203121
6.91647511274712e-05
0.00383315403736802
0.00326382292042756
0.00261760897558669
0.00191391909211486
0.00118436511725255
0.00051092883506002
7.27904049976566e-05
0.00458207858066298
0.00405026789522316
0.00343535889624794
0.00274896003030739
0.00200625770322366
0.00124012076562304
0.000533350112635982
7.46108452986902e-05
0.00528598507345248
0.0047938762625934
0.00421712679771664
0.0035621365043013
0.00284058304225818
0.00206553294735574
0.00126806761431124
0.000546002590893127
7.47692362010168e-05
0.00593889357250922
0.0054864273369908
0.00495116502046592
0.004334125685305
0.00364484629349517
0.00289425427373194
0.00209484186249408
0.00128168527431798
0.000552287977804653
7.32308128449751e-05
0.00653868601446193
0.00612500001441019
0.00563112719879903
0.00505468972217379
0.00440205102191383
0.00368436362632952
0.00291159478196576
0.00209705171006505
0.00128076490744954
0.000546669555474753
6.95180470091123e-05
0.0070848467028668
0.00670865033000941
0.00625501990182535
0.00571952396239759
0.00510567782287425
0.00442330621607161
0.00368333475544351
0.00289550532513458
0.00207518602004779
0.00126082901489483
0.000531375308229892
6.36776688589746e-05
0.00757828932962727
0.0072378867297755
0.00682263550889216
0.00632683748131586
0.00575197183030235
0.00510609730047951
0.0043997723864898
0.00364348458962155
0.00284782718398784
0.00202920129468981
0.00122457243061206
0.000506618431824205
5.60585052896597e-05
0.00802090461388081
0.00771429769979845
0.00733520031759103
0.0068769994108985
0.00633974885309619
0.0057300549033793
0.00505741750512213
0.00433210913288686
0.00356509727395791
0.00276856545262089
0.00195965240498533
0.00117033349622971
0.000472586164470756
4.70956828333097e-05
0.00841510839602872
0.00814011594911598
0.00779478545055284
0.00737172904044235
0.00686991417521583
0.00629482716418503
0.00565495120480998
0.00495967496910544
0.00421958597417411
0.00344696670643555
0.00265542042579146
0.00186149897574422
0.0010957846829454
0.000429325100711465
3.72586823825525e-05
1.28960668267948e-05
0.00011290276210002
2.01076228549532e-05
0.000517580319224045
0.000180395955542827
3.03777181877508e-05
0.00121690651854111
0.00068680200307529
0.000261382755990708
4.18752065653423e-05
0.00200262779976067
0.00143647803748905
0.000850485031521063
0.000343885770676289
5.20112776298888e-05
0.00279343647066032
0.00224328655282425
0.00162912451154947
0.000991979103585047
0.000414362124515777
5.96011154986894e-05
0.00356958379979976
0.00304690340774468
0.00244625739831524
0.00178705728451169
0.00110075619106161
0.000466825836085399
6.47300117694387e-05
0.00432032516233988
0.003827553966278
0.00325285223933835
0.00260687585497555
0.00190467880631621
0.00117603082509725
0.000501836306153132
6.77704482740862e-05
0.0050352259847928
0.00457344236144946
0.00403004213209896
0.00340968665335379
0.002723284768235
0.00198375240423611
0.00122173296572151
0.000523104691660087
6.87939608201277e-05
0.00570413249804876
0.0052752094894344
0.00476642756158556
0.00417773119530147
0.00351799480060192
0.00279760355306911
0.00202823949242339
0.00124520820451377
0.000533037862571086
6.79463860993587e-05
0.00632201550470768
0.00592634885586551
0.00545331345394702
0.00490004507747242
0.00427208493635014
0.00357983499530186
0.0028327967152586
0.00204370236299118
0.0012497259227411
0.000529980709597591
6.50426211820993e-05
0.00688688016406056
0.00652454607812685
0.00608716782628422
0.0055701609804794
0.00497651027901355
0.00431534368434862
0.00359702441399046
0.0028308749518898
0.00203139707252376
0.00123445057005368
0.000516531244269471
6.00148252070632e-05
0.00739886510632999
0.0070692058866902
0.00666664916036391
0.00618550691451312
0.00562695911410565
0.00499853042482092
0.00431023785542246
0.00357215038921649
0.00279452710550301
0.00199297838862401
0.00120138017749029
0.00049378245612146
5.31980340887866e-05
0.00785946226753713
0.00756123143699554
0.00719208570442193
0.00674549058106497
0.00622134999501062
0.00562589371965244
0.00496817162550283
0.00425805347691637
0.00350616396639219
0.00272419153234235
0.00192827420904725
0.00114983988315711
0.00046187758566125
4.49736662833738e-05
0.0082709562374841
0.00800251790730428
0.00766501278959012
0.00725114689708762
0.0067598335464533
0.00619630428411208
0.00556868978387596
0.00488603166471654
0.00415860969181489
0.00339841000995689
0.00261859159193779
0.0018351128861753
0.00107862610771103
0.000420677301894028
3.57578461474263e-05
0.00863598775245593
0.00839549121310453
0.00808766083828297
0.00770448210871665
0.00724400718783518
0.00671065078721714
0.00611174726241938
0.00545546672956269
0.00475116081669875
0.00401031317082094
0.00324651874674958
0.00247416965942589
0.00171010546756574
0.000985669148553263
0.000368861834178863
2.58629228330575e-05
8.21186104468741e-06
7.11401668827077e-05
1.36120641067738e-05
0.00036436047577285
0.000122468976743733
2.13755571785292e-05
0.000984375237724889
0.000530795855867383
0.000192333152442197
3.13018391265719e-05
0.00173358047820587
0.0012275820960899
0.000704818573582846
0.000272584303010192
4.10549885035773e-05
0.00249920089348755
0.00200800958279905
0.00144832873860559
0.000865618723625945
0.000349408695650855
4.92076285711115e-05
0.00326072957642243
0.00279348422472074
0.00224537416119274
0.00163561565137482
0.000997173472770721
0.000412445306198389
5.5450189466119e-05
0.00401061352352316
0.00356539336268642
0.00303853062036522
0.00243896840670675
0.00178142692296558
0.0010939206485851
0.000458732416403339
5.97099909602524e-05
0.0047373986828554
0.00431302530171117
0.00380992848505833
0.00323061141503149
0.00258489986313646
0.00188462612745873
0.00115843074259687
0.000489392147052803
6.18333254983511e-05
0.00542655788323892
0.00502558691060727
0.00454837891470773
0.00399396268442965
0.00336934168596367
0.00268403580232565
0.00194905440978402
0.00119604822818155
0.000506556491263657
6.18278603119177e-05
0.00606721063403201
0.00569252231070499
0.00524416084836184
0.00471839648392851
0.00411948845831094
0.00345694439810802
0.00273973336550433
0.00197980385234912
0.00121050324292743
0.000508996463131386
5.99765961001383e-05
0.0066550794909009
0.00630863178707246
0.00589024461043686
0.00539507107757438
0.00482530335814033
0.00418911823037372
0.00349615737696113
0.00275521598356986
0.00197953611492145
0.0012018202562451
0.000498794790953469
5.59207405771522e-05
0.0071893252118007
0.00687186643219184
0.00648399065068411
0.00602001976126657
0.00548071036999292
0.00487286472175919
0.00420580089573722
0.00348904757464492
0.00273226716844524
0.00194974256707131
0.00117340811374687
0.000478825798789327
4.9996024651264e-05
0.00767111531324145
0.00738234641679897
0.0070246332600456
0.00659155416412379
0.00608281105534363
0.00550413598391644
0.00486399894272514
0.00417176157116804
0.00343760803606347
0.00267264393263869
0.00189178109795106
0.00112598617149656
0.000449498791174738
4.25859321281448e-05
0.00810261286735686
0.00784156028680394
0.00751301164397224
0.0071098171602557
0.00663081128475176
0.00608089430792766
0.00546774920764578
0.00479998140427897
0.00408747920066452
0.00334182350754943
0.00257560179141178
0.00180423677902167
0.00105860444406189
0.000410658181060253
3.40781163462273e-05
0.0084864948244833
0.00825178563276488
0.00795100101681672
0.00757626508218266
0.00712562611275537
0.00660328250684412
0.00601623072177256
0.00537228440224387
0.00468046116964454
0.00395192883613591
0.00319993848904864
0.00243850698710757
0.001684373956295
0.000969197413027415
0.000360928404244426
2.4770973292806e-05
0.00882560796471984
0.00861566155948136
0.00834101958859152
0.00799310349246976
0.00756920139948579
0.00707287186544198
0.00651048420370019
0.00588909038749965
0.00521677179480745
0.00450367394328032
0.00376257700141957
0.00300842676922559
0.00225710379786665
0.00152786903610222
0.00085360715103012
0.000298313520471211
1.52918937050952e-05
3.27503134432018e-06
3.85730166864782e-05
8.46530808754142e-06
0.000230236592793121
7.92211512243403e-05
1.41485566496212e-05
0.000735003088367228
0.000379505659386653
0.000134123359053523
2.20178028514546e-05
0.00143242083294185
0.000995950253110524
0.000550934841787649
0.000204433810685641
3.07501396396543e-05
0.00216504336481782
0.0017401275769586
0.00124209852605129
0.000723768543509283
0.000280684095455709
3.88314364488278e-05
0.00290325389774124
0.00250090118630544
0.00201306654230729
0.00145909788279394
0.00087580416017352
0.000350678626892842
4.56622416555044e-05
0.003645817168277
0.00325845501177544
0.00278855041764275
0.00224240558746241
0.0016349271411274
0.000994668698969491
0.000407124057455071
5.09089545694726e-05
0.00438346957401651
0.00400519972406708
0.00355137108464509
0.00302076503153083
0.00242175660760298
0.00176539433608762
0.0010793027237201
0.000447836571566765
5.41581382709613e-05
0.00509679037719757
0.00472935484886936
0.00429130777119987
0.00377829577526113
0.00319508922141871
0.00255003118994279
0.00185304505624547
0.00113341213068591
0.000473371236224594
5.52138058632538e-05
0.00576640134173162
0.00541622295341426
0.0049973847049858
0.00450450596531068
0.00394044653255587
0.00331303189337774
0.00263018996654123
0.00190251999970244
0.00116075550868336
0.000483740003725493
5.43648164622285e-05
0.00638313544342997
0.00605481573366128
0.00565871644537124
0.0051895090315593
0.00464811109253549
0.00404135465106727
0.00337791993458604
0.0026660116884815
0.00191732632122413
0.00116219436282481
0.00047806486190268
5.14027466680213e-05
0.00694456440433749
0.00664085080878997
0.00626993356975863
0.00582614266465455
0.00530959856335035
0.00472608063017285
0.0040839802222559
0.00339213886225837
0.00265943381746116
0.00189859389567777
0.0011403467682387
0.00046160341807223
4.64595581170892e-05
0.00745162266423553
0.00717345570816691
0.00682882607721107
0.0064114789229368
0.00592084039311169
0.00536196568589583
0.00474255948063969
0.00407133233966669
0.00335787878976642
0.00261250396413909
0.00184900441339245
0.00109821116781257
0.000435303170461461
3.99311890496259e-05
0.00790657283341194
0.00765377272541155
0.00733542294618493
0.00694457721513908
0.00647997167137648
0.00594607455876848
0.00534998951617151
0.00469976622229307
0.00400479553127365
0.00327613860069031
0.0025257007458414
0.0017684089649075
0.0010354679052601
0.000399144597196327
3.21987622336456e-05
0.00831219286144362
0.00808394576708029
0.00779116544893602
0.00742617810273797
0.00698702253973518
0.00647762135713173
0.00590454497311063
0.00527515880859663
0.00459805983813919
0.00388401000240563
0.00314581968767709
0.00239709756826939
0.00165455403051134
0.000950184936339262
0.000351848292374195
2.35668549219981e-05
0.00867149823346118
0.00846663137978568
0.00819830024594798
0.00785810500443501
0.00744337799625156
0.00695750326535039
0.00640653637913943
0.00579717605407589
0.00513715596368135
0.00443628957005149
0.00370703194381353
0.00296401842565995
0.00222297769929161
0.00150333986777288
0.000838195180928156
0.000291102289281065
1.46012028605899e-05
0.00898750654525404
0.00880466625060349
0.0085594418905177
0.00824274676678925
0.00785119853142443
0.00738763485801292
0.00685760038172603
0.00626712920260603
0.00562308658239115
0.00493423334361747
0.00421192206757494
0.00347035708356024
0.00272615025989191
0.00199777076005551
0.0013083564536333
0.000693910601724205
0.000215562559630793
6.78628518414186e-06
8.0015156083664e-06
2.94479900869075e-06
0.000111988911594913
4.46035003578166e-05
8.40717603065455e-06
0.000479042395327831
0.000245012806433704
8.87322854205926e-05
1.44025708645444e-05
0.00109822660991606
0.000748099206677292
0.000401494056781135
0.000146013885477483
2.1675820064615e-05
0.0017913273268791
0.00143977225759229
0.00101319132527614
0.000573815184962724
0.000214839957561428
2.91739362311941e-05
0.00249731243345443
0.00216856167927622
0.0017483109835098
0.00125786577875904
0.000740006951784907
0.00028589454489623
3.60735618917837e-05
0.003221701559011
0.00290352675807736
0.00250024225866807
0.00201521793720647
0.00146467677906457
0.000879650776205977
0.000349448073718816
4.18745236526867e-05
0.00396441171202866
0.00364305125389603
0.00324937411329003
0.0027764487586339
0.00223114391624583
0.00162476732762468
0.000985324881277165
0.000399639614821757
4.60483017569714e-05
0.00470378649021386
0.00437774433665877
0.00398828815740746
0.00352567389138084
0.00299132321052568
0.00239249127338201
0.00173853156974991
0.00105788455076869
0.000434276712287466
4.81700306089817e-05
0.00540968183578604
0.00508826566013632
0.00470521890437922
0.00425303205218764
0.00373089352524481
0.00314458712351555
0.00250108540424583
0.00180985781348467
0.00110037489994785
0.000452897889849167
4.82824236144635e-05
0.00606311151271355
0.00575534828839687
0.00538559998268313
0.00494760368709768
0.00444009206742411
0.00386816608305411
0.00323929768007037
0.00256057775342722
0.00184244798743774
0.00111480192715786
0.000454191870942434
4.64926725303777e-05
0.00665833308962187
0.00636991564705358
0.00601857117360366
0.00559863070129374
0.00510919147307333
0.00455451239288279
0.00394173665811182
0.0032788659746932
0.0025738718014692
0.00183815597137187
0.00110166108731322
0.000441943694346226
4.26079963829451e-05
0.00719593301084882
0.00692949154065238
0.00659975248868947
0.00620072400420965
0.00573143705865458
0.00519598491495556
0.00460103211783018
0.00395445279643728
0.00326510813237259
0.00254237761242572
0.00179910392655239
0.00106612188672798
0.00041914717302551
3.70212471410415e-05
0.00767862460951662
0.00743494189619781
0.00712812631500026
0.00675152805435128
0.00630376737208969
0.00578873690100716
0.00521277229536852
0.00458320503630911
0.00390879368605471
0.00319994139142315
0.00246781426399923
0.0017269522838624
0.00100888597255402
0.000386003965635646
3.01179731477089e-05
0.00810958970206965
0.00788847924311683
0.00760472675472118
0.00725093624184437
0.00682514711607749
0.00633093344164342
0.00577431948581251
0.00516209857512866
0.00450233556674434
0.0038052791784003
0.00308319915537057
0.00234926839877704
0.00162022104131735
0.000928373986311846
0.000341414430180163
2.22173983266216e-05
0.00849209763845877
0.00829284730022428
0.00803162853586047
0.00770029322274402
0.00729622867289973
0.00682260319192952
0.00628508283999312
0.00568992471879815
0.00504442650649858
0.00435798313869643
0.00364263916426715
0.0029126587253143
0.0021836210620679
0.00147516441298582
0.000820576973038694
0.00028293557701153
1.3851875940649e-05
0.00882943404914155
0.00865103194204586
0.00841143779477755
0.00810177978572541
0.00771876468021567
0.00726509857299518
0.00674604324501598
0.00616729359969158
0.00553536441870581
0.0048586722843447
0.00414824184918874
0.0034179801143387
0.00268430362108037
0.00196571289140373
0.00128554382572446
0.000679656320533866
0.000208935003125774
6.43734631221015e-06
0.00912475305042478
0.00896603724062913
0.00874695261783956
0.00845796303670287
0.00809508718464966
0.00766053242881212
0.00715912439167604
0.00659597751547792
0.0059768080866206
0.00530903007321526
0.00460248292276704
0.00386986077875405
0.00312694825559843
0.00239251616879987
0.00168865455928048
0.00104422611006222
0.000499732748045299
0.000120340443588259
1.73655385239632e-06
1.75635564959148e-05
8.46708749959226e-06
2.62309498672338e-06
0.000223414974073457
0.000123730329543577
4.97247190993518e-05
8.14997353949871e-06
0.000730334088798684
0.000493020776735761
0.000264760879315733
9.81627777204116e-05
1.4057296370039e-05
0.00137551871451865
0.00110629287852614
0.000767706308868121
0.00042606826199758
0.000156960680183999
2.06279475513426e-05
0.00204337006985303
0.00179656012297841
0.0014503586707085
0.00103377670418338
0.000595807760485967
0.000223452815035956
2.72143953156193e-05
0.00273709839221421
0.00250096494507036
0.00217238107432993
0.00175577715363424
0.00127059195760499
0.000751501995557694
0.000289413689311722
3.31557155516265e-05
0.00347373686794489
0.0032227593962715
0.00290082299700914
0.00249477999598035
0.0020108549164149
0.00146198446367037
0.000877536030501568
0.000346576402136324
3.78776096115647e-05
0.00423692958109935
0.00396209973879746
0.0036330006849651
0.00323140032485908
0.00275439514346949
0.00220880930436232
0.0016044300633808
0.000969754984707737
0.000389878842782587
4.08859209592104e-05
0.00498548185158993
0.00469790673621942
0.00435961045677995
0.00395774593777387
0.00348608472265852
0.00294793554386427
0.0023497364285121
0.00170055607911037
0.00102928337730693
0.000417101627127188
4.19373864817344e-05
0.00568517984609624
0.0054005246273413
0.00506226447787566
0.00466225514916974
0.00419618385600714
0.00366591999954072
0.00307732247165536
0.00243677317282433
0.00175389556622882
0.00105808752973148
0.000426866985733913
4.12500930632342e-05
0.0063229427689088
0.00605123358850128
0.00572248195871725
0.00533098593571878
0.00487409670380169
0.00435371396730678
0.00377535546149953
0.00314611940983386
0.00247310988423138
0.00176702748761039
0.00105680475073983
0.000419680826461999
3.84797068608933e-05
0.00689798755870744
0.00664425757275412
0.00633134127438981
0.00595368460703993
0.00550971368469687
0.00500208600301212
0.00443601472696748
0.00381831407539029
0.00315701025101363
0.00246057854217743
0.00174110426211278
0.00102928618301002
0.000400890812164701
3.38842947964692e-05
0.0074138300032231