/*--------------------------------*- C++ -*----------------------------------*\
  =========                 |
  \\      /  F ield         | OpenFOAM: The Open Source CFD Toolbox
   \\    /   O peration     | Website:  https://openfoam.org
    \\  /    A nd           | Version:  12
     \\/     M anipulation  |
\*---------------------------------------------------------------------------*/
/*   Windows 32 and 64 bit porting by blueCAPE: http://www.bluecape.com.pt   *\
|  Based on Windows porting (2.0.x v4) by Symscape: http://www.symscape.com   |
\*---------------------------------------------------------------------------*/
FoamFile
{
    format      ascii;
    class       volScalarField;
    location    "200";
    object      omega;
}
// * * * * * * * * * * * * * * * * * * * * * * * * * * * * * * * * * * * * * //

dimensions      [0 0 -1 0 0 0 0];

internalField   nonuniform List<scalar> 
10052
(
3.08792612797901
3.06184761362508
1.04993418082417
3.03895930930994
3.03030374669732
1.04196168823659
3.01339727604098
1.03450385095552
2.98330561510409
2.99285549646277
1.03259294887281
2.98275870086287
0.636640992725938
1.02663129868355
2.95784727263672
1.01339099348372
2.92607941250171
2.94993617298511
1.02186080656544
2.94636273717685
0.631242009415871
1.01741597711119
2.92777440827013
0.484767440889985
0.630851786675084
1.00560064702308
2.90098822686944
0.993013695528356
2.90596628862311
1.00986969968833
2.90381228291755
0.625226789748485
1.00686852744262
2.89205115503341
0.481014960942354
0.625503704963246
0.996517449821656
2.87131302560171
0.410931995241077
0.482322840525703
0.621585845478244
0.985319202756798
2.85159982530274
2.46677960590789
0.997827315240105
2.85598362051859
0.618581320258872
0.995136695086318
2.84994073724388
0.476896350218362
0.619539715537623
0.986148925362901
2.83613569785188
0.40805627060072
0.478589125815707
0.616284498144229
0.976301005842119
2.82207813665292
0.370015165199056
0.40984749796171
0.477721026662969
0.611372030580724
0.968308863203641
2.80487365076821
2.46685474523095
0.964411237266272
2.80767442887969
0.61145103172862
0.984631814340515
2.80156703003967
0.472436081504311
0.612983645885332
0.974660862394609
2.79447647671178
0.404957364282683
0.474485387507154
0.61037583350907
0.966036286214788
2.78745076875588
0.367683788900691
0.406977437709814
0.473996403064871
0.606087045235561
0.95922241446521
2.77572615371427
0.34560279806683
0.369498689348512
0.407294651194371
0.471856288281486
0.601555049773308
0.952591340226852
2.75273311531383
2.46710915129315
0.947203693209837
2.38207663106486
0.602363014692166
0.971797807874166
2.75067261672868
0.467705728075688
0.606232484159575
0.964812179385484
2.74573913568308
0.401688579758731
0.470049319164344
0.60391570381831
0.954668396765818
2.74651166394401
0.365223746817128
0.40387810605769
0.469900080476069
0.600194959329466
0.948943843576009
2.74178361944561
0.343648042466774
0.367167246522931
0.404417630048337
0.468118791158523
0.596247832007411
0.943471405780359
2.72417340263009
0.330408954501733
0.345296016608628
0.367884862397727
0.403571387501576
0.465422590659334
0.591871163958856
0.935406968438435
2.69131342932724
2.46845767873268
0.938462871820689
2.38279685797888
0.593900421014363
0.942059984449091
2.71614579025411
0.462794940340091
0.59877275766355
0.956068618911875
2.69112049804846
0.398341476063979
0.465400782341018
0.597427734659646
0.944847281850833
2.6988432233376
0.362706272083691
0.400607805306408
0.465479846869015
0.593755815705398
0.937490479927183
2.70199724512619
0.341633781094329
0.364700064648805
0.401305273988621
0.464002204365868
0.590305854911182
0.933121922437961
2.69118781157582
0.328734691526879
0.343338886023254
0.365539375276319
0.400667721676071
0.461644232146435
0.586498236616584
0.926229131486907
2.66390081649106
0.320760815188454
0.330168529803681
0.344098628101774
0.365264925183313
0.399040726578187
0.458579798472365
0.581426388962161
0.914956648627502
2.62250648929139
2.47049246673687
0.938898546386812
2.38444961031581
0.587512038860049
0.928071808191874
2.69318692158765
0.458054105117802
0.590111407898311
0.947973779265817
2.63844019780437
0.39509822634294
0.460652485756359
0.590830713930121
0.936399209861141
2.64572015840018
0.360237808330883
0.397263459108322
0.460883679938862
0.58729098117943
0.926713138041094
2.6573889709258
0.339644538915386
0.362171514533301
0.39801761683867
0.459552968437271
0.583759483057409
0.921510031481175
2.65404269029619
0.327055141423083
0.341314874426555
0.363050612017803
0.397519136851682
0.457465922144262
0.580443730923345
0.91578964506129
2.63376208107536
0.319304900905643
0.328491106486317
0.342124618798042
0.362886913035962
0.396088528512273
0.454731502172119
0.575948256202993
0.905567803261072
2.5985834480384
0.314638035871509
0.320544595949553
0.32915624326855
0.342055197817569
0.361864867828244
0.393950123774826
0.451160801610312
0.569521004200775
0.887956872913416
2.19480252769735
2.4770796435629
0.950079381112965
2.38730059390889
0.584641158770246
0.922462074386554
2.29017014935368
0.454197036308247
0.583007295742023
0.935153842516521
2.62440917615296
0.392192685359729
0.455943379626102
0.583930111903726
0.929053041520355
2.59660884840132
0.357992338084266
0.394032385772609
0.45626319538827
0.580854595594578
0.917610834813622
2.61427614025299
0.337801396819509
0.359688589471391
0.39465478121489
0.454913830605798
0.57696979773694
0.909692839229184
2.6168562075841
0.325466447190381
0.339311022593694
0.360492122959526
0.394181579307504
0.452919137939045
0.573691735552251
0.903853541429287
2.60494218688456
0.317887651730785
0.326800976746114
0.340075660685473
0.360355130558099
0.392874201306205
0.450450953020348
0.569734596758916
0.89496730662657
2.57461690333769
0.313355556302665
0.31908530422612
0.32746092433047
0.340046211032749
0.359435459222323
0.390929693066874
0.447218468857064
0.563855544919637
0.878696398172722
2.19479743954705
0.310847156634906
0.314439719020232
0.319630427595789
0.327433512190102
0.3393522815887
0.357940319853906
0.38840481635051
0.442988990928218
0.555314714662374
0.835935275611187
2.19479806276895
2.47707784727339
0.974769779517174
2.39185429088193
0.586560422758153
0.930401510666515
2.29303147314891
0.452067569123679
0.579010142096263
0.904021118422106
2.21929735254552
0.390035301614432
0.451959329863228
0.576759686959208
0.916335713751186
2.59394875954739
0.356241860382611
0.391111786093542
0.451692709166867
0.574265243820525
0.908302055098247
2.60813768686523
0.336289113820238
0.357427840590691
0.391403711168243
0.450267745010958
0.570226072197824
0.900182655007771
2.59347744741068
0.324104843684207
0.337447820747247
0.357968950938117
0.390750806386419
0.448104991235603
0.566364102927602
0.891318065422237
2.59344725120483
0.316615518260448
0.325196556159786
0.338037055022734
0.357738053827535
0.389444489740662
0.445748874751546
0.562672868994119
0.881187215154212
2.19514050554189
0.312147298958372
0.317657304146835
0.32574460622529
0.337951254527726
0.356836240954766
0.387622904351693
0.442806307873623
0.557400924863187
0.868517723960148
2.576318653501
0.309702438206121
0.313153798290702
0.318152878193507
0.325702130302613
0.337290501258631
0.35544387293002
0.385301837044658
0.43892666268588
0.549493992198764
0.829456940268047
2.19479262593869
0.308636323443394
0.310668250174487
0.313595592019658
0.318113074668308
0.325189363687558
0.336239267776511
0.353692133421817
0.382464640910128
0.433936390961997
0.537494150127315
0.80646401983152
2.19512379066067
2.49612177671787
1.01487190942919
2.39533623884571
0.594761200714519
0.951691336268272
2.29674776581892
0.452497421042782
0.580091883035016
0.904990196158114
2.22204870955655
0.38919091373258
0.44957544906516
0.57022180184184
0.881744267627052
2.19037342121366
0.355325180578953
0.388896284000229
0.447572360862135
0.566859203445787
0.893872551278449
2.18765616562195
0.335392717821483
0.355643004102753
0.388432304953367
0.445644650784957
0.56307821706304
0.886750152686615
2.57379953435176
0.323174144748182
0.335908121568702
0.355652863775062
0.387405400312013
0.443247566039878
0.559062918748901
0.881208222579391
2.59734868979535
0.315639068259239
0.323813112974273
0.33612645349116
0.355135075993198
0.385881426022028
0.440679638012765
0.554880587402881
0.868745868059163
2.19518566703697
0.3111281297106
0.316369180627586
0.324103745160997
0.335850649795672
0.354128214218021
0.384064938953489
0.437904641539929
0.549774369837093
0.836878114170355
2.19481773266486
0.308659783115233
0.31193480161758
0.31669824990878
0.323938470723665
0.335126972302252
0.352756550210794
0.381885034019137
0.43435978163944
0.542865487724178
0.837940844455433
2.19479935572539
0.307599115412631
0.309520056583967
0.312291221662502
0.316598798072217
0.323404073325313
0.334110229211441
0.351118125428882
0.379271148955251
0.429764429722777
0.531915294107296
0.800259127475869
2.19511834896948
0.307505113173608
0.308477781185749
0.309884697228667
0.312231473254997
0.316198233690516
0.322668753926941
0.332943669439682
0.349284770389608
0.376233226332594
0.424061216368509
0.520760457439036
0.784997001172111
2.19485117557003
2.47684940487989
1.0777230486829
2.40111592267038
0.611546173671287
0.988241550214096
2.30018099143221
0.456448186772411
0.587414955695068
0.92233406508705
2.22558052946514
0.390339711332949
0.449722905244977
0.569721093541489
0.879971208342968
2.19317081658187
0.355768246984546
0.387944783420291
0.44470115712416
0.559183696005613
0.86172949500629
2.18937724711517
0.335506526966986
0.354672368716165
0.386086840126354
0.441280472981472
0.555037611127372
0.850809444340683
2.19338223666506
0.322982870602178
0.334974130453196
0.35378498725555
0.384296355851102
0.438335940951281
0.550740004134636
0.864201150094553
2.19542288945392
0.315183121033605
0.322851858816402
0.334521099905905
0.352706497552122
0.382348599791293
0.435462978674474
0.54679845611276
0.854178997669283
2.19532031206628
0.31046032151302
0.315370361162588
0.3226701841638
0.333855726036425
0.351400880755079
0.380320064289049
0.432558967318545
0.541537427732061
0.822491750772427
2.1948616090124
0.307839980366085
0.310899670375839
0.315373054979053
0.322233888110336
0.332935080470231
0.349930799812854
0.378177196344306
0.42923132648709
0.533799704914989
0.809233325839113
2.19481257994025
0.306684484525338
0.308466731973027
0.311045417588669
0.315096005587753
0.321570626925036
0.33185927399129
0.348329511790987
0.375738496707671
0.425077356998358
0.526572154182934
0.794548139037987
2.19512510493199
0.306548906995589
0.307437092313948
0.308717902478727
0.310889801007869
0.31462884765924
0.320814850111679
0.33073748602965
0.346628887840228
0.372957939518382
0.41988162377398
0.515553152796439
0.779234711991955
2.19484807563692
0.307106540312604
0.307366223578522
0.307749241400478
0.308646638013111
0.310571951639978
0.314131175697673
0.320102950126211
0.329673944435235
0.344919490289772
0.369960009547711
0.414310846622348
0.506138881622534
0.764232844528254
2.19192820234058
2.51405945095335
1.15572237174667
2.40065827894794
0.641179385105677
1.04443191447901
2.30188339883528
0.465361874957933
0.60302211313866
0.954732497439629
2.22846114585998
0.39436337580234
0.45332936995966
0.575604954973253
0.894326961725686
2.19682454008233
0.358290017434954
0.388948264210836
0.444307961961188
0.557408577061503
0.859326884698779
2.19233035192828
0.337212857790635
0.355031229106739
0.384900858207087
0.437902727756752
0.54719994736972
0.839507930751479
2.19516231332012
0.324001720781598
0.335028210131535
0.352683516095164
0.381720508692613
0.433598150294963
0.540911205505392
0.830643126268197
2.19629466397834
0.315589348098875
0.322616736295951
0.33349289958273
0.350683327023335
0.378999738040304
0.430109849020992
0.537711231046121
0.821281850214778
2.19568328018378
0.310386051712724
0.314882697497286
0.321638816623872
0.332133696312893
0.348798149384771
0.376528098322378
0.426938181280484
0.532386421916447
0.80767054803281
2.19499393723784
0.307412927071718
0.310209460725249
0.314322955606535
0.320713522342775
0.330817051436104
0.347044941883028
0.374233783051845
0.423644693752113
0.525358411716305
0.796791439196838
2.19485641517758
0.306016334996197
0.30763114119154
0.309973016286269
0.31370598866037
0.31977346357582
0.329552008216916
0.345370363071039
0.371880720797059
0.419736409769541
0.518140262256946
0.785533100507715
2.19513870702884
0.305728929213878
0.306511914817945
0.307637725942445
0.309595207532145
0.313054859505269
0.318892584582866
0.328386437884298
0.343735005322961
0.369329206376374
0.415291464750764
0.509998654465024
0.772963642694658
2.19485098413625
0.306207919870948
0.306406575810366
0.30668985753776
0.307442027510355
0.309173889271239
0.312491121590528
0.3181697741385
0.327385657816039
0.342186560193729
0.366641919531655
0.410260607072706
0.501337014622643
0.758560259927153
2.19192747933873
0.307193686056818
0.306985567284317
0.306687192862404
0.306619195488493
0.30719539059815
0.308866038250305
0.31214224719241
0.317718293058121
0.326680267675567
0.340913974284947
0.364184728391143
0.405655558459631
0.492892875217956
0.741969926962671
2.18619276038247
2.46568133246824
1.26331778414012
2.41737311158234
0.688159724280502
1.1191983266301
2.30585710985896
0.481751101941406
0.630600434825362
1.00429946126688
2.22937138934658
0.40254261120603
0.461761096587021
0.589273554770439
0.92246404654314
2.19977409144321
0.363910064698845
0.392774769350738
0.44724911790106
0.56164745315681
0.870891372893078
2.1962924156439
0.341385056529952
0.357431651539877
0.385576672649541
0.436818722034826
0.544578327337931
0.840109495620355
2.19827720905077
0.326925207877543
0.336645593697458
0.352842214426249
0.380175638349575
0.429778324598183
0.534306461381247
0.821414953039408
2.19811319033322
0.317386044565933
0.32357107726823
0.333407581830438
0.349353897184737
0.376100781631895
0.42490969424612
0.527952398856805
0.807603747962555
2.19655520448524
0.311274771322096
0.315242457453317
0.321302389505183
0.330939390405655
0.346544787594898
0.372879938765534
0.421237035393252
0.522384108173201
0.795213493868646
2.19535403216938
0.307631060755589
0.310103195214949
0.313762722208739
0.319561409814079
0.32892636889792
0.344228700261939
0.370176774021381
0.417697126474997
0.516467397204578
0.786314096079449
2.19498878731884
0.305767562726696
0.307182003344792
0.30923115353019
0.312567272807122
0.318128334608455
0.327280337829918
0.342309902342291
0.36775784485698
0.414072176714577
0.510426726398686
0.776990212928886
2.19518376257824
0.305169535385947
0.305828304809385
0.30676499923967
0.30845726671674
0.311570506445011
0.316978624516298
0.325948338906231
0.340640599253406
0.365354931862648
0.41006576530124
0.503552925595676
0.765778695705249
2.19486730317773
0.305453007832245
0.305576259287776
0.305737949017333
0.306312656221663
0.307806679178346
0.310825912643083
0.316144932930496
0.324928537729313
0.339195963454326
0.362977323900124
0.405811114914925
0.496063518667465
0.752240275223646
2.19192700872294
0.306332145102044
0.306083604809395
0.305708863369788
0.305521620379701
0.305933182081222
0.307394971658924
0.310419547852117
0.315699067731593
0.324310434424342
0.338120812604543
0.360882204290874
0.401779017274692
0.488297629459708
0.736206721849332
2.186191853566
0.307588494411528
0.307088527856506
0.306350281321761
0.305650610286128
0.305342510238168
0.305785061129023
0.307343698453459
0.310465767278398
0.315791940770744
0.324322713485019
0.337782859321002
0.359696494817221
0.398779312774141
0.481047648592722
0.719276154450848
2.18721896895554
2.49631327127041
1.36549031416004
2.42906407789236
0.762278985527374
1.20848958974622
2.32324444283911
0.51017298279633
0.674507506555335
1.06967081983626
2.23283070446501
0.417020241784803
0.477392188939956
0.613553552034017
0.965101073970795
2.20045049008963
0.374140358657329
0.400673204988143
0.454733578168657
0.572801617171128
0.894281211341966
2.19961853364581
0.349326321224546
0.362874574213835
0.388942783575706
0.438795994369864
0.547061645440639
0.849593399283316
2.20253546655268
0.332842499961643
0.34068146104771
0.354945633776276
0.380339277113586
0.427970913058443
0.53135681183167
0.821231918460225
2.20133144935418
0.321404713722454
0.32639289117699
0.334812059658011
0.349178986077525
0.374116270612661
0.420779673039582
0.521465977251214
0.801793179414576
2.19839042043264
0.31370279371907
0.316968281935474
0.322103880815475
0.330616066195511
0.344900013400751
0.369615347260864
0.415774958693924
0.514241677658
0.78647531997377
2.19622472777273
0.308878340615463
0.310944441224654
0.314015655435175
0.319051784999705
0.327495979942403
0.341691233183695
0.366226275716627
0.411741850621576
0.508013613013616
0.776293450205911
2.19534896819753
0.306192692690732
0.307368645936425
0.309051329626524
0.311882671215293
0.316804830188164
0.325183100790229
0.33926515551223
0.363479416483927
0.408115704830634
0.502647769825938
0.7680517546596
2.19531848383194
0.305042354251449
0.305558125031733
0.306264600432362
0.307625737343308
0.310304410120395
0.315178029927356
0.323505174144098
0.337408897706067
0.361115338245735
0.40456737661145
0.496797982570565
0.75784762520675
2.1949147647897
0.304964373953619
0.305001907955409
0.305017729208044
0.305374203852019
0.306572763283753
0.309221816002491
0.314097104590955
0.322353185107838
0.335980236848921
0.358968820670142
0.400904984858915
0.490203007215494
0.745118498896454
2.1919459817739
0.305616477070739
0.305318661275884
0.304852159179121
0.304520449295398
0.304730046086345
0.305933884784958
0.308647702495138
0.31356296439739
0.3217482124311
0.335055459909889
0.357235217914949
0.397487667094135
0.483170261750956
0.729747725850238
2.18619331415732
0.306746416073496
0.306223808246318
0.305429793941491
0.304633936723478
0.304186370928432
0.304447584484398
0.305786178454575
0.308651579423594
0.313683492616825
0.321877535527165
0.334953638186577
0.356439445857513
0.395022704979337
0.476524782763569
0.713380786559274
2.18721725254364
0.30816212628668
0.30749705371818
0.306491354759784
0.305394452193943
0.3045219843874
0.304178249895081
0.304646268393705
0.306243797208297
0.309395115541684
0.314713700377269
0.323144161355027
0.336312882300669
0.357540277712409
0.39488123200778
0.472542369389827
0.700213330583641
2.21610950095319
2.92571830771153
1.55519725894779
2.45521530268858
0.875346205148446
1.30067887045797
2.36164666010506
0.561353113329558
0.740505604975496
1.14229850542423
2.25286426569232
0.442172460034706
0.504569104416997
0.651835846959116
1.01923310793446
2.20328042873894
0.391475712608245
0.414738604590002
0.468879533361333
0.592913646956248
0.929064736138021
2.20047596221519
0.363034489251683
0.372836196868639
0.396175575531847
0.444855621084945
0.555259197153582
0.867952890260378
2.20624864116457
0.343450349766672
0.348407664329288
0.359940834620403
0.382976575718205
0.428800605052585
0.532134939220181
0.827586227774872
2.20577745682814
0.32895624520038
0.332145385509066
0.338513495602132
0.350795685932462
0.37364766125061
0.418298791975807
0.517723585940668
0.800367648924038
2.20165623154655
0.318589456905685
0.320872928277671
0.324683424062148
0.331665612746396
0.34428556533945
0.367171651707736
0.411291548761111
0.507987317154649
0.780632422747177
2.19806455702216
0.31175282510249
0.313298514056088
0.315575621540806
0.31959489154061
0.326846733413146
0.339682246392737
0.362618499294759
0.406222081570773
0.500564303556899
0.766402460949876
2.19621979862044
0.307674933564354
0.308569187462964
0.309783007840046
0.311954407816931
0.316053694534654
0.323469121374502
0.336425399927456
0.359256052591498
0.402178151337966
0.49483599515735
0.758425473066207
2.19568155322316
0.305596861543949
0.305953074537056
0.306378411660868
0.30731946818827
0.30944363735282
0.313644620548093
0.321182020433126
0.33414551037832
0.356701659386062
0.398811516579928
0.489619023436257
0.749036772559598
2.19505386534162
0.304909062288567
0.304854356489752
0.304697547733998
0.304784283986036
0.305611672536138
0.307796152255247
0.312120567026131
0.319732547680102
0.332598112702555
0.354689118151986
0.395631006059798
0.483779808216583
0.737104290517682
2.19199673378197
0.30516577314742
0.30481574804419
0.304242166240784
0.303735041046155
0.303694643771088
0.304577115207319
0.306904670475209
0.311370780756578
0.319037440012603
0.331745146101982
0.353250144456354
0.392756669267394
0.477445104081758
0.722475043117031
2.18621194276234
0.306047981747465
0.305498512749416
0.30463905603661
0.303728334510747
0.303110806520445
0.30314821395425
0.304214013380767
0.306761736344197
0.311431802857914
0.319217110003754
0.331837374124686
0.352825234846784
0.390824492877384
0.471430674706999
0.706718494422097
2.18721689342045
0.307324793913894
0.30665201875014
0.30560842270266
0.304435742228798
0.303446147962571
0.302944915113145
0.303218619827366
0.304588941709322
0.307483086327186
0.312515904342809
0.320632986037494
0.333463953338821
0.35432222509054
0.391191456803323
0.468062365547925
0.694537908352383
2.21610644747653
0.308821794548054
0.308082467240886
0.306932796545463
0.305605022402096
0.304391910214696
0.303564492336593
0.303358107718054
0.304021108429485
0.305870343489774
0.309341305809499
0.315058059172649
0.323974171444174
0.337713163174771
0.359474348084697
0.39681769803561
0.472830598415808
0.696976977045887
2.28699618918283
2.94890122564635
2.93624882338112
1.14361202318686
1.46684635230407
2.41074142755003
0.664772060110332
0.842691504024168
1.22111469315815
2.30196954031021
0.489261470094724
0.552943475595798
0.707837745213007
1.0781022544432
2.22312126698079
0.421039650414057
0.439248243422922
0.493635609834851
0.624406563962613
0.971594041819197
2.20294352484113
0.385918499830385
0.38974544759275
0.409277374730987
0.456830511255558
0.570576975919219
0.894210997194296
2.20741122415928
0.361490467277163
0.361755143411874
0.369220399327864
0.389172594164012
0.433118419606204
0.537223768106858
0.840194747147555
2.20974609758707
0.342173917018367
0.342472347322224
0.345697247387741
0.355076968188107
0.375378954165016
0.417946959950533
0.516637537324697
0.803047916242129
2.20619062918956
0.327426719904232
0.328230728571205
0.330031680480053
0.334825069342348
0.345278211736615
0.366038610665589
0.408107828887272
0.503330177928526
0.777075465934146
2.20134566439194
0.317208534809094
0.318063553951423
0.31920718007505
0.321776276453783
0.327427066682355
0.338579582965217
0.359719386071745
0.401414272841883
0.493980432877528
0.758603826286866
2.19805984247462
0.310804394185713
0.311370694435232
0.311963999127758
0.313237603011071
0.316245580759095
0.322440896248922
0.334045487526628
0.355351020356483
0.396547119757305
0.487034830594372
0.74798992910267
2.19655353643084
0.307203054868365
0.307391088956403
0.307470484733185
0.307865079854497
0.309263942962315
0.312604528489126
0.319166948655209
0.331018492917665
0.352283613040972
0.392914399969903
0.481987717799938
0.739243397450364
2.19542185460332
0.305526499478226
0.305380721667773
0.305022282096288
0.304772216086909
0.305125629554141
0.306718787833479
0.310353825658764
0.317178767707219
0.329141532912078
0.35020519856938
0.390004514943647
0.476741652268054
0.728105240121261
2.19214152987675
0.305140243613237
0.304741413293608
0.304046742684277
0.303326992685955
0.302974467643253
0.303452490025302
0.305296229567595
0.309206380142438
0.316242187197611
0.328238719255613
0.348959719774973
0.387585518549555
0.471070230932262
0.714294455107742
2.18626670849686
0.305607616774958
0.305034357395852
0.304101902625912
0.303054505093415
0.302228516024914
0.301987583761309
0.302713019144762
0.304865817396837
0.309089830007124
0.316378106145671
0.32845413290111
0.348853849313433
0.386158442762116
0.46571158551456
0.699286369399163
2.18723776571563
0.306625397655477
0.30594444310217
0.304858168200614
0.303596936141396
0.302466189848114
0.301771426933152
0.301804081006971
0.302891833445048
0.305466870199426
0.310147442650739
0.31788279900976
0.330308054013091
0.350725926838653
0.387033347672646
0.462974670086418
0.688118554833814
2.21609202484968
0.307977385597236
0.307242447999231
0.30607000837823
0.304684276038241
0.30337387112318
0.302410037923065
0.302031310644683
0.302490473354235
0.304109018171593
0.307326811262272
0.312772213661148
0.321403865974788
0.334847064348984
0.356278558621461
0.393177544079232
0.468577779094455
0.693022375074772
2.28699231025751
0.309501420750102
0.308752173832724
0.307546479125037
0.306106050729464
0.304709895916551
0.303608933412496
0.30301077414035
0.303126644765559
0.304221032279515
0.306649599455254
0.31090493228947
0.317698693148122
0.328128778970572
0.344049138749861
0.369022446646826
0.411456273211719
0.49874856741537
0.760226118746607
2.38168062169014
2.93278370268114
2.963430438256
2.91000420680932
0.966073718106318
1.09358877801386
1.3838799406197
2.3762849872843
0.592943938357886
0.650847074819113
0.798000144629755
1.14655760408594
2.27469648339922
0.47579853613452
0.485036667998582
0.537727544353012
0.671037857825945
1.01753280862941
2.22173501302294
0.425288025174008
0.418518174419945
0.432391034065043
0.478318572096553
0.594898872597552
0.924997351844745
2.20981842825042
0.39217609327189
0.383942462529867
0.385103077025143
0.400831410017252
0.442528007437601
0.547613272111446
0.857465766310295
2.21116758405427
0.36480092029812
0.35997857551773
0.358146994238918
0.363320101612343
0.380314698668029
0.420465720715148
0.518595918573388
0.80952663561953
2.21028764797422
0.342700560296638
0.341094468575896
0.339654494502752
0.341166648686311
0.348675711395496
0.366823151293118
0.406589782857548
0.500340349247293
0.775878494308239
2.20591021466339
0.326796851769664
0.32668875130257
0.3260867690198
0.326482578866224
0.329898619575259
0.33889927534566
0.357931633460533
0.397527106907224
0.488204556535729
0.752188751302029
2.20134120919978
0.316510877209726
0.3167059332508
0.316436642359746
0.316423733692313
0.317907021969482
0.322496222135935
0.332449874003583
0.352015397411284
0.391332593140103
0.47967646368774
0.736960581717091
2.19838882195165
0.310420681503264
0.310452458947609
0.310100280237358
0.309757334991787
0.310174293222732
0.312389197829605
0.317736410823527
0.328271961302965
0.348077637214577
0.386996455144732
0.473890345822685
0.728395741461619
2.19629364699193
0.307165891148089
0.306946671567024
0.306357081361866
0.305679202661256
0.305412661832286
0.30623804017488
0.309000304848019
0.31486058993606
0.325754078239954
0.345626966042074
0.384067222073572
0.46904762876676
0.718039524679064
2.19251506362577
0.305766418726852
0.305333293421094
0.304507231938558
0.303529573811545
0.302782265731073
0.302744057529583
0.303975474608599
0.307193906893679
0.313461295968636
0.32461069915498
0.344405497561608
0.381967655460651
0.463987460573459
0.705119769819947
2.18641809142958
0.30557732055077
0.304991380779626
0.303982577713567
0.302774408887066
0.301691591413087
0.301101533743214
0.301398998976701
0.303058312718872
0.306731131768881
0.313414241126069
0.324837087372415
0.344531974390243
0.380996503316739
0.459306414406399
0.691036615730872
2.1872970841072
0.306172905605576
0.305491567046829
0.304361547948432
0.302998084283649
0.301696743149984
0.300762807191936
0.300494771351696
0.301229598239722
0.303407567191692
0.307653082858786
0.314921888336702
0.326855926323519
0.346742147813219
0.382377503591943
0.457259015595346
0.68106777979651
2.21612432856736
0.307262593854077
0.306534456273255
0.30533851828683
0.303887224227386
0.302461453022546
0.301331333473764
0.300739360398493
0.300944573185112
0.302275211541719
0.305177591819614
0.310286553670367
0.318567996169761
0.331649410265331
0.352679812429508
0.389040763277648
0.463693244961177
0.688245254190578
2.28697740177517
0.308640976112343
0.307905383106888
0.306689290411806
0.305206124275734
0.303730095816986
0.302511438229563
0.301760195443317
0.30169176623026
0.302575774488794
0.304773562475138
0.308783761803936
0.315324592324827
0.325499518901392
0.341158549558016
0.365836038784596
0.407946665284679
0.496079682742353
0.760702885549245
2.38167743220718
0.31015483829315
0.309440296132123
0.308240347838128
0.306770650172771
0.305302329123551
0.304074433835077
0.303278718094253
0.303107200376301
0.303800719565785
0.305683410686017
0.309202181022475
0.314995623880755
0.324027653530346
0.337862052092304
0.359284737816212
0.394040687809275
0.458280533894982
0.618157559025401
1.13965608710803
3.68516474725932
3.02036233907292
2.99996955259655
2.96251132142292
2.95949579870825
0.913960731083691
0.941149833049667
1.03944162226639
1.31260525313652
2.35262318028456
0.595875453080194
0.58600299581631
0.628899090232989
0.752107835682718
1.0760678268004
2.27190043232195
0.499846426530023
0.471478819047345
0.475928127965885
0.517868195342282
0.632846875580016
0.958301987748029
2.22780179852484
0.448054660376735
0.421545660450829
0.412308046323305
0.422017677039191
0.460455860741257
0.565030389015264
0.876653451302659
2.21366577464608
0.405312208843965
0.389332477670643
0.378820057442276
0.377746163193277
0.390304883808252
0.427331275987815
0.524288709177556
0.817961899815019
2.21187384474402
0.369199173699957
0.362938673853195
0.355888371306392
0.352308957356025
0.355701902273538
0.370484559134537
0.40740803863383
0.499317720791962
0.776425395396791
2.21005666715646
0.34311820149742
0.341555354768083
0.338067428774384
0.335042928654005
0.335226783971886
0.341380119841676
0.357809726970093
0.394896005691813
0.483354762672737
0.74701900063551
2.20590590636088
0.326286684305459
0.326082982916147
0.324534251712817
0.322554067926959
0.321815474672772
0.324231328582305
0.33210852530185
0.349598147359198
0.386717034685509
0.472632422593662
0.726562720745831
2.20165472354205
0.316114644027877
0.316048202761813
0.315144193867128
0.313755244921345
0.312784554378412
0.313473198456032
0.317258640899302
0.326196133205351
0.344301392701756
0.3812805742311
0.465432929914409
0.71645902427945
2.19811216874976
0.310345269392876
0.310104078402376
0.309257417117242
0.308021361001259
0.306916496890257
0.306717874217552
0.30835656702419
0.313024916772706
0.322640292852093
0.341103086881801
0.377881360034628