/*--------------------------------*- C++ -*----------------------------------*\
  =========                 |
  \\      /  F ield         | OpenFOAM: The Open Source CFD Toolbox
   \\    /   O peration     | Website:  https://openfoam.org
    \\  /    A nd           | Version:  12
     \\/     M anipulation  |
\*---------------------------------------------------------------------------*/
/*   Windows 32 and 64 bit porting by blueCAPE: http://www.bluecape.com.pt   *\
|  Based on Windows porting (2.0.x v4) by Symscape: http://www.symscape.com   |
\*---------------------------------------------------------------------------*/
FoamFile
{
    format      ascii;
    class       volScalarField;
    location    "200";
    object      p;
}
// * * * * * * * * * * * * * * * * * * * * * * * * * * * * * * * * * * * * * //

dimensions      [0 2 -2 0 0 0 0];

internalField   nonuniform List<scalar> 
10052
(
83333.3291825174
83333.3290520103
83333.3291803585
83333.3291854785
83333.3289148396
83333.3290496603
83333.3290553999
83333.3291835168
83333.3291916601
83333.3287707271
83333.328912177
83333.3289186364
83333.3290477017
83333.3290532825
83333.3290625086
83333.3291897317
83333.3292017269
83333.3286191765
83333.3287677717
83333.3287750145
83333.3289089668
83333.3289161982
83333.3289267326
83333.3290482039
83333.3290515457
83333.3290605157
83333.3290741058
83333.3291999301
83333.3284597384
83333.3286160217
83333.3286241817
83333.328762672
83333.3287722435
83333.328784257
83333.3289066094
83333.3289132063
83333.3289244036
83333.3289400016
83333.3290521147
83333.3290521435
83333.329058951
83333.3290723097
83333.3290907342
83333.3282950108
83333.3284564501
83333.3284657987
83333.3286083241
83333.3286210779
83333.3286347904
83333.3287559253
83333.328767293
83333.3287815481
83333.3287994839
83333.3289058808
83333.3289109836
83333.3289215985
83333.3289379337
83333.3289590814
83333.3290616226
83333.3290563972
83333.3290598124
83333.3290710497
83333.3290891708
83333.3291123889
83333.3281200783
83333.3282899925
83333.3283003795
83333.3284451075
83333.3284622107
83333.3284780156
83333.3285953419
83333.3286133858
83333.3286316874
83333.328652366
83333.3287483904
83333.328760616
83333.3287767345
83333.3287970158
83333.328821345
83333.3289095432
83333.3289106153
83333.328919733
83333.3289355035
83333.3289572937
83333.3289839529
83333.3290788824
83333.329066232
83333.3290646538
83333.3290726194
83333.3290885124
83333.3291111905
83333.3291386732
83333.3279284576
83333.3281129962
83333.3281270145
83333.3282723811
83333.3282956116
83333.3283139018
83333.3284235075
83333.3284506884
83333.3284743665
83333.3284985079
83333.3285783013
83333.3286003607
83333.3286240669
83333.3286494673
83333.3286775907
83333.3287439362
83333.328753518
83333.3287704902
83333.3287926361
83333.3288192413
83333.3288499015
83333.3289209653
83333.3289147603
83333.3289200623
83333.3289344116
83333.3289556028
83333.3289825643
83333.3290140078
83333.3291055965
83333.3290837147
83333.3290751903
83333.3290783412
83333.329091075
83333.3291112879
83333.329137853
83333.3291687391
83333.3277289068
83333.3279216235
83333.3279390887
83333.3280878397
83333.3281200539
83333.3281430687
83333.3282386288
83333.3282783203
83333.328309288
83333.3283379867
83333.328393444
83333.3284288495
83333.3284628604
83333.3284949581
83333.3285277387
83333.3285623774
83333.3285838387
83333.3286115646
83333.3286423239
83333.3286750977
83333.3287105156
83333.3287468724
83333.3287497425
83333.3287643361
83333.3287873634
83333.328815762
83333.3288482426
83333.3288843041
83333.3289426041
83333.3289265823
83333.3289252475
83333.3289359617
83333.3289557464
83333.328981817
83333.3290130599
83333.3290482416
83333.3291430912
83333.3291105619
83333.3290933067
83333.329089976
83333.3290981724
83333.3291151762
83333.3291388503
83333.329168296
83333.3292015149
83333.3275286821
83333.3277217708
83333.3277403107
83333.3278896681
83333.3279309791
83333.3279592756
83333.3280384431
83333.3280947689
83333.3281361659
83333.3281704627
83333.3281909157
83333.3282444552
83333.3282922029
83333.3283332317
83333.328371813
83333.3283617712
83333.3283994316
83333.3284417258
83333.3284839619
83333.328524682
83333.3285659934
83333.3285535182
83333.3285688924
83333.3285962838
83333.3286310659
83333.3286690299
83333.3287085505
83333.3287500608
83333.3287610527
83333.3287533253
83333.3287619041
83333.32878281
83333.3288120783
83333.3288459415
83333.3288831691
83333.3289231658
83333.3289765648
83333.3289485203
83333.3289379283
83333.3289426093
83333.3289590618
83333.3289835857
83333.3290134111
83333.3290477926
83333.3290856951
83333.3291923623
83333.3291481468
83333.3291206823
83333.3291091888
83333.3291113571
83333.3291240301
83333.3291442746
83333.3291703104
83333.3292015702
83333.3292359799
83333.3273309474
83333.3275196074
83333.3275411062
83333.327680448
83333.3277320665
83333.327763737
83333.3278211564
83333.3278977973
83333.3279506168
83333.3279908162
83333.3279673913
83333.3280452099
83333.3281109611
83333.3281636777
83333.3282082292
83333.3281379912
83333.3281976798
83333.3282593534
83333.3283166982
83333.3283677067
83333.3284165322
83333.3283365759
83333.3283692286
83333.3284139896
83333.3284644654
83333.3285149653
83333.3285635278
83333.3286118288
83333.3285570966
83333.3285610882
83333.3285831085
83333.3286179429
83333.3286598419
83333.3287039258
83333.3287487298
83333.3287947473
83333.3287895697
83333.328768048
83333.3287666605
83333.3287823135
83333.3288098338
83333.3288443498
83333.3288822365
83333.3289227307
83333.3289658002
83333.3290244158
83333.3289826926
83333.3289606562
83333.3289568191
83333.3289677556
83333.3289891306
83333.3290170909
83333.3290493698
83333.329085838
83333.3291255489
83333.3292540295
83333.329197484
83333.329158672
83333.3291375501
83333.3291321522
83333.3291392048
83333.329155199
83333.32917749
83333.3292047795
83333.3292367504
83333.3292724573
83333.327140012
83333.3273182036
83333.3273451009
83333.3274636854
83333.3275311378
83333.3275677763
83333.3275865008
83333.3276895108
83333.3277550308
83333.3278008829
83333.3277194634
83333.3278290547
83333.3279168953
83333.3279827577
83333.3280353744
83333.3278860073
83333.3279754228
83333.3280626213
83333.3281394079
83333.3282027183
83333.3282581195
83333.32809039
83333.3281466853
83333.3282148788
83333.3282860659
83333.3283527742
83333.3284128556
83333.3284694736
83333.3283253483
83333.3283456108
83333.328386173
83333.3284396612
83333.3284981936
83333.3285555017
83333.3286099528
83333.3286639413
83333.3285776317
83333.3285655168
83333.3285771903
83333.3286074853
83333.3286497974
83333.3286974411
83333.3287457831
83333.3287940741
83333.3288433711
83333.3288347521
83333.3287969519
83333.3287825983
83333.3287892943
83333.3288120712
83333.3288450139
83333.3288830859
83333.3289233499
83333.3289659582
83333.32901219
83333.3290871647
83333.3290306851
83333.3289954445
83333.3289809067
83333.3289840782
83333.3290004095
83333.329025249
83333.3290551902
83333.3290887024
83333.3291261778
83333.3291664731
83333.3293282512
83333.3292591796
83333.3292082791
83333.3291763378
83333.3291619612
83333.3291620241
83333.3291727282
83333.3291907528
83333.3292139091
83333.3292413602
83333.329273616
83333.3293102095
83333.3269614526
83333.3271210328
83333.3271561254
83333.3272419492
83333.3273314383
83333.3273754386
83333.3273350479
83333.3274739071
83333.3275573553
83333.327611176
83333.3274437761
83333.3275957527
83333.3277117388
83333.3277927746
83333.3278546522
83333.3275997035
83333.3277291613
83333.3278496142
83333.3279502881
83333.3280285692
83333.3280919267
83333.3278076884
83333.3278962805
83333.3279959711
83333.3280942057
83333.3281811418
83333.3282535814
83333.3283190005
83333.3280586014
83333.328101405
83333.3281672358
83333.3282456289
83333.3283258303
83333.3283999005
83333.3284662297
83333.3285281501
83333.3283344776
83333.3283357327
83333.328365196
83333.3284155937
83333.3284775421
83333.3285422377
83333.3286039245
83333.3286623401
83333.3287193604
83333.3286184912
83333.3285866891
83333.3285831964
83333.3286044006
83333.3286430347
83333.3286912338
83333.3287424285
83333.3287929601
83333.3288431215
83333.3288949931
83333.3288981283
83333.3288423838
83333.3288124255
83333.3288070714
83333.3288219143
83333.3288506525
83333.3288871229
83333.3289269321
83333.3289681513
83333.3290123018
83333.3290582978
83333.3291651664
83333.3290934979
83333.3290438502
83333.3290168019
83333.3290101092
83333.3290193881
83333.329039545
83333.3290662633
83333.3290968044
83333.3291303262
83333.3291675063
83333.3292081759
83333.3294146704
83333.3293333665
83333.3292700894
83333.3292264927
83333.3292019369
83333.3291936941
83333.3291979337
83333.3292109184
83333.3292297158
83333.3292526074
83333.329279434
83333.3293114436
83333.3293461241
83333.3268034261
83333.3269332589
83333.3269804795
83333.3270181609
83333.3271361423
83333.3271905735
83333.3270672643
83333.3272534253
83333.3273611341
83333.3274251732
83333.3271369913
83333.3273459748
83333.327499499
83333.3276011243
83333.3276733209
83333.3272716645
83333.3274556813
83333.3276200987
83333.3277510116
83333.3278471193
83333.3279221758
83333.327479275
83333.3276121138
83333.3277540533
83333.3278873264
83333.3279994524
83333.3280868046
83333.3281611069
83333.3277474129
83333.3278213931
83333.3279216498
83333.3280331997
83333.3281412925
83333.328235482
83333.3283148481
83333.3283857605
83333.3280516329
83333.3280716528
83333.3281257269
83333.3282032294
83333.3282910914
83333.3283776613
83333.3284558956
83333.3285255213
83333.3285908318
83333.3283687853
83333.3283458391
83333.3283577404
83333.328398614
83333.32845852
83333.3285267098
83333.328594721
83333.3286583001
83333.3287181344
83333.3287761012
83333.3286819099
83333.328627953
83333.3286057536
83333.328613165
83333.3286438069
83333.3286890031
83333.3287406268
83333.3287930871
83333.3288439611
83333.3288949311
83333.3289474345
83333.3289803089
83333.3289058744
83333.3288584732
83333.3288384283
83333.3288423219
83333.3288640241
83333.3288966894
83333.3289347006
83333.3289745964
83333.3290156002
83333.3290589373
83333.3291044568
83333.3292580626
83333.3291714641
83333.3291068488
83333.3290659746
83333.3290476069
83333.3290478781
83333.3290616134
83333.3290838965
83333.3291109896
83333.3291408106
83333.3291731208
83333.3292094737
83333.3292480167
83333.3295124185
83333.3294196678
83333.3293442124
83333.329288551
83333.3292529125
83333.3292351938
83333.3292317848
83333.3292387675
83333.3292527037
83333.3292710849
83333.3292927259
83333.3293180965
83333.3293480069
83333.3293796333
83333.3266710153
83333.3267597685
83333.3268252731
83333.3267966689
83333.3269500107
83333.3270193268
83333.3267844816
83333.3270307146
83333.327169659
83333.327247017
83333.3267954822
83333.3270803424
83333.3272827241
83333.3274112897
83333.327496038
83333.3268934404
83333.3271518213
83333.327374956
83333.3275454172
83333.327664109
83333.3277521132
83333.3270934582
83333.3272874079
83333.3274862508
83333.3276654172
83333.3278092319
83333.3279160389
83333.3280024325
83333.3273795062
83333.3274967319
83333.3276439844
83333.3277996722
83333.3279436864
83333.3280629063
83333.3281571046
83333.3282391759
83333.3277179108
83333.3277641597
83333.3278521483
83333.3279663009
83333.3280882615
83333.3282024833
83333.3283003749
83333.3283827499
83333.3284574272
83333.3280763858
83333.3280661798
83333.3280994739
83333.3281673325
83333.3282556708
83333.3283498924
83333.3284391326
83333.3285183133
83333.3285890573
83333.3286553721
83333.3284314917
83333.3283807743
83333.3283697805
83333.3283948713
83333.3284468426
83333.3285138044
83333.3285850185
83333.328653511
83333.328716577
83333.3287758165
83333.3288350309
83333.3287688331
83333.3286915576
83333.3286479211
83333.328637823
83333.3286561935
83333.3286945045
83333.328743569
83333.3287961127
83333.3288478029
83333.3288975757
83333.3289479399
83333.3289992708
83333.3290809161
83333.3289880195
83333.3289222494
83333.328885547
83333.3288758555
83333.3288877166
83333.3289141142
83333.3289485641
83333.3289862953
83333.3290247989
83333.3290639295
83333.3291056715
83333.3291486985
83333.329364796
83333.329264208
83333.3291847497
83333.3291293332
83333.3290978968
83333.329087403
83333.3290929518
83333.3291093494
83333.3291321478
83333.3291582127
83333.3291860885
83333.3292162408
83333.3292500415
83333.3292850874
83333.3296201716
83333.329517208
83333.3294302569
83333.3293625895
83333.3293153445
83333.329287213
83333.3292750521
83333.3292750054
83333.3292833377
83333.3292969703
83333.3293138506
83333.3293332592
83333.3293558474
83333.3293823975
83333.3294099935
83333.3265687353
83333.3266045851
83333.3266950645
83333.3265823084
83333.3267773654
83333.3268679388
83333.326490674
83333.3268099365
83333.3269871507
83333.3270824208
83333.3264167498
83333.3268004478
83333.3270641308
83333.3272265463
83333.3273269823
83333.3264545597
83333.3268143907
83333.3271151292
83333.3273361863
83333.3274834572
83333.327586251
83333.3266349494
83333.3269139226
83333.3271899827
83333.3274296179
83333.3276137904
83333.3277444786
83333.3278449765
83333.3269387007
83333.3271163525
83333.3273281097
83333.3275427968
83333.3277333101
83333.3278842518
83333.3279978056
83333.3280926703
83333.3273185364
83333.3274014868
83333.3275363864
83333.3277001952
83333.327867078
83333.3280165606
83333.3281384354
83333.3282362236
83333.3283224677
83333.3277290059
83333.3277368989
83333.3278000095
83333.3279047919
83333.3280311414
83333.3281591283
83333.3282748287
83333.3283726158
83333.3284557199
83333.328532289
83333.3281374136
83333.3280918832
83333.32809681
83333.3281463314
83333.3282271453
83333.3283228251
83333.3284191886
83333.3285075703
83333.3285851887
83333.3286548356
83333.3287217532
83333.3285239806
83333.3284437669
83333.3284060223
83333.3284099463
83333.3284480746
83333.3285085378
83333.3285789999
83333.3286500912
83333.3287165783
83333.3287771875
83333.3288355184
83333.3288932597
83333.328878826
83333.3287784418
83333.3287119497
83333.3286814879
83333.3286838334
83333.3287113222
83333.3287544402
83333.3288046469
83333.3288558864
83333.3289050784
83333.3289523575
83333.32900048
83333.3290487191
83333.3291986133
83333.3290884278
83333.3290043266
83333.328949837
83333.3289245015
83333.3289239719
83333.3289415679
83333.3289703779
83333.32900464
83333.3290404518
83333.3290761023
83333.3291122118
83333.3291507642
83333.3291897898
83333.3294836917
83333.3293706681
83333.3292771648
83333.3292071456
83333.3291617804
83333.3291390966
83333.3291348058
83333.329143774
83333.3291611266
83333.3291829495
83333.3292067136
83333.3292315317
83333.3292582105
83333.3292880761
83333.3293184519
83333.3297362465
83333.3296246682
83333.3295273477
83333.3294482055
83333.3293892635
83333.3293501064
83333.3293282599
83333.3293201765
83333.3293220462
83333.3293304041
83333.3293425734
83333.3293569202
83333.3293730158
83333.3293917014
83333.329413838
83333.329436269
83333.3265001882
83333.3264707738
83333.3265924904
83333.3263804963
83333.3266213689
83333.3267400805
83333.3261935117
83333.3265962756
83333.3268171846
83333.3269365523
83333.3260030068
83333.3265105161
83333.3268476273
83333.3270505606
83333.3271710118
83333.325944037
83333.3264416646
83333.3268425242
83333.3271260863
83333.3273083028
83333.3274285322
83333.3260834171
83333.3264822049
83333.3268629581
83333.3271813345
83333.3274160346
83333.3275756076
83333.3276920679
83333.3264026553
83333.3266660592
83333.3269670548
83333.3272608687
83333.3275115284
83333.3277019283
83333.3278390116
83333.327948192
83333.3268335945
83333.3269683311
83333.3271685645
83333.3273999367
83333.3276261034
83333.3278206924
83333.3279726647
83333.3280892066
83333.3281883508
83333.3273103094
83333.3273438945
83333.3274486168
83333.3276041124
83333.3277813807
83333.3279532406
83333.3281021583
83333.3282225814
83333.3283206772
83333.3284086907
83333.3277871208
83333.327749448
83333.3277768627
83333.3278601703
83333.3279800175
83333.3281135563
83333.3282420484
83333.3283549586
83333.3284497993
83333.3285316595
83333.3286078831
83333.3282366981
83333.3281533386
83333.3281244073
83333.328147982
83333.3282130836
83333.3283030913
83333.328401382
83333.3284959346
83333.3285805984
83333.3286544835
83333.3287221335
83333.3287871477
83333.3286456901
83333.3285362051
83333.3284696307
83333.3284483028
83333.3284672838
83333.3285157989
83333.3285809164
83333.3286514056
83333.3287196728
83333.3287820994
83333.3288391276
83333.3288945069
83333.3289486392
83333.3290101358
83333.3288881647
83333.328798756
83333.3287462414
83333.3287295958
83333.3287426445
83333.3287762676
83333.3288212618
83333.3288701847
83333.3289182013
83333.328963382
83333.3290066934
83333.3290508239
83333.3290944317
83333.3293312246
83333.3292057638
83333.329104306
83333.3290318174
83333.3289895228
83333.3289745154
83333.3289809188
83333.3290018639
83333.3290309727
83333.3290632776
83333.3290956987
83333.3291272444
83333.3291589841
83333.3291929234
83333.3292265413
83333.3296125957
83333.3294891794
83333.3293830389
83333.3292990128
83333.3292394648
83333.3292036229
83333.3291880868
83333.329188117
83333.3291987173
83333.3292154397
83333.3292349392
83333.3292552408
83333.3292758669
83333.3292978848
83333.3293226235
83333.3293471016
83333.3298587207
83333.3297403787
83333.3296341819
83333.3295445353
83333.3294742556
83333.3294238482
83333.3293916482
83333.3293746298
83333.3293691444
83333.329371539
83333.3293786838
83333.3293883064
83333.3293991165
83333.3294109262
83333.3294247069
83333.3294413063
83333.3294575297
83333.3264714844
83333.3263730673
83333.3265231383
83333.3262007751
83333.3264876591
83333.3266379063
83333.3259050181
83333.3263962545
83333.3266629041
83333.3268124196
83333.3255657379
83333.3262183412
83333.326638345
83333.3268864211
83333.3270324099
83333.3253591494
83333.3260365642
83333.3265613506
83333.3269189053
83333.3271418557
83333.3272830922
83333.3254152274
83333.3259837341
83333.3265045664
83333.3269229955
83333.3272188151
83333.3274125057
83333.3275470398
83333.325739529
83333.3261277472
83333.3265533203
83333.326952878
83333.3272802628
83333.3275187561
83333.3276834078
83333.327808574
83333.3262346942
83333.3264440781
83333.3267365029
83333.3270603254
83333.3273646408
83333.327616349
83333.3278050167
83333.3279435643
83333.3280569505
83333.3267981374
83333.3268683103
83333.3270316925
83333.3272572376
83333.3275028548
83333.3277316737
83333.3279223663
83333.3280703775
83333.32818604
83333.3282864667
83333.3273639583
83333.3273378093
83333.3273970711
83333.3275272627
83333.3277000875
83333.3278835756
83333.3280531051
83333.3281963368
83333.3283118647
83333.3284078294
83333.3284946099
83333.3278950614
83333.3278081823
83333.3277921414
83333.3278432209
83333.327945206
83333.3280746336
83333.3282090275
83333.3283331001
83333.3284398986
83333.328529504
83333.3286081171
83333.3286815768
83333.3283734248
83333.3282525447
83333.3281867492
83333.328178573
83333.3282205135
83333.3282973273
83333.3283913467
83333.3284878157
83333.3285773342
83333.3286559654
83333.328724648
83333.3287883472
83333.3288491635
83333.3287942401
83333.3286575333
83333.3285619642
83333.3285129291
83333.3285085435
83333.328540035
83333.3285949069
83333.3286608944
83333.3287284344
83333.3287916455
83333.3288484477
83333.328900279
83333.328950798
83333.3289995799
83333.3291598626
83333.3290189824
83333.3289078994
83333.3288329288
83333.3287953604
83333.3287909835
83333.328811732
83333.3288483966
83333.3288926393
83333.3289381865
83333.3289813528
83333.3290211309
83333.3290589862
83333.3290976802
83333.3291350541
83333.329475936
83333.3293378686
83333.3292208681
83333.3291310802
83333.3290713578
83333.3290404242
83333.3290335917
83333.3290444933
83333.3290665531
83333.3290940584
83333.3291228512
83333.3291505969
83333.32917684
83333.3292029944
83333.3292309855
83333.3292578464
83333.3297490475
83333.3296176079
83333.3295007334
83333.3294039003
83333.3293305388
83333.329281114
83333.3292533044
83333.3292430547
83333.3292455643
83333.3292561179
83333.3292707654
83333.3292867218
83333.3293024793
83333.3293178858
83333.329334151
83333.3293525342
83333.3293700709
83333.3299855588
83333.3298624342
83333.3297491182
83333.3296503095
83333.3295694791
83333.3295080138
83333.3294651305
83333.3294384872
83333.3294248087
83333.3294204716
83333.3294220672
83333.3294268369
83333.3294328875
83333.3294392229
83333.3294458185
83333.3294536049
83333.3294634492
83333.3294732692
83333.3263230959
83333.326495835
83333.3260696806
83333.3263923354
83333.3265697261
83333.3256507164
83333.326220722
83333.3265318593
83333.3267129199
83333.325126389
83333.3259365379
83333.3264434787
83333.3267377617
83333.3269140528
83333.3247151473
83333.3256106725
83333.326279529
83333.3267197294
83333.3269870191
83333.3271536124
83333.3246160979
83333.3254158934
83333.3261184037
83333.3266590944
83333.3270259034
83333.3272581481
83333.3274133864
83333.3249091285
83333.3254813468
83333.3260808231
83333.3266198285
83333.3270424915
83333.3273377078
83333.3275338277
83333.3276766459
83333.3254795557
83333.3258004948
83333.3262255699
83333.3266765427
83333.3270830775
83333.3274058116
83333.3276380551
83333.3278016831
83333.327930583
83333.326160266
83333.3262839942
83333.3265315847
83333.3268548689
83333.3271923838
83333.327494662
83333.3277370447
83333.3279178752
83333.3280535629
83333.3281674527
83333.3268453044
83333.3268360854
83333.3269407239
83333.3271364972
83333.3273814897
83333.3276308205
83333.3278525666
83333.3280330827
83333.3281731826
83333.3282850819
83333.3283834545
83333.3274833974
83333.3273923855
83333.3273950493
83333.3274847327
83333.3276373013
83333.3278193778
83333.3280005297
83333.3281616076
83333.3282952937
83333.3284033623
83333.3284945915
83333.3285775325
83333.328051534
83333.3279159841
83333.3278521605
83333.3278627779
83333.3279364343
83333.3280513742
83333.3281833131
83333.3283129122
83333.3284287508
83333.3285268981
83333.3286093248
83333.3286826764
83333.3287510151
83333.3285442619
83333.3283887155
83333.3282857915
83333.3282423396
83333.3282551529
83333.3283116863
83333.3283947041
83333.3284878299
83333.328578854
83333.328660808
83333.3287316501
83333.3287935048
83333.3288513429
83333.3289059185
83333.3289656705
83333.3288053932
83333.328682481
83333.3286050939
83333.3285745627
83333.3285848133
83333.3286247247
83333.3286819161
83333.3287455079
83333.3288076505
83333.3288640366
83333.3289137526
83333.3289588329
83333.3290029491
83333.3290445624
83333.3293242597
83333.3291680247
83333.3290376685
83333.328941106
83333.3288818644
83333.3288579628
83333.3288629344
83333.328888201
83333.3289250998
83333.3289663161
83333.3290067308
83333.3290436587
83333.3290767637
83333.3291079136
83333.3291397275
83333.3291693883
83333.3296295461
83333.3294819582
83333.3293518964
83333.329246341
83333.3291695867
83333.3291220356
83333.3291004532
83333.3290993746
83333.3291124546
83333.329133595
83333.3291578204
83333.329181749
83333.3292036692
83333.329223551
83333.3292429612
83333.3292636572
83333.3292827549
83333.3298904583
83333.3297535173
83333.3296281561
83333.3295202188
83333.3294340015
83333.3293711459
83333.3293305082
83333.3293089368
83333.3293021125
83333.3293053412
83333.3293142944
83333.3293255523
83333.3293368474
83333.3293470647
83333.3293562568
83333.3293655932
83333.3293763658
83333.3293868834
83333.3301147303
83333.329988818
83333.3298702875
83333.3297639365
83333.3296737156
83333.329601793
83333.3295482741
83333.3295116028
83333.329489049
83333.329477221
83333.3294726254
83333.3294721604
83333.3294734446
83333.329474933
83333.3294758489
83333.3294761638
83333.32947673
83333.3294792048
83333.3294833361
83333.3259913066
83333.3263466387
83333.3265444634
83333.3254815018
83333.3260950486
83333.3264412066
83333.3266478522
83333.3247408543
83333.3256915579
83333.3262765122
83333.326613132
83333.3268200559
83333.3240350032
83333.3251865707
83333.3260110999
83333.3265361668
83333.3268479103
83333.327043262
83333.3236985724
83333.3247913385
83333.3257160334
83333.3263977285
83333.3268422333
83333.3271154432
83333.3272944832
83333.3238834282
83333.3247145364
83333.3255494687
83333.3262665734
83333.3268031051
83333.3271624447
83333.3273930868
83333.3275553815
83333.3245133628
83333.325003502
83333.3256207247
83333.3262460729
83333.3267840483
83333.3271924747
83333.3274746778
83333.327666155
83333.327811667
83333.3253476054
83333.3255535463
83333.325925374
83333.3263870154
83333.3268480004
83333.3272437632
83333.3275486386
83333.3277674214
83333.3279253497
83333.3280536535
83333.3261981916
83333.3262146207
83333.3263854485
83333.3266743445
83333.3270181827
83333.3273539993
83333.3276414029
83333.327866901
83333.3280355655
83333.3281651651
83333.3282759496
83333.3269806546
83333.326884624
83333.3269145657
83333.3270588786
83333.3272812096
83333.3275336418
83333.3277750839
83333.3279821754
83333.3281481634
83333.3282776237
83333.3283829676
83333.3284762743
83333.3276664585
83333.3275115652
83333.3274514458
83333.3274889075
83333.3276065004
83333.3277728701
83333.3279544704
83333.3281261001
83333.3282742927
83333.3283957162
83333.3284941308
83333.3285784434
83333.3286550683
83333.3282517579
83333.3280716232
83333.3279596793
83333.3279247926
83333.3279616902
83333.328052256
83333.328172527
83333.3283006028
83333.3284210422
83333.3285258548
83333.3286134252
83333.3286869921
83333.3287531743
83333.3288141657
83333.328743671
83333.32855856
83333.328420788
83333.3283411102
83333.3283208353
83333.3283511647
83333.3284166445
83333.3285005613
83333.328588752
83333.328671522
83333.3287440061
83333.328805588
83333.3288591105
83333.3289093936
83333.3289557285
83333.329154899
83333.3289758747
83333.3288288813
83333.328724265
83333.3286664655
83333.3286524859
83333.3286733676
83333.3287175068
83333.3287734858
83333.3288319861
83333.3288867905
83333.3289349086
83333.3289762569
83333.3290132988
83333.3290494604
83333.3290823005
83333.3294991007
83333.32933159
83333.3291852609
83333.3290691199
83333.3289886552
83333.3289441842
83333.3289312109
83333.3289423479
83333.3289691921
83333.3290038654
83333.3290401372
83333.3290739574
83333.329103453
83333.3291288136
83333.3291520582
83333.3291755293
83333.3291965573
83333.3297887228
83333.3296348663
83333.329494669
83333.3293755585
83333.3292829777
83333.3292189169
83333.3291817301
83333.3291671576
83333.3291694752
83333.329182584
83333.3292009876
83333.329220465
83333.3292383336
83333.3292533981
83333.3292658808
83333.3292773054
83333.3292894577
83333.3293008596
83333.3300342772
83333.3298943455
83333.3297629217
83333.3296459481
83333.3295483371
83333.3294727632
83333.3294192641
83333.3293857314
83333.3293685584
83333.3293633426
83333.3293656297
83333.3293715457
83333.3293781935
83333.329383769
83333.3293874455
83333.3293892979
83333.3293904297
83333.3293931216
83333.3293976054
83333.3302443132
83333.3301175194
83333.329995712
83333.329883608
83333.3297854465
83333.3297040337
83333.3296403078
83333.3295935404
83333.3295616667
83333.3295416993
83333.3295302461
83333.3295240265
83333.3295202736
83333.3295169697
83333.3295128554
83333.329507213
83333.3294999295
83333.3294926399
83333.329488992
83333.3294873303
83333.3253845225
83333.3260215897
83333.3264016714
83333.326624793
83333.3244908881
83333.3255281093
83333.3261613526
83333.3265299021
83333.326759912
83333.3234251649
83333.3248185608
83333.3257847172
83333.3263824954
83333.3267335018
83333.3269571981
83333.3226710552
83333.324139709
83333.3253209547
83333.3261533261
83333.3266752868
83333.3269888743
83333.3271939626
83333.3226619867
83333.3238337434
83333.3249724207
83333.3259051639
83333.3265700415
83333.3269976116
83333.3272641732
83333.327447941
83333.3232986171
83333.3240276208
83333.3249144518
83333.3257723457
83333.3264736672
83333.3269813752
83333.3273183119
83333.3275396052
83333.3277028489
83333.3242958019
83333.3246304313
83333.3251871404
83333.3258452588
83333.3264707877
83333.3269828135
83333.3273606955
83333.3276217334
83333.3278037909
83333.3279471737
83333.3253721155
83333.3254300898
83333.3257008387
83333.3261248215
83333.3266050198
83333.3270535473
83333.3274219358
83333.3277002385
83333.3279011082
83333.3280500167
83333.3281737703
83333.3263566677
83333.3262546417
83333.326325393
83333.3265484986
83333.3268679872
83333.3272144057
83333.3275328774
83333.3277962605
83333.3280002536
83333.3281540185
83333.3282747468
83333.3283791036
83333.3272004081
83333.3270194703
83333.3269657367
83333.3270418338
83333.3272206878
83333.3274565696
83333.3277029816
83333.3279274803
83333.3281149474
83333.3282637126
83333.3283803709
83333.3284768521
83333.3285623795
83333.3279061606
83333.3276933467
83333.3275701039
83333.3275481067
83333.3276187917
83333.3277556754
83333.3279251784
83333.32809803
83333.328254993
83333.3283873628
83333.3284945914
83333.3285816429
83333.3286571488
83333.3287251206
83333.3284878049
83333.3282703858
83333.3281135667
83333.3280318375
83333.3280263421
83333.3280842229
83333.3281837917
83333.3283023874
83333.3284216442
83333.3285297957
83333.3286216315
83333.3286971997
83333.3287604823
83333.3288177188
83333.3288692346
83333.3289646331
83333.3287566248
83333.3285885485
83333.3284741729
83333.3284191895
83333.3284190905
83333.3284613641
83333.3285302202
83333.3286106006
83333.3286907161
83333.3287631548
83333.3288247448
83333.3288758581
83333.3289197557
83333.3289608422
83333.3289972278
83333.329356271
83333.3291639658
83333.3289973652
83333.3288682399
83333.328783722
83333.3287439936
83333.3287427897
83333.3287700786
83333.3288147073
83333.3288665211
83333.3289177829
83333.328963728
83333.3290024008
83333.3290343311
83333.3290621119
83333.3290887652
83333.3291120352
83333.3296800524
83333.3295055041
83333.3293470691
83333.329214284
83333.3291141635
83333.329049185
83333.3290170137
83333.3290118777
83333.3290261717
83333.3290519693
83333.3290823139
83333.3291120393
83333.3291380272
83333.3291590617
83333.3291756307
83333.3291896857
83333.3292035927
83333.3292162431
83333.329950233
83333.3297932973
83333.3296460927
83333.3295161156
83333.3294095975
83333.3293299042
83333.3292769787
83333.329247958
83333.3292380562
83333.3292415382
83333.3292527177
83333.3292667658
83333.3292801797