/*--------------------------------*- C++ -*----------------------------------*\
  =========                 |
  \\      /  F ield         | OpenFOAM: The Open Source CFD Toolbox
   \\    /   O peration     | Website:  https://openfoam.org
    \\  /    A nd           | Version:  12
     \\/     M anipulation  |
\*---------------------------------------------------------------------------*/
/*   Windows 32 and 64 bit porting by blueCAPE: http://www.bluecape.com.pt   *\
|  Based on Windows porting (2.0.x v4) by Symscape: http://www.symscape.com   |
\*---------------------------------------------------------------------------*/
FoamFile
{
    format      ascii;
    class       surfaceScalarField;
    location    "200";
    object      phi;
}
// * * * * * * * * * * * * * * * * * * * * * * * * * * * * * * * * * * * * * //

dimensions      [0 3 -1 0 0 0 0];

internalField   nonuniform List<scalar> 
28563
(
2.39516775257924e-05
-3.09644181945804e-07
-9.99680747285933e-07
2.54062884993231e-05
-2.96073836609579e-07
-1.15852351901939e-06
7.65112086533247e-06
-3.22060843514613e-07
2.85190055853098e-05
-3.49445074020461e-07
-2.12449447542875e-06
2.6975044544833e-05
-2.44809717374241e-07
-1.32393007348199e-06
8.19478011014111e-06
-4.64968511944341e-07
-3.74750463919375e-07
3.01676483671173e-05
-3.447791225544e-07
-2.46233690582004e-06
9.85170087296316e-06
-7.27235753918233e-07
3.16265953152361e-05
-3.83094878964149e-07
-3.32774304826739e-06
2.86561413735762e-05
-1.62288595412952e-07
-1.51878839260202e-06
8.78514287475896e-06
-4.08288813809964e-07
-4.26868396865706e-07
3.1963625519036e-05
-2.83250192506896e-07
-2.83660316268756e-06
6.15283384023601e-06
-6.15673021293584e-07
-2.73067332189646e-07
1.05059808371574e-05
-5.25884717517841e-07
-8.47907795696578e-07
3.34101535703098e-05
-3.9168359257973e-07
-3.85416795784929e-06
1.13532612929014e-05
-1.16339800667518e-06
3.4903773619576e-05
-4.17644759190415e-07
3.04595559686826e-05
-4.29905025221244e-08
-1.76040476575579e-06
9.41783090460047e-06
-3.08039355052225e-07
-4.86922241732148e-07
3.38987904523369e-05
-1.80267018948271e-07
-3.27363059383961e-06
6.60852578255937e-06
-5.51655323497046e-07
-3.12322320173803e-07
1.12244677723412e-05
-4.51103927722696e-07
-9.77480827100781e-07
3.53552315759732e-05
-3.19855449226312e-07
-4.46178337847168e-06
5.64880883240091e-06
-7.71653813591278e-07
-2.37240228509646e-07
7.59580641304613e-06
-6.99612775693809e-07
-6.00176857548819e-07
1.20711328426064e-05
-5.99257570476597e-07
-1.35818473566148e-06
3.68033988642955e-05
-4.39849213437166e-07
-5.31390530147856e-06
1.2806374393149e-05
3.23039557676857e-05
1.4943154972607e-07
-1.99381367643492e-06
1.00867893274779e-05
-1.53558371021201e-07
-5.58373288313941e-07
3.59620283791533e-05
-3.160885595679e-08
-3.79198551024999e-06
7.09828529029363e-06
-4.41536531510614e-07
-3.56259232866828e-07
1.20057309618988e-05
-3.18498274883255e-07
-1.12993395159979e-06
3.74495085441502e-05
-1.96116122207249e-07
-5.17174601319075e-06
6.07498855761321e-06
-7.03477757573072e-07
-2.74355129776935e-07
8.135548369803e-06
-6.11185410988296e-07
-6.91974858299072e-07
1.28685831439106e-05
-5.14290509177611e-07
-1.58047361806098e-06
3.88750200979141e-05
-3.71986738210295e-07
-6.1613687536802e-06
5.41611681677508e-06
-9.31335557331768e-07
-2.18299844211169e-07
6.78814172829032e-06
-8.81212887411375e-07
-5.17289955682508e-07
8.78692282253187e-06
-8.09545810333426e-07
-9.51229394010697e-07
1.35879157194561e-05
-6.73993834750173e-07
-1.90555966871647e-06
3.90043611593073e-05
-4.79127811016339e-07
-6.75580355394035e-06
3.37583954955137e-05
5.41627255297031e-07
-1.99604784343958e-06
1.0794418159794e-05
7.54082068046872e-08
-6.33587090394644e-07
3.812101019648e-05
2.03966725053301e-07
-4.35670471437107e-06
7.62393306342745e-06
-2.71741482237096e-07
-4.07460939937535e-07
1.28435011716836e-05
-1.17495605381342e-07
-1.31023511463394e-06
3.97028086111347e-05
-2.45960751847646e-08
-6.02063641902294e-06
6.53675838975151e-06
-5.8860563220507e-07
-3.14698361745845e-07
8.72386705001611e-06
-4.65741544331226e-07
-7.97325815250023e-07
1.37426369632685e-05
-3.60264558342017e-07
-1.83981525884783e-06
4.10878732494724e-05
-2.31588560514781e-07
-7.15296122058079e-06
5.83137803054958e-06
-8.6584336768039e-07
-2.52893894831602e-07
7.29172517575559e-06
-7.89762188861232e-07
-5.99356284122078e-07
9.39065398919116e-06
-7.0452795742359e-07
-1.10546055768897e-06
1.44430950067324e-05
-5.84208146596338e-07
-2.22340526139104e-06
4.10825219474714e-05
-4.25739740936898e-07
-7.81374226740151e-06
5.22630064203322e-06
-1.09329395059311e-06
-2.04435659735104e-07
6.3611730642791e-06
-1.0694026255628e-06
-4.70619032319984e-07
7.82258941503678e-06
-1.02276290379228e-06
-8.24410620431623e-07
9.76306657905058e-06
-9.06602029753945e-07
-1.32212974447368e-06
1.44446192030613e-05
-7.43259914416709e-07
-2.46194482118089e-06
3.96321930075249e-05
-5.23896703558995e-07
-8.08033491056997e-06
3.54555725601421e-05
9.17646004335382e-07
-2.61480656025547e-06
1.15913919787161e-05
4.23513403183221e-07
-6.78843256112713e-07
4.0458801126511e-05
6.02710623920744e-07
-4.93648804103466e-06
8.18934175721698e-06
-2.36793160262447e-08
-4.66316808696802e-07
1.37522347127743e-05
1.77619907043986e-07
-1.5159487068442e-06
4.21456149012773e-05
2.3086853599806e-07
-7.03032695608245e-06
7.03984335761504e-06
-4.13180055981019e-07
-3.61643819756739e-07
9.36347311818205e-06
-2.44316624033468e-07
-9.20238092451868e-07
1.46861791403301e-05
-1.29419814216575e-07
-2.14892806593299e-06
4.34398805191487e-05
-3.86733565863158e-08
-8.333919726547e-06
6.28702569094221e-06
-7.53114201802059e-07
-2.9113730173037e-07
7.84282380276305e-06
-6.39114062910191e-07
-6.92418214953988e-07
1.00523994944449e-05
-5.356589515677e-07
-1.28366720361053e-06
1.53906012112459e-05
-4.16054608903489e-07
-2.60282936785218e-06
4.32952989216087e-05
-2.96697012749283e-07
-9.06899732905282e-06
5.63220413168788e-06
-1.03503119990678e-06
-2.3671414168263e-07
6.84789234996951e-06
-9.84319786102462e-07
-5.45050952847363e-07
8.39021215886485e-06
-9.16003882535705e-07
-9.55496436686507e-07
1.0411575593488e-05
-7.98181397720213e-07
-1.53998645866718e-06
1.53297616712231e-05
-6.6186228548605e-07
-2.87239586602646e-06
4.16077905038526e-05
-4.84205340150639e-07
-9.30509093436847e-06
5.03921061629967e-06
-1.2542489545252e-06
-1.93355977394586e-07
6.0620189553551e-06
-1.25932466186539e-06
-4.39957226619486e-07
7.26187351754357e-06
-1.24038936085892e-06
-7.48473249523439e-07
8.61501550085129e-06
-1.14783173218469e-06
-1.14371590770115e-06
1.01638799123891e-05
-9.85540411819417e-07
-1.68884682537877e-06
1.4630207304596e-05
-8.00723479207012e-07
-2.98375302466115e-06
3.90729640370348e-05
-5.6758052207754e-07
-9.19685064932861e-06
3.77658237604786e-05
1.25003995683862e-06
-3.56027475725837e-06
1.24795403567216e-05
8.63492650223293e-07
-8.33980030496143e-07
4.26667051044472e-05
1.16510778293912e-06
-5.98776574466955e-06
8.8125568667691e-06
3.30359263249787e-07
-5.30056967145022e-07
1.48035436154356e-05
6.10254930671335e-07
-1.737671775678e-06
4.47846578644664e-05
6.44504681316705e-07
-8.21998247603089e-06
7.59195200055622e-06
-1.58592747058738e-07
-4.17192612678304e-07
1.00611829987021e-05
7.62003243763413e-08
-1.06259724326332e-06
1.57099487378349e-05
2.05176463505626e-07
-2.51399667856145e-06
4.59015191416554e-05
2.4714924514846e-07
-9.73905417790817e-06
6.79169262732994e-06
-5.81751487606472e-07
-3.36093807618101e-07
8.44987575437458e-06
-4.12177721214801e-07
-8.00828130594745e-07
1.07743419216657e-05
-2.79572961706994e-07
-1.49201755344043e-06
1.64174416383438e-05
-1.62627873827494e-07
-3.05178420789074e-06
4.56350221194733e-05
-1.0686753123787e-07
-1.05667183458162e-05
6.08545694045738e-06
-9.32866714430644e-07
-2.73498752355377e-07
7.38640339324063e-06
-8.370434851182e-07
-6.31714069347194e-07
9.0127319316556e-06
-7.41955053371467e-07
-1.10863492454164e-06
1.11208247816361e-05
-6.13838554819605e-07
-1.79512174646432e-06
1.62906658961759e-05
-4.97837451618929e-07
-3.36256602732344e-06
4.36743579559846e-05
-3.71981649597305e-07
-1.07635211126116e-05
5.4364527448509e-06
-1.20847210741305e-06
-2.23800013593338e-07
6.53495963251886e-06
-1.18330327098104e-06
-5.10667462546885e-07
7.80715295504733e-06
-1.1387716636226e-06
-8.67557399103119e-07
9.22241015394675e-06
-1.03267174021712e-06
-1.32839345647183e-06
1.08111964318448e-05
-8.82287342880927e-07
-1.96686786573422e-06
1.54773083474391e-05
-7.32854267217884e-07
-3.47081326420549e-06
4.08622722398832e-05
-5.44747163679583e-07
-1.05496017902041e-05
4.86062706699145e-06
-1.41205893439428e-06
-1.84170481036398e-07
5.82252628084839e-06
-1.44692173446609e-06
-4.17746862387834e-07
6.88098120734692e-06
-1.45587152151778e-06
-7.00540774937227e-07
7.93251852360619e-06
-1.38535879857287e-06
-1.04128230552453e-06
8.87707609836418e-06
-1.23265363456664e-06
-1.45814806928676e-06
1.00990133266984e-05
-1.04359321353926e-06
-2.02956141166482e-06
1.44257303151703e-05
-8.52757273704169e-07
-3.44077218253089e-06
3.78852254172677e-05
-6.24114564877907e-07
-1.00520438424654e-05
4.00034712563371e-05
1.81919393602738e-06
-4.05683131845598e-06
1.33596895919228e-05
1.40843204712465e-06
-1.03853359723689e-06
4.45803301338748e-05
1.61743134966743e-06
-7.09129762655031e-06
9.48594209072072e-06
8.10833094860918e-07
-6.2072248955157e-07
1.59973009580502e-05
1.19833080682586e-06
-2.06093877332696e-06
4.70069027845909e-05
1.3236899679056e-06
-9.53364781729759e-06
8.20193155455053e-06
1.99958998922865e-07
-4.79576729040157e-07
1.0839929100634e-05
5.26848158226915e-07
-1.22538654113735e-06
1.68654591962841e-05
6.89884459455347e-07
-2.9385297224267e-06
4.83614299156588e-05
7.04805456705559e-07
-1.13846408248592e-05
7.35616157828592e-06
-3.33008639452233e-07
-3.90050905012996e-07
9.1222140045556e-06
-8.53662251002558e-08
-9.27957828246183e-07
1.15625277543646e-05
8.93469136335829e-08
-1.73494281341081e-06
1.75322928159207e-05
2.03625232305085e-07
-3.5852905421482e-06
4.81238100601226e-05
1.70916221375285e-07
-1.23987038621885e-05
6.59499710742528e-06
-7.74694539267157e-07
-3.16595473724123e-07
7.98905782185914e-06
-6.18309340538424e-07
-7.32611376992575e-07
9.69976738143999e-06
-4.79880644739804e-07
-1.28754924175236e-06
1.18942913993342e-05
-3.34662397244634e-07
-2.09343843900404e-06
1.73225244125814e-05
-2.46221786472789e-07
-3.94425405760255e-06
4.58201226028278e-05
-1.97730697981831e-07
-1.2514704460961e-05
5.88482324898952e-06
-1.12272088561849e-06
-2.58514965701079e-07
7.06882971679371e-06
-1.05315135922876e-06
-5.91256789526075e-07
8.41285945019573e-06
-9.73144230160301e-07
-1.00622593982916e-06
9.88790265341614e-06
-8.4379876290226e-07
-1.54416003681586e-06
1.1513359193739e-05
-7.01876155062907e-07
-2.29323476029497e-06
1.63799993382321e-05
-5.86102926825315e-07
-4.05110574194037e-06
4.27013920541497e-05
-4.5559733279703e-07
-1.21469879871705e-05
5.24751863323394e-06
-1.38240974817749e-06
-2.12952745502452e-07
6.28678813122863e-06
-1.38787374755913e-06
-4.83487727841553e-07
7.41042840910556e-06
-1.36795233808718e-06
-8.10929931175099e-07
8.51413794152381e-06
-1.27572469116206e-06
-1.20611843369973e-06
9.47929045661364e-06
-1.12091872899147e-06
-1.69196833841641e-06
1.07085622655244e-05
-9.51956020810616e-07
-2.35730588633898e-06
1.51978687420198e-05
-7.9969593969122e-07
-3.9879736172995e-06
3.95237362776718e-05
-6.24311436389502e-07
-1.15637477826696e-05
4.69508709798486e-06
-1.5649431820104e-06
-1.76163552047668e-07
5.61566583375806e-06
-1.63049637339152e-06
-3.99845601301078e-07
6.60854821550068e-06
-1.66767394237419e-06
-6.67898429701516e-07
7.4904379451661e-06
-1.61736234731585e-06
-9.77008644129427e-07
8.1319401831178e-06
-1.47198960219612e-06
-1.32851396536225e-06
8.74502076565339e-06
-1.28311638211937e-06
-1.74640012418355e-06
9.80582235322304e-06
-1.09046210272176e-06
-2.32322087106474e-06
1.40384986299499e-05
-9.10147911990708e-07
-3.81603228773082e-06
3.64009376631944e-05
-6.99195457534703e-07
-1.06138506327472e-05
4.20366337678966e-05
2.73573410339928e-06
-4.76889761516136e-06
1.41915172585531e-05
2.1687577328711e-06
-1.18139119846569e-06
4.67535095889303e-05
2.21825179728089e-06
-8.44825376359627e-06
1.01678781873186e-05
1.44963038050084e-06
-7.23132203739054e-07
1.7151513804028e-05
1.88495598873807e-06
-2.46025604062847e-06
4.87540112459676e-05
1.87811440962966e-06
-1.07164826236022e-05
8.87189979616181e-06
6.92186293954669e-07
-5.51319259313825e-07
1.17050492490523e-05
1.13940837327134e-06
-1.42691045895811e-06
1.81866883171658e-05
1.37403340480441e-06
-3.43248187819932e-06
5.03407195958089e-05
1.40189512206136e-06
-1.29147720038142e-05
7.9915637255051e-06
1.56690923780962e-08
-4.51110303187503e-07
9.87382148422948e-06
3.71987183170858e-07
-1.07631637758458e-06
1.2436971173267e-05
6.06666490812912e-07
-2.01660119653934e-06
1.87734967232879e-05
7.32518154270723e-07
-4.20740982739934e-06
5.06685382219782e-05
6.2865020302888e-07
-1.45579511361935e-05
7.17427222932811e-06
-5.43759710322325e-07
-3.68522280279038e-07
8.66842055020944e-06
-3.02410338819649e-07
-8.52364278693622e-07
1.04619748340005e-05
-1.03765414667391e-07
-1.49704576104133e-06
1.27377940842984e-05
6.64294737619207e-08
-2.44123749072237e-06
1.84251165309703e-05
1.1983155240584e-07
-4.63676086260684e-06
4.80154853963637e-05
7.78514603885233e-08
-1.46718505709539e-05
6.39634861689307e-06
-9.85934316829419e-07
-3.00284149430274e-07
7.67462299522814e-06
-8.54713121221061e-07
-6.85980429170301e-07
9.09107016551421e-06
-7.2145649952289e-07
-1.16924067203378e-06
1.06214746698547e-05
-5.59841123462909e-07
-1.79593446859283e-06
1.22750907447745e-05
-4.26899656113654e-07
-2.67447997891106e-06
1.73311861233536e-05
-3.54266937497054e-07
-4.73887265373686e-06
4.46551219323976e-05
-3.00969199543734e-07
-1.41674046375115e-05
5.68864070555101e-06
-1.31771208684689e-06
-2.46129624264167e-07
6.81521910195294e-06
-1.2808915052702e-06
-5.59201890823646e-07
8.00886651488723e-06
-1.22381615079213e-06
-9.39018416712816e-07
9.15896860212264e-06
-1.09591564229385e-06
-1.39893375467255e-06
1.0134759327974e-05
-9.36048158443624e-07
-1.96544913875849e-06
1.1360245681265e-05
-7.88727750047985e-07
-2.74228231878738e-06
1.60003618781175e-05
-6.76767220121727e-07
-4.63239619662472e-06
4.12012617736588e-05
-5.66199949906875e-07
-1.32582626184709e-05
5.06998046749272e-06
-1.5538341047132e-06
-2.03468069761911e-07
6.06972430861258e-06
-1.59263948446013e-06
-4.62242332054048e-07
7.12900463511139e-06
-1.59980236450503e-06
-7.72090450803382e-07
8.05536768911692e-06
-1.52252039855198e-06
-1.12905913235798e-06
8.70660345911251e-06
-1.36539433211894e-06
-1.53629994257519e-06
9.30692855317595e-06
-1.18352671115246e-06
-2.02229810934645e-06
1.03548620769916e-05
-1.01466880723464e-06
-2.69136068349637e-06
1.47211731383662e-05
-8.75132465708744e-07
-4.41979403541338e-06
3.78986007730953e-05
-7.02770224048135e-07
-1.23585886303755e-05
4.53830878830936e-06
-1.71116476817192e-06
-1.68660892676339e-07
5.42642065763628e-06
-1.80860977864782e-06
-3.83570494753152e-07
6.38815799694495e-06
-1.87510367081093e-06
-6.4151828535955e-07
7.19839729191403e-06
-1.84538241246101e-06
-9.34140444129722e-07
7.67230364498471e-06
-1.70550710658287e-06
-1.24846027081173e-06
7.98855838337726e-06
-1.51425617023617e-06
-1.59159816263592e-06
8.43575674981907e-06
-1.32003054669456e-06
-1.99518158048133e-06
9.42878556429317e-06
-1.13957899195488e-06
-2.56396512160131e-06
1.35641409905765e-05
-9.77117097924253e-07
-4.10159294628998e-06
3.46240356741917e-05
-8.04169805182452e-07
-1.0832590828268e-05
4.36258157845871e-05
4.13401192705547e-06
-5.72320826745429e-06
1.50252090823688e-05
3.26519007272416e-06
-1.36315759551105e-06
4.88854944195777e-05
3.2737534419513e-06
-1.01746601832227e-05
1.08421083910649e-05
2.3228341394965e-06
-8.2830626133788e-07
1.82903149012236e-05
2.82172956268843e-06
-2.9236651423384e-06
5.07656340609041e-05
2.51147880337494e-06
-1.2971328759195e-05
9.5968644622282e-06
1.3604001800273e-06
-6.35732947002001e-07
1.25874705492904e-05
1.94519878300018e-06
-1.66579084366835e-06
1.94618517290446e-05
2.15949088401635e-06
-4.01676959236413e-06
5.2183524632893e-05
1.97000432189081e-06
-1.45292407699141e-05
8.71024964244032e-06
4.95580481292885e-07
-5.2207837746534e-07
1.07147672383359e-05
9.99765240989485e-07
-1.25261668803908e-06
1.34164091070263e-05
1.31268545018744e-06
-2.34499039351465e-06
2.01360419522e-05
1.46968992252339e-06
-4.86278453977856e-06
5.25950406078389e-05
1.24719412054089e-06
-1.60884075992161e-05
7.84029155986398e-06
-2.18361327005293e-07
-4.31987116336319e-07
9.44223577386265e-06
1.41560655846009e-07
-9.94494037096971e-07
1.13141566229565e-05
4.21072583375035e-07
-1.74289711457349e-06
1.36700479128512e-05
6.26984044956246e-07
-2.84330814694047e-06
1.96307616426276e-05
6.48604653244588e-07
-5.43297024606796e-06
4.97788790069844e-05
5.56237027810223e-07
-1.6877514825241e-05
6.98714760416631e-06
-7.83838126153518e-07
-3.50719059299835e-07
8.37038759586658e-06
-5.65966885997129e-07
-8.00725784365835e-07
9.85678182566234e-06
-3.59848217104293e-07
-1.36198749652074e-06
1.14339752659464e-05
-1.53364402887581e-07
-2.08974329626432e-06
1.31029395469963e-05
-3.16486224575548e-08
-3.11759289321849e-06
1.83276409104119e-05
-8.342769596736e-09
-5.54698443471037e-06
4.66445881975369e-05
-2.19814888133203e-08
-1.66392787816003e-05
6.19762575859665e-06
-1.20882127612397e-06
-2.86096726391082e-07
7.42440658225468e-06
-1.11209056558988e-06
-6.52089944373239e-07
8.6872833478368e-06
-9.9329783544993e-07
-1.09255088220019e-06
9.87991047409274e-06
-8.2493505509072e-07
-1.62508231343372e-06
1.08532601793106e-05
-6.5755742485357e-07
-2.28376923602605e-06
1.20597763378075e-05
-5.37204007836272e-07
-3.1910628205244e-06
1.68350001912604e-05
-4.71049132241093e-07
-5.40339744353848e-06
4.27719545969815e-05
-4.18561253718531e-07
-1.53194823616053e-05
5.50088085950014e-06
-1.51339384001762e-06
-2.35217508809198e-07
6.59188237744977e-06
-1.5137951484771e-06
-5.35380582825496e-07
7.71961802483442e-06
-1.47819427552479e-06
-8.95432912857781e-07
8.69044681214999e-06
-1.36237197272728e-06
-1.30763635899048e-06
9.34027295696743e-06
-1.18926587475607e-06
-1.7793788564924e-06
9.91301870303974e-06
-1.01613139262042e-06
-2.34412714105327e-06
1.09321040021984e-05
-8.75115793728921e-07
-3.12116514773001e-06
1.54045176456181e-05
-7.80626129335379e-07
-5.10128192958755e-06
3.93187407860629e-05
-6.77789955478374e-07
-1.40005619423464e-05
4.89897225878379e-06
-1.71989525593623e-06
-1.94601425928893e-07
5.86795927757721e-06
-1.79455994282303e-06
-4.43083436002749e-07
6.89833828928532e-06
-1.83145783578154e-06
-7.40763969328313e-07
7.7536770832334e-06
-1.77201459286073e-06
-1.0778718984497e-06
8.23100698853127e-06
-1.61313499365909e-06
-1.44001697607984e-06
8.52436843717723e-06
-1.41890348527491e-06
-1.83672673896396e-06
8.94047208021207e-06
-1.23670974213675e-06
-2.30496536397648e-06
9.90910391653611e-06
-1.08205862928689e-06
-2.96474177131027e-06
1.41543729854459e-05
-9.54227750329185e-07
-4.75853998140474e-06
3.53214307127188e-05
-7.61582196007702e-07
-1.22943517829995e-05
4.38107859809375e-06
-1.84874904880667e-06
-1.61094299534594e-07
5.24389713190593e-06
-1.97945449594803e-06
-3.67547839647976e-07
6.18726170781537e-06
-2.07698307423681e-06
-6.16685822272034e-07
6.97247087080708e-06
-2.06978833790634e-06
-8.99138838721551e-07
7.38493238904551e-06
-1.93603827685744e-06
-1.19570032717108e-06
7.53958019462831e-06
-1.74006552076249e-06
-1.49748046430242e-06
7.69512309911718e-06
-1.54028130381509e-06
-1.81997851222875e-06
8.07055247233076e-06
-1.35835641695435e-06
-2.1997000827426e-06
9.02254050685594e-06
-1.1948994637048e-06
-2.74997116334457e-06
1.30178793320048e-05
-1.05454455455894e-06
-4.28936041127209e-06
3.19335076902316e-05
-8.6614136671662e-07
-1.09740518394877e-05
4.44728635602292e-05
6.11154516811688e-06
-6.95862334096216e-06
1.59253622717744e-05
4.84382019706862e-06
-1.60998742153569e-06
5.06528110074171e-05
4.86793327162148e-06
-1.23585276607901e-05
1.15192393176518e-05
3.53965412158884e-06
-9.51597091972602e-07
1.94607802099172e-05
4.22013082178144e-06
-3.48001008625148e-06
5.27421586715357e-05
3.63268062025234e-06
-1.57838630119108e-05
1.03790032107055e-05
2.27402374825925e-06
-7.33328058060459e-07
1.34732672269227e-05
3.04716484357586e-06
-1.93953670994501e-06
2.06590194876599e-05
3.20050430238601e-06
-4.80984371543337e-06
5.42752166762126e-05
2.62338399484309e-06
-1.76863620770042e-05
9.52685215260306e-06
1.15232432740585e-06
-6.08525422090248e-07
1.16361047629202e-05
1.85222947085084e-06
-1.46409751115986e-06
1.44152480254254e-05
2.23318799883864e-06
-2.73831807894686e-06
2.14141973769282e-05
2.31437826371596e-06
-5.63926864153664e-06
5.43745478743251e-05
1.84820836847086e-06
-1.8156893699034e-05
8.61514130049762e-06
2.3149943499947e-07
-5.10767224732895e-07
1.03305742654504e-05
7.55359482994454e-07
-1.16600671348712e-06
1.22687915435242e-05
1.13946688566744e-06
-2.03402599485524e-06
1.470687104952e-05
1.38678604865767e-06
-3.2988968068849e-06
2.08583519463027e-05
1.34380260041e-06
-6.18694327462639e-06
5.12734589641702e-05
9.8481041728391e-07
-1.85677275827983e-05
7.67909087893515e-06
-4.97381382623523e-07
-4.12921747258837e-07
9.17948655061527e-06
-1.58890022370735e-07
-9.40630820718254e-07
1.07290752500229e-05
1.46104255589981e-07
-1.59181320948784e-06
1.23396367650492e-05
4.11701631964496e-07
-2.43326754996723e-06
1.40161010595815e-05
5.17888242230745e-07
-3.6257379645616e-06
1.93772117270197e-05
4.9074869081481e-07
-6.41701406939505e-06
4.77882317595733e-05
4.10394570612848e-07
-1.84314839750569e-05
6.79325386162847e-06
-1.04411648815341e-06
-3.35348158634142e-07
8.13490605017138e-06
-8.63996753688271e-07
-7.63184224662811e-07
9.46702299229947e-06
-6.64535168397049e-07
-1.27577355626397e-06
1.06921011512356e-05
-4.36188829582765e-07
-1.89134729137168e-06
1.16445125156587e-05
-2.59517536233172e-07
-2.65311785437656e-06
1.28159403055864e-05
-1.7450945673401e-07
-3.70757686233736e-06
1.77309759903035e-05
-1.5707250416738e-07
-6.30783125530881e-06
4.37941526599798e-05
-1.04925643354163e-07
-1.75564928473974e-05
6.0025017385059e-06
-1.43667497258748e-06
-2.73765793836401e-07
7.1999565837029e-06
-1.38277883225321e-06
-6.23478852710993e-07
8.40379770415781e-06
-1.2890041549261e-06
-1.04055877229841e-06
9.41078524184321e-06
-1.11893768380745e-06
-1.51888084201385e-06
1.00448163458011e-05
-9.23824514333354e-07
-2.06335192170043e-06
1.05714949887041e-05
-7.62488839716373e-07
-2.7169514607689e-06
1.1545031749276e-05
-6.5569188246852e-07
-3.61933476376073e-06
1.6082583085605e-05
-6.03329188836966e-07
-5.89666045118033e-06
4.03593409944177e-05
-5.56581834859227e-07
-1.58034468300422e-05
5.31597539069217e-06
-1.70543855180513e-06
-2.24957290449241e-07
6.37974186920333e-06
-1.74731173107307e-06
-5.13480356592245e-07
7.48538596176565e-06
-1.74191671568678e-06
-8.5870216193606e-07
8.38459431793273e-06
-1.64074771805774e-06
-1.24796969812051e-06
8.85553470063429e-06
-1.45642726968714e-06
-1.66499692971553e-06
9.11054704916052e-06
-1.2591565982332e-06
-2.12252549378295e-06
9.47860373235237e-06
-1.0930234799797e-06
-2.66434271127337e-06
1.04029171340402e-05
-9.6996771503554e-07
-3.42562530274549e-06
1.47287937321518e-05
-8.91047121297265e-07
-5.46241473145031e-06
3.57958557803159e-05
-6.93709403120474e-07
-1.37812321966198e-05
4.72441861228459e-06
-1.87754445329805e-06
-1.85689939406828e-07
5.66956386908257e-06
-1.99051068314497e-06
-4.24314905572106e-07
6.68482938821533e-06
-2.06047580128169e-06
-7.11630064606073e-07
7.51884211757183e-06
-2.02261136124831e-06
-1.03653487145321e-06
7.93543714942861e-06
-1.86455676821498e-06
-1.37695068163881e-06
8.06159629941811e-06
-1.65737275973527e-06
-1.72355887352889e-06
8.17733999890462e-06
-1.46023246670746e-06
-2.09541478562714e-06
8.51228391941842e-06
-1.29341644502553e-06
-2.53533078704101e-06
9.43358117427794e-06
-1.15542770719049e-06
-3.1745711648296e-06
1.34252764149594e-05
-1.03053937974551e-06
-4.89694672517934e-06
3.28541324193132e-05
-8.72089494760475e-07
-1.23428351749674e-05
4.2147084330615e-06
-1.9754406910896e-06
-1.53099710599231e-07
5.05770718216051e-06
-2.1406021741871e-06
-3.50949998479996e-07
5.98861164879614e-06
-2.27117998721734e-06
-5.91432861163173e-07
6.76557475517401e-06
-2.28926986792169e-06
-8.65336090576929e-07
7.1671961619928e-06
-2.16407881840895e-06
-1.15230364062285e-06
7.26838246566868e-06
-1.96369639023583e-06
-1.43594207136444e-06
7.26716765833368e-06
-1.75502456397049e-06
-1.71485680886909e-06
7.35598645679891e-06
-1.56681747943439e-06
-2.0096986162599e-06
7.69108129443572e-06
-1.40159828880034e-06
-2.35903494760285e-06
8.61120557646824e-06
-1.25494821367789e-06
-2.88341692460582e-06
1.24014326819059e-05
-1.11738189076854e-06
-4.42640073926053e-06
3.12776791679639e-05
-8.73232557837456e-07
-1.08098846364245e-05
4.41618152490698e-05
8.89740372016974e-06
-8.58640554253441e-06
1.68964177670258e-05
7.08770073109501e-06
-1.94725679533721e-06
5.16804006939761e-05
7.17699904893e-06
-1.51633329843069e-05
1.22165435871337e-05
5.24378219213515e-06
-1.09727208759357e-06
2.06366882966077e-05
6.24739582597093e-06
-4.1653875843645e-06
5.43128677582224e-05
5.34468689249019e-06
-1.92739445427658e-05
1.12330536769707e-05
3.53912922360043e-06
-8.5352765532413e-07
1.44017907282191e-05
4.60079969084805e-06
-2.26079609215026e-06
2.18349491101146e-05
4.74367593364199e-06
-5.76692817455727e-06
5.61859746768561e-05
3.79955255021698e-06
-2.14941350345523e-05
1.04614356233192e-05
2.05595607744533e-06
-7.16516151716426e-07
1.26455984208356e-05
3.02385985183261e-06
-1.71951713849727e-06
1.54114709363851e-05
3.47840409604017e-06
-3.21365445350813e-06
2.25714454842998e-05
3.41023179445308e-06
-6.75390979698123e-06
5.60700359103455e-05
2.54275345495831e-06
-2.1924539127144e-05
9.52853026764596e-06
8.49596240301704e-07
-6.10659993780949e-07
1.13537299708628e-05
1.59854667436452e-06
-1.37799635359033e-06
1.33135186816139e-05
2.10989719103643e-06
-2.38552913191213e-06
1.5761566666766e-05
2.37047183358099e-06
-3.84909540995324e-06
2.20403284315767e-05
2.16634713094619e-06
-7.13934543570845e-06
5.31550445056806e-05
1.46821070428605e-06
-2.15066258339495e-05
8.50212876838441e-06
-1.00274296491138e-07
-4.91262864051596e-07
1.01324969179537e-05
4.05983509449141e-07
-1.1143977599682e-06
1.1729745322197e-05
8.42793579633347e-07
-1.86999847913304e-06
1.3348490922048e-05
1.18083800891267e-06
-2.83692408245459e-06
1.50016799793297e-05
1.24931504005399e-06
-4.18997373215205e-06
2.04269839469958e-05
1.06505549849281e-06
-7.31692066729352e-06
4.88228657087066e-05
7.65400404456262e-07
-2.0367703230045e-05
7.50120305384164e-06
-8.08538305020683e-07
-3.96790862583912e-07
8.97626462733741e-06
-5.11866575116258e-07
-9.01299627758147e-07
1.03733660653523e-05
-2.0264330336221e-07
-1.49822101926465e-06
1.16140169133409e-05
1.05545471347189e-07
-2.20756618497462e-06
1.25199197804051e-05
2.90958852645608e-07
-3.08173651992275e-06
1.36455100728876e-05
3.25291249242231e-07
-4.28983590104796e-06
1.8622793231578e-05
2.74433770122729e-07
-7.17283475727977e-06
4.44312594054989e-05
1.74137225775794e-07
-1.92426696628749e-05
6.59520571873523e-06
-1.31521698528208e-06
-3.2160200314523e-07
7.91875790661776e-06
-1.185097324351e-06
-7.33044882730829e-07
9.19974904391495e-06
-1.00498861918464e-06
-1.21867763254953e-06
1.02360524892897e-05
-7.66748041262273e-07
-1.77047589371915e-06
1.08333309909244e-05
-5.43867533582746e-07
-2.39550543737146e-06
1.12902672313554e-05
-4.00210214664312e-07
-3.14618029752735e-06
1.22082986898513e-05
-3.3822037412436e-07
-4.18968173802944e-06
1.67876146144387e-05
-3.173359698328e-07
-6.80042327224768e-06
4.07586307229826e-05
-2.90317621773423e-07
-1.76654103837385e-05
5.80447615487347e-06
-1.66313516659231e-06
-2.62039321291882e-07
6.98095388137482e-06
-1.65855600079119e-06
-5.99197013277917e-07
8.16816430390195e-06
-1.59405721936119e-06
-1.00120013710808e-06
9.11059045470655e-06
-1.43510115704561e-06
-1.45038629945992e-06
9.56006151715619e-06
-1.21755238637297e-06
-1.92967392085523e-06
9.75659194381949e-06
-1.01740690447576e-06
-2.45447181873011e-06
1.00566806676827e-05
-8.72919475950958e-07
-3.07779237156612e-06
1.09180032822222e-05
-7.87120081138587e-07
-3.95061736261746e-06
1.528084959847e-05
-7.59261583765229e-07
-6.24600448233173e-06
3.64434719258105e-05
-6.7445575465768e-07
-1.5776560555143e-05
5.12292958580009e-06
-1.88935560681085e-06
-2.14592911578532e-07
6.16576258243532e-06
-1.9765842656616e-06
-4.91880487918975e-07
7.26171357526954e-06
-2.00711556250589e-06
-8.25162605487072e-07
8.1460790485378e-06
-1.92639929123568e-06
-1.20028355573567e-06
8.55807581349718e-06
-1.73588929051942e-06
-1.59114155694204e-06
8.64063580258949e-06
-1.51509663855539e-06
-1.98809064680425e-06
8.6995297685589e-06
-1.32287714768687e-06
-2.41485492473859e-06
8.97627129528725e-06
-1.17647374211561e-06
-2.92181558573782e-06
9.84786186689215e-06
-1.07254782580593e-06
-3.65839289085612e-06
1.38454308905916e-05
-9.75367837969751e-07
-5.60088107291251e-06
3.37623040604033e-05
-8.19679737732479e-07
-1.38696734467228e-05
4.53700078820988e-06
-2.02354850032239e-06
-1.76287574572241e-07
5.46321175362121e-06
-2.17681024459137e-06
-4.04892645722892e-07
6.4693112945989e-06
-2.28329476239307e-06
-6.8219282954467e-07
7.29992670164454e-06
-2.27151416803799e-06
-9.97076095626845e-07
7.71037312530094e-06
-2.11845677937322e-06
-1.32580833668331e-06
7.78408623665406e-06
-1.90005077276791e-06
-1.64997208463825e-06
7.73830647368361e-06
-1.68583701191221e-06
-1.96908776412898e-06
7.77945931589287e-06
-1.50410516678512e-06
-2.30819240580271e-06
8.06866637590101e-06
-1.35597040675216e-06
-2.71236552201197e-06
8.94573289967575e-06
-1.23207329659462e-06
-3.3075538637507e-06
1.28044373236195e-05
-1.12723524341177e-06
-5.04477665310263e-06
3.19850423727189e-05
-9.21879138698342e-07
-1.21282707440584e-05
4.03362495242487e-06
-2.08888007197056e-06
-1.44526731314974e-07
4.85939212962983e-06
-2.28916887509929e-06
-3.33288788013403e-07
5.78072930578537e-06
-2.45471872349662e-06
-5.6479213572053e-07
6.5565161136118e-06
-2.50113476398042e-06