/*--------------------------------*- C++ -*----------------------------------*\
  =========                 |
  \\      /  F ield         | OpenFOAM: The Open Source CFD Toolbox
   \\    /   O peration     | Website:  https://openfoam.org
    \\  /    A nd           | Version:  12
     \\/     M anipulation  |
\*---------------------------------------------------------------------------*/
/*   Windows 32 and 64 bit porting by blueCAPE: http://www.bluecape.com.pt   *\
|  Based on Windows porting (2.0.x v4) by Symscape: http://www.symscape.com   |
\*---------------------------------------------------------------------------*/
FoamFile
{
    format      ascii;
    class       volVectorField;
    location    "200";
    object      U;
}
// * * * * * * * * * * * * * * * * * * * * * * * * * * * * * * * * * * * * * //

dimensions      [0 1 -1 0 0 0 0];

internalField   nonuniform List<vector> 
10052
(
(-3.37639045207968e-05 0.00310595363360205 0.000139952253943268)
(-3.97260469252754e-05 0.00334358906414285 0.000151294484906181)
(-2.47718104359587e-05 0.00222910780703393 0.000231142107915149)
(-0.000103221421342366 0.00277832253727213 0.000161685991205825)
(-4.64052680424576e-05 0.00360882608250051 0.000159071314490665)
(-2.9281823886223e-05 0.00240297955703651 0.0002370524108885)
(-0.000120964384696203 0.0029613286433766 0.000182538392354137)
(-7.22471367439144e-05 0.0019878945044959 0.000243906933770638)
(-0.000180975005621442 0.00261963988999427 0.000173124763626791)
(-5.71667580990823e-05 0.00389028164670479 0.000160726424610225)
(-3.47492768529708e-05 0.00259646225887374 0.00023410727362422)
(-0.000143226398561099 0.0031875313838122 0.000200203864141388)
(-3.1903544849171e-05 0.00250319474850089 0.000332028112905861)
(-8.48616745366717e-05 0.00212326255761818 0.000257258208025628)
(-0.000212637756067804 0.00276535557412462 0.000200482422553916)
(-0.000121672349635396 0.00185629373036695 0.000249410610842266)
(-0.000267530125763295 0.0025606412718659 0.000176512841915154)
(-7.67971562571841e-05 0.00417783601359808 0.000158670878566436)
(-4.19573474852027e-05 0.00280226634560606 0.000221466819421466)
(-0.000175898429096197 0.00342831772897525 0.000212160465830069)
(-3.74061986478809e-05 0.00269170462276245 0.000321659951065846)
(-0.000100143676396602 0.00227923284487443 0.000260701050931257)
(-0.00025346151203673 0.00296777346672762 0.000221488706192821)
(-3.18496215737811e-05 0.00253566249214054 0.000424325362958656)
(-9.55520762179733e-05 0.00234280304399235 0.00034855294276995)
(-0.000142353405523995 0.00195849085685976 0.000267192294737408)
(-0.000315240091453202 0.00267730191029089 0.000206546002994111)
(-0.000175188461918723 0.00177814755721254 0.000251407678476483)
(-0.000100587230419127 0.00443806956815852 0.000156178003695522)
(-5.16134746411437e-05 0.00301344024047543 0.000197010638591788)
(-0.000225091143339951 0.0036694844032949 0.000221570779148442)
(-4.40452319694917e-05 0.00289352737481401 0.000297063118476716)
(-0.000120340965265881 0.00245359065453986 0.000255622728303599)
(-0.000307355309742497 0.0031837546202434 0.000234903014081551)
(-3.710977525476e-05 0.00272214143203615 0.000408504749486781)
(-0.000111060919192581 0.00250573085956635 0.000343436980432161)
(-0.000168372383249547 0.00208849306449105 0.000274127060907695)
(-0.000375041458809431 0.00285675090697511 0.000230170228029547)
(-3.1486864786062e-05 0.00253470877921436 0.000510887935107963)
(-9.75641357425782e-05 0.00242953058423967 0.000438360617194612)
(-0.00016030979158142 0.00222069731021096 0.000354390507973532)
(-0.000207501345243627 0.00187779528080263 0.000271776458247662)
(-0.000418583957595795 0.00258405430471572 0.000205073763602478)
(-8.14831178439565e-05 0.00475103688163501 0.000101698405129484)
(-6.29580327601125e-05 0.00321384020713712 0.000159381976965537)
(-0.000275131603817956 0.00387890171378318 0.000229052625462508)
(-5.18863060980814e-05 0.00310428601305593 0.000254279524158689)
(-0.000146231399776197 0.00263060290680319 0.00024086898925231)
(-0.000377260232988759 0.00340163218397401 0.000247856348872084)
(-4.31367473987791e-05 0.00292208302580501 0.000375458838985051)
(-0.000129649555938975 0.00268506830938887 0.00032540371231073)
(-0.000201489172960744 0.00224070366874021 0.000272744334362112)
(-0.000449133721953695 0.00305257797138092 0.000243702713702093)
(-3.63545527711059e-05 0.00271829367700681 0.000491906534412097)
(-0.00011254566509711 0.00259846159598116 0.000427434801005677)
(-0.000186521414430634 0.00236362530247783 0.000352323289211538)
(-0.0002430475268674 0.00197731131457727 0.000281792404363145)
(-0.000495234862644058 0.00272982414353179 0.000231759542374951)
(-3.09077913458848e-05 0.00251650719495538 0.000594726207366784)
(-9.6845707644113e-05 0.00245062830563042 0.000521213399182061)
(-0.000166566984158036 0.00233433264866397 0.000441570267970295)
(-0.000229153316057988 0.00212450321397181 0.000355177960902798)
(-0.000270408211291319 0.00177520739905331 0.000270876190299126)
(-0.000510602044971227 0.00244817432895947 0.00020357878537866)
(-9.06074741038646e-05 0.00484230353636591 3.06197558020714e-05)
(-6.78197694779381e-05 0.00341336874042711 8.58663243921681e-05)
(-0.000254556545015015 0.00408318338560903 0.000217180897276969)
(-6.06674559083038e-05 0.00331883521851076 0.000187650327846194)
(-0.000174989679731754 0.00279492972739414 0.000213483880196814)
(-0.000455928929325451 0.00360203294819257 0.000262384365275568)
(-4.99450229792373e-05 0.00313394567723855 0.000320384433502717)
(-0.000151243663207858 0.00287358583015725 0.000291374926403058)
(-0.000241622730906153 0.0023949189916439 0.000263300166846228)
(-0.000541156317723899 0.00324926264644173 0.000255830583117848)
(-4.18711856051158e-05 0.00291672994251333 0.000454257148597638)
(-0.000129582422296524 0.00278249267291767 0.000400696792826448)
(-0.00021752168047832 0.00252466557268308 0.000338074718441125)
(-0.000288733334654618 0.00211177531348864 0.00028208569606439)
(-0.000588265737859776 0.00290263575586523 0.000250389552657859)
(-3.54215712254311e-05 0.0026968830672844 0.000575487522569811)
(-0.000110799654621608 0.00262031254926868 0.000506760544746588)
(-0.000191881007595736 0.00248811976241242 0.000433539798750066)
(-0.000266267906938254 0.00225141779677249 0.000354931112768092)
(-0.000317162631071553 0.00186641001161786 0.000284992046569174)
(-0.000600862062093203 0.00257063325284786 0.000231505579852109)
(-3.01702130304256e-05 0.00248738663308771 0.000676227398560608)
(-9.48649274145342e-05 0.00244414999242263 0.000600192501080643)
(-0.000166638185823445 0.00237034196775011 0.000521431696061156)
(-0.000239648425867364 0.00224918906695291 0.000439114096124602)
(-0.000296648234186101 0.00201862047302143 0.000353119531845114)
(-0.000326967924429098 0.00165846143769518 0.000270351855664423)
(-0.000586468051981317 0.00227953995457518 0.00020190622725039)
(-0.000156544449073683 0.00511064339136341 1.188276194733e-05)
(-7.69971982314743e-05 0.00361615405164198 -2.31772044952962e-05)
(-0.00029023548677618 0.00435652198369844 0.000160653089211084)
(-6.92395773826223e-05 0.00353701467788222 8.5308123817584e-05)
(-0.000189846626990552 0.00294837014499027 0.000160830524623863)
(-0.000513325121542198 0.00379472858629389 0.000268755687921442)
(-5.7386661666433e-05 0.00335693082095297 0.0002368147308608)
(-0.000174696015125074 0.00306342937989945 0.000236146836607023)
(-0.000286261371148147 0.00253795440775859 0.000242860794852818)
(-0.000647577687175457 0.00342958529861234 0.0002675323905016)
(-4.80033950803974e-05 0.00313011697284902 0.00039275609287975)
(-0.000148542299510328 0.00297831633876184 0.000354189321875174)
(-0.000253068521760598 0.0026950453537416 0.000309346146408596)
(-0.000342540953587946 0.00224858459629325 0.000274343378191393)
(-0.000700432870682469 0.00307873921422222 0.00026422705323195)
(-4.04838000292526e-05 0.00289379287494048 0.000537160351402306)
(-0.000126495105513339 0.00280522372669827 0.00047527362140024)
(-0.000220817680974047 0.00265766816034615 0.000410781113333956)
(-0.00030965240085382 0.00239646633986687 0.000342684674584749)
(-0.000374568685127667 0.00197902174190471 0.000288448382694361)
(-0.000711213000606791 0.00272056731311845 0.000254665453397108)
(-3.43565512241064e-05 0.00266419075345911 0.000659232879014439)
(-0.000107956025101435 0.0026120048565924 0.000584969446758334)
(-0.000190473406620589 0.00252733891558494 0.00050973876188856)
(-0.000275792100028885 0.00239013238036366 0.000432679850326017)
(-0.00034434118808678 0.00213132884895994 0.000354830807111772)
(-0.00038394511911278 0.00173560109798031 0.000285598148936106)
(-0.000683564063598788 0.00238100901149724 0.000232603047417247)
(-2.92832631863158e-05 0.00245001886369257 0.000755299686738885)
(-9.21891911623346e-05 0.00242214588101221 0.000676554944852118)
(-0.000164010364007848 0.00237353688356434 0.000596732547413393)
(-0.00024093385659974 0.0022947633236916 0.000515866713740609)
(-0.000311465265430096 0.00215287015619476 0.000433890583448927)
(-0.000357550912848368 0.00190209757940747 0.00035052529006799)
(-0.000376011163907564 0.00153291973244787 0.000269008954055312)
(-0.000638601369973485 0.00208845393791962 0.000203543778185729)
(-0.000181059805953725 0.00525235261607187 -1.31936148292624e-05)
(-9.61531381277721e-05 0.0038151537700964 -0.000152532495943582)
(-0.000395075886759598 0.0044095366846526 0.000151475980936515)
(-7.93216932529411e-05 0.00376214247936639 -5.95215168865593e-05)
(-0.000210979464312753 0.00312340935893264 6.85967101325114e-05)
(-0.000563750230445099 0.00408446994718252 0.000226719254877166)
(-6.54464714227836e-05 0.00359150038702981 0.000115978038395617)
(-0.000196516533892668 0.00325286495277976 0.000150629720328555)
(-0.000324850400421516 0.00266521236291802 0.000203069647351372)
(-0.00074906693010262 0.00360040318891975 0.000269483239469956)
(-5.47094370088927e-05 0.0033595822789087 0.000301164668715795)
(-0.000168848016570885 0.00318307956499547 0.000282314803475059)
(-0.000291693793431138 0.00286566170486915 0.000261546551963508)
(-0.000402304114057313 0.00237620607509649 0.000255071249571999)
(-0.000830738494558308 0.00324893803977514 0.000277566011048722)
(-4.61262208125731e-05 0.00310836000654968 0.000474825190920416)
(-0.000143676548454059 0.003004413627614 0.000422371439445829)
(-0.000253067167963034 0.00283866112146639 0.000369895886097814)
(-0.000358812719085926 0.00255058735494523 0.00031665751637096)
(-0.000441163976771011 0.0020980315533791 0.000282891344252873)
(-0.00084211823532523 0.00286908803480864 0.000269210315679226)
(-3.90409399917637e-05 0.00285892248598509 0.000623550523429189)
(-0.000122481844213844 0.0027961110951288 0.000552314740895004)
(-0.000217261482059184 0.0026995159693183 0.000482186704617058)
(-0.000316874028655767 0.0025460068702981 0.000412179314434311)
(-0.000399363770422932 0.00225966430811097 0.000344909313036842)
(-0.000452120140517071 0.00183008296119847 0.000291556293701146)
(-0.000803071099723387 0.00250401716694719 0.000257454337013025)
(-3.31997790138427e-05 0.0026225560423126 0.000742452668229428)
(-0.000104370096175724 0.00258704295313136 0.00066278294052606)
(-0.000186334332179552 0.00252993051143293 0.000583876800593378)
(-0.000275165480745632 0.00244043035953817 0.000505660962193679)
(-0.000358254883016905 0.00228095130798258 0.000428981978937835)
(-0.000414810218361321 0.00200115103451961 0.0003538504665399)
(-0.000440233503799043 0.00159549563366712 0.000284860820575121)
(-0.000748089332882716 0.00216817994142604 0.000232519694493695)
(-2.82597960863155e-05 0.00240492281920134 0.000831672962646663)
(-8.91034160016789e-05 0.00238942046516751 0.000750646343060211)
(-0.000159822683672599 0.00235845789614435 0.000669274165818322)
(-0.000237864462013728 0.00230548975778131 0.000588143399878481)
(-0.000314480542734285 0.00220789359170742 0.000507488961841078)
(-0.000376999212763512 0.00204630063187451 0.000427821700289838)
(-0.000408836467341521 0.00177899502509082 0.000347718172643577)
(-0.000412800133529059 0.00140080173553279 0.000268349932742589)
(-0.000665205478525863 0.00186756445095206 0.00020540482515975)
(-0.000200110618055747 0.00518737076100422 -7.30703323110399e-05)
(-0.000109858834286871 0.00395404852264077 -0.000317181802315961)
(-0.000454534547441303 0.00449407444355593 0.000183139601838599)
(-9.08276854393265e-05 0.00398770974555731 -0.000246775777812237)
(-0.000249090389097941 0.00326860098148049 -3.65577429630428e-05)
(-0.000604512370361495 0.00404662678995618 0.00021156802026944)
(-7.44624808426298e-05 0.00383917286885286 -5.04173237420029e-05)
(-0.00021962297218104 0.0034484823970136 2.56853880282698e-05)
(-0.00035801706790932 0.00280908370879256 0.000123712935039198)
(-0.000796128978658011 0.00380971537582373 0.000235466578802785)
(-6.2131169817028e-05 0.00360697940208342 0.000171928484201674)
(-0.00018972295778934 0.00339630085942709 0.000177834827126078)
(-0.000330097164170333 0.00303340400761372 0.000187391907330116)
(-0.000460643000903261 0.00249238653619371 0.000216561441459249)
(-0.000973792123022983 0.00344762228172045 0.000274928500962077)
(-5.23712250259415e-05 0.00334275216640859 0.000382639520474166)
(-0.000162066917703591 0.00321733665037671 0.000342916542997397)
(-0.000287903405515237 0.00302701674289121 0.000306155372413246)
(-0.000411984327673733 0.00270451760308992 0.000272633885799682)
(-0.000514191371894131 0.00221003678871782 0.000265912032597547)
(-0.00100906064397226 0.00302275026058476 0.000277493250876704)
(-4.42763513726869e-05 0.00307343401854325 0.00056475843592987)
(-0.000138369388704869 0.00299661438063304 0.000498142098351794)
(-0.000246736566279033 0.00288523869302376 0.000435001816837301)
(-0.000362438079942837 0.00271273943548171 0.000374666484602766)
(-0.000461019849723855 0.0023961874516081 0.000321616916763484)
(-0.000528795276691461 0.00192901629124797 0.000288899307634855)
(-0.000953934468985278 0.00262249113252802 0.000269231092829687)
(-3.75847915105033e-05 0.00281404600638386 0.000711976045149557)
(-0.000117852229694523 0.00276910680455381 0.00063189541007373)
(-0.00021112639197011 0.00270220790073784 0.000554750244528435)
(-0.000313416840309135 0.00260047940029775 0.000480400875223851)
(-0.000410923512526953 0.00242199347188433 0.000410799278049816)
(-0.000480105898148694 0.00211239708580374 0.00034628739876941)
(-0.000514431916344669 0.00167125095777016 0.000294656557414057)
(-0.00088805035903275 0.00227524012967085 0.000259046114509834)
(-3.19444819971076e-05 0.00257224665378721 0.000824387315273088)
(-0.000100504260138699 0.0025503518694753 0.000740003125529363)
(-0.000180644172446448 0.00251263470112598 0.000657237772634581)
(-0.000269888469130525 0.00245158584674883 0.000576493727700015)
(-0.000358789139397902 0.00234145557754933 0.000498646878307592)
(-0.000433225856875172 0.00216036787513227 0.00042451652532655)
(-0.00047363726351837 0.00186265898213147 0.000352389144926486)
(-0.000482523273746926 0.00144697532065156 0.000286104869014871)
(-0.000806409976656758 0.00193556997426656 0.000227535767143433)
(-2.71250431044609e-05 0.00235163211617065 0.00090494291728743)
(-8.57345049361355e-05 0.00234763783390005 0.000822329519523453)
(-0.000154676695935482 0.00233074215759458 0.00073969530529004)
(-0.000232276006651061 0.00229626967634818 0.000657744847146581)
(-0.000311350729094946 0.0022261962073071 0.000576786321710111)
(-0.000382104554398203 0.00211012961539572 0.000498235582235368)
(-0.000432766875467279 0.00193128961437597 0.000421539726445151)
(-0.000448330502327546 0.0016493477218134 0.000344243760126328)
(-0.000436145900501391 0.00126058297461233 0.000268245521317091)
(-0.000702813768593424 0.00163072974920039 0.000207811940174249)
(-0.000222500114258696 0.00496915281150769 -0.000171932656499373)
(-0.000120826035127527 0.00400821093901883 -0.000537617261217608)
(-0.000499232963070395 0.00436770196655994 0.00017875156403982)
(-0.000102661323733361 0.00419636648721552 -0.000491404422085085)
(-0.000277589019154351 0.00336680461787783 -0.000154988377057277)
(-0.000700183522494216 0.00410728277197881 0.000246290526393718)
(-8.4748142714476e-05 0.00409922871554115 -0.000269719312378146)
(-0.000245482333796462 0.00364111132678001 -0.000134140882161246)
(-0.000395485152937893 0.00292005385675125 3.26020732879487e-05)
(-0.000828422262034834 0.0037637450354936 0.000234026833937126)
(-7.0403555103763e-05 0.00387490349124245 -3.23175314781229e-06)
(-0.000211445892118898 0.00362005226146994 3.34764074003626e-05)
(-0.000367512624963162 0.00320372597639241 7.74313485449053e-05)
(-0.00050367382853953 0.00261655250122782 0.0001476833238969)
(-0.00103689176350763 0.00361570564133219 0.00025534358221432)
(-5.92021600583221e-05 0.00360006192624048 0.00025385015016508)
(-0.000181403583449502 0.00344491472713104 0.000230599594916407)
(-0.000323932484006386 0.00322156026768823 0.000213441851247698)
(-0.000465881277379649 0.00285519628199228 0.000204388254323668)
(-0.000587248127634712 0.00231643037853206 0.000229216837703003)
(-0.00118982434202588 0.0032379649126744 0.000258413978812789)
(-5.00629299493502e-05 0.00331072721104827 0.000477578106328032)
(-0.000155494707683956 0.0032141996647194 0.000417654891972538)
(-0.000278475598725709 0.00308278972717809 0.000363898320049488)
(-0.000411410798348201 0.00288560509030766 0.000315996309365323)
(-0.000527137158424245 0.00253232312087204 0.000281314856337514)
(-0.000613398735372782 0.00202277781314095 0.000272948944637146)
(-0.00115548997216593 0.00277779915708798 0.000265287998008581)
(-4.24743188596124e-05 0.00302684398242108 0.000659911513923665)
(-0.000132783719197376 0.00296916272954024 0.000580193575199016)
(-0.000238331005450767 0.00288971769756785 0.000506065787890308)
(-0.000355433118865972 0.00277312568450977 0.000436885075925045)
(-0.000468929339674701 0.00257261229471263 0.00037667457326101)
(-0.000552360634320847 0.00223018146699001 0.000325914762656043)
(-0.000598900623742346 0.00174966465619131 0.00029370801400441)
(-0.00106698544349431 0.00239526835350367 0.000268617008214164)
(-3.60794214312405e-05 0.0027591285196492 0.000800922027914332)
(-0.000113162605707651 0.00272916675442211 0.000713156216534161)
(-0.000203763981765721 0.00268318370028105 0.000629293917362415)
(-0.000305450291101494 0.00261260629883137 0.000549553482645709)
(-0.000408109424232241 0.00248794451650519 0.000475703682023213)
(-0.000496105915283791 0.00228536184623462 0.000408963182205083)
(-0.000546866441558845 0.00195617649001575 0.000347431028212521)
(-0.000563966967190638 0.00150458785834306 0.00029993259336266)
(-0.000979996458496757 0.00202068126065928 0.000250419815464155)
(-3.06007568993831e-05 0.00251257874146721 0.000904163490762727)
(-9.64307692579887e-05 0.00250360065686818 0.000816101462010328)
(-0.000174153786852301 0.00248140562285712 0.0007300866682906)
(-0.000262230084162035 0.00244079077903155 0.000646549604078869)
(-0.000352891644164679 0.00236104556672192 0.00056626825859919)
(-0.000435464020659558 0.00223041764327718 0.000490922654090452)
(-0.000496721696403785 0.00203026827570262 0.00041996271314885)
(-0.000518986669582525 0.00171674154708585 0.000350523242589363)
(-0.000513370991886408 0.00128945519769202 0.000285552408156811)
(-0.000854379236235858 0.00169673313526548 0.000218129267719514)
(-2.59034153740987e-05 0.00228938276843982 0.000974475210642482)
(-8.21478726204725e-05 0.00229707186866928 0.000891199108760349)
(-0.000148904679519537 0.00229275631249261 0.000807933310760133)
(-0.000225084363101124 0.00227311749711695 0.000725408940155946)
(-0.000304635009071549 0.00222311463665964 0.000643595649232761)
(-0.00037944273163585 0.00213586819346984 0.000564536135143603)
(-0.000440486277647381 0.00200334899676569 0.000488689474834329)
(-0.000477092915255381 0.0018090777132161 0.000414625388825358)
(-0.000475437507320591 0.00151362595368102 0.000339637862378214)
(-0.000454489994648872 0.00111432701782517 0.000268110090845375)
(-0.00071256592335213 0.00131321592588047 0.000198077546313298)
(-0.000270903150255765 0.00456448783378569 -0.000273271228023883)
(-0.000132844373291316 0.00398815028280194 -0.000842606726321246)
(-0.000563366432685494 0.00412405047555993 0.000152210573379029)
(-0.000114430498217166 0.00437722873872102 -0.000814746169360973)
(-0.000297616488416749 0.00337439085775983 -0.00032577764766264)
(-0.000792595647858633 0.00394704593427313 0.000269874958287026)
(-9.57544377546769e-05 0.0043683850136214 -0.000554584414097677)
(-0.000269584226399394 0.00381411222571515 -0.000337485895953229)
(-0.000435666304709906 0.00298933787823273 -6.03607894530484e-05)
(-0.000974322079836678 0.0038303202693149 0.000278075283143482)
(-7.95341526505527e-05 0.00416624124866914 -0.000233596344533779)
(-0.000233877025701004 0.00385343535620341 -0.000154913679687792)
(-0.000405863128119426 0.00336847693828499 -6.35146640192538e-05)
(-0.000543270275065717 0.00270019659375081 7.3070976162296e-05)
(-0.00108532057603984 0.00360935303897622 0.000244192158002472)
(-6.6561022576476e-05 0.00388431610006036 8.06987231727453e-05)
(-0.000201490357689303 0.00368945121430505 7.88746833035436e-05)
(-0.000360302218756467 0.00342356100621443 8.54525440718306e-05)
(-0.000516275406982401 0.00300498193356763 0.000105419380525641)
(-0.000637083385325437 0.00241403476570296 0.000175399642864848)
(-0.00122881258639613 0.00323817508790147 0.000266991076883999)
(-5.64253145719883e-05 0.00357480468546063 0.000356033025020737)
(-0.000173525975154711 0.00345095968451213 0.000305485431733605)
(-0.000311646242284833 0.00329243254222519 0.000263683957822972)
(-0.000462138798723143 0.00306300147898449 0.000231019683000809)
(-0.000594130509703225 0.00266570878168658 0.000218857440712555)
(-0.000698450091074163 0.00212087664899107 0.000234717216281412)
(-0.00131237578981228 0.00295213732172133 0.000242275234859609)
(-4.79097644438613e-05 0.00326451306200688 0.000581710172181555)
(-0.000148769705334236 0.0031886797930578 0.000503366217873467)
(-0.000267505599151496 0.00309201733424577 0.00043350989779577)
(-0.000400437890888242 0.00295602150818858 0.000371248572283199)
(-0.00053079054678667 0.00272797245058802 0.000323020620997354)
(-0.000629146216198119 0.0023472126956091 0.000289333866063985)
(-0.000692293644392825 0.00182665600060017 0.000277387440750289)
(-0.00125358956695807 0.00254183526697119 0.00025378183358608)
(-4.07014999724736e-05 0.00296827237129447 0.000757862630168245)
(-0.000127041427336047 0.0029270577190387 0.000666667584957331)
(-0.000229039657231123 0.00287035216953056 0.000582229007575566)
(-0.000344391039132114 0.00278775691622931 0.000504225073610029)
(-0.000461972198197532 0.00264558774702994 0.000435784353696423)
(-0.000564792616157611 0.00241826296088978 0.000378568877690561)
(-0.000627058898338409 0.00205466819280822 0.000330318965807803)
(-0.000655433812231108 0.00156506982418955 0.000299925776706278)
(-0.00113953415857894 0.00213047416081617 0.000261261831380971)
(-3.45127441553296e-05 0.00269326769859862 0.000888921200952354)
(-0.000108331218089777 0.00267782854576825 0.000794873119661581)
(-0.000195778152804738 0.00264909377154271 0.000705385754897736)
(-0.000295490540888895 0.00260084135487645 0.000620376975413874)
(-0.00039890651159638 0.00250944563918689 0.000541459236292364)
(-0.00049459815597161 0.00236190788299381 0.000470613704061736)
(-0.000567810251456179 0.00213831189160401 0.000407292871867694)
(-0.000598493956814695 0.00179252235932948 0.000348679958660271)
(-0.000604454673933641 0.00132930069921065 0.000299762437724915)
(-0.00096574406444122 0.00166032476393217 0.00022775668207884)
(-2.91819668050852e-05 0.00244261944125063 0.000980741786853538)
(-9.22003413970004e-05 0.00244697694243264 0.000890272314507604)
(-0.000167161875326738 0.00243885525131332 0.000801930290493455)
(-0.000253107914115958 0.00241470742739365 0.000716172656492663)
(-0.000343507682236761 0.00235712048981196 0.000633218125104674)
(-0.000429570057435797 0.00225828086552931 0.000555378031266001)
(-0.000501398900188654 0.00210935810581699 0.00048314485722848)
(-0.000546973247671735 0.00189227966664295 0.000414946600586093)
(-0.000550440748794791 0.00156415478041045 0.00034704946494289)
(-0.000533771917597592 0.0011243519735366 0.000282223480343011)
(-0.000817359168059227 0.00133396171455907 0.000218664760894218)
(-2.46111269589724e-05 0.00221753273247229 0.00103940359993079)
(-7.83756382905787e-05 0.00223744273493301 0.000956616520807261)
(-0.000142693757410941 0.00224531278744112 0.000873583074191033)
(-0.000216847528999316 0.00223878991588613 0.000791076201106406)
(-0.000295605708479727 0.00220498923580793 0.000708621499774727)
(-0.000372077059175997 0.00213909920926216 0.000628511239364231)
(-0.000438917079043277 0.00203642813855672 0.0005519159848102)
(-0.000488051323435467 0.00188925833592749 0.00047841579709529)
(-0.000509288347553098 0.00168112151830138 0.000406142111130757)
(-0.000491495634139078 0.0013737214143999 0.00033296615697021)
(-0.000460511478618308 0.000949942501558351 0.000256355621833869)
(-0.000691429397409899 0.00112867619160323 0.000171642047160273)
(-0.000321396658374302 0.00415858776378081 -0.00040744834444642)
(-0.00014741965456624 0.00390129066446001 -0.001245507569575)
(-0.000667484819915151 0.00379751469328672 9.91349925192669e-05)
(-0.000125825238322044 0.00452753665023076 -0.00123858335198931)
(-0.000312764425799411 0.00330922525393823 -0.000567829007947219)
(-0.000894996958673751 0.00367211779500884 0.000264322641597259)
(-0.000107361901578039 0.00464466455392471 -0.000923202445998415)
(-0.000289443274538432 0.00395741170428828 -0.000607261428774185)
(-0.000463301736896889 0.00295913735388054 -0.000197613613694834)
(-0.00110635400639746 0.00367999859210267 0.000301195104070471)
(-8.94792719020246e-05 0.00448385091695132 -0.000531297919709647)
(-0.000255597915102578 0.00409285759728418 -0.000396062962862426)
(-0.000442260106142892 0.00351195608866875 -0.00023874264344431)
(-0.000589769639933393 0.00274062877564084 -3.31032730158503e-06)
(-0.00124609004802964 0.00360834098171149 0.000280294759511052)
(-7.44597384565738e-05 0.00420089313823754 -0.00014587739805351)
(-0.000221795836548465 0.00395327573868245 -0.000118186699034108)
(-0.000396854423127534 0.0036319024785647 -8.03742401209315e-05)
(-0.000565437706365745 0.00314560423819101 -2.03074668126849e-05)
(-0.000676648284312663 0.00246894612232914 0.000107977570872834)
(-0.00128921539377483 0.00330497112485242 0.000282543848054559)
(-6.33254696369251e-05 0.00387081360987479 0.000193214946462869)
(-0.000191973813345548 0.0037098161699989 0.000155980224029545)
(-0.000345471629513659 0.00351565053989454 0.000129184652876379)
(-0.000512745238243162 0.00324501158413684 0.000114775974866647)
(-0.000655310612126746 0.00279391388930664 0.000132502763676187)
(-0.000751527363233544 0.00218280445245381 0.000198238045148718)
(-0.00134855066158399 0.00290708558108019 0.00026109377894488)
(-5.388620264384e-05 0.0035317061358649 0.000472233923740894)
(-0.000165696628187095 0.00343027348019972 0.00039687088947526)
(-0.00029813770083066 0.00331042300982764 0.000332938932873945)
(-0.000447401304505141 0.00314889425391509 0.000279169952813333)
(-0.00059449167974942 0.00288619585547304 0.000245689623866255)
(-0.000706536266457846 0.00246270712542239 0.000232360223548487)
(-0.000776861988350167 0.00191162481005557 0.000239277854890989)
(-0.0013015369344066 0.00251943068218729 0.000252018616610554)
(-4.58475374619687e-05 0.00320361102318708 0.000691375462562118)
(-0.000142103304268717 0.00314593517078655 0.00059681356320327)
(-0.000256116634398275 0.00307450085269801 0.000512413912841085)
(-0.000385936167893103 0.002975974645666 0.000436920434909353)
(-0.00051927835665219 0.002811660401955 0.000375524224665023)
(-0.000637412050473278 0.00255435638998659 0.000330277901154212)
(-0.000711224663534075 0.00215200747429673 0.00029791902618842)
(-0.000748374399429283 0.00163007339364755 0.000281489830501909)
(-0.00124597738214186 0.00220202661154704 0.00025469933276756)
(-3.89012279891393e-05 0.00289661721892639 0.000856360191547308)
(-0.00012141232672186 0.00287179941322528 0.000755590185904928)
(-0.000219397683532174 0.00283415859453939 0.000662405660194845)
(-0.000331568707007564 0.00277622800064607 0.000576260899358875)
(-0.000448941022656478 0.00267046163641894 0.00049952766319294)
(-0.000558768447009618 0.00250278252840354 0.000434682569839524)
(-0.00064477212711943 0.00225249700329112 0.000381060350996306)
(-0.00068400342288998 0.00187202009579958 0.000335385485943646)
(-0.000695575978705502 0.00137876885297591 0.000301089035433883)
(-0.00107212216354445 0.00170577305581374 0.000253192376129043)
(-3.28825708647291e-05 0.00261536298289427 0.000974415209272426)
(-0.000103409812851439 0.00261520888912032 0.00087576979600076)
(-0.000187452214688337 0.00260222806516115 0.000781848956631747)
(-0.000284176211714697 0.0025723115968902 0.000692639170741971)
(-0.000386484335276536 0.00250531727172186 0.000608806112943398)
(-0.000484879988981074 0.00239258299525126 0.000533026517013852)
(-0.000568565674381791 0.00222476383365007 0.000465820066271356)
(-0.000624220141527958 0.00198290050820196 0.000405526170087998)
(-0.00063472552512985 0.00162261278317148 0.000347662386008176)
(-0.000615983916649486 0.0011349610085658 0.000288453356160762)
(-0.00090961421383918 0.00135539392531602 0.000229372618442705)
(-2.76968030414466e-05 0.00236162988377795 0.00105288234168907)
(-8.78289406359307e-05 0.00238010581880124 0.000961535250210642)
(-0.000159836433076161 0.00238577393233954 0.000872039111160555)
(-0.000243106039093947 0.00237629814124832 0.000784939610661327)
(-0.00033199081038673 0.00233669065363969 0.000699812690898453)
(-0.000419047257270653 0.00226141881837132 0.000619214077435061)
(-0.000496291426148478 0.00214537604988018 0.000544409379316343)
(-0.000554847578617247 0.00198025770465158 0.000474873808521856)
(-0.000583265686118341 0.00174809760134335 0.00040834926644)
(-0.000568237696304968 0.0014070200695799 0.000341029463182747)
(-0.000532542995508851 0.000943224616456787 0.000273232477183601)