/*--------------------------------*- C++ -*----------------------------------*\
  =========                 |
  \\      /  F ield         | OpenFOAM: The Open Source CFD Toolbox
   \\    /   O peration     | Website:  https://openfoam.org
    \\  /    A nd           | Version:  12
     \\/     M anipulation  |
\*---------------------------------------------------------------------------*/
/*   Windows 32 and 64 bit porting by blueCAPE: http://www.bluecape.com.pt   *\
|  Based on Windows porting (2.0.x v4) by Symscape: http://www.symscape.com   |
\*---------------------------------------------------------------------------*/
FoamFile
{
    format      ascii;
    class       volScalarField;
    location    "400";
    object      k;
}
// * * * * * * * * * * * * * * * * * * * * * * * * * * * * * * * * * * * * * //

dimensions      [0 2 -2 0 0 0 0];

internalField   nonuniform List<scalar> 
10228
(
8.64924900552911e-09
9.10287658323699e-09
1.24747263391199e-07
1.24460757213791e-07
1.31185551170585e-07
9.73712020365141e-09
1.33166742769861e-07
5.69189958226637e-07
2.76148652440486e-06
6.25324191973926e-07
2.79526202061953e-06
1.35662960412443e-07
6.37596647420779e-07
9.23834820718181e-09
1.3686070007546e-07
5.72435349527856e-07
1.21372511258309e-06
1.06040886499997e-05
1.10138289885161e-05
1.51718542739598e-06
1.104102280653e-05
1.05480303707619e-05
2.81946567233241e-06
1.34122576933405e-07
6.53863012352927e-07
1.59647615677524e-06
9.10711441495452e-09
1.3565019545456e-07
5.75826425149346e-07
1.24366467989834e-06
2.13139778391618e-06
1.98570581901619e-05
2.92846531795674e-05
2.15143469482066e-05
2.86042821389082e-06
2.92147003982829e-05
1.10525778422426e-05
2.1597699106103e-05
1.0495651922733e-05
1.97604392553894e-05
2.76892468057723e-06
1.25170003718871e-07
6.45490329494204e-07
1.65304165803308e-06
2.92238905382146e-06
7.28080069929722e-09
1.2714804177125e-07
5.65015329151894e-07
1.25073855846692e-06
2.09763341834601e-06
3.06460838191744e-06
2.91527771664477e-05
4.62062747513767e-05
4.72593320666537e-05
3.2452131095197e-05
4.32448122549475e-06
2.89389807223027e-05
4.602362849862e-05
4.71582282001219e-05
2.15903505329815e-05
1.07890723962822e-05
3.24923428612439e-05
1.02170222629984e-05
1.95678563868686e-05
2.88740906466035e-05
2.56072194700647e-06
1.04616592303654e-07
5.90862865228414e-07
1.63412505647219e-06
3.00513716431303e-06
4.47729115592552e-06
5.43775008034703e-09
1.06265851523961e-07
5.21674038738495e-07
1.21478468482697e-06
2.06956506852241e-06
3.05542578479964e-06
4.22838015433544e-06
3.79537708703968e-05
6.18896989480953e-05
6.93866352888316e-05
6.45290184747499e-05
4.31626403780579e-05
6.13634120690891e-06
4.54425160659039e-05
4.66814735773969e-05
2.81369240178095e-05
6.91759587788449e-05
6.15792196285672e-05
6.43970134591236e-05
3.24373282119954e-05
2.1095317579381e-05
1.00059655022241e-05
4.3215272765551e-05
9.48762777949235e-06
1.89781680581924e-05
2.84651505365918e-05
3.76181378739594e-05
2.15272716580644e-06
8.09855229505033e-08
4.91871392443386e-07
1.50467377017145e-06
2.97802572254532e-06
4.62297489131276e-06
6.28439207288883e-06
1.36074155179818e-09
6.8881504547328e-08
4.37880671507177e-07
1.11411370761858e-06
1.98433051468263e-06
3.01085897141022e-06
4.15930485112507e-06
5.4066844681887e-06
4.65182008649737e-05
7.65390156499583e-05
8.95590282445581e-05
9.1073281483373e-05
8.11969147563132e-05
5.37001739192602e-05
8.03013008234215e-06
6.06956796386736e-05
4.4112105831704e-05
6.83273359192741e-05
6.37798495612046e-05
4.54481559596432e-05
2.64316594208414e-05
8.92292431264261e-05
9.08491878295797e-05
7.61034737449953e-05
8.10409640738039e-05
4.31573530605263e-05
3.1778886485113e-05
1.97731068221817e-05
8.56853831065326e-06
5.37369695492035e-05
8.13922484521837e-06
1.76904258779221e-05
2.7523189105124e-05
3.70262688810687e-05
4.60738818082422e-05
1.48218243947165e-06
2.09633588744644e-08
3.90269337762685e-07
1.27747431966619e-06
2.77681421021722e-06
4.59988481928683e-06
6.47583872101665e-06
8.25666505208183e-06
1.35301729048142e-10
1.7186638743053e-08
2.79363309147041e-07
9.32550141688213e-07
1.80390784947166e-06
2.87219631894995e-06
4.08029742574693e-06
5.34340066438441e-06
6.6888557988167e-06
5.46666971509267e-05
9.03111405218681e-05
0.000108380147520231
0.000114943264713852
0.000111896123851872
9.72698038264556e-05
6.39167734855964e-05
1.01031747545412e-05
8.80504044760636e-05
7.49342902206309e-05
5.88584292813364e-05
6.64707140988652e-05
4.16220507701499e-05
8.98433314957576e-05
8.03376821432905e-05
6.22677845698854e-05
4.30210158887544e-05
2.34518323175152e-05
0.000114611322482325
0.000107911777732165
0.000111646968107902
8.97704338769982e-05
9.70981356833146e-05
4.24272897302511e-05
5.36870837842511e-05
3.01325489341285e-05
1.74170161672657e-05
6.40646496182256e-06
6.39906728582938e-05
5.75809394336065e-06
1.54084876498015e-05
2.56748359805954e-05
3.57512397748154e-05
4.53183870763686e-05
5.42009410880019e-05
3.94200233205543e-07
1.92426255122402e-09
9.15337087977871e-08
1.0517722582328e-06
2.44285693429778e-06
4.34235984822084e-06
6.46921225475453e-06
8.52995093735057e-06
1.03788962517097e-05
1.28967680151337e-09
8.32359506839748e-08
6.14511204741017e-07
1.50240906241458e-06
2.59873032044268e-06
3.8840070062618e-06
5.25335761152336e-06
6.60348393207642e-06
7.98082654305864e-06
6.24830542087468e-05
0.000103277030311328
0.000126031226190365
0.000137127986932234
0.00013911144085171
0.000131944157681099
0.000112728892511041
7.38305999962443e-05
1.22401750333435e-05
0.000113277300317695
0.000106413387525811
8.56415791266666e-05
8.83595153541777e-05
7.26287974225399e-05
5.56380984097117e-05
8.76764664583488e-05
6.31942663273231e-05
3.75370242969417e-05
0.000110534036138794
9.63450703117085e-05
7.86853224337517e-05
5.94368784186595e-05
3.89339837412454e-05
1.8419992733658e-05
0.000138752414592212
0.000136652375184922
0.00012544039504734
0.0001316670997534
0.00010266509606584
0.000112559644914229
4.06591854030897e-05
5.2938123125194e-05
6.39815250951671e-05
2.73418933750294e-05
1.39566050989236e-05
7.39465714027314e-05
2.04062816484458e-06
1.13527151359222e-05
2.25083736921687e-05
3.33741146056938e-05
4.37519123251219e-05
5.33364643284743e-05
6.19885655349458e-05
2.2269361809224e-08
6.94957255184364e-09
3.62320356025246e-07
2.12676273799063e-06
3.91865433293531e-06
6.16059009771918e-06
8.55356481878238e-06
1.07356043166139e-05
1.25865368207612e-05
6.40641659178896e-09
1.89762479870038e-07
1.00092118780205e-06
2.15947290752954e-06
3.50912280798933e-06
5.00244401665179e-06
6.49482721053929e-06
7.89400268068951e-06
9.28475415280671e-06
6.99026623312549e-05
0.000115501524744455
0.000142613789523784
0.000157930294601651
0.000164243531220862
0.000162324482921328
0.000151209336402571
0.000127571635655158
8.338820761564e-05
1.44312586477665e-05
0.000134986006695208
0.000110556168290642
0.000137299558097897
0.000103490894983169
0.00012365643243107
8.16203663395817e-05
0.000101062442233283
8.56431485663885e-05
6.87250842859698e-05
5.05440244682472e-05
0.000108196691244575
8.39899388124305e-05
5.81158377202141e-05
3.10021475452223e-05
0.000130467316711517
0.000111780516059528
9.46212058008061e-05
7.57383328792147e-05
5.49159201964897e-05
3.21877462171825e-05
1.04547028432713e-05
0.000163730204125179
0.000161922098365971
0.00015731853283815
0.000141932618868796
0.000150915812913656
0.00011483889201184
0.000127416841959494
5.11205100035006e-05
3.78628987032478e-05
6.32372078030335e-05
7.39909304659641e-05
2.34515523221271e-05
8.3555156894317e-05
1.20868555459123e-07
4.35973189421179e-06
1.69359183358282e-05
2.9400548644278e-05
4.08960591619022e-05
5.15269422198351e-05
6.1039870094128e-05
6.94001579917911e-05
9.39234126330341e-08
1.18873508180943e-08
1.8002040962369e-07
1.65895976461931e-06
3.4000585420229e-06
5.63735866771425e-06
8.19899157646147e-06
1.07991550283395e-05
1.30372841812883e-05
1.48460510248992e-05
1.24196676006841e-08
3.21500307278882e-07
1.44599072427101e-06
2.91889055813049e-06
4.52234487125905e-06
6.19074236884761e-06
7.7748736139201e-06
9.19379852710082e-06
1.05747708931237e-05
7.69293144225313e-05
0.000127027850952819
0.000158216879663166
0.000177489425346727
0.000187771287403038
0.000190180816615501
0.000184628420505628
0.000169691471779954
0.000141800989109497
9.25804938723627e-05
1.66426381807617e-05
0.000155343665952588
0.00016192816216796
0.000131743500674049
0.000134392110720315
0.000106156404531067
0.000160351662215625
9.87661467576936e-05
0.00012027161616965
0.000139912679923496
7.56541273426756e-05
0.00011307998565241
9.79939691275831e-05
8.11192233152041e-05
6.26602542699309e-05
4.23930940782523e-05
0.000104369699096836
0.00012801491740969
7.85740539447787e-05
5.08811650733343e-05
1.8527890197115e-05
0.000149643600639712
0.000126622698245181
0.000110001481920904
9.1637829853726e-05
7.14200310013709e-05
4.81341682712636e-05
2.50865106374033e-05
6.39357344628117e-07
0.000187108715368503
0.000189607729532065
0.000184189714636542
0.000176775446065489
0.000157470543352497
0.000169393399422299
0.000126324542613079
0.000141663611253979
6.13662239596282e-05
4.83341430870251e-05
3.4363722223746e-05
7.32539311808728e-05
8.36513398362374e-05
1.9685821486818e-05
9.27894159200659e-05
2.34192932268394e-07
7.00155656740244e-06
2.24790165847103e-05
3.6183358064371e-05
4.82412999417793e-05
5.90195122751235e-05
6.83840624063854e-05
7.64195979586156e-05
9.96105510505201e-08
1.4859743135593e-08
1.79570420186095e-07
1.18296157647307e-06
2.84688336229951e-06
5.0230279993136e-06
7.57786581173096e-06
1.04043040892127e-05
1.31447820153206e-05
1.53902668151255e-05
1.71279638872784e-05
2.13190095774191e-08
4.73133574495579e-07
1.96792189465989e-06
3.76948099771849e-06
5.60438401421358e-06
7.41915510178508e-06
9.0648168711623e-06
1.04820024037752e-05
1.18442274007958e-05
8.35573722931576e-05
0.000137885443643788
0.000172915204711163
0.000195913532460787
0.000209904945933835
0.000216181034377587
0.000215073221649016
0.000206040715079969
0.000187404176279128
0.00015542163883055
0.000101395364538578
1.88640124389974e-05
0.000151623215324108
0.00018497966897317
0.000174542820434905
0.000187660971918465
0.000158486102060674
0.000126668005212075
0.000157289889837539
0.000129839881203752
9.99836867930714e-05
0.000182507487914162
9.18732664743548e-05
0.000114894149587081
0.000136124964551593
0.000155255927438202
6.71057705986652e-05
0.000124430236992189
0.000109703832292933
9.29132252356415e-05
7.41610864226935e-05
5.30479920817264e-05
2.67287863801445e-05
9.90489955866824e-05
0.000124118055522071
0.000147080986675209
7.16251838735703e-05
3.97655138062417e-05
1.15453199466934e-06
0.000168058205639174
0.000140855092172597
0.00012478335147269
0.000106945834407374
8.74498099893026e-05
6.60676683251276e-05
4.15353062938531e-05
1.40320919686768e-05
8.07778931025709e-07
0.000209130309194825
0.000215445596305275
0.00021444554077196
0.000205578274247657
0.000195126946833298
0.000172116616054244
0.000187106133380057
0.000137144721041119
0.000155298528279557
5.84918119561199e-05
7.13142263162111e-05
4.49120252330275e-05
3.06122320109855e-05
8.29156837096594e-05
9.29315923753799e-05
1.54145258271252e-05
0.000101638728171506
3.95811602190606e-07
9.84586290592389e-06
2.80351496774654e-05
4.28445488251182e-05
5.53424883601896e-05
6.61745968592101e-05
7.53422186043433e-05
8.30364380546645e-05
1.87659549142488e-07
1.10842123721938e-08
1.39654973237889e-07
8.51491546791733e-07
3.18417800547971e-06
2.33187229095662e-06
4.39336730527853e-06
6.85416389618954e-06
9.68351648590432e-06
1.27107305846535e-05
1.55409008562479e-05
1.77634940077469e-05
1.94139331326731e-05
3.04340904845823e-08
6.56595741246406e-07
2.55495846084425e-06
4.68147117694051e-06
6.72551900736734e-06
8.65978034998957e-06
1.03446043990043e-05
1.17471858660805e-05
1.30807951327892e-05
8.97904654485284e-05
0.000148092009838291
0.000186759398088878
0.000213290222311142
0.000230783071240807
0.000240627798752776
0.000243388054714237
0.000238976493518243
0.000226582201943913
0.000204360852504982
0.000168436820947901
0.000109828604707076
2.10764059132834e-05
0.000170403194535172
0.000145911254923884
0.000181048234262191
0.00020672895862756
0.000213151032486072
0.00019268290863776
0.000212354340477119
0.000184033908886846
0.000153262739395487
0.000119677042699364
0.000179284249542384
0.000152618932623439
0.000123726105332503
9.21097460165774e-05
0.000203792934255845
8.20287138931791e-05
0.000107124305301133
0.000130155210451851
0.000151114430888053
0.000169733095600363
5.35942001262866e-05
0.000135125910983678
0.000120776536389735
0.000104117757071344
8.51369328094606e-05
6.32209475052531e-05
3.46964247292048e-05
1.94531732152291e-06
9.26048329007799e-05
0.000118871537933884
0.000143064797082591
0.000165374622118586
6.38348413135673e-05
2.53102139929262e-05
1.47608043949878e-06
0.000185710520553549
0.000154470521074449
0.00013894514187567
0.000121610213666477
0.000102685523094555
8.23655379234745e-05
6.03805048893657e-05
3.4983096761581e-05
1.12781890194578e-05
7.53727323292153e-07
0.000239772033284277
0.00022992993222592
0.000242585362416334
0.000238307493601639
0.000226102732735312
0.000212447322663307
0.000185913758289634
0.000204061889368013
0.000147314172323778
0.000168323034991845
5.49625585744126e-05
6.82983057192532e-05
8.08884755889362e-05
4.11519556031056e-05
2.67149648638697e-05
9.21870470299395e-05
0.000101816179747718
1.21579008687312e-05
0.000110099936658624
5.79724906467588e-07
1.29159194912062e-05
3.35522487791397e-05
4.93115528820851e-05
6.21371796518911e-05
7.29586829571079e-05
8.18979506244815e-05
8.92532406108894e-05
1.50632468074512e-07
8.51575490837159e-09
1.10911093943455e-07
6.41167967227184e-07
2.74814733181079e-06
1.91609084402203e-06
3.78518282489714e-06
6.1120263973798e-06
8.83421936461086e-06
1.18875725693746e-05
1.50656055717199e-05
1.79536589266755e-05
2.0135747791272e-05
2.16871133235407e-05
4.29828370586738e-08
8.66569956489937e-07
3.19045599204182e-06
5.6302311416514e-06
7.86035585533179e-06
9.89136185295091e-06
1.16001960132244e-05
1.29783884229701e-05
1.42740526596349e-05
9.5627633442639e-05
0.000157657770778794
0.000199777643478072
0.000229677840156594
0.000250506066322185
0.00026370461619053
0.000269974350928935
0.000269499561342243
0.000261927984604424
0.000246269425867593
0.000220569174647642
0.00018084906431703
0.000117879154406976
2.32643768717271e-05
0.000164108856815337
0.000188175598809601
0.000202370511252183
0.000138124655637477
0.000175199533517687
0.000209014283210682
0.000227307409080684
0.000237191427488358
0.000240123164278835
0.000209821731599616
0.000236079694096777
0.000208524343950567
0.000178661138489669
0.000146375203493354
0.000110786274007384
0.000174435056224636
0.000200394234545939
0.000146487857651191
0.000116386046612543
8.2984920944149e-05
0.000224219043228357
9.60846669781177e-05
6.65036045658185e-05
0.000121573626970923
0.000144604191600409
0.00016527191586972
0.000183375796363313
3.64342643143827e-05
0.000145177062421735
0.000131215219023562
0.00011472494379371
9.55869748196147e-05
7.2978212406871e-05
4.25348696729785e-05
2.78550275157534e-06
2.41008513859599e-06
0.000112576919177256
8.55667192247759e-05
0.000137700811480261
0.000161181661130167
0.000182894809009242
5.54000311632691e-05
2.15173100327088e-05
1.51703374631659e-06
0.000202603538518761
0.000167468427133628
0.00015247900985177
0.000135624732150251
0.000117171931534369
9.74906964691073e-05
7.6710206815607e-05
5.44695271878251e-05
3.03330536415231e-05
1.00242640399035e-05
6.02303860558386e-07
0.000262765632622494
0.000269044278516841
0.000249593284329745
0.000268643371482055
0.000261225644267285
0.000245773821518693
0.00022878559369155
0.000198886948519231
0.000220266070192341
0.000156842835318996
0.000180740009516836
5.10418144719706e-05
6.45686838123026e-05
7.77010747842375e-05
9.00584721044395e-05
3.72126360287781e-05
2.31874243098481e-05
0.000101050851662417
0.000110302380058264
1.0425935263583e-05
0.000118173013463011
8.11997392339808e-07
1.6119698369549e-05
3.89551786198862e-05
5.55165357251942e-05
6.85855062796745e-05
7.93510377893891e-05
8.8053620152922e-05
9.50715802743237e-05
1.18689541060772e-07
6.42029364311312e-09
8.44684232878229e-08
5.08612368478041e-07
2.26526314969119e-06
1.56591365462699e-06
3.22234725863702e-06
5.37281829839555e-06
7.95297757646724e-06
1.09050866263382e-05
1.41369144675202e-05
1.74334342939186e-05
2.03609892024328e-05
2.24903667206727e-05
2.39326977477478e-05
5.65082249129922e-08
1.10188887508908e-06
3.85761705899647e-06
6.59365513403176e-06
8.98838888161854e-06
1.10994482917044e-05
1.28205861643723e-05
1.41653838527274e-05
1.54134639234168e-05
0.000101065752180416
0.000166587454123243
0.000211982652064569
0.000245106728152459
0.000269136148114312
0.000285532166143896
0.000295069956442956
0.000298106625491741
0.000294579407236377
0.000283950151498513
0.000265109457579814
0.000236031556349417
0.000192660591239804
0.000125547782983484
2.54134140003152e-05
0.000155575057150964
0.000195951879202516
0.000181347517075993
0.000204982793430324
0.000222576750195917
0.000232615612164904
0.000128263743405223
0.000167568943999758
0.000203003024345863
0.000235754822317001
0.000246782615099037
0.000259955178647133
0.000266281458772154
0.000266020337686995
0.000225995255518494
0.00025886717957406
0.000232029226287758
0.000202925215031115
0.000171728311063996
0.000138144300781407
0.000100458007445798
0.000195306314435805
0.000168115415292656
0.000220634582390659
0.000139188474007851
0.000108229427077336
7.31057838962887e-05
0.000243792185689281
0.000109431195579368
7.87720071823051e-05
4.70085341178695e-05
0.000135268202069231
0.000158261266523501
0.000178618187055812
0.000196203514817655
3.1311274199924e-05
0.000141024966390094
0.000154592418631101
0.000124729892455797
0.000105492676635921
8.23012190328895e-05
5.0156475851964e-05
3.8322875661737e-06
3.37974223863982e-06
2.46190380345659e-06
0.000131232111636197
0.000105529538866203
7.81442215660445e-05
0.000155580231503935
0.000178490454767427
0.00019964658359757
4.8610850452281e-05
1.89294777112599e-05
1.29270210011787e-06
0.000218740890543913
0.000179852445814444
0.000165385566710987
0.000148992151688935
0.000130958267426677
0.000111726927970739
9.16041306215295e-05
7.06539561363033e-05
4.87875302441529e-05
2.73217465629368e-05
8.49120216478302e-06
4.77387088285327e-07
0.000284530599688327
0.000294053141227177
0.000297116464213608
0.000268171862589487
0.00029367810617825
0.000283216486254058
0.000264595986332122
0.000244167945119464
0.000211048306374007
0.000235721151664445
0.00016573610472794
0.000192552668583555
6.03848272826595e-05
4.6859451212932e-05
7.37311704701763e-05
8.66803766373924e-05
9.88091850319721e-05
3.32968191499443e-05
2.01534366570017e-05
0.000109505949556689
0.000118391896085396
8.80895629021134e-06
0.000125860443634585
1.0728324942008e-06
1.93831323425136e-05
4.41685903505729e-05
6.14149170509682e-05
7.46664585749101e-05
8.53510439986285e-05
9.38111527258095e-05
0.000100490149472766
8.9588436742288e-08
4.51471242402509e-09
3.8847147243629e-07
6.08194527509197e-08
1.76704975768065e-06
1.2544653951128e-06
2.69447392950442e-06
4.64390665998881e-06
7.05709317739704e-06
9.87375305523508e-06
1.30172000981258e-05
1.63958279374601e-05
1.97922143638152e-05
2.27465292030074e-05
2.48127866724239e-05
2.61365376398175e-05
7.22648823292566e-08
1.35362030684162e-06
4.53880628302391e-06
7.55411257345405e-06
1.00959594884455e-05
1.22733618091203e-05
1.39960510832633e-05
1.52980403724107e-05
1.64886813765228e-05
0.000106100046578682
0.000174881977293545
0.000223378310191757
0.000259587726958015
0.00028670225512457
0.000306179427405709
0.000318823494194931
0.000325093338705494
0.000325121037028287
0.000318662143211675
0.000305050105967992
0.000283101686838972
0.000250748304724602
0.000203873766916297
0.000132834251876728
2.75107712450403e-05
0.000144801013793696
0.000172112397534145
0.000187622548761901
0.000226030380063845
0.000215637050072236
0.000197658699096438
0.000220848918465816
0.000241717689847109
0.000255000253722368
0.000261455757846041
0.00011683217775119
0.000158485535102649
0.000195325731508529
0.000229485617794357
0.000261398554870063
0.000281525996922817
0.000265191351339851
0.000291051406117416
0.000294177236469353
0.00029090013912679
0.000241222997566639
0.000280729435030402
0.000254586065471484
0.000226138159352594
0.000195748218442272
0.000163522402814533
0.000128962417653833
8.92675130753171e-05
0.00021527324300454
0.00018868053496014
0.000160562963070175
0.000240015407627222
0.000130979900077208
9.94883928086722e-05
6.47155520922428e-05
0.000262514852016159
0.000122097683926098
9.04927843606435e-05
5.72796586506066e-05
4.06327255706268e-05
0.00014821883532148
0.000171139052453879
0.000191167192290072
0.000208226753694339
2.75990124520516e-05
0.000150212570091536
0.000134133478175371
0.000163377725147248
0.000114841905664441
9.11558026347727e-05
5.75137486652401e-05
4.92952080852322e-06
4.61027186516418e-06
3.54844715234182e-06
2.10233395582805e-06
0.000148790277882375
0.000123869949212357
9.78907067017704e-05
7.07189582206043e-05
0.000172594788151869
0.000195011688423578
0.000215635847638316
4.32130745745786e-05
1.61114964388574e-05
1.02079709699934e-06
0.000234125667596062
0.000177670999889118
0.000191627596374127
0.00016171971994233
0.000144071158892613
0.00012520405960165
0.000105495824632542
8.51787444613656e-05
6.43946969639691e-05
4.35797382810396e-05
2.39348794737976e-05
6.81886793633879e-06
3.60428694883001e-07
0.000317742091224163
0.000305124011402883
0.000324013380240319
0.000324079137053285
0.000285689646699975
0.000317718072853297
0.000304284332996704
0.000282568329703837
0.000258604140670689
0.000222402057487467
0.000250428233929464
0.000173995715798663
0.000203764365856077
6.9241279561981e-05
5.58558103575871e-05
4.25014733314888e-05
8.24483671010202e-05
9.52291721919434e-05
0.00010714274154167
2.9450764176922e-05
1.72833205076316e-05
0.000117556805151775
0.000126087786627545
7.13669134944884e-06
0.000133161827348588
1.36776005817559e-06
2.2616321623864e-05
4.9141850535341e-05
6.69851966537123e-05
8.03740809006416e-05
9.09610558573751e-05
9.91706789787656e-05
0.000105505484217887
6.41380078444255e-08
2.98892014827772e-09
9.7097434255201e-07
2.81042904223379e-07
4.09955055403457e-08
1.30406943615372e-06
2.19253803058152e-06
3.9266265163447e-06
6.14860820731124e-06
8.81064916913583e-06
1.18315914369014e-05
1.51364476231046e-05
1.8642909933073e-05
2.21265701478013e-05
2.5096361024799e-05
2.70897642900846e-05
2.82852318915246e-05
8.88260157089573e-08
1.61564659835889e-06
5.22116000648181e-06
8.49904637606688e-06
1.11731082236587e-05
1.34038263194177e-05
1.51171317529318e-05
1.63668890775099e-05
1.7490724796496e-05
0.000110725145814802
0.000182539916567228
0.000233963899493533
0.000273120923211567
0.000303210910982155
0.000325674680177053
0.000341315712240654
0.000350641207894201
0.000353905518055936
0.000351069584141729
0.000341758616109341
0.000325224297361407
0.000300242323685867
0.000264719981046772
0.000214491983371459
0.000139734128789914
2.95419878114079e-05
0.000160474281773334
0.000177729176676297
0.000132336853293919
0.000187761734091923
0.000206650517468569
0.000217661738612514
0.000247894629552797
0.000254592797812684
0.000234294128548945
0.000213058684501528
0.000235787296243228
0.000259817020759408
0.000276232580852031
0.000285834765787494
0.000289075505815016
0.000104444658013362
0.000148347734706836
0.00018627384535335
0.000221529456845111
0.000254797483770424
0.000286013495668327
0.000314539861882723
0.000301944597810992
0.000282549897262316
0.000320825388314331
0.000320968743499369
0.000314787759386754
0.000255512541205331
0.00030166883471972
0.000276212807735164
0.000248368073874438
0.000218594368618269
0.000187229068655461
0.000154278769794484
0.000119046102748744
7.94597364335425e-05
0.00023436386359147
0.000208285403403913
0.000180730119169228
0.000151963103484883
0.000258541919469836
0.000122000815796776
9.04955613037276e-05
5.76630787379846e-05
0.000280386439998473
0.000134082330946617
0.000101652628096611
6.71874713332207e-05
4.9701639177559e-05
3.59203726841356e-05
0.000160431875468437
0.000183247285524837
0.000202927517830932
0.000219449884224528
2.36213623690713e-05
0.000158783697832541
0.000142940330540114
0.000123631644537202
0.000171535610091268
9.95204353153082e-05
6.45317155166633e-05
6.13480767563247e-06
5.89931529267933e-06
4.82848221047053e-06
3.05295309694927e-06
1.66470915553142e-06
0.000165421560791208
0.000140995467505318
0.000115753543889773
8.98223478092252e-05
6.36028549733657e-05
0.000188794951803188
0.000210759942087386
0.000230868509183153
3.80035782256454e-05
1.31757425086694e-05
7.70934049222575e-07
0.000248760549240573
0.000189343351501342
0.000173818948521921
0.000202799172761137
0.000156530071055407
0.00013797937892099
0.000118576210396913
9.86123892811759e-05
7.83359434342398e-05
5.80702921281071e-05
3.84665748291274e-05
2.02940210206951e-05
5.19078607415743e-06
2.58788478957159e-07
0.00034017882997967
0.000349495174084444
0.000324568652452418
0.000352770625691333
0.000349978143438887
0.000302151746522935
0.000340771312183928
0.000324425145397974
0.000299687651840105
0.000272094421233732
0.000232947995798285
0.000264388728896783
0.000181620834326356
0.000214379311803178
6.4330065781253e-05
7.76329659464754e-05
5.10274223205868e-05
3.79974009715906e-05
9.07253046528793e-05
0.000103354864276691
0.000115067367773754
2.55942629268601e-05
1.43969111048479e-05
0.000125208920529147
0.000133395198742884
5.49178962482828e-06
0.000140074059217877
1.68035864940606e-06
2.57582569562384e-05
5.3849297552756e-05
7.22163945814097e-05
8.57111009212755e-05
9.61819472445975e-05
0.000104130084570098
0.000110112803538137
4.30825089815301e-08
1.81654057554122e-09
1.7195300107382e-06
7.14713452738866e-07
1.89325164564946e-07
2.48845935022336e-08
8.99410257560633e-07
3.22644390415739e-06
5.23461697220824e-06
7.71620382717556e-06
1.0597949446506e-05
1.37955230060437e-05
1.72412131366461e-05
2.08641213805021e-05
2.44237103269223e-05
2.73979259418492e-05
2.93082111486856e-05
3.03652658898238e-05
1.06132329580933e-07
1.88235802589689e-06
5.89555599018471e-06
9.41929292317175e-06
1.22109709340894e-05
1.44818486775214e-05
1.61750233013544e-05
1.7362296100508e-05
1.84110407479215e-05
0.000114936211709807
0.000189558535103585
0.000243736448095104
0.000285701475719241
0.000318656726155241
0.000344020084043085
0.00036257716529082
0.000374847163183123
0.000381149277152655
0.000381579067812591
0.000375970878450826
0.000363864347485038
0.000344464568434492
0.000316528016142257
0.000277948406490342
0.000224517053370596
0.000146241901995313
3.14940154250938e-05
0.000175303112791808
0.000195985403557722
0.000147032686621266
0.000207812541978723
0.000166684115181406
0.000118831283406048
0.000224686066478793
0.000202535097531138
0.000238880146144758
0.00024592353438355
0.000268646070895586
0.000278438820123333
0.000281852103194981
0.000251938381474407
0.000227556846160081
0.000249803375257274
0.000276884069082377
0.000296338598783988
0.000308976384656007
0.00031531704494222
0.000315577590769955
9.3336784958838e-05
0.000137346099762351
0.000176071447430944
0.000212124489984039
0.000246427862149818
0.000279043403806133
0.000309631834769878
0.000336796460253274
0.000346099791675284
0.000321225237461471
0.000298860737432632
0.00034940085341528
0.000346698968589261
0.000337689588418002
0.000268864103452897
0.00032168151259847
0.00029691508738037
0.000269653096468631
0.000240402101586929
0.00020961023025949
0.00017753307121914
0.000144105469019347
0.000108672994764591
7.10188535004443e-05
0.00022699024334997
0.000252592950380107
0.000199877585403036
0.000171614942574573
0.000142431634031008
0.000276216247066303
0.000112380195249319
8.1662881322804e-05
5.08432224180637e-05
0.000297405088976722
0.000112223632353485
0.000145384063861378
7.66991777659538e-05
5.85143399184272e-05
4.40357110424792e-05
3.09099802991389e-05
0.000171913955024828
0.000194593024444463
0.000213903495600689
0.000229873379023709
1.9529600819034e-05
0.000166741580008402
0.000151155700648101
0.000131864394017308
0.00010738744481413
0.00017906604933977
7.11699074314884e-05
7.35455483713346e-06
7.31883683559015e-06
6.24242557569959e-06
4.15560901572181e-06
2.42583088868241e-06
1.25701306189794e-06
0.000157144713045323
0.000181210988861952
0.000132320896887907
0.000107003776770806
8.15226788969911e-05
5.65422985474659e-05
0.000204209581630929
0.000225747143487324
0.000245350200677727
3.26480499435016e-05
1.02892159991094e-05
5.55727913239854e-07
0.00026264851981542
0.000200410647761285
0.000185302392796883
0.000168354457370785
0.000213372861866905
0.000150087710458798
0.000130930874069394
0.000111196213190384
9.11646354217086e-05
7.1160087417359e-05
5.16372822619365e-05
3.32143903198109e-05
1.65420151525296e-05
3.68946671434441e-06
1.74406983195201e-07
0.000361387970460869
0.000373644587185392
0.000379946751579378
0.000342865113685956
0.000380391123603173
0.000374829397858573
0.000317552850815634
0.000362832941249392
0.000343631304202169
0.000315951315498143
0.000284634388591541
0.000242683561923026
0.000277605138304473
0.000188609003443644
0.00022440077818414
5.90266328270344e-05
7.23288208126715e-05
8.55789087972191e-05
4.59193254986272e-05
3.33415449258138e-05
9.85768260442626e-05
0.000111070032042246
0.000122591617530834
2.16681252312671e-05
1.15004558516147e-05
0.000132468763447777
0.000140310967494946
3.93995951179977e-06
0.000146593081430866
2.0042834995139e-06
2.87734700363013e-05
5.82826066144134e-05
7.71102491704442e-05
9.06782587341064e-05
0.000101012411943981
0.000108685490737172
0.000114306788279492
2.60916776051876e-08
8.80960727621511e-10
2.55491899211843e-06
1.28397533844457e-06
4.892984715567e-07
1.1404671257999e-07
1.24412534708178e-08
5.57266224602522e-07
4.32910728624854e-06
6.60128912837641e-06
9.31598485262348e-06
1.23909586012935e-05
1.57432913131085e-05
1.93197934113208e-05
2.30480904923215e-05
2.66719194881882e-05
2.96389224665043e-05
3.14531659542661e-05
3.23627272309678e-05
1.23673148422859e-07
2.14982825682046e-06
6.5547655540176e-06
1.03070713548374e-05