/*--------------------------------*- C++ -*----------------------------------*\
  =========                 |
  \\      /  F ield         | OpenFOAM: The Open Source CFD Toolbox
   \\    /   O peration     | Website:  https://openfoam.org
    \\  /    A nd           | Version:  12
     \\/     M anipulation  |
\*---------------------------------------------------------------------------*/
/*   Windows 32 and 64 bit porting by blueCAPE: http://www.bluecape.com.pt   *\
|  Based on Windows porting (2.0.x v4) by Symscape: http://www.symscape.com   |
\*---------------------------------------------------------------------------*/
FoamFile
{
    format      ascii;
    class       volScalarField;
    location    "400";
    object      nut;
}
// * * * * * * * * * * * * * * * * * * * * * * * * * * * * * * * * * * * * * //

dimensions      [0 2 -1 0 0 0 0];

internalField   nonuniform List<scalar> 
10228
(
2.94859673478198e-09
3.07462804232865e-09
4.20944561326835e-08
5.02934721906997e-08
5.37099569846388e-08
3.30971481847951e-09
4.44928115458218e-08
1.92511355754623e-07
3.96347876103438e-06
2.55010477038934e-07
3.98333295408905e-06
5.64209713072798e-08
2.62883871130034e-07
3.05664436516146e-09
4.56151540918632e-08
1.88633936692023e-07
3.98756395994051e-07
1.89172657576619e-05
2.10193116209931e-05
6.0536270175137e-07
2.11645582133888e-05
1.8689185469253e-05
4.03862355972343e-06
5.6386085723537e-08
2.76452369724659e-07
6.60034724386172e-07
3.06233854045275e-09
4.523156947771e-08
1.89116349616515e-07
4.0395438770907e-07
7.06136716334302e-07
3.44592363599771e-05
9.33934965894131e-05
4.18538457324758e-05
1.15641993141786e-06
9.37349447262587e-05
2.15730576735332e-05
4.28819229351957e-05
1.86802759424392e-05
3.42969154773724e-05
3.9858868919037e-06
5.30895280912525e-08
2.79352465723347e-07
7.09037066470879e-07
1.21513902285652e-06
2.38237973020103e-09
4.25998565402899e-08
1.87025677833481e-07
4.06983187887875e-07
6.7902151473991e-07
1.00244711726404e-06
4.8880646277102e-05
0.000158233134428387
0.000171665961313147
6.24005866563764e-05
1.73324374540486e-06
9.39887415270152e-05
0.000158400889894827
0.000173212396093738
4.40743962600611e-05
2.13705349345949e-05
6.38627130319511e-05
1.83753585774307e-05
3.423754299858e-05
4.82329959908287e-05
3.69855558944414e-06
4.40180566731459e-08
2.57620559082134e-07
7.21354804876876e-07
1.29771807317187e-06
1.86080880887963e-06
1.76680755603742e-09
3.54626744204481e-08
1.73743875090088e-07
3.99185716233991e-07
6.69256193363865e-07
9.84220065704425e-07
1.39030190935964e-06
6.12404322591588e-05
0.000208031564976392
0.000301090446860028
0.00023727498861928
8.06586145921529e-05
2.47719147098564e-06
0.000158032761377609
0.00017429209285891
9.26427500995236e-05
0.000301890203959363
0.000207837049477616
0.000239677029220118
6.5733345869712e-05
4.39980562591611e-05
1.99017427608159e-05
8.27863523823577e-05
1.72385224349116e-05
3.36568786815714e-05
4.79079611179941e-05
6.0659123195011e-05
3.09110650243795e-06
3.53130044145506e-08
2.12096918655562e-07
6.70520173197279e-07
1.32577421271319e-06
1.99984365564495e-06
2.61858180054863e-06
3.98744188344788e-10
2.23813353020785e-08
1.45891891904505e-07
3.68546817609766e-07
6.47657123419898e-07
9.70336118651752e-07
1.34121696628441e-06
1.77415808921321e-06
7.30737262700757e-05
0.000248305213961069
0.000403301927927208
0.000426158717829291
0.000291947130685358
9.78353452094745e-05
3.24129077146688e-06
0.000206759137427468
0.000155412829278216
0.000301133606962697
0.000241648068109868
0.000172420705728226
8.80479472072084e-05
0.000403313228196466
0.000427449047695137
0.000247988596500622
0.000295120085755518
8.53569153728784e-05
6.60057887518274e-05
4.15609819334297e-05
1.67766805327413e-05
0.000100238771511801
1.49217911029136e-05
3.17777123352959e-05
4.69543557416409e-05
6.02013570025381e-05
7.2250793426898e-05
2.07507164938789e-06
8.92510870835797e-09
1.77618687929806e-07
5.63625306124582e-07
1.25037276537506e-06
2.05140101032217e-06
2.80511007554617e-06
3.44696524037468e-06
3.41573799839774e-11
5.07388251444605e-09
9.04291483178041e-08
3.07521383236429e-07
5.91685227898432e-07
9.33133755120042e-07
1.31451217973532e-06
1.72471681288848e-06
2.19904409796689e-06
8.37443846704069e-05
0.000283088003098532
0.000484510636949414
0.000585962577110276
0.000530514799286171
0.000339262354889623
0.000113478166920248
4.08897534985758e-06
0.000400762955584172
0.00024638308548687
0.00020287027160156
0.000296156316136175
0.000148371067247549
0.000426677288612113
0.000297994147044322
0.000239998886070073
0.000165036121463636
7.82452066051614e-05
0.000585821257543011
0.00048398005953471
0.000532240563282153
0.000282617962779196
0.000342957449003648
8.60999237784027e-05
0.000103326458461784
6.33152949479182e-05
3.61264234805072e-05
1.18420619363157e-05
0.000116371157060884
1.05310687969973e-05
2.79356346321066e-05
4.43384444770645e-05
5.88961707816427e-05
7.16329579079752e-05
8.3002690291501e-05
4.49698899834622e-07
7.77758011300642e-10
3.78031064448328e-08
4.89641535152361e-07
1.0966449584261e-06
1.96040861527819e-06
2.88830868450884e-06
3.70377494790644e-06
4.34341093770995e-06
3.23669746998153e-10
2.45947912144833e-08
1.96094805913927e-07
4.89088460203464e-07
8.4696251035053e-07
1.26047120605438e-06
1.69531741929289e-06
2.13562590398514e-06
2.6245732982727e-06
9.37754584644925e-05
0.00031362749326783
0.000551613078818783
0.000715571237329913
0.000743476206797678
0.000618550589127725
0.000381013030763604
0.000128122616563975
4.95820828549191e-06
0.000582008687466251
0.000480053478164484
0.000392760947204379
0.000280622621314593
0.000241401973224529
0.000193581821717923
0.000420568166919054
0.000283616135504042
0.000133765552591102
0.000531874592530447
0.00034664603071283
0.000297090979646307
0.000231814376746381
0.000148993354999626
5.77278982398531e-05
0.000743171706363298
0.000714278850289227
0.000550745452306913
0.000620718282683951
0.000313207049333709
0.00038527993942668
8.36630128249361e-05
0.000104553041938054
0.000120025447390846
5.72759565014495e-05
2.76941205270843e-05
0.000131422883337149
2.89633863536214e-06
2.02006499152657e-05
3.91093759632633e-05
5.56090297662862e-05
7.00464996356993e-05
8.23668207153646e-05
9.30342226519899e-05
9.19063851768564e-09
2.07895882825067e-09
1.50920686057318e-07
9.83633641358646e-07
1.76854696123194e-06
2.78408815354745e-06
3.82827899792542e-06
4.67348463399196e-06
5.27574563963247e-06
1.62771255647215e-09
5.51704507757442e-08
3.13853743251458e-07
6.97157448527193e-07
1.14123689257971e-06
1.62572899013563e-06
2.10049475373302e-06
2.5564255176798e-06
3.05449216048744e-06
0.000102990536531161
0.000340983736481754
0.000608723805408317
0.000821863812112036
0.000921624403762171
0.000877360225680738
0.000694397021144019
0.000418551837523935
0.000141676080173627
5.84921507614241e-06
0.000707936057947989
0.000571064854550357
0.000738753321252899
0.00046953580610935
0.000545831853516162
0.000375348117046054
0.000311037809907838
0.000274789873716342
0.000230149953713002
0.000174887149062204
0.000525946995339779
0.000405427667184305
0.000258619164058587
0.000102235129449836
0.000620996098437329
0.000389788201323536
0.000346644634410616
0.000289722747063695
0.000214454388591989
0.000117383021006567
1.93370244477718e-05
0.000919536298061888
0.000877096453066937
0.000819805792449586
0.000607720068938064
0.000697074076463108
0.000340624632321368
0.00042335132456551
0.000102475039556779
7.82016047709247e-05
0.000121734647988465
0.000135624499984331
4.85496897542153e-05
0.000145409414882601
5.16096575755617e-08
6.17179155724043e-06
2.88252817234597e-05
4.92448427649812e-05
6.61936520017197e-05
8.05893183742148e-05
9.24045321705101e-05
0.000102309221055565
2.82153048122373e-08
2.61215975590643e-09
7.67343658494692e-08
7.72411275064519e-07
1.5216004459203e-06
2.54609530113091e-06
3.7141824799643e-06
4.84727308367007e-06
5.68688553963692e-06
6.22883123893357e-06
3.07835719947836e-09
9.20597564076928e-08
4.4925813385301e-07
9.394819744147e-07
1.47207247921818e-06
2.01627538489873e-06
2.51901899662878e-06
2.97993986603335e-06
3.47882415935903e-06
0.000111492121308812
0.00036560769782827
0.000658446596369727
0.000910978301436545
0.00106933068811506
0.00110009546213635
0.000992210016922368
0.00076102213281185
0.000452565481156843
0.000154298480887051
6.74639036013691e-06
0.000811584110262773
0.000911505138255669
0.000692775288804698
0.000726772879200808
0.000548742626137149
0.000872682527454445
0.000447919966679644
0.00053335308635406
0.000602159570759709
0.000342211745305313
0.000338360730097466
0.00030458611739757
0.000261921962208973
0.000208013555439826
0.000134903076709609
0.000511192901934348
0.000615920315165049
0.000377201264624217
0.000211905878412305
3.54954754970249e-05
0.000698115286746267
0.000428622531912376
0.000390662346702224
0.000340444819745127
0.000275026916312451
0.000183762852302856
7.59333127203264e-05
2.11801085711833e-07
0.00106599534931631
0.00109755667689432
0.000992206336454371
0.00090847317519258
0.000657390237815065
0.000764212789429173
0.000365327078926251
0.00045786486095231
0.000119956775371041
9.75783819167771e-05
7.08249501138386e-05
0.000137780637292283
0.00015013583687047
3.99228862704528e-05
0.000158398637936257
9.64371019481431e-08
9.6925464745694e-06
3.69080801279738e-05
5.88564886003212e-05
7.62629054952069e-05
9.04883981714674e-05
0.000101711437571494
0.000110855151718828
1.98621585376342e-08
4.79025528451041e-09
7.89628915638136e-08
5.49037844104294e-07
1.25882877091769e-06
2.2581289603126e-06
3.43153086784426e-06
4.72798277225824e-06
5.91387318073562e-06
6.72164943481265e-06
7.18948301211579e-06
5.30672695503482e-09
1.34239514576809e-07
6.09441652153387e-07
1.21375729010551e-06
1.82783556193025e-06
2.420907541452e-06
2.94040405799071e-06
3.39887722050224e-06
3.89635092625628e-06
0.000119312972460868
0.000387879432383471
0.000702370101569505
0.000987311083602334
0.00119313082706692
0.00128784300309537
0.00125439960302576
0.00109218264949449
0.000820360542709725
0.000483587008235839
0.000166050122598344
7.64718857821993e-06
0.000793064832443394
0.00105519632275979
0.000898929412621883
0.00108873713825757
0.000893935233421013
0.000663979158304013
0.000860944928703626
0.000703675304784789
0.000509698572371705
0.000988188865497192
0.000407672091781754
0.000508295243036017
0.000588188009037681
0.000651375764215735
0.000279835003848248
0.000363008510692778
0.000331428832610661
0.00029039110522442
0.000236927188750141
0.000161543679099869
5.05034236292305e-05
0.000485555964465195
0.000602726949086134
0.000694042346731883
0.000331869215675202
0.000126374702573515
3.49476363687156e-07
0.000766005502045861
0.000463825969146912
0.000430260809218117
0.000385394013754989
0.000328155963488115
0.000254033780711802
0.000149692294618854
2.07529247754066e-05
1.73393199213273e-07
0.00118901803558486
0.0012836692900895
0.0012517956317271
0.00109254257516932
0.00098453453571136
0.000701289810888208
0.000824021783123652
0.000387659204835913
0.000489316660516409
0.000115288200636765
0.000136235890879775
9.11068959422636e-05
6.28655331234016e-05
0.000152704342889402
0.000163599113226506
3.0286689776884e-05
0.000170468537858939
1.64160620345275e-07
1.33050607305687e-05
4.47421466109315e-05
6.80564369018615e-05
8.57548021743584e-05
9.96857469627057e-05
0.000110286511510663
0.000118707467936731
5.89540591905789e-08
3.75755725593657e-09
5.91091686587804e-08
3.87696059827008e-07
4.310630229631e-06
1.02940641542698e-06
1.96843726664809e-06
3.09403194753445e-06
4.39967830432903e-06
5.79127339250231e-06
7.00233776282791e-06
7.7633035116513e-06
8.15059289524573e-06
7.48505522017975e-09
1.86028223182758e-07
7.91414702574822e-07
1.50994586795057e-06
2.19742524081338e-06
2.82931451526766e-06
3.35771022659951e-06
3.80979717574802e-06
4.30297433117916e-06
0.000126517979296725
0.000408067230059604
0.000741545527204869
0.00105381297842039
0.00129859374869025
0.00144635697503417
0.00147902395834303
0.00138887701141644
0.00118036063699495
0.000873722808116939
0.000511990256497394
0.000177001096998965
8.54401529728188e-06
0.000877814900910127
0.000758867950686885
0.00103305499282255
0.00117623216969955
0.00127140007927174
0.000974027291968974
0.00124286956233452
0.00107055460998784
0.00086293238940673
0.000614965911293703
0.000977211456191309
0.000839159578597003
0.000666453765697012
0.000446620266860404
0.00108906476893405
0.000332891910619064
0.000462240497913439
0.000560341216002418
0.000636224688975433
0.000694921231160932
0.000167097513674792
0.000385287950558468
0.000355677216880778
0.000316112497143128
0.000262956374846835
0.000185138432507334
6.37135518640862e-05
6.00162613781163e-07
0.000448719864889914
0.000580723060420941
0.000682326234069813
0.000762833554002747
0.000268165846207316
3.84075208997988e-05
2.92229253215851e-07
0.000826480694269627
0.000495870370441446
0.000466108018012575
0.000425640669170735
0.000374373117151231
0.000311419844690499
0.000229899659220134
0.000111305473928137
1.92126571436064e-05
2.39648157026763e-07
0.00144114995725069
0.00129397760490166
0.00147453014837613
0.00138642810486316
0.0011810833117476
0.00105084220071151
0.000740439466858473
0.000877785712316298
0.000407887900948946
0.000518086051980677
0.000109131352520472
0.00013162347173321
0.000151320635329733
8.40093303399478e-05
5.48260463458601e-05
0.000166530190084884
0.000176085194655399
2.35494808042945e-05
0.00018170345219393
2.39599789948731e-07
1.71203132213057e-05
5.23116725085079e-05
7.67662039054644e-05
9.45942054622385e-05
0.000108166229137914
0.000118157893233222
0.000125922922025774
5.06603241591693e-08
2.92744573199107e-09
4.71058891616645e-08
2.80648361839313e-07
3.9366943548551e-06
8.5337103547237e-07
1.69701448967681e-06
2.75550548068066e-06
4.00187163386633e-06
5.41649605485991e-06
6.87600936798488e-06
8.0961025107112e-06
8.80277895141792e-06
9.10557876288398e-06
1.06252945825148e-08
2.45524647015474e-07
9.89708683071272e-07
1.81897383799235e-06
2.5714100064986e-06
3.23404250723737e-06
3.76641897049353e-06
4.2093518492148e-06
4.69539004297643e-06
0.00013314496434569
0.000426396439514874
0.000776687915860173
0.0011124555758458
0.0013898159559771
0.00158158837690311
0.00167055584462531
0.00164667603961876
0.00150721963277834
0.0012589303867776
0.000922027333945605
0.00053807635629796
0.000187223196237564
9.43090070457406e-06
0.000839236005970317
0.000950863351366417
0.00115051762892132
0.000701538608505697
0.000995270543592879
0.00124783019783324
0.00127972968509159
0.00142638721671335
0.00146171248798133
0.00103957529164222
0.0013777304665652
0.00122499062988709
0.00104025871559862
0.000814684982569696
0.000536650398857466
0.000957076365598666
0.00107889701160959
0.000806019166445346
0.000613168283326055
0.000356704457710946
0.00117811988219949
0.000377699912190745
0.000200224341804893
0.000509516521937033
0.000606067679540571
0.000678788643299369
0.000733762348159961
5.47963024695957e-05
0.000405457657689371
0.000377603786011815
0.000339385974706653
0.000286556946231286
0.000206554187531296
7.64004124742473e-05
8.5548643373775e-07
4.84790645652747e-07
0.000550862382705593
0.000402649539955239
0.000662805126906014
0.000752188052826513
0.000824033231953916
0.000194449886673883
3.66795546848801e-05
4.65088482752751e-07
0.00088079451035258
0.00052513796817422
0.000498675001034459
0.00046192348909906
0.000415219339359118
0.000359410407421629
0.000292039853636921
0.000204371070967362
9.74763963085878e-05
1.82304043412747e-05
2.01180977056652e-07
0.00157570391565958
0.00166487488555754
0.00138482672781184
0.00164217818136247
0.00150498390039936
0.00125996335106238
0.00110932085048566
0.000775548917740701
0.000926422868698929
0.000426238412245317
0.000544486463228936
0.000102334523892054
0.000125436207534118
0.000146667474490558
0.000165263155493678
7.6686374293486e-05
4.80204860358679e-05
0.000179323565551525
0.000187684110163375
2.05544001563138e-05
0.000192178584875174
3.36997735783615e-07
2.09940986749478e-05
5.95313170797619e-05
8.4900465130915e-05
0.000102753610258692
0.00011594998960421
0.000125380255271575
0.000132548495286491
4.07592767737735e-08
2.21637158214574e-09
3.59517513280694e-08
2.23362223071506e-07
3.3053959846487e-06
7.01595926507155e-07
1.45033560028935e-06
2.42426342463889e-06
3.59803390436815e-06
4.95443411697001e-06
6.45369281158233e-06
7.96431722248172e-06
9.18530472834987e-06
9.83340466879027e-06
1.00486306095354e-05
1.39484779082681e-08
3.12646559454865e-07
1.1984690667357e-06
2.13275730305426e-06
2.94257214875981e-06
3.63034906996128e-06
4.16320297244389e-06
4.59441701858333e-06
5.07013884867123e-06
0.000139222026485408
0.000443040245655871
0.000808316141487166
0.00116457896176436
0.00146966859344105
0.00169834732418122
0.00183476647651321
0.00186869849392489
0.00179456048228448
0.00161224759720394
0.0013294553350374
0.000965954661058966
0.000562093354237108
0.000196778319464767
1.03020189691969e-05
0.000775102234177728
0.00110715400206262
0.000908690032924954
0.00101472363736133
0.00125118798960841
0.001398565450971
0.000611023340811847
0.000937489040290585
0.00121004012382082
0.00143797645633953
0.00136942476498579
0.00155910113732681
0.00164924427751672
0.00162931576088844
0.00109741017613626
0.00149658186953018
0.0013604195210026
0.0011962067090815
0.000996157463667391
0.000746417705085658
0.00042661721290971
0.00106006882936863
0.000927297447423246
0.00116861055683163
0.000761708782606977
0.000545433592500968
0.000257144808300359
0.00125741273632201
0.000416998344033703
0.000229499500132786
6.90853330673817e-05
0.000551237908678364
0.000646661478039025
0.000716776590932957
0.000768589024580403
5.18181195500032e-05
0.000397451150648264
0.00042374058803893
0.00036044721504685
0.000307956030374739
0.000226117563055768
8.82256774526e-05
1.18788940049443e-06
6.75649684667392e-07
7.53660535068617e-07
0.000636813596083003
0.000515132892154384
0.000353473797356505
0.000734074477096643
0.000814085826318623
0.000878889388221683
0.000170410541305387
3.41381648685981e-05
4.29249948629369e-07
0.000929868346929765
0.000551956136789983
0.000528355538852455
0.000494772274607419
0.000451742842245448
0.000400892241294211
0.000342000390923618
0.000271501674671786
0.000185389724941615
9.13938698986732e-05
1.58259262913806e-05
1.61916354190013e-07
0.00169195380818323
0.00182831461247107
0.0018629327789808
0.00146436755005425
0.00179016434705941
0.00161019743119215
0.00133073474209332
0.00116129528598085
0.000807138541995915
0.000970625001159896
0.00044289089725125
0.00056877474254825
0.000118539689201118
9.51492518390002e-05
0.000140322584024577
0.000160512398930795
0.000178129671764476
6.96101136140467e-05
4.25203555437222e-05
0.000191181407105632
0.000198479479067687
1.76691639544904e-05
0.000201962107447492
4.46019382937471e-07
2.4856127597045e-05
6.630670999485e-05
9.24221301239774e-05
0.000110248727061963
0.000123087114585888
0.000132003183298882
0.00013861909443162
3.07765235412041e-08
1.54731036441298e-09
1.70983183147474e-07
2.58947807027754e-08
2.59325574556746e-06
5.63230445624404e-07
1.21737194741973e-06
2.09913893657517e-06
3.19367796006767e-06
4.47948973590609e-06
5.9259488145245e-06
7.49297918234055e-06
9.04613651513534e-06
1.02632203216088e-05
1.08493451746714e-05
1.0974011680073e-05
1.78721567525807e-08
3.84518652519292e-07
1.41161524325281e-06
2.44513877368691e-06
3.30638915088709e-06
4.0149525991722e-06
4.54513238126107e-06
4.96180099990571e-06
5.42379876561353e-06
0.000144769580092003
0.000458132838841031
0.000836819129051975
0.00121112958699794
0.00154015767437589
0.00180020037302851
0.00197676978053516
0.00206024654312401
0.0020442746799525
0.00192579052632259
0.00170607187268321
0.00139309279789187
0.00100603290169053
0.000584237995654369
0.000205712098240916
1.1152225724827e-05
0.000674735017142532
0.000838919479468403
0.00104141943864877
0.00135450373471335
0.00120323396298743
0.000969529115043335
0.00107111582009384
0.00133856350771867
0.00152789896754102
0.00162085488836685
0.000485470497993172
0.000856656037997236
0.00115611944007088
0.00140140721463498
0.00160588433052975
0.00167389378939687
0.00144799515188018
0.0018106117362052
0.00184707222603438
0.00177740863533681
0.00114881701101865
0.00160202226131529
0.00147976446261028
0.00133296615851611
0.00115590991268445
0.000938089734101726
0.000660399196237706
0.000307451692566614
0.00115063301426784
0.00103240746697653
0.000888736399638718
0.0012483554216458
0.000708522115318541
0.000474182820975987
0.000224627039856254
0.00132848109621006
0.000452017945346587
0.000255932682309168
8.27727593356061e-05
6.5231577516378e-05
0.000588387380310334
0.000682930203120877
0.000750843177179214
0.000799916037335161
4.8031951693647e-05
0.000415435114732742
0.000379516227418581
0.000440320639071657
0.000327344317609834
0.00024391345246014
9.93598000187604e-05
1.5315716760094e-06
9.30023997215358e-07
1.08420230205284e-06
6.93503936578651e-07
0.000709932736750411
0.000606046356461503
0.000477162353925016
0.000320329455398143
0.000796669503153147
0.000869349873847345
0.000928346476992077
0.000156289023352505
2.97751982856249e-05
3.42671930169004e-07
0.000974412311101006
0.000555497034741087
0.000576597740147266
0.000524616855599901
0.000484623823599306
0.000437524479203738
0.000384066540929813
0.000323081250502249
0.000252119271407231
0.000170314005778524
8.27559913101101e-05
1.28624762319636e-05
1.22090515743155e-07
0.0019697368307022
0.00179337736072149
0.00205367488238259
0.00203856319780773
0.00153458083375653
0.0019214857356623
0.00170415317342467
0.00139456192084962
0.00120770890004458
0.000835601032220238
0.00101093176812146
0.000457985663337081
0.000591154727373959
0.000133181730371645
0.000111119334807937
8.76611930350053e-05
0.000153944381470908
0.00017324649604747
0.000190025386822891
6.26950330760807e-05
3.71055583909589e-05
0.000202197130141776
0.000208542672119645
1.44813321667149e-05
0.00021110113278985
5.70470070869852e-07
2.85876618691342e-05
7.25917319077864e-05
9.93412980945177e-05
0.000117120931069234
0.000129627470085021
0.00013806558690447
0.000144159460437639
2.19367114627406e-08
1.01903469569058e-09
4.3663748591384e-07
1.23870297300961e-07
1.74721136785064e-08
1.91915922171639e-06
9.9251659698114e-07
1.77772067778234e-06
2.78468595567768e-06
3.996988042981e-06
5.37851597620197e-06
6.89872677383837e-06
8.52443172965158e-06
1.01151264882857e-05
1.13242115902932e-05
1.18451242371246e-05
1.1876177677629e-05
2.19736145009428e-08
4.59329716029496e-07
1.62486234174266e-06
2.75198988222913e-06
3.65976740958068e-06
4.38504291006045e-06
4.90927770308431e-06
5.30850178280039e-06
5.75341541705071e-06
0.000149804914064504
0.000471778367836734
0.000862495220112687
0.00125280294488133
0.00160271749536152
0.00188973537054482
0.00210057320295164
0.00222644869719744
0.00226109683358389
0.00220041270066111
0.00204282535432202
0.00179030146976016
0.00145073415983307
0.00104268038935948
0.000604672658701012
0.00021404798734608
1.19756339388268e-05
0.000730414698201949
0.000950214782525794
0.000536726918429801
0.000894990582008152
0.00113087409198113
0.00129217108250007
0.00147862521099461
0.00157766734799581
0.00128676536469359
0.00102332438607423
0.00112126020103756
0.00141516511997837
0.00163991064007251
0.00177850380998025
0.00181875999361801
0.000351152721614276
0.000755861954488736
0.00108591782393538
0.00135138035943244
0.00157053630910129
0.00175429287696113
0.00195038701676988
0.00177408831521967
0.00151736236651487
0.00203561670487854
0.00202268992518114
0.00190879681110132
0.0011947230326016
0.00169609554511339
0.00158549703329459
0.00145317822378687
0.00129521020506889
0.00110478882337286
0.000868937167948431
0.000571216400184381
0.00026825650756762
0.00123082669588015
0.0011240916174396
0.000996911352327324
0.000843284843540975
0.0013196820073235
0.000652564038635276
0.000427530200913648
0.000205186182767948
0.00139250452000275
0.000483378220033544
0.000280018171308707
9.55275838800281e-05
7.78790192908033e-05
6.05601056773369e-05
0.000621641250364504
0.000715474425941423
0.000781485895332663
0.000828136054694179
4.21218986624559e-05
0.000431737781070256
0.000396796108923654
0.000344910532945142
0.000455342885855218
0.000260070652373169
0.000109581984864874
1.91664574623937e-06
1.19375663553507e-06
1.48095916350633e-06
1.00547626482241e-06
5.5504156787931e-07
0.000773239784913299
0.000681207430308619
0.000572491989452791
0.000442960109817623
0.000294788863707766
0.000852178504167137
0.000918999118943314
0.000973148295575997
0.000142097431738627
2.4742469384971e-05
2.58153204476702e-07
0.00101498720614212
0.000580393367157699
0.000551835956687798
0.000599284612973513
0.000514370931503635
0.000470247681230114
0.000420651809160455
0.000365378352921965
0.000303385954127736
0.000233456362231688
0.000155344732339978
7.23677426793175e-05
9.89031428808658e-06
8.73703339962939e-08
0.00209304328750001
0.00221927243260866
0.00188253107288047
0.00225456972394668
0.00219475263761315
0.00159689341409426
0.00203856188234567
0.00178846191537958
0.00145234797776216
0.00124925741978993
0.000861237662168193
0.00104777144065277
0.000471630600029106
0.000611799117524378
0.000125400845575973
0.0001464972461058
0.000103141125578768
7.97871729127316e-05
0.000166423443815525
0.000184987135683308
0.000201053862512368
5.55107405415393e-05
3.13790956952985e-05
0.000212450098429469
0.000217940264195475
1.12495123393412e-05
0.000219623858517623
7.02175864253489e-07
3.21252481153042e-05
7.83861771853992e-05
0.000105688839005483
0.000123418445704426
0.000135611131950777
0.000143595518478329
0.000149187509622674
1.46938513091926e-08
6.21294183460422e-10
7.79101607660707e-07
3.21903993003154e-07
8.35857442244399e-08
1.0607989558751e-08
1.32924574939853e-06
1.46187244031321e-06
2.37201877823769e-06
3.50153889859907e-06
4.81698280033938e-06
6.27883374546641e-06
7.86257710009398e-06
9.54229422261493e-06
1.11661524316846e-05
1.23630201831668e-05
1.28152348067374e-05
1.27495087288836e-05
2.62620020424741e-08
5.35386856677965e-07
1.83532742986348e-06
3.05046676692156e-06
3.99999822601416e-06
4.73782936497212e-06
5.252910057623e-06
5.63128442291179e-06
6.05614810079708e-06
0.00015434247239407
0.000484059898921421
0.000885576466795563
0.00129012662352292
0.00165840731956236
0.0019688517614973
0.00220920128528171
0.00237153259899104
0.0024500032648281
0.00244028979032604
0.00233972102213955
0.00214761517272213
0.00186619917077198
0.00150308700714823
0.00107623232867766
0.000623519421679771
0.000221793558906428
1.27669482693376e-05
0.00077959375052783
0.0010310472463425
0.00058210830261311
0.0012115984226067
0.000837382907700305
0.000389999818119051
0.00120881896599378
0.000944677521346918
0.0014091747592237
0.00151908760497077
0.00158625183542877
0.00172974880601623
0.00177661487470127
0.00136008583405136
0.00107120137894167
0.00116604892734904
0.0014828239157574
0.00173774221627787
0.00191520154830322
0.0020033881896156
0.00199454232510033
0.000306239493712413
0.000652373345109784
0.00100302498646516
0.00128868156716144
0.00152319662302109
0.00171973568711743
0.00188580964480939
0.0020722939473208
0.00219946369586825
0.0018621691630461
0.00157892690264041
0.00223642562115151
0.00217884540865355
0.00202583375361664
0.0012358170820794
0.00178042013525197
0.0016796482659424
0.00155930662366596
0.00141679219801057
0.00124797737667437
0.00104508732342008
0.000796920945349309
0.000513308948507435
0.000244929991674767
0.00120470862596192
0.00130229115636465
0.00108994350001806
0.00095498828747028
0.000794088519030418
0.00138380911199501
0.000603459975122161
0.000392296865543394
0.000186511589747928
0.00145040974104056
0.000301815725783101
0.000511546023507715
0.000107574965093934
8.98438574420934e-05
7.2381781767781e-05
5.34240474874811e-05
0.000651515900880045
0.000744759011545608
0.000809088626814634
0.000853551338163973
3.5454631878108e-05
0.000446504607296435
0.000412460785071204
0.000360835912971293
0.000274724607668038
0.000468918756498806
0.000118934325541402
2.30369453887575e-06
1.49031582095768e-06
1.92304371534818e-06
1.37238335055411e-06
8.07505530372446e-07
4.17944290898059e-07
0.000745076216227327
0.000828825395311001
0.000649034889136003
0.00053823027121721
0.00041125430221965
0.000270552943656857
0.00090178503580814
0.000963840784922606
0.00101388873959827
0.000126328537469553
1.96376107722084e-05
1.85564753498616e-07
0.00105204121345451
0.000603284669156336
0.000576750059384979
0.000541411590053766
0.000620193529114449
0.000499695200888511
0.000453036944842974
0.000401619216547682
0.000345052978867462
0.000282773026423697
0.000214184405805569
0.000138938395761596
6.09246440612028e-05
7.10660293910849e-06
5.88160516793784e-08
0.00220122413220888
0.00236383219130427
0.00244286980995373
0.00196130567951834
0.00243380762622864
0.00233405933158862
0.00165236227952022
0.0021433414719414
0.00186439761264553
0.0015048114290494
0.00128646867793872
0.00088428216265942
0.0010814893997107
0.000483909447972301
0.000630839814988262
0.000116889322298883
0.000138316787336457
0.00015864610202879
9.4496876635009e-05
7.1396364495915e-05
0.00017790149467642
0.000195847758025957
0.000211302939772267
4.78716209361403e-05
2.54306769018049e-05
0.000222011087909692
0.000226699262597478
8.14468495738974e-06
0.000227539842227486
8.38511968885291e-07
3.5441582463106e-05
8.37166672558432e-05
0.000111507914657688
0.000129179717554516
0.000141067427598595
0.000148612823555316
0.000153715395019843
8.8872989280346e-09
2.97909937860457e-10
1.15811024503062e-06
5.82618682211641e-07
2.20857365367173e-07
5.02841932097491e-08
5.25924978855461e-09
8.28099378442042e-07
1.96192761771221e-06
2.99594980422129e-06
4.23495309176363e-06
5.6386855055243e-06
7.16971581388272e-06
8.81273513791197e-06
1.05421024350834e-05
1.21943375428892e-05
1.3374388573228e-05
1.37530346494373e-05
1.35881912295547e-05
3.06003391530293e-08
6.11588274234681e-07
2.04084050190598e-06
3.33820265358482e-06
4.3244429400623e-06
5.07066201148123e-06
5.57257011071627e-06
5.92810317998291e-06
6.32961078495849e-06
0.000158387948243841
0.000495038209204034
0.000906245438793853
0.00132350955252964
0.00170803260267651
0.00203897790265859
0.00230494224603224
0.00249880927532958