/*--------------------------------*- C++ -*----------------------------------*\
  =========                 |
  \\      /  F ield         | OpenFOAM: The Open Source CFD Toolbox
   \\    /   O peration     | Website:  https://openfoam.org
    \\  /    A nd           | Version:  12
     \\/     M anipulation  |
\*---------------------------------------------------------------------------*/
/*   Windows 32 and 64 bit porting by blueCAPE: http://www.bluecape.com.pt   *\
|  Based on Windows porting (2.0.x v4) by Symscape: http://www.symscape.com   |
\*---------------------------------------------------------------------------*/
FoamFile
{
    format      ascii;
    class       volScalarField;
    location    "400";
    object      p;
}
// * * * * * * * * * * * * * * * * * * * * * * * * * * * * * * * * * * * * * //

dimensions      [0 2 -2 0 0 0 0];

internalField   nonuniform List<scalar> 
10228
(
83333.3282402231
83333.3282402318
83333.328239902
83333.3282404848
83333.3282404932
83333.3282402438
83333.3282399089
83333.3282392873
83333.3282401604
83333.3282409958
83333.328240165
83333.3282405054
83333.3282410015
83333.32824026
83333.3282399195
83333.3282392945
83333.3282383756
83333.3282395279
83333.3282406886
83333.3282417679
83333.3282406859
83333.3282395329
83333.3282401733
83333.3282405205
83333.3282410101
83333.3282417703
83333.3282402778
83333.328239934
83333.3282393053
83333.3282383827
83333.3282372136
83333.3282385479
83333.3282400477
83333.3282415399
83333.3282427793
83333.328240044
83333.3282406884
83333.3282415324
83333.3282395407
83333.328238555
83333.3282401857
83333.3282405388
83333.3282410213
83333.3282417711
83333.328242775
83333.328240296
83333.3282399506
83333.3282393197
83333.3282383942
83333.3282372244
83333.3282358766
83333.3282373365
83333.3282389809
83333.3282409729
83333.32824261
83333.328243982
83333.3282400442
83333.3282389873
83333.3282409557
83333.3282415259
83333.328240695
83333.3282425988
83333.3282395521
83333.3282385648
83333.3282373475
83333.3282402018
83333.3282405583
83333.3282410359
83333.328241772
83333.3282427649
83333.3282439762
83333.3282403107
83333.328239967
83333.3282393367
83333.3282384112
83333.3282372396
83333.3282358873
83333.3282343964
83333.3282359725
83333.3282377003
83333.328239881
83333.3282421073
83333.3282438485
83333.3282453545
83333.328238995
83333.3282409411
83333.3282400481
83333.3282398769
83333.3282377177
83333.3282420802
83333.3282425842
83333.3282415203
83333.3282407063
83333.3282438333
83333.3282395687
83333.3282385787
83333.3282373624
83333.3282359857
83333.3282402218
83333.3282405787
83333.3282410569
83333.3282417738
83333.328242752
83333.3282439584
83333.3282453433
83333.3282403226
83333.3282399722
83333.3282393556
83333.3282384326
83333.3282372591
83333.3282359037
83333.3282344103
83333.3282328091
83333.3282344857
83333.3282362966
83333.3282385153
83333.3282410637
83333.3282433887
83333.3282452347
83333.3282468633
83333.3282377359
83333.3282390035
83333.3282398716
83333.3282420512
83333.3282409273
83333.3282400587
83333.3282385296
83333.3282410434
83333.3282363201
83333.3282433557
83333.3282438113
83333.328242566
83333.3282415136
83333.3282407219
83333.3282452158
83333.3282395951
83333.3282385997
83333.3282373847
83333.3282360072
83333.3282345009
83333.3282402194
83333.3282405755
83333.3282410965
83333.3282417811
83333.3282427381
83333.3282439354
83333.3282453217
83333.3282468511
83333.3282403413
83333.3282399688
83333.3282393662
83333.3282384593
83333.3282372861
83333.3282359274
83333.3282344304
83333.3282328228
83333.3282311251
83333.3282328927
83333.328234787
83333.328237028
83333.3282396686
83333.3282424148
83333.3282448051
83333.3282467548
83333.3282484987
83333.3282385409
83333.3282363467
83333.3282377526
83333.3282398604
83333.3282390164
83333.3282410167
83333.3282433159
83333.3282420207
83333.3282409152
83333.3282400799
83333.3282396708
83333.3282370524
83333.3282423809
83333.3282348125
83333.3282447664
83333.3282437838
83333.328245189
83333.3282425413
83333.328241502
83333.3282407338
83333.3282467322
83333.3282396065
83333.3282386327
83333.3282374125
83333.3282360348
83333.3282345236
83333.3282329096
83333.32824015
83333.3282405679
83333.3282411799
83333.3282418089
83333.3282427287
83333.3282439118
83333.3282452935
83333.3282468293
83333.3282484852
83333.3282400026
83333.3282393741
83333.3282384903
83333.3282373238
83333.3282359606
83333.3282344581
83333.3282328448
83333.3282311396
83333.3282293563
83333.328231205
83333.3282331768
83333.3282354504
83333.3282381096
83333.328241044
83333.3282438929
83333.3282463476
83333.3282483981
83333.328250251
83333.3282396632
83333.3282370751
83333.3282385408
83333.3282348433
83333.3282363706
83333.3282377691
83333.3282409802
83333.3282398449
83333.3282390352
83333.3282423344
83333.3282447196
83333.3282432732
83333.328241986
83333.3282408922
83333.3282400685
83333.3282410302
83333.3282381241
83333.3282354779
83333.3282438502
83333.3282332023
83333.3282463042
83333.3282437506
83333.3282451564
83333.3282467031
83333.3282425086
83333.3282414869
83333.3282483729
83333.3282395584
83333.3282386636
83333.3282374492
83333.3282360686
83333.3282345547
83333.328232932
83333.3282312227
83333.3282401863
83333.3282410407
83333.32824194
83333.3282427393
83333.3282438992
83333.3282452645
83333.3282467994
83333.3282484636
83333.328250238
83333.3282394128
83333.3282385252
83333.3282373748
83333.3282360071
83333.3282344961
83333.328232875
83333.3282311613
83333.3282293694
83333.3282275047
83333.3282294297
83333.3282314732
83333.3282337855
83333.3282364521
83333.3282394501
83333.3282425677
83333.3282454861
83333.32824801
83333.3282501595
83333.3282521196
83333.3282381335
83333.3282396353
83333.3282409996
83333.3282370844
83333.3282355066
83333.3282385272
83333.3282332345
83333.3282348726
83333.3282363933
83333.328237787
83333.3282422795
83333.3282409337
83333.3282398123
83333.3282390243
83333.3282437903
83333.328246253
83333.3282446699
83333.3282432269
83333.328241937
83333.3282408152
83333.3282399073
83333.328239453
83333.3282425415
83333.3282364716
83333.3282338127
83333.3282454386
83333.3282314978
83333.3282479635
83333.3282451207
83333.3282437196
83333.3282466678
83333.3282483423
83333.3282424869
83333.3282501329
83333.3282395875
83333.3282386762
83333.3282375022
83333.3282361148
83333.3282345927
83333.3282329632
83333.3282312469
83333.3282294471
83333.3282405659
83333.3282416625
83333.3282421164
83333.3282428177
83333.3282439144
83333.3282452445
83333.3282467672
83333.3282484342
83333.3282502161
83333.328252107
83333.3282385707
83333.3282374317
83333.3282360708
83333.328234549
83333.3282329162
83333.3282311921
83333.3282293901
83333.3282275164
83333.3282255731
83333.3282275706
83333.3282296806
83333.328232033
83333.3282347095
83333.3282377281
83333.3282409727
83333.3282442097
83333.3282471909
83333.3282497896
83333.3282520367
83333.3282541045
83333.3282364874
83333.3282394407
83333.3282381185
83333.3282409441
83333.3282395841
83333.3282424927
83333.3282370788
83333.3282355237
83333.3282338438
83333.3282384946
83333.3282315298
83333.3282332672
83333.328234902
83333.32823642
83333.3282378051
83333.3282422156
83333.328243725
83333.3282408648
83333.3282397231
83333.3282389893
83333.3282453711
83333.3282479096
83333.3282461997
83333.3282446195
83333.3282431739
83333.3282418641
83333.3282405625
83333.3282399306
83333.3282377363
83333.3282409637
83333.3282441768
83333.3282347297
83333.3282320607
83333.3282471416
83333.3282297041
83333.3282497413
83333.3282466303
83333.3282450901
83333.3282437169
83333.328248306
83333.3282501007
83333.3282425825
83333.3282520096
83333.3282387043
83333.3282375619
83333.3282361827
83333.3282346467
83333.3282330044
83333.3282312776
83333.3282294713
83333.3282275876
83333.3282410989
83333.3282418825
83333.3282422566
83333.3282428777
83333.3282439488
83333.3282452406
83333.328246739
83333.3282483989
83333.3282501862
83333.3282520845
83333.3282540921
83333.3282374822
83333.3282361412
83333.328234619
83333.3282329726
83333.3282312348
83333.3282294202
83333.3282275359
83333.3282255832
83333.3282235638
83333.3282256313
83333.3282278021
83333.3282301925
83333.3282328797
83333.3282359084
83333.3282392103
83333.328242632
83333.3282459604
83333.328249007
83333.3282516859
83333.3282540302
83333.3282562067
83333.3282364846
83333.328237735
83333.3282347479
83333.3282409311
83333.3282393943
83333.3282380734
83333.328242421
83333.3282408702
83333.3282395041
83333.3282441172
83333.3282370541
83333.3282355259
83333.3282338663
83333.3282320914
83333.3282384213
83333.3282297351
83333.3282315643
83333.3282333014
83333.3282349368
83333.3282364558
83333.3282378383
83333.3282421342
83333.3282436542
83333.3282453004
83333.3282407461
83333.3282395685
83333.3282389791
83333.3282470703
83333.3282496853
83333.3282478541
83333.3282461471
83333.3282445698
83333.3282431242
83333.3282417491
83333.3282406728
83333.3282403981
83333.3282359173
83333.3282392097
83333.3282426158
83333.3282459249
83333.3282329055
83333.328230222
83333.3282489569
83333.3282278253
83333.3282516363
83333.3282465949
83333.3282482661
83333.3282450739
83333.3282437387
83333.3282500631
83333.328251976
83333.3282425863
83333.3282540029
83333.3282375984
83333.3282362591
83333.3282347225
83333.3282330627
83333.3282313204
83333.3282295031
83333.3282276109
83333.3282256474
83333.3282414461
83333.3282420174
83333.3282423621
83333.328242931
83333.3282418218
83333.3282439613
83333.3282452403
83333.3282467163
83333.3282483632
83333.3282501493
83333.3282520531
83333.3282540688
83333.3282561942
83333.3282361985
83333.3282346922
83333.3282330438
83333.3282312923
83333.3282294626
83333.328227565
83333.3282256015
83333.3282235728
83333.3282214801
83333.3282236151
83333.3282258427
83333.3282282706
83333.3282309721
83333.3282340007
83333.3282373284
83333.3282408526
83333.3282444083
83333.3282478177
83333.3282509362
83333.3282536989
83333.3282561409
83333.3282584274
83333.3282347523
83333.32823645
83333.3282377004
83333.3282359202
83333.3282391875
83333.3282329243
83333.3282425703
83333.328240865
83333.3282393218
83333.3282379966
83333.3282440371
83333.3282423361
83333.3282407684
83333.3282393729
83333.32824586
83333.3282370047
83333.3282355139
83333.3282338762
83333.3282321166
83333.3282302524
83333.3282383384
83333.3282278552
83333.3282297699
83333.3282316009
83333.3282333418
83333.3282349827
83333.3282365076
83333.3282378331
83333.3282420258
83333.3282435734
83333.328245227
83333.3282469967
83333.3282405659
83333.3282396456
83333.328239386
83333.328248883
83333.3282515786
83333.3282496279
83333.3282477992
83333.3282460955
83333.3282445218
83333.3282430658
83333.328241649
83333.3282410226
83333.3282407066
83333.3282373298
83333.3282340133
83333.3282408449
83333.3282443889
83333.3282477815
83333.328230998
83333.3282282993
83333.3282508853
83333.3282258654
83333.3282536488
83333.3282465642
83333.3282482246
83333.3282500206
83333.3282450607
83333.3282437128
83333.3282519365
83333.3282539679
83333.3282425306
83333.3282561135
83333.3282363036
83333.3282348053
83333.3282331436
83333.3282313802
83333.3282295463
83333.3282276424
83333.3282256697
83333.3282236299
83333.3282416219
83333.3282421084
83333.328242434
83333.3282430062
83333.3282419563
83333.3282439564
83333.3282452261
83333.328246692
83333.3282483256
83333.3282501062
83333.3282520128
83333.3282540351
83333.3282561697
83333.3282584145
83333.3282347458
83333.3282331166
83333.3282313631
83333.3282295197
83333.3282276063
83333.3282256295
83333.3282235898
83333.328221488
83333.3282193253
83333.3282215251
83333.3282238071
83333.3282262711
83333.3282289893
83333.3282320177
83333.3282353493
83333.3282389272
83333.3282426262
83333.3282462937
83333.3282497829
83333.3282529795
83333.3282558291
83333.3282583701
83333.3282607676
83333.3282347285
83333.328232931
83333.3282358966
83333.3282363837
83333.3282376365
83333.3282391328
83333.3282340163
83333.3282373124
83333.3282408091
83333.3282310188
83333.3282443369
83333.3282424933
83333.3282407774
83333.3282392154
83333.3282378742
83333.328243948
83333.3282457756
83333.3282422309
83333.3282406286
83333.3282391984
83333.3282477139
83333.3282354848
83333.3282369551
83333.328233874
83333.3282321319
83333.3282302791
83333.3282283302
83333.3282383872
83333.3282258942
83333.3282278895
83333.328229808
83333.3282316454
83333.3282333933
83333.3282350349
83333.3282365115
83333.3282381655
83333.3282434781
83333.3282418884
83333.3282451482
83333.3282469219
83333.328248807
83333.3282404355
83333.3282399047
83333.3282396577
83333.3282508091
83333.3282535897
83333.3282515188
83333.3282495701
83333.3282477436
83333.328246043
83333.3282444702
83333.3282429753
83333.3282417317
83333.328241207
83333.3282408982
83333.3282353492
83333.3282389214
83333.3282320291
83333.3282426148
83333.3282462729
83333.3282497465
83333.3282290129
83333.3282262985
83333.3282529282
83333.3282238287
83333.3282557789
83333.3282465293
83333.3282481804
83333.3282499725
83333.3282518903
83333.3282450265
83333.328243661
83333.328253926
83333.3282560772
83333.3282426122
83333.3282583424
83333.3282348487
83333.3282332266
83333.3282314613
83333.3282296056
83333.3282276848
83333.3282257001
83333.3282236509
83333.3282215387
83333.3282417371
83333.3282421709
83333.3282424806
83333.3282430527
83333.3282420475
83333.3282439642
83333.328245197
83333.328246656
83333.3282482818
83333.3282500558
83333.328251963
83333.3282539907
83333.3282561335
83333.3282583886
83333.3282607542
83333.3282331695
83333.3282314346
83333.3282295897
83333.328227662
83333.3282256691
83333.3282236163
83333.3282215038
83333.3282193324
83333.3282171035
83333.3282193648
83333.3282216989
83333.3282241981
83333.328226933
83333.3282299611
83333.3282332874
83333.328236886
83333.328240672
83333.3282445164
83333.3282482854
83333.3282518576
83333.328255137
83333.3282580773
83333.3282607187
83333.3282632285
83333.3282346752
83333.3282358432
83333.3282329163
83333.3282310279
83333.3282340008
83333.3282372693
83333.3282362798
83333.3282375369
83333.3282390507
83333.3282407422
83333.3282320331
83333.3282353376
83333.3282388904
83333.328242572
83333.3282290355
83333.3282462179
83333.3282442542
83333.3282423994
83333.3282406624
83333.328239071
83333.3282377255
83333.3282456852
83333.3282438456
83333.3282476269
83333.3282421015
83333.3282404639
83333.328239082
83333.328249677
83333.3282338574
83333.3282354466
83333.3282369802
83333.3282321374
83333.3282302973
83333.3282283579
83333.3282263288
83333.3282386082
83333.3282259276
83333.328223856
83333.3282279283
83333.328229855
83333.3282316991
83333.3282334423
83333.3282350362
83333.3282367876
83333.3282384034
83333.3282450599
83333.3282433696
83333.3282417524
83333.3282468432
83333.3282487304
83333.3282507308
83333.3282405375
83333.3282401004
83333.3282398703
83333.3282528503
83333.3282557184
83333.3282535275
83333.3282514574
83333.3282495094
83333.3282476834
83333.3282459845
83333.3282444031
83333.3282429527
83333.3282418531
83333.3282413298
83333.3282410435
83333.3282332864
83333.3282368788
83333.3282406623
83333.3282299714
83333.3282445035
83333.328248264
83333.3282518208
83333.3282269548
83333.328224224
83333.3282550855
83333.3282217191
83333.3282580273
83333.3282481287
83333.3282464824
83333.3282499164
83333.3282518356
83333.3282538757
83333.3282449792
83333.3282436617
83333.3282560327
83333.3282583048
83333.3282426708
83333.3282606907
83333.3282332676
83333.3282315415
83333.3282296834
83333.3282277426
83333.3282257412
83333.3282236799
83333.3282215582
83333.3282193773
83333.3282418177
83333.3282422124
83333.3282430733
83333.3282425066
83333.3282421106
83333.3282439655
83333.3282451643
83333.3282466039
83333.3282482255
83333.3282499947
83333.3282519019
83333.3282539341
83333.3282560845
83333.3282583494
83333.3282607267
83333.3282632146
83333.3282314848
83333.328229659
83333.32822773
83333.3282257227
83333.328223654
83333.3282215287
83333.328219347
83333.3282171099
83333.3282148188
83333.3282171381
83333.3282195216
83333.3282220549
83333.3282248062
83333.3282278339
83333.3282311512
83333.3282347492
83333.3282385824
83333.3282425433
83333.3282465159
83333.328250383
83333.3282540426
83333.3282574098
83333.3282604449
83333.3282631889
83333.3282658101
83333.3282345888
83333.3282328751
83333.3282357555
83333.3282371964
83333.3282339573
83333.3282310198
83333.3282290464
83333.3282320236
83333.3282353031
83333.3282388347
83333.3282361542
83333.3282374029
83333.3282389377
83333.3282406515
83333.3282424982
83333.3282332779
83333.328229977
83333.3282368549
83333.3282406237
83333.3282444573
83333.328226978
83333.3282482072
83333.3282461321
83333.3282441581
83333.328242285
83333.3282405203
83333.3282389098
83333.3282376293
83333.3282475355
83333.3282455854
83333.3282437273
83333.3282495881
83333.3282419591
83333.328240319
83333.3282391778
83333.3282517496
83333.3282321292
83333.3282338265
83333.3282354543
83333.3282371842
83333.3282303093
83333.3282283786
83333.3282263569
83333.3282242531
83333.3282388014
83333.3282238881
83333.3282259663
83333.3282217448
83333.3282279763
83333.3282299095
83333.3282317453
83333.3282334433
83333.3282352788
83333.3282370046
83333.3282386143
83333.3282467559
83333.3282449629
83333.3282432638
83333.3282417496
83333.32824865
83333.3282506513
83333.3282527701
83333.3282406763
83333.3282402555
83333.3282400422
83333.3282550059
83333.3282556536
83333.3282579653
83333.3282534618
83333.3282513906
83333.3282494406
83333.3282476148
83333.3282459169
83333.3282443524
83333.3282429797
83333.3282419413
83333.3282414218
83333.3282411528
83333.3282347429
83333.32823115
83333.32823857
83333.3282425318
83333.3282278436
83333.3282465021
83333.328250361
83333.328254005
83333.3282248268
83333.3282220792
83333.3282573583
83333.3282195403
83333.3282603951
83333.3282498491
83333.3282480643
83333.3282464211
83333.3282517691
83333.3282538141
83333.328255978
83333.3282449381
83333.3282436646
83333.3282582576
83333.3282606518
83333.3282427036
83333.3282631607
83333.3282315797
83333.3282297614
83333.3282278177
83333.3282257969
83333.3282237193
83333.3282215855
83333.3282193953
83333.3282171495
83333.3282418749
83333.3282422373
83333.3282439455
83333.3282430683
83333.3282425161
83333.328242152
83333.328245118
83333.3282465391
83333.3282481508
83333.328249919
83333.3282518266
83333.328253863
83333.3282560209
83333.3282582957
83333.3282606846
83333.3282631855
83333.3282657956
83333.3282297085
83333.3282277971
83333.3282257881
83333.3282237051
83333.3282215642
83333.3282193702
83333.3282171233
83333.3282148246
83333.3282124759
83333.3282148492
83333.3282172791
83333.328219845
83333.3282226122
83333.3282256393
83333.3282289455
83333.3282325332
83333.3282363801
83333.3282404145
83333.3282445295
83333.328248621
83333.3282525867
83333.3282563389
83333.3282598005
83333.3282629365
83333.3282657835
83333.3282685098
83333.3282328032
83333.3282356379
83333.3282344836
83333.3282309885
83333.3282338826
83333.3282370921
83333.3282352396
83333.3282387513
83333.328231989
83333.3282290432
83333.3282269908
83333.3282299708
83333.3282332506
83333.3282368075
83333.3282405605
83333.3282360777
83333.3282372572
83333.3282387985
83333.3282405357
83333.328242404
83333.3282443797
83333.3282347244
83333.3282311431
83333.3282278506
83333.3282385379
83333.3282424894
83333.3282464539
83333.3282248498
83333.3282503023
83333.3282481192
83333.3282460348
83333.3282440461
83333.3282421514
83333.3282403692
83333.3282387787
83333.3282377216
83333.3282494949
83333.3282474362
83333.328245473
83333.3282436002
83333.3282516589
83333.3282418327
83333.328240325
83333.3282393227
83333.3282539317
83333.3282303085
83333.3282321064
83333.3282338262
83333.3282356515
83333.3282373766
83333.3282283954
83333.32822638
83333.3282242808
83333.3282221068
83333.3282389773
83333.3282217751
83333.328223926
83333.3282260143
83333.3282195643
83333.3282280315
83333.3282299544
83333.3282317466
83333.3282336653
83333.3282354895
83333.3282372111
83333.3282388035
83333.3282485598
83333.3282466592
83333.328244865
83333.3282432058
83333.3282417957
83333.3282505667
83333.3282526869
83333.3282549236
83333.3282407918
83333.3282403866
83333.3282401842
83333.3282572769
83333.3282578978
83333.3282555836
83333.3282603318
83333.3282533883
83333.3282513129
83333.3282493603
83333.3282475356
83333.3282458471
83333.3282443197
83333.3282430043
83333.3282420004
83333.3282414913
83333.3282412375
83333.3282325271
83333.3282363694
83333.3282289444
83333.3282403997
83333.328244517
83333.3282256488
83333.3282486063
83333.3282525638
83333.3282563002
83333.3282226317
83333.3282198675
83333.328259748
83333.3282172963
83333.328262887
83333.3282497669
83333.328251688
83333.3282479834
83333.3282463493
83333.3282537378
83333.3282559094
83333.3282581982
83333.3282448888
83333.3282436457
83333.3282606018
83333.3282631207
83333.3282427129
83333.3282657555
83333.3282297988
83333.3282278941
83333.3282258694
83333.3282237724
83333.3282216228
83333.3282194207
83333.3282171661
83333.3282148595
83333.328241915
83333.3282422495
83333.3282450507
83333.3282438976
83333.3282430478
83333.3282425137
83333.3282421777
83333.3282464537
83333.328248058
83333.3282498247
83333.328251734
83333.3282537747
83333.32825594
83333.3282582249
83333.3282606258
83333.3282631402
83333.3282657648
83333.3282684953
83333.3282278459
83333.328225853
83333.3282237676
83333.3282216125
83333.3282194035
83333.3282171447
83333.3282148369
83333.3282124811
83333.3282100794
83333.3282125025
83333.3282149756
83333.328217572
83333.3282203541
83333.32822338
83333.3282266738
83333.3282302454
83333.3282340872
83333.3282381563
83333.3282423678
83333.3282466236
83333.32825083
83333.328254897
83333.3282587481
83333.328262315
83333.3282655605
83333.3282684971
83333.3282713229
83333.3282309305
83333.3282337815
83333.3282327205
83333.3282369641
83333.3282355103
83333.328234426
83333.3282319266
83333.3282290208
83333.3282351468
83333.3282386411
83333.3282331963
83333.3282367325
83333.3282404721
83333.328229944
83333.3282269902
83333.3282248642
83333.3282278471
83333.3282311217
83333.3282346839
83333.3282384828
83333.3282424216
83333.3282361703
83333.32823715
83333.3282386543
83333.3282404
83333.3282422888
83333.3282442837
83333.3282463738
83333.3282325123
83333.328236343
83333.3282289389
83333.3282256569
83333.3282403625
83333.3282444721
83333.3282485561
83333.3282226541
83333.3282525027
83333.3282502123
83333.3282480204
83333.328245924
83333.3282439186
83333.3282420113
83333.3282402433
83333.3282387951
83333.3282378714
83333.3282493937
83333.328251563
83333.3282473247
83333.3282453514
83333.3282434808
83333.3282538389
83333.3282417742
83333.3282403846
83333.3282394593
83333.328256224
83333.3282302944
83333.3282284016
83333.3282321055
83333.3282340194
83333.3282358447
83333.3282375639
83333.3282264004
83333.3282243053
83333.3282221338
83333.3282198935
83333.3282391381
83333.3282195927
83333.3282218117
83333.3282239733
83333.3282260703
83333.3282173185
83333.3282280772
83333.3282299593
83333.3282319564
83333.3282338728
83333.3282356941
83333.328237409
83333.328238973
83333.3282484579
83333.3282504707
83333.3282465564
83333.3282447814
83333.3282431839
83333.328241845
83333.3282525964
83333.3282548366
83333.3282571917
83333.3282408858
83333.3282405003
83333.3282403046
83333.3282596656
83333.3282602616
83333.3282578232
83333.3282555033
83333.3282628229
83333.3282533009
83333.3282512204
83333.3282492663
83333.3282474462
83333.3282457764
83333.3282442851
83333.3282430086
83333.3282420382
83333.3282415452
83333.3282413055
83333.3282302398
83333.3282340786
83333.3282381417
83333.3282266733
83333.3282423515
83333.32824661
83333.3282233895
83333.3282508143
83333.3282548732
83333.3282587082
83333.3282203725
83333.3282175927
83333.3282622607
83333.3282149912
83333.3282655106
83333.3282496666
83333.3282515893
83333.3282536438
83333.3282478854
83333.3282462606
83333.3282558234
83333.3282581225
83333.3282605376
83333.3282448181
83333.3282436009
83333.3282630681
83333.3282657147
83333.3282427064
83333.3282684698
83333.328227932
83333.3282259443
83333.3282238422
83333.3282216733
83333.3282194557
83333.3282171897
83333.3282148747
83333.3282125118
83333.328241943
83333.3282422534
83333.3282463477
83333.32824496
83333.3282438333
83333.3282430143
83333.3282425046
83333.3282421933
83333.3282479438
83333.3282497092
83333.3282516208
83333.3282536665
83333.3282558394
83333.3282581345
83333.3282605479
83333.3282630764
83333.3282657162
83333.3282684633
83333.3282713077
83333.3282259011
83333.3282238299
83333.3282216719
83333.3282194488
83333.3282171757
83333.3282148565
83333.3282124922
83333.328210084
83333.3282076345
83333.3282101028
83333.3282126153
83333.3282152396
83333.3282180352
83333.3282210594
83333.3282243392
83333.3282278907
83333.3282317167
83333.3282357926
83333.3282400594
83333.3282444322
83333.3282488214
83333.3282531424
83333.3282573157
83333.328261275
83333.3282649645
83333.3282683067
83333.3282713152
83333.3282308683
83333.3282318399
83333.3282289767
83333.3282350335
83333.328233674
83333.3282326775
83333.3282385122
83333.3282368346
83333.3282354301
83333.3282345208
83333.328229893
83333.3282331157
83333.3282269762
83333.3282366315
83333.3282403601
83333.3282346175
83333.328231076
83333.3282384017
83333.3282423305
83333.3282278267
83333.3282248661
83333.3282256557
83333.3282226696
83333.3282289223
83333.3282324781
83333.3282362945
83333.3282403026
83333.3282444013
83333.3282363247
83333.3282371771
83333.3282385414
83333.3282402607
83333.3282421566
83333.3282441687
83333.3282462758
83333.3282484736
83333.3282340567
83333.3282302273
83333.3282381098
83333.3282266693
83333.3282233986
83333.3282423108
83333.3282465628
83333.3282507614
83333.3282203941
83333.3282548089
83333.3282524103
83333.3282501109
83333.3282479082
83333.3282457982
83333.3282437832
83333.3282418858
83333.3282401923
83333.3282388666
83333.3282380225
83333.3282492787
83333.3282514573
83333.3282537391
83333.3282472013
83333.3282452289
83333.3282433894
83333.3282561286
83333.3282417625
83333.3282404554
83333.3282395834
83333.3282586293
83333.3282283965
83333.3282302978
83333.3282264127
83333.3282322962
83333.3282342146
83333.3282360395
83333.3282377454
83333.3282243285
83333.3282221591
83333.3282199194
83333.328217617
83333.328239288
83333.328217345
83333.3282196275
83333.3282218579
83333.3282240297
83333.3282261182
83333.3282150116
83333.3282280857
83333.328230161
83333.3282321634
83333.3282340774
83333.3282358974
83333.3282375976
83333.3282391286
83333.3282483443
83333.3282503598
83333.3282524919
83333.328246452
83333.3282447113
83333.3282431687
83333.3282418816
83333.3282547399
83333.3282571004
83333.3282595775
83333.3282409659
83333.3282406013
83333.3282404109
83333.3282621786
83333.3282627506
83333.3282601821
83333.3282577357
83333.3282554061
83333.3282654471
83333.3282531956
83333.3282511108
83333.3282491571
83333.3282473459
83333.3282456964
83333.3282442347
83333.3282429935
83333.328242063
83333.3282415896
83333.3282413626
83333.328227886
83333.3282317092
83333.3282357805
83333.3282400419
83333.3282243396
83333.3282444144
83333.3282488065
83333.3282210687
83333.3282531254
83333.3282572907
83333.3282612345
83333.3282180525
83333.3282152585
83333.3282649081
83333.3282126294
83333.328268257
83333.3282495455
83333.3282514701
83333.3282535295
83333.3282557169
83333.3282477664
83333.3282461503
83333.3282580269
83333.3282604548
83333.3282629991
83333.3282447252
83333.3282435396
83333.3282656598
83333.3282684286
83333.3282426923
83333.3282712872
83333.3282259833
83333.3282239152
83333.3282217399
83333.3282195033
83333.3282172222
83333.3282148963
83333.3282125256
83333.328210111
83333.3282419628
83333.3282422528
83333.3282478061
83333.3282462192
83333.3282448529
83333.3282437594
83333.3282429757
83333.3282424922
83333.3282422025
83333.3282495698
83333.3282514843
83333.3282535356
83333.3282557164
83333.3282580218
83333.328260448
83333.3282629913
83333.3282656472
83333.3282684114
83333.3282712732
83333.3282238765
83333.3282217311
83333.3282195046
83333.3282172178
83333.328214885
83333.32821251
83333.328210094
83333.3282076386
83333.3282051466
83333.328207655
83333.3282102027
83333.328212852
83333.3282156591
83333.3282186804
83333.328221945
83333.3282254733
83333.3282292759
83333.3282333414
83333.3282376299
83333.328242077
83333.3282466015
83333.3282511209
83333.3282555592
83333.3282598471
83333.3282639311
83333.3282677383
83333.3282711324
83333.3282289318
83333.3282308384
83333.3282317527
83333.3282330178
83333.3282298199
83333.3282269443
83333.3282365141
83333.3282349221
83333.3282336189
83333.3282327761
83333.3282383824
83333.3282402313
83333.3282367399
83333.3282354672
83333.32823468
83333.3282277851
83333.3282310071
83333.3282345274
83333.3282248584
83333.3282382968
83333.3282422172
83333.3282362211
83333.3282324203
83333.3282288844
83333.3282402178
83333.3282443076
83333.3282256408
83333.3282226742
83333.3282233993
83333.3282266563
83333.3282204101
83333.3282301989
83333.3282340143
83333.3282380562
83333.3282422474
83333.3282464891
83333.3282364876
83333.3282372581
83333.328238505
83333.3282401412
83333.3282420183
83333.328244037
83333.3282461592
83333.3282483728
83333.3282506761
83333.3282316911
83333.3282357534
83333.3282278755
83333.3282400062
83333.3282243371
83333.3282210784
83333.3282443709
83333.3282487564
83333.3282530692
83333.3282180732
83333.3282572231
83333.3282547135
83333.328252305
83333.328249995
83333.3282477798
83333.3282456612
83333.3282436518
83333.3282417968
83333.3282401952
83333.3282389563
83333.3282381701
83333.3282513355
83333.3282491483
83333.3282536274
83333.3282560242
83333.3282470694
83333.3282451138
83333.3282433232
83333.3282585309
83333.3282417675
83333.3282405231
83333.3282397007
83333.3282611542
83333.3282264163
83333.3282284062
83333.328230487
83333.3282243463
83333.3282324936
83333.3282344155
83333.3282362353
83333.3282379232
83333.3282221841
83333.328219945
83333.3282176415
83333.3282152812
83333.3282394313
83333.3282150361
83333.3282173778
83333.3282196723
83333.3282219139
83333.3282240801
83333.3282261292
83333.328212648
83333.3282282813
83333.3282303657
83333.3282323684
83333.3282342844
83333.3282360987