/*--------------------------------*- C++ -*----------------------------------*\
  =========                 |
  \\      /  F ield         | OpenFOAM: The Open Source CFD Toolbox
   \\    /   O peration     | Website:  https://openfoam.org
    \\  /    A nd           | Version:  12
     \\/     M anipulation  |
\*---------------------------------------------------------------------------*/
/*   Windows 32 and 64 bit porting by blueCAPE: http://www.bluecape.com.pt   *\
|  Based on Windows porting (2.0.x v4) by Symscape: http://www.symscape.com   |
\*---------------------------------------------------------------------------*/
FoamFile
{
    format      ascii;
    class       volVectorField;
    location    "400";
    object      U;
}
// * * * * * * * * * * * * * * * * * * * * * * * * * * * * * * * * * * * * * //

dimensions      [0 1 -1 0 0 0 0];

internalField   nonuniform List<vector> 
10228
(
(-1.46303901749733e-06 -9.51730867944642e-06 1.73872535366164e-05)
(-3.27204640063557e-06 -1.36726994021459e-05 2.32044448935373e-05)
(-1.19027916006335e-06 -3.48227293237276e-06 4.20048765383906e-05)
(-1.45555822452328e-06 -2.50658530160777e-05 1.31953278341523e-05)
(-4.8304022883343e-06 -3.894036032836e-05 1.72217243496795e-05)
(-3.64422878728144e-06 -1.40614234233607e-05 2.45455969179197e-05)
(-1.85929850367302e-06 -7.3209689098969e-06 5.95057614112388e-05)
(-1.97962129273828e-06 -2.73076448888287e-06 4.93274321709986e-05)
(-1.1623798184957e-06 3.89246439871334e-06 1.39958071931643e-05)
(-4.43669111551328e-07 -3.3773174083891e-05 9.3592723845446e-06)
(-1.84102913886354e-06 1.78384750450992e-07 2.03806794753875e-05)
(-5.2396278583463e-06 -3.87766360966864e-05 1.66274650881084e-05)
(-5.96254449902034e-06 -5.05697004670475e-05 6.92462887598321e-06)
(-3.50927847361988e-06 -1.43791842647122e-05 2.50052958888704e-05)
(-2.14975726795397e-06 -6.69642332980597e-06 6.03600171441123e-05)
(8.51675753106403e-07 -2.58865166349227e-06 7.10461445569543e-05)
(-1.64485062532787e-06 2.21296078328081e-06 4.73221036806617e-05)
(-4.05586328960273e-07 2.08407219557933e-05 -1.34628329834853e-05)
(-1.25535542391517e-06 2.52866838169282e-05 -1.09439890306284e-05)
(-4.58469309114274e-07 -3.74115364011929e-05 -6.62085541249575e-08)
(-2.78157113234619e-06 3.29899529688017e-05 -1.78687054619937e-05)
(2.0204516566145e-06 2.56770242209869e-05 -1.77623689625419e-05)
(-2.34788471587817e-06 6.01336277447239e-06 1.53861734649707e-05)
(-4.43569439813031e-06 -4.03526543103377e-05 1.73552168956865e-05)
(-6.10543417453415e-06 -4.82789060054879e-05 4.31042073499439e-06)
(-5.71199403990209e-06 -5.69459571306952e-05 -3.4132197982112e-06)
(-2.5956041952333e-06 -1.52510964039603e-05 2.66014780672021e-05)
(-2.48586240847538e-06 -7.3333906270499e-06 6.28600541294402e-05)
(4.53683224035798e-07 -1.35722818354394e-06 7.01470215643731e-05)
(1.74915718626518e-06 2.78826881370433e-06 7.25231701095395e-05)
(-1.14462145230994e-06 6.7716925405077e-06 3.49159604685972e-05)
(-4.37270024689866e-07 2.65017228885848e-05 -3.39883689724276e-05)
(-4.08229375834581e-07 3.73494070594821e-05 -3.08283819272837e-05)
(-5.93608992873922e-07 3.86540796512379e-05 -2.1943815186896e-05)
(-4.52357365103643e-07 -3.02454466409736e-05 -6.53584134002591e-06)
(3.11056764549018e-07 5.00826636188423e-05 -4.51828095413948e-05)
(-2.451754976688e-06 4.48739167163571e-05 -2.71350295001882e-05)
(-2.77408378831907e-06 5.03721260808014e-05 -3.08989572795303e-05)
(1.58996805740038e-06 3.33198278807564e-05 -2.84445587711167e-05)
(2.26451036467218e-06 3.21641647156158e-05 -4.15118374010984e-05)
(-2.17375004812443e-06 6.80300150820164e-06 1.58562725155156e-05)
(-2.72641707788005e-06 -4.13919197394053e-05 1.80380029623083e-05)
(-4.60087129748402e-06 -4.96694022184102e-05 4.3923679759779e-06)
(-5.36403736380611e-06 -5.22458242602449e-05 -6.03780788971866e-06)
(-4.19704888097103e-06 -5.22276343093871e-05 -9.98357476601344e-06)
(-7.80056932996102e-07 -1.42754893587188e-05 2.57612146002382e-05)
(-1.75771413153623e-06 -7.63103324740295e-06 6.47530938680088e-05)
(-4.83296696547744e-07 -1.99818723744624e-06 7.23351935433327e-05)
(1.49298372049775e-06 3.08856378216801e-06 6.99769104806669e-05)
(9.67571165569444e-07 6.7302055660347e-06 6.23313816671141e-05)
(-6.74562602709016e-07 9.16743765720534e-06 1.79551854563204e-05)
(-2.32380912002218e-07 2.79204864407133e-05 -5.55144688217479e-05)
(-1.2871119908042e-07 3.66642687338457e-05 -4.1319342111292e-05)
(-6.11508654761316e-07 4.38608541303993e-05 -3.16399442237893e-05)
(-8.21956434092384e-07 5.4839404775816e-05 -2.62933432007077e-05)
(-5.14284241208972e-07 -1.7693368284606e-05 -9.68250654005449e-06)
(4.13949885145626e-07 6.18045437073676e-05 -5.82272984447642e-05)
(9.96574977366705e-07 4.53474665552838e-05 -5.6141428417849e-05)
(-7.09121924297385e-07 5.72446115877977e-05 -4.27569817042936e-05)
(-2.63785132752751e-06 6.4946748033946e-05 -3.95202894618949e-05)
(-1.66156984343464e-06 4.91289513506641e-05 -3.07770605245065e-05)
(-2.76908220882831e-06 6.8550973432949e-05 -3.40648929068668e-05)
(1.18580534821301e-06 3.64441497457539e-05 -3.1808619908885e-05)
(2.66514465225724e-06 3.84019234171887e-05 -5.45019006023212e-05)
(2.04363616801209e-06 3.29871319580521e-05 -6.56182325271996e-05)
(-1.23989472632725e-06 6.28708311677756e-06 1.75506599902955e-05)
(4.73666348146279e-07 -4.11542578193393e-05 1.78040908345357e-05)
(-2.69164526962915e-06 -5.07247852407108e-05 4.63511948059182e-06)
(-3.39963161080825e-06 -5.30868326269293e-05 -6.32411055659758e-06)
(-3.84622194877184e-06 -4.70066599366049e-05 -1.24790418964225e-05)
(-3.42668211155779e-06 -4.04288044512434e-05 -1.30723719065442e-05)
(8.67463202329821e-07 -1.29856220817283e-05 2.64730659063644e-05)
(8.78582441571297e-07 -6.81981580484026e-06 6.42236748037472e-05)
(-4.64089170829928e-07 -2.07421692607142e-06 7.40345382696811e-05)
(3.67189197306229e-07 2.29123736397991e-06 7.18337687607877e-05)
(1.36747805804217e-06 6.27327193624131e-06 6.01047805514331e-05)
(1.0288945005572e-06 9.79335126736048e-06 4.60798405666381e-05)
(7.15269016285686e-07 1.05421725441792e-05 -8.03926428783987e-07)
(1.91876889640998e-07 2.72198149409314e-05 -7.60258640863429e-05)
(-1.8600599970959e-08 3.58519335854583e-05 -5.25146386163642e-05)
(-4.21001746538159e-07 4.24876046453428e-05 -3.8619566805533e-05)
(-6.21861191205905e-07 5.23180882445996e-05 -3.28702622661931e-05)
(-8.3647514411362e-07 7.02369685967653e-05 -2.70589151761741e-05)
(-1.39963755962976e-06 -1.46590243761788e-06 -1.15067434736936e-05)
(1.41740393815486e-06 5.37546502216563e-05 -6.97911416153372e-05)
(-7.14787995999874e-07 6.94930324865924e-05 -5.30164916294746e-05)
(4.98969781472819e-07 6.8042044830755e-05 -6.51846856911796e-05)
(-1.16589435883188e-07 5.05569976683298e-05 -4.8734765344337e-05)
(1.17394919050685e-06 4.17682316927783e-05 -6.80677465406357e-05)
(-1.3222015806346e-06 6.60243948002797e-05 -4.07356523261452e-05)
(-3.1089045500557e-06 8.38930530358027e-05 -4.11690612960889e-05)
(-1.72775658173593e-06 7.11198223103695e-05 -4.41629109836575e-05)
(-7.32107855489726e-07 5.04132934297311e-05 -3.18188195922209e-05)
(-2.78437931000687e-06 8.59660260926361e-05 -3.36767714470107e-05)
(1.41402145171088e-06 3.792812346207e-05 -3.27757676739254e-05)
(2.53251701956194e-06 4.16249933639237e-05 -5.99429744660151e-05)
(2.86688611652101e-06 3.77793985018693e-05 -7.96487726125173e-05)
(2.07136608301365e-06 3.16684649835669e-05 -8.90584296532774e-05)
(3.40698267088033e-06 5.26169448812334e-06 1.94710365272232e-05)
(6.51483221807624e-06 -4.33633248744205e-05 2.40921503065463e-05)
(-5.39823577805513e-07 -5.11360878428773e-05 4.79270973166946e-06)
(-8.17067908524666e-07 -5.43275694359829e-05 -6.0572815501575e-06)
(-2.45474699427177e-06 -4.82825278387861e-05 -1.30464224989072e-05)
(-3.17212631848368e-06 -3.44178810688008e-05 -1.55163644960873e-05)
(-3.14482330412558e-06 -2.44858274994014e-05 -1.45197438798083e-05)
(1.30888542802675e-06 -1.09643898520724e-05 2.5851925677511e-05)
(2.99058954392657e-06 -3.22823456494997e-06 6.2967458237781e-05)
(1.30196269961229e-06 -7.3773678432515e-07 7.30350468186432e-05)
(-2.05071000358025e-07 2.18784011654079e-06 7.28645065623848e-05)
(6.02787060585845e-07 4.74696489405839e-06 6.20896207840411e-05)
(1.28019012998702e-06 9.02812732104612e-06 4.31867501262474e-05)
(9.1711879259734e-07 1.14262073799194e-05 2.73500754761833e-05)
(9.76731154053939e-07 1.00010565330585e-05 -1.76712511908513e-05)
(5.75946002657711e-07 2.51154488164775e-05 -9.46838011809648e-05)
(1.97195126569591e-07 3.3936004197512e-05 -6.38875256708097e-05)
(-1.46482244861909e-07 4.16750570536064e-05 -4.64190205660769e-05)
(-4.11628215474194e-07 4.92582744446232e-05 -3.85077216318729e-05)
(-6.22094726955265e-07 6.09682859061106e-05 -3.27875092005757e-05)
(-1.0187459838719e-06 8.48366187673417e-05 -2.587686348456e-05)
(-1.61919764855807e-06 1.50165707617194e-05 -1.15066752582325e-05)
(1.92261367260228e-06 4.77963852059085e-05 -8.19253752126403e-05)
(1.64738295932712e-06 5.89735894306232e-05 -7.7805755453446e-05)
(1.10903539443961e-07 5.88414708752442e-05 -5.87145339780584e-05)
(-1.69019738548302e-06 7.82398449462687e-05 -4.84090739828243e-05)
(-6.52074492012295e-07 7.66046310438104e-05 -5.94139611710302e-05)
(8.40009874458041e-07 7.24537734763696e-05 -6.98467459511574e-05)
(2.12483256738296e-07 4.68583477522528e-05 -5.64542889145466e-05)
(-6.4283896621171e-07 5.73160074898924e-05 -4.53029687712781e-05)
(1.33340137787293e-06 3.85026054540181e-05 -8.03333205697913e-05)
(-1.65806889994417e-06 7.50855059421987e-05 -3.88454716379579e-05)
(-3.76390126288531e-06 0.000101947567746104 -3.96601694211679e-05)
(-2.80912949368382e-06 9.07311464564873e-05 -4.55327654020701e-05)
(-9.41770508565371e-08 7.3968317927162e-05 -4.68285627935198e-05)
(1.35040816331701e-06 4.90799187540436e-05 -2.96933121974296e-05)
(-3.04372879294916e-06 0.00010235584539675 -3.17645782267227e-05)
(4.21600194525725e-06 3.91152438032184e-05 -3.27152702831126e-05)
(2.7736070968027e-06 4.38816765243963e-05 -6.31918615855122e-05)
(3.08705448017455e-06 4.04378859611474e-05 -8.60208625349337e-05)
(3.07236530268033e-06 3.55587586084774e-05 -0.000104028833358003)
(2.25783469966896e-06 2.89964896751509e-05 -0.000110306200142614)
(1.84751654743468e-05 1.43221319461739e-06 2.74234224398246e-05)
(7.06201896283003e-06 -5.36571878781854e-05 3.57853554810272e-05)
(-4.29581608366283e-06 -5.49498311600493e-05 1.24927195286478e-05)
(1.75945096414494e-06 -5.58022469377624e-05 -5.71354542955757e-06)
(-3.73545042799091e-07 -5.11415988652489e-05 -1.30204984545385e-05)
(-2.99354639952544e-06 -3.61610203009229e-05 -1.63505131773066e-05)
(-3.40619928497305e-06 -1.82121338357206e-05 -1.67169682651404e-05)
(-3.53653492432294e-06 -7.66739001801487e-06 -1.48004456655706e-05)
(9.96357325133834e-07 -1.2899359838716e-05 2.49726159596059e-05)
(2.08932427377144e-06 -1.40534125101277e-07 6.15983523618571e-05)
(1.76888850350803e-06 2.9406343364745e-06 6.99763991407964e-05)
(-3.9309621001091e-07 3.88338014347091e-06 7.00108196320275e-05)
(-7.20701417639953e-07 4.26131467284021e-06 6.28341965821403e-05)
(3.8695205973809e-07 7.89409803246175e-06 4.50377777154711e-05)
(9.0534914499324e-07 1.12816082378251e-05 2.41176618747909e-05)
(9.97068402152574e-07 1.14789219855135e-05 9.88464306700721e-06)
(1.22752629164065e-06 9.2689644841035e-06 -3.31576053838167e-05)
(7.15850627645895e-07 2.24262564599816e-05 -0.000110700866003662)
(3.94824849426129e-07 3.09498456761865e-05 -7.45480525834049e-05)
(8.16581543646859e-08 3.95851750974021e-05 -5.43277545514871e-05)
(-2.46373485601978e-07 4.7692595573486e-05 -4.44291435812718e-05)
(-4.897790926433e-07 5.58220859203637e-05 -3.76942175023306e-05)
(-6.92829593701817e-07 6.94010992210531e-05 -3.10984312961608e-05)
(-1.16567763747818e-06 9.8401885795193e-05 -2.38747694197748e-05)
(-1.91435068522185e-06 3.1483649159843e-05 -1.10006798814679e-05)
(6.46769703918202e-07 5.2701527849802e-05 -6.62234735521165e-05)
(2.24605341532398e-06 4.32642451330062e-05 -9.44596893384034e-05)
(2.45712287018235e-06 5.18724551863334e-05 -9.04598453207139e-05)
(2.73889546918444e-07 6.43669547908881e-05 -6.53919696369233e-05)
(2.21039633782871e-06 6.32253196273009e-05 -8.39858502131691e-05)
(-8.19695497146281e-07 6.54681222294098e-05 -5.26015112354467e-05)
(-2.46468944122267e-06 8.73162681817942e-05 -4.49819979263345e-05)
(-2.05453475616861e-06 8.55547617189766e-05 -5.36453756284984e-05)
(-1.38277282368551e-07 8.18548730513216e-05 -6.42978927664603e-05)
(3.25935187957895e-06 7.72254086003678e-05 -7.34655798723981e-05)
(-3.1926529887998e-07 5.27789093739207e-05 -5.0999322863699e-05)
(5.23075959281959e-07 4.35389150368787e-05 -6.46107615245556e-05)
(-9.93689016892993e-07 6.40226868503991e-05 -4.29355190551616e-05)
(1.47042765649247e-06 3.47505242909516e-05 -9.18419273762905e-05)
(-1.94532408159823e-06 8.39442596929137e-05 -3.61913941339748e-05)
(-4.42174313988798e-06 0.000109249273348689 -4.36202267732452e-05)
(-4.56574676578865e-06 0.000118950192371283 -3.69524188404536e-05)
(-1.68296625716997e-06 9.39564652880365e-05 -4.87413819431511e-05)
(2.61003033927642e-06 7.39536604110568e-05 -4.68144737063369e-05)
(1.35888900475184e-05 4.30554701972436e-05 -1.96715571038392e-05)
(-3.37366984741748e-06 0.000117640514102545 -2.91410880055225e-05)
(1.33831753289494e-05 4.05228968531884e-05 -2.76393513034864e-05)
(4.43799775165519e-06 4.66137831931556e-05 -6.70243361515398e-05)
(3.63340843386348e-06 4.26872055123222e-05 -9.05996911215554e-05)
(3.60899359753818e-06 3.79385382592587e-05 -0.000110998267214254)
(3.35993917986203e-06 3.24648194798155e-05 -0.000126156922305831)
(2.31638372703322e-06 2.58392718445741e-05 -0.000128635047855146)
(1.38470833214292e-05 1.57362312909612e-05 3.90239295381532e-05)
(-5.11937694534235e-07 -4.3120066248871e-05 2.9814384340419e-05)
(2.82468975087801e-05 -7.82504969349221e-05 3.11284429376353e-05)
(-8.6606135820843e-06 -6.07413829846919e-05 -4.70728235578035e-06)
(1.16063353615689e-06 -5.47420597675324e-05 -1.33172461958791e-05)
(-3.3005826341188e-06 -4.01579000913069e-05 -1.66554540663395e-05)
(-4.22574849196856e-06 -2.0013458700721e-05 -1.81321686575428e-05)
(-4.21701822067682e-06 -2.85682867321596e-07 -1.68438415572074e-05)
(-3.96632135873727e-06 9.25821207002213e-06 -1.4365883458933e-05)
(3.94135556293008e-06 -6.71271769406762e-06 6.14578061595421e-05)
(-1.96541239310748e-07 6.60035330417043e-06 7.03564008892612e-05)
(-1.5342129693831e-06 7.90634154991894e-06 6.3562552286519e-05)
(-2.32177845721038e-06 5.973705396936e-06 5.8557236196145e-05)
(-1.10403918337556e-06 7.48081575761914e-06 4.56974712515406e-05)
(2.35438831153741e-07 1.08823873201668e-05 2.60592392640953e-05)
(7.86862526394714e-07 1.21159825156681e-05 6.04375594982038e-06)
(1.132380381175e-06 1.09078349927949e-05 -6.11424916593402e-06)
(1.07075416899542e-06 8.13681296655959e-06 -4.66510782284191e-05)
(7.46098358255406e-07 1.97074328681133e-05 -0.000124487457883054)
(4.80948318991595e-07 2.75658726570175e-05 -8.41426873143266e-05)
(2.4838890107024e-07 3.63223817423228e-05 -6.17738448543724e-05)
(-3.66858774300674e-08 4.50179046206452e-05 -5.02073822142582e-05)
(-3.46143694964344e-07 5.30496886984737e-05 -4.24183734767928e-05)
(-5.88878181000352e-07 6.19573358665963e-05 -3.54610651620952e-05)
(-7.97495583567858e-07 7.74449481677566e-05 -2.83638694229673e-05)
(-1.27961160870187e-06 0.000110938338641199 -2.14410110557931e-05)
(-1.92859756637161e-06 4.68089343841454e-05 -9.94668294628598e-06)
(-2.6988665351111e-07 5.85571469002582e-05 -5.80769493251442e-05)
(1.07495590819529e-06 4.81372690267926e-05 -7.4341625535247e-05)
(1.03895493578062e-06 5.69055043904965e-05 -7.30312622509695e-05)
(2.43727854079522e-06 3.87434648769956e-05 -0.000106318843151806)
(2.9924737251117e-06 4.66371305340417e-05 -0.000103407165363567)
(3.28344896297777e-06 5.54500999813604e-05 -9.76439875478641e-05)
(-1.08273567659365e-06 7.10402750041848e-05 -5.78360351440753e-05)
(7.42503076297328e-07 6.88714951253201e-05 -7.08091819693801e-05)
(4.37805577588579e-06 6.84403723292605e-05 -9.09733287449563e-05)
(-1.54033643805332e-06 7.21138183901061e-05 -4.88052391855897e-05)
(-3.12729436149374e-06 9.6293796496186e-05 -4.14396319564808e-05)
(-3.38985183946297e-06 9.47317424087234e-05 -4.94071772949688e-05)
(-2.13581507217238e-06 9.08461851287994e-05 -5.80282618173678e-05)
(2.21086520953294e-06 8.7135483421123e-05 -6.86028224230633e-05)
(1.42965207424888e-05 8.06021864394298e-05 -7.12697584285919e-05)
(-6.70294691675865e-07 5.82845047957679e-05 -4.74726580818539e-05)
(9.30453339102131e-09 4.88714208873762e-05 -5.68779768172628e-05)
(7.58021249580894e-07 3.96675728809401e-05 -7.2361779727525e-05)
(-1.30519118612817e-06 7.03179153007824e-05 -3.99741568325589e-05)
(1.50051359605015e-06 3.08606622078438e-05 -0.000102209899975281)
(-2.20948999626846e-06 9.24520375748936e-05 -3.28865719458698e-05)
(-4.81288749219981e-06 0.000112848466727684 -4.68167335842114e-05)
(-6.00257424406311e-06 0.000126743730823624 -4.05766885876645e-05)
(-5.33168533570951e-06 0.000134953173159292 -3.37035862931293e-05)
(5.42906886445644e-08 9.45773032305266e-05 -5.0741286008791e-05)
(-6.36532699507384e-07 6.86260307967306e-05 -3.96607071482968e-05)
(-3.68567728477582e-06 0.000131754300146632 -2.62041737090686e-05)
(1.41390885945118e-05 3.86375937169708e-05 1.41441111411095e-05)
(7.48726478353848e-06 5.02614581890685e-05 -7.06283725645634e-05)
(4.5846488734117e-06 4.56984333466432e-05 -9.77050052515529e-05)
(4.16401554753257e-06 4.00994005034663e-05 -0.000116672544996613)
(4.02446635448054e-06 3.47247067280087e-05 -0.000133764896924132)
(3.5409135937932e-06 2.89781411916562e-05 -0.000145567839358691)
(2.19258388511388e-06 2.27576120231932e-05 -0.000144374240977986)
(4.39561624475425e-07 -1.19185621668059e-05 5.79815255575936e-05)
(-3.99464256299088e-06 -4.5518810759546e-05 3.25101100710779e-05)
(-1.25378920646546e-05 -8.3524994635232e-05 -1.36618031514512e-05)
(-4.3029128721763e-06 -5.83762857457031e-05 -1.84020276407185e-05)
(-4.81588834965966e-06 -4.51296092977345e-05 -1.665303679563e-05)
(-5.76774282600646e-06 -2.41166556390135e-05 -1.87946011395498e-05)
(-5.51057351274075e-06 -1.76834657551338e-06 -1.83695268743021e-05)
(-5.1478847248443e-06 1.77589338473209e-05 -1.63139796171027e-05)
(-4.35216435576968e-06 2.52207916716143e-05 -1.3279059347601e-05)
(3.85475675492115e-06 -6.30269182736632e-06 7.84368580773137e-05)
(-3.42055602244769e-06 9.70601039600646e-06 6.56545208398487e-05)
(-4.05592278062433e-06 9.16342701028826e-06 5.04866162560406e-05)
(-3.20888804457102e-06 8.69944500488787e-06 4.09522541871845e-05)
(-1.15114259470277e-06 1.08736080051698e-05 2.66381939690001e-05)
(2.09070501680132e-07 1.25141462996735e-05 8.01783480525365e-06)
(9.18260820998181e-07 1.151802584252e-05 -1.03950740281712e-05)
(1.23302022156704e-06 9.7235782827848e-06 -2.02113550933984e-05)
(8.88076734981875e-07 7.05075052558796e-06 -5.8427584830852e-05)
(7.09807867345481e-07 1.71558430851903e-05 -0.000136288429442846)
(4.93169775164029e-07 2.42274752756917e-05 -9.26272780701912e-05)
(3.34446329937814e-07 3.2529885461828e-05 -6.85658054243257e-05)
(1.20138347911655e-07 4.12609988255877e-05 -5.55780787312549e-05)
(-1.66631528104894e-07 4.95816496167075e-05 -4.6752929383281e-05)
(-4.45772691590007e-07 5.77955199021542e-05 -3.9399297549786e-05)
(-6.7756847453193e-07 6.76653171075962e-05 -3.22393188793131e-05)
(-9.01083317136749e-07 8.49802425621221e-05 -2.51334657667834e-05)
(-1.36557523923785e-06 0.00012235491321812 -1.88245527316804e-05)
(-1.92906578769835e-06 6.09590879505675e-05 -8.76062011783484e-06)
(1.66328421660551e-07 5.34570027594164e-05 -6.38529753712471e-05)
(-2.84627945990303e-07 6.28492970555849e-05 -6.3353692512803e-05)
(-9.46046337896069e-07 6.40892085740547e-05 -5.32038114827306e-05)
(1.61422276213434e-06 5.15897219730364e-05 -8.13027657090807e-05)
(1.35908841973139e-06 4.35807004362655e-05 -8.2180476340363e-05)
(1.65759395013467e-06 6.05530159542495e-05 -7.89384428490039e-05)
(2.48947692700847e-06 3.43456970137979e-05 -0.000117097247175625)
(3.30863617151739e-06 4.17097401859555e-05 -0.000115687382373122)
(3.95244811440705e-06 4.9736967185172e-05 -0.000111430456490551)
(5.03311913445589e-06 5.99337240227176e-05 -0.000106938120900122)
(-2.27456721408042e-06 7.7725497602494e-05 -5.31921989571e-05)
(-1.2674438521675e-06 7.54840023862502e-05 -6.22630728193378e-05)
(2.52128790621825e-06 7.38265381634231e-05 -7.67818633390205e-05)
(8.39944160824279e-06 7.49904375057896e-05 -0.000100163974069774)
(-2.12582979619096e-06 7.84123970454485e-05 -4.50777980388286e-05)
(-3.67963451865219e-06 0.000105013505363341 -3.75433177576651e-05)
(-4.48864981505032e-06 0.000103857295884876 -4.53821885921744e-05)
(-4.28115462831914e-06 0.000100042050402504 -5.32577195041922e-05)
(-1.34195126111796e-06 9.55346549666969e-05 -6.23205090762657e-05)
(1.136739803424e-05 9.10181088324438e-05 -6.91545427439717e-05)
(2.53532500356913e-05 6.79284040576974e-05 -3.65602719403725e-05)
(-3.6517868170361e-07 5.35772361319405e-05 -5.18695731890561e-05)
(-9.64439014479549e-07 6.32011939302291e-05 -4.37785994651123e-05)
(2.85767128113081e-07 4.45533451005607e-05 -6.24358459407516e-05)
(8.83695125397197e-07 3.54801301395143e-05 -7.94621332910533e-05)
(-1.56972759582264e-06 7.62084985829495e-05 -3.63332265850446e-05)
(1.45281168385506e-06 2.71549029892557e-05 -0.000111409988723338)
(-2.4489505343781e-06 0.00010049388836625 -2.9251365570321e-05)
(-7.41866959482797e-06 0.000131066984269489 -4.36369899486789e-05)
(-5.29877382684875e-06 0.000114273849578379 -4.92921722616301e-05)
(-7.28199340131105e-06 0.000143291047167827 -3.69864794125562e-05)
(-5.98159252676965e-06 0.000149808737916212 -3.02867990923586e-05)
(-1.59873370771683e-06 9.07812368937213e-05 -4.90220736103735e-05)
(-3.95825694824064e-06 0.000144659435368017 -2.3211553464151e-05)
(2.95929492225505e-06 1.41049697542109e-06 6.10718605689581e-05)
(9.58001458256989e-06 3.87864442432155e-05 -3.02542154917876e-05)
(5.75579398943493e-06 4.96973901379339e-05 -0.000107460940013216)
(4.84988880120168e-06 4.30072401348397e-05 -0.00012644673850567)
(4.6001355631746e-06 3.68529094844686e-05 -0.000140602914991064)
(4.2780131088928e-06 3.11617646868246e-05 -0.000153895917315159)
(3.44463953741851e-06 2.54921659208355e-05 -0.00016225206641881)
(2.04706171373768e-06 1.98738414320779e-05 -0.000157890861826571)
(-2.25983800141351e-06 1.23518497202779e-06 4.72825138106759e-05)
(-7.24479383637489e-06 -6.1234317483511e-05 4.30646581059054e-05)
(3.05894136979283e-05 -5.81535504287382e-05 1.30493310370782e-05)
(9.98133893947368e-07 -6.04677697168325e-05 -3.52160107211481e-05)
(-4.65037742500953e-06 -4.92450874494593e-05 -1.69175944772243e-05)
(-7.6297289221066e-06 -2.81220189541151e-05 -1.9070772476307e-05)
(-7.50668568152891e-06 -5.46601707611052e-06 -1.95989824664453e-05)
(-6.66012116025939e-06 1.70491331706235e-05 -1.76187102939095e-05)
(-5.86343028429898e-06 3.49164140002754e-05 -1.53300630335611e-05)
(-4.62168308820883e-06 3.99521129883355e-05 -1.18911166264015e-05)
(2.07563366324282e-06 -3.08907736466811e-06 8.57774544629365e-05)
(-5.34045555389169e-06 7.99190457225122e-06 5.55816750168145e-05)
(-5.18819678881262e-06 1.08110619717815e-05 3.23067158571094e-05)
(-3.2574365357356e-06 1.17472213877922e-05 2.15449045005277e-05)
(-1.00900313593419e-06 1.28559334228569e-05 8.44044445635211e-06)
(3.53188499893861e-07 1.22951090500496e-05 -8.47255245153215e-06)
(1.11416106835594e-06 1.05840917362204e-05 -2.51459561143743e-05)
(1.23095616506884e-06 8.45493690375478e-06 -3.24985371733726e-05)
(7.23803764655782e-07 6.056931484674e-06 -6.85520555663671e-05)
(6.47583754058598e-07 1.48259037792419e-05 -0.000146400344962677)
(4.77733202547831e-07 2.10706452230167e-05 -0.000100054644460665)
(3.55249984715971e-07 2.86765913921626e-05 -7.46577876524423e-05)
(2.07387117645643e-07 3.7003529786902e-05 -6.04735836550794e-05)
(-1.30635736280699e-08 4.52764351997626e-05 -5.06713043378668e-05)
(-2.79580484040945e-07 5.34199750479755e-05 -4.27604833401023e-05)
(-5.27093320113306e-07 6.20464802890274e-05 -3.55850067824112e-05)
(-7.40215738489938e-07 7.29400229311714e-05 -2.85082507105625e-05)
(-9.63466526795469e-07 9.19153909280809e-05 -2.17770599160932e-05)
(-1.43348116967841e-06 0.000132659565235804 -1.62317116388055e-05)
(-1.92901443499952e-06 7.37980728233445e-05 -7.5475517827543e-06)
(5.0657914276904e-07 4.84828715772847e-05 -6.94171306496438e-05)
(-4.89443704975979e-07 5.82581372512077e-05 -5.75311646197892e-05)
(3.2311194997114e-07 5.70308275087813e-05 -6.92100871633232e-05)
(-1.39192689504204e-06 6.84854941769715e-05 -5.76256170799725e-05)
(-2.87091942314487e-07 6.64788662273831e-05 -6.80112089765078e-05)
(-1.48647436543388e-06 6.90554773590753e-05 -4.88185022507344e-05)
(2.36020626822146e-06 5.47009029839349e-05 -8.76712709999047e-05)
(2.00146020608178e-06 4.65972144553687e-05 -8.93538316809345e-05)
(1.50778875469922e-06 3.89219871453265e-05 -8.94370200971144e-05)
(3.16989449603065e-06 6.46455516967309e-05 -8.60663767748512e-05)
(2.43154530702311e-06 3.02319436211062e-05 -0.000126698067826262)
(3.43729552322211e-06 3.7024431371902e-05 -0.000126881099957099)
(4.37033805500292e-06 4.45267446970632e-05 -0.000124450466107643)
(5.63518354090373e-06 5.37491010028414e-05 -0.00012241170755717)
(7.89834614229045e-06 6.68074335090483e-05 -0.000120856989201771)
(-3.08338591654694e-06 8.220696943414e-05 -5.70297259862707e-05)
(-3.19918721112214e-06 8.41218058200395e-05 -4.9029941071581e-05)
(-8.14809858043203e-07 7.97912559587646e-05 -6.69506745288587e-05)
(6.74800351238059e-06 7.98177206432968e-05 -8.49338687619924e-05)
(1.83433008207241e-05 7.06307785470015e-05 -8.31076749577716e-05)
(-2.58578059847598e-06 8.43717466628419e-05 -4.09485053930955e-05)
(-4.1252306425184e-06 0.000113336525467692 -3.34535498024322e-05)
(-5.33442853556396e-06 0.000112776208388523 -4.1136693690814e-05)
(-5.92941044806642e-06 0.000109358587724415 -4.88734256799439e-05)
(-4.95924382862501e-06 0.000104548856218077 -5.70030052262861e-05)
(1.76453164328645e-06 9.93314530811378e-05 -6.53587751885451e-05)
(1.56993769779821e-05 7.86346558285302e-05 -5.45976101037144e-05)
(-1.41102303019806e-05 2.45826338514981e-05 4.29523937998425e-05)
(-8.66035933147371e-08 4.87042701296143e-05 -5.59288845985075e-05)
(-6.58375820642543e-07 5.76031218918457e-05 -4.72002884540695e-05)
(-1.20899992953281e-06 6.76169222718029e-05 -3.95856406177765e-05)
(4.59931513202198e-07 3.99490954845472e-05 -6.75326160933722e-05)
(9.1810128368654e-07 3.12992438156673e-05 -8.5860258770183e-05)
(-1.77808070735418e-06 8.17043728646311e-05 -3.22936471218745e-05)
(1.38100274650827e-06 2.36538665762884e-05 -0.000119500697817705)
(-2.62838182945161e-06 0.000107974701189964 -2.55900013878083e-05)
(-9.24314659572986e-06 0.000148354446332126 -3.98581544427411e-05)
(-8.73667706990336e-06 0.000133919143179899 -4.641450846395e-05)
(-4.99177483848216e-06 0.000114698462227218 -5.04027693765055e-05)
(-8.28164528631928e-06 0.00015869345731482 -3.32237862374992e-05)
(-6.49998084291191e-06 0.000163455265797766 -2.69333250196618e-05)
(5.23612167352899e-06 8.58162551923518e-05 -4.18015976220834e-05)
(-4.18771317929937e-06 0.00015636172531057 -2.03155965525462e-05)
(6.76961344088228e-06 6.95251112523134e-06 5.63823569126242e-05)
(6.48617630768095e-06 3.95231782799592e-05 -7.38809568003005e-05)
(5.70926022709446e-06 4.70313031482168e-05 -0.000141649537278796)
(5.20394838042553e-06 3.96734087336731e-05 -0.000152428115103956)
(4.86290191051046e-06 3.32468622156112e-05 -0.000161884103645987)
(4.31550506612184e-06 2.75419997077642e-05 -0.0001713588213496)
(3.24123490671409e-06 2.22477579083221e-05 -0.000176529498871459)
(1.89593462836733e-06 1.72362622433308e-05 -0.0001694766106742)
(-5.79505365775791e-06 -1.71287159735189e-05 5.69666450489408e-05)
(-2.40100712737667e-06 -2.1613850531524e-05 3.46148306335419e-05)
(2.12539561806576e-05 -5.17367683555781e-05 2.25428721043504e-05)
(2.38552263831021e-05 -6.0271778014488e-05 -2.3859701027012e-05)
(1.05851604009074e-06 -4.95222045124321e-05 -1.80898761113933e-05)
(-7.6013337694111e-06 -3.06334966411243e-05 -1.93534487997121e-05)
(-9.34142369925655e-06 -8.76339915121296e-06 -2.03046450661231e-05)
(-8.67133814906644e-06 1.38356771414531e-05 -1.89457257959689e-05)
(-7.66047957871263e-06 3.50558267551845e-05 -1.65422923188892e-05)
(-6.36921007234355e-06 5.07236650174557e-05 -1.40660415689247e-05)
(-4.82977290196722e-06 5.32676580415922e-05 -1.05362040826818e-05)
(2.06231842549421e-07 -1.76067095066747e-06 8.63778299642391e-05)
(-6.76058394029415e-06 8.36010090987549e-06 4.1225646748938e-05)
(-5.09051591419778e-06 1.24842488133391e-05 1.24513841892779e-05)
(-2.80023601606062e-06 1.29617594773411e-05 3.01045825618578e-06)
(-7.55155915741571e-07 1.27909722673501e-05 -8.24806021000677e-06)
(5.76610311366678e-07 1.12118079239519e-05 -2.34410983366476e-05)
(1.1835189571783e-06 9.55266959264704e-06 -3.80198423650712e-05)
(1.1920880473174e-06 7.40627875077594e-06 -4.30491714706382e-05)
(6.12346154611341e-07 5.18458797451691e-06 -7.72337121929168e-05)
(5.84079893751012e-07 1.27281290987673e-05 -0.000155050616798946)
(4.43599263086281e-07 1.81380174173471e-05 -0.000106530855767977)
(3.41279657143816e-07 2.49778881938773e-05 -8.00831174400201e-05)
(2.30128629764819e-07 3.26770946261086e-05 -6.49141988919921e-05)
(8.13642356306961e-08 4.05839266463009e-05 -5.420209287782e-05)
(-1.35332566483464e-07 4.85178719707022e-05 -4.56611449788779e-05)
(-3.64248611131628e-07 5.67106757020579e-05 -3.82464199645802e-05)
(-5.8259508092669e-07 6.58736814544171e-05 -3.13189463276306e-05)
(-7.75849446909923e-07 7.77504493781189e-05 -2.45873163680373e-05)
(-1.00357411076292e-06 9.81874102557824e-05 -1.84469741900925e-05)
(-1.48133506225236e-06 0.00014184882421047 -1.37282284282561e-05)
(-1.97922628787214e-06 8.52968145420845e-05 -6.39473072463003e-06)
(7.67685087434006e-07 5.16370363605816e-05 -7.48899073489073e-05)
(-1.26200748382543e-07 5.2757015538025e-05 -6.1585729990051e-05)
(7.37674946046175e-07 4.3438092790188e-05 -7.45993648817322e-05)