/*--------------------------------*- C++ -*----------------------------------*\
  =========                 |
  \\      /  F ield         | OpenFOAM: The Open Source CFD Toolbox
   \\    /   O peration     | Website:  https://openfoam.org
    \\  /    A nd           | Version:  12
     \\/     M anipulation  |
\*---------------------------------------------------------------------------*/
/*   Windows 32 and 64 bit porting by blueCAPE: http://www.bluecape.com.pt   *\
|  Based on Windows porting (2.0.x v4) by Symscape: http://www.symscape.com   |
\*---------------------------------------------------------------------------*/
FoamFile
{
    format      ascii;
    class       volScalarField;
    location    "100";
    object      nut;
}
// * * * * * * * * * * * * * * * * * * * * * * * * * * * * * * * * * * * * * //

dimensions      [0 2 -1 0 0 0 0];

internalField   nonuniform List<scalar> 
10228
(
5.1861618915426e-06
5.43762466934224e-06
0.000141958369519599
1.45248635359832e-05
1.57905178690575e-05
5.96325232633607e-06
0.000140996938507022
0.000320463704897902
0.000237732227620434
3.08001298872497e-05
0.000238874125333381
1.68708564548219e-05
3.25109936469208e-05
5.45846807899779e-06
0.000139589716779689
0.000312169781989578
0.000487030224142913
0.000553107671105318
0.000341091867339118
4.91947000220615e-05
0.000344581709614149
0.000549283096127487
0.000240104240923027
1.666912244132e-05
3.44042978002383e-05
5.27619002878289e-05
5.53928742984872e-06
0.000133335815718576
0.000300384291076624
0.000468598389076317
0.00060880151038291
0.000784497331512893
0.000778036322881322
0.000440581912088746
7.14770991116459e-05
0.000779398674750981
0.000348373308255403
0.000447759986079892
0.000546206608785103
0.00077810498837505
0.000236037803864174
1.59123484463763e-05
3.47600115829083e-05
5.57121557290455e-05
7.43319886893885e-05
4.42807358291913e-06
0.000126125491737163
0.000288473046530889
0.000424231496217526
0.000596040815942503
0.000714023471710512
0.000967167808240339
0.00114367818026641
0.000990681238487123
0.000530073578061383
6.87952393349066e-05
0.000778127616577656
0.00114167822061048
0.000995119418272351
0.000453898813660075
0.000345252292741029
0.000537266802341039
0.00053616006747326
0.00077502192100715
0.00095703937678243
0.00022309245501873
1.30885452127949e-05
3.26991398457618e-05
5.62587600945964e-05
7.71247549105365e-05
7.03574918239624e-05
3.2015646759576e-06
0.000107454345298585
0.000271416796572685
0.000398850310337979
0.000564767579997429
0.000702911537496035
0.00080941562902446
0.001116629623822
0.00142841503342163
0.00148879594360864
0.0011756649626272
0.0005757861291504
7.4675913544202e-05
0.00113344271481935
0.000994641616167578
0.000764926877942834
0.00148862635733152
0.00142171120392084
0.00118127377401176
0.000543217127911128
0.00045053570254697
0.000328504369391547
0.000583309497026455
0.000508700785153983
0.000753250081387073
0.000935930006937095
0.00110525765633008
0.000191079048759456
9.80292744353114e-06
2.75499573499692e-05
5.3350504162603e-05
6.42827356362383e-05
7.18035593398083e-05
7.59296959839239e-05
1.10303798568769e-06
6.89470976384656e-05
0.000243696269477497
0.000362817269840932
0.000507932482022226
0.000678508097267237
0.000795769073647305
0.000887588801219884
0.00124173743972156
0.00165214354806976
0.0018910215958425
0.00179397578709007
0.00131948481796965
0.000622850163983044
7.9676625276647e-05
0.00140177082339513
0.00110624758263376
0.00147766705633943
0.00118136972360726
0.00097870365451785
0.000726996143572073
0.001885770134632
0.00179480567314779
0.00164220829397934
0.00132645319877384
0.000590512989594703
0.000529242080933883
0.000433104737286221
0.000288471049286014
0.000630603794914329
0.000449077826226877
0.000710028948727777
0.000895151247075942
0.00108101099410313
0.00122827290595528
0.000119763817180014
3.34282689905394e-06
2.28880668378234e-05
4.66545514620046e-05
7.47131144802911e-05
7.18236626323582e-05
7.734675973555e-05
8.10585478705936e-05
1.93114867854449e-07
1.32258948367435e-05
0.000170223189356893
0.000325389703376431
0.000436807289508201
0.000636696202527349
0.000768941749117942
0.000871287923139132
0.000949310929344159
0.00134404500876918
0.00183066196746254
0.00220755077269595
0.00231424893839003
0.00205122259349032
0.0014417865222535
0.000664845915006917
8.42529576653144e-05
0.00186377467112229
0.00161548670553924
0.0013587328647383
0.00144451118225841
0.00104682003149984
0.00178353924378035
0.00132900721417817
0.00116381900567137
0.000935127028930386
0.000643943744605495
0.00230944440706715
0.00219824549301789
0.00205321794736344
0.00181844914260187
0.00145012857351443
0.000588997133865766
0.000638835104833876
0.000524924843947998
0.000390799275832728
0.000207524226820755
0.000673433114964543
0.00030885555038481
0.000633465174167099
0.000849368561068103
0.00103494670561791
0.00120048257284599
0.00132863702799875
2.4934519856434e-05
3.59683617449243e-07
7.17535517773713e-06
4.1739381090214e-05
6.80652291668412e-05
7.11375568171338e-05
7.77677673921063e-05
8.25892350172519e-05
8.56875428857598e-05
4.15794009524536e-07
5.72213983803519e-05
0.000247164708644421
0.000378543862893554
0.000546731707306513
0.000718186649286279
0.000840054379612511
0.00093276850025714
0.00100112220175075
0.00142649415762688
0.00197378184205507
0.00245737295529617
0.00273204814374548
0.00268337989517608
0.00226886804060889
0.00154720256476891
0.000701820776010848
8.81684185873965e-05
0.00228607482115064
0.00216765103583768
0.00181341011610984
0.00178685497185356
0.00156090241464694
0.00128300181095385
0.00174890674041161
0.00137314925264701
0.000929580664742488
0.00204370483359867
0.00145517073504192
0.00131683131788204
0.00112436599686688
0.000842685342300369
0.000469140505420419
0.00267901226567724
0.00272242964802331
0.00244523662364579
0.00227229002896684
0.00196003967169083
0.00155698411050866
0.00057890103441988
0.000640210839379341
0.000682818982277424
0.000489101276471815
0.000316393599440325
0.00071115479033408
0.000106961503217511
0.000467743812628193
0.000756969245903721
0.000957349720782714
0.00114687342034952
0.00129764763296535
0.0014100659696937
1.2995648870503e-06
4.65247793592903e-07
1.91383071235628e-05
6.28932091337967e-05
6.89869309025044e-05
7.69144912531335e-05
8.31819085771552e-05
8.73329157308922e-05
8.97178034750373e-05
2.7534641009711e-06
0.000100555221465604
0.000299759526348908
0.000453965643213668
0.000611609247460584
0.00078065101438988
0.000899861942084789
0.000983285657703562
0.0010415084401886
0.00149318477897257
0.00208873054704789
0.00265598043929431
0.00306405886532684
0.00320139809235868
0.0030000875092836
0.00245415369043943
0.00163810271007686
0.000733817660853107
9.15341378882065e-05
0.00268879616016818
0.00223239502566384
0.00265609103770039
0.00210304724179389
0.00240834277809597
0.00171800587905741
0.00192522599801774
0.00172346991271294
0.00146475525135876
0.00114083146702112
0.00201250855080984
0.00167767361630037
0.00123768415858832
0.00070130799023415
0.00226541889295308
0.00156442585137015
0.00144730438183422
0.00128295041003104
0.00104099281896395
0.000660303947241265
0.000201021104136964
0.00319135192244191
0.00299658666828356
0.00305099061875171
0.00264203875408617
0.00245916018911798
0.0020741081332435
0.00164924527056042
0.000631205257126355
0.00055462938093649
0.000685730276206049
0.000721706822303636
0.000432841191368304
0.000743905079885859
7.63536933729593e-06
0.000190972587378556
0.000580346516013632
0.000866542032997313
0.00105335984500563
0.00123772110157854
0.00137689757660607
0.00147562234911417
2.15241200669854e-06
5.87498154261382e-07
1.20493637114227e-05
5.14530521728151e-05
6.61445176998975e-05
7.50310304551745e-05
8.23514321944373e-05
8.80517467551045e-05
9.14996183834737e-05
9.31791974808911e-05
4.81412452690719e-06
0.000144143245954486
0.000346257823466655
0.00050323092655795
0.000690609698901325
0.000837071340679802
0.000946131639102432
0.0010214399986494
0.00107324609453978
0.00154609806907056
0.0021813265344035
0.00281483638448916
0.00332847370274871
0.00361820187144797
0.00361060560787117
0.00327062812186332
0.00261233396496257
0.0017162345944163
0.000761287903867218
9.43845412854215e-05
0.00300962419531855
0.00315665184962043
0.00261860157476256
0.00260439032940158
0.00213339942210494
0.00297556124190736
0.00198663508267905
0.00233286477969079
0.00260089738456975
0.00154860402714952
0.002036921492859
0.00185520244253147
0.00161228138144052
0.00130606865218876
0.000875541217830304
0.00194962268044762
0.00223926204234443
0.00155140609551999
0.000998892096910076
0.000320566511878401
0.00245516408356355
0.00165888385124248
0.00156007523654424
0.00142000823792197
0.00122035381107286
0.000893254896093375
0.000413375127368126
1.24852401577817e-05
0.00360407211008483
0.00360071246965276
0.00326841270178605
0.00331321821557534
0.00279972593894404
0.00261887937671259
0.00216570693187692
0.00172857823964425
0.000678237460932713
0.000612374559624619
0.000520806597084677
0.000725899065684908
0.000755540963145901
0.000383027166638512
0.00077201855105543
1.34000248110844e-05
0.000268008614874553
0.000668711533574871
0.00094845587461392
0.00113894634966234
0.00131211532940592
0.00143960174487185
0.00152718430010838
2.44904571383606e-06
1.17330175515928e-06
1.0949248054138e-05
4.19766805139184e-05
7.10081998938552e-05
7.28667270188491e-05
8.05067623864967e-05
8.72924558460863e-05
9.23395879906439e-05
9.50865801117812e-05
9.61174584793261e-05
8.13822794053489e-06
0.00017806700395105
0.000392747186582464
0.000578643134555704
0.000725429832565469
0.000868345853988629
0.000979322669869718
0.00105122524863935
0.00109739914102138
0.0015877786488575
0.00225537298278478
0.00294240114121381
0.003540203450732
0.00395265507095625
0.00410854925076687
0.00396323471220905
0.00350148842504906
0.00274737003918713
0.00178306415044618
0.000784663197999181
9.67949009853042e-05
0.00292648771178981
0.0035604117492758
0.003266487329815
0.00356687154156128
0.00308679052318523
0.00249596767958147
0.00292869817889156
0.00251331106218618
0.00197006710707899
0.00325001521684461
0.00178992158223845
0.00219974622527668
0.00251734262811724
0.00275560340183933
0.00125744721408465
0.00212638363574377
0.00196170884669152
0.00173314262112827
0.00143566755681162
0.00101089628071382
0.000428001794810894
0.00184706329220856
0.00218666907451846
0.0024339352382891
0.00135449773828767
0.000613685653028002
1.9469289584819e-05
0.00261757968014246
0.00174012469639548
0.00165742940206516
0.00153795630646531
0.00137259124274489
0.00113081804090598
0.000719269431200434
0.000173806394131142
1.15061662969112e-05
0.00393595274925944
0.00409408678450626
0.00395415081729739
0.00350066608897693
0.00352352105867217
0.00292634090740408
0.00275526133620391
0.00223880233397725
0.00179641241371909
0.000662008858930468
0.0007196732187903
0.000587745517491278
0.000493653464700703
0.000760852567114662
0.000784604860324511
0.000322377948913603
0.000795935525247662
2.19570158252045e-05
0.000328343486197484
0.000740783620839335
0.00100211575421063
0.00120189336697067
0.00136787338965529
0.00148853335775144
0.00156763574807744
7.36316425104681e-06
1.42202223489938e-06
1.04403751826616e-05
3.49561618123662e-05
8.60490500377854e-05
6.28695334837287e-05
7.03650625678653e-05
7.8336652598691e-05
8.54935819597871e-05
9.1660903136809e-05
9.60379297736893e-05
9.81358549747412e-05
9.85975226726935e-05
1.11378156075362e-05
0.000212795320250922
0.000434227661788832
0.00061581406036299
0.000762257404291523
0.000901448418701946
0.00100187353793285
0.00107272286347724
0.00111494848185824
0.00162037770483897
0.00231430711299204
0.00304486313651218
0.00371054980098521
0.00422187222816947
0.00451197122647768
0.00453531409196506
0.0042654704930539
0.00369825584369569
0.00286236471813401
0.00183987388978613
0.000804426861132147
9.88182862456731e-05
0.0031736613547111
0.00278478891452905
0.00347612933766454
0.00388602934368522
0.004050479401013
0.00347303284318108
0.0039224232093285
0.00350114696984646
0.00297088726617697
0.00230071536364504
0.00320858957402641
0.00284929687585896
0.00237417904424167
0.00172144540009654
0.00348497577424409
0.00145879552576977
0.00198050814812305
0.002371205159122
0.00266595841419556
0.00287995129136427
0.000791172381282062
0.0021977416602926
0.00204656719351767
0.00183035522264038
0.00153713852949483
0.00111980277400039
0.000512919844649571
3.11114893840287e-05
0.00170424218959837
0.00210571857362159
0.00238989839845054
0.00260052352471343
0.00109080988172423
0.000268517591375666
1.69160702267915e-05
0.00275627523434299
0.00180955409831355
0.00174102003739528
0.00163903182962701
0.00149914086819614
0.00130976253686374
0.00102855010436293
0.000544810971788355
0.00018441093591105
1.90502719244633e-05
0.0044946787281805
0.00420350025349601
0.00452139413084478
0.00425752036172717
0.00369869565536431
0.00369280491848097
0.00302799384171782
0.0028713628763534
0.00229694113689145
0.00185404400424909
0.000641044015021089
0.000704928027567257
0.000755645587666773
0.000561978983892213
0.000451967553738502
0.0007908655802758
0.000809322547567602
0.000269197151076918
0.000816137074615413
3.03450641767936e-05
0.000380982343720973
0.000800269799895454
0.00105637776112261
0.00125462252960946
0.00141399340407275
0.00152615090906034
0.00159937139128622
8.14729119846552e-06
1.40637782493252e-06
9.76147899021404e-06
2.92453626370915e-05
9.81554566451145e-05
5.65589370269346e-05
6.74725852147528e-05
7.60256888966779e-05
8.33183199044833e-05
8.99106373213798e-05
9.54323011865365e-05
9.91841770624301e-05
0.000100707962463193
0.000100677600438643
1.52356829784989e-05
0.000239803866992954
0.00046192617877014
0.000656335244944013
0.000782748819312447
0.000921050359469513
0.00102945934220802
0.00108968910767745
0.00112482230324603
0.00164546142524306
0.00236115067013396
0.00312709824982555
0.00384794372908184
0.00443944081835787
0.0048390094287689
0.00500331224274061
0.00490347342630544
0.0045236298560664
0.00386553896205304
0.00295986185261598
0.00188784962190392
0.000821019667956421
0.000100504716576719
0.00301698633167655
0.00337292416801666
0.00379087772861067
0.00256362532448331
0.00333984272594237
0.0039696375126694
0.00414917433001727
0.0044442780257293
0.00447951596738859
0.00363954222062343
0.00422831224448513
0.00386214492529832
0.00339724037743744
0.00279956867352188
0.0020093120840973
0.00313978239401577
0.00344840998102011
0.00273491093696768
0.00218426982135279
0.0013898830264268
0.00368539578128271
0.00161986877061311
0.000934091543609043
0.00213320663105537
0.00250959993465119
0.00278554991766454
0.00297986275630786
0.000363703891007036
0.00225445576315382
0.00211472387061542
0.00190901273488937
0.00162184729093449
0.00120796778911033
0.000585948573028524
4.21197101433445e-05
2.59865100609823e-05
0.00200019331316708
0.0015323231978066
0.00232334994831979
0.00256274490472777
0.00274253362431337
0.000823073695052334
0.000290681079313069
3.04456254396463e-05
0.00287426432354746
0.00186849516683456
0.00181232606324611
0.00172530506354996
0.0016052022810903
0.00144863655952631
0.00123876099261941
0.000923447590217039
0.000517812394701752
0.000205939911070206
1.95931624687019e-05
0.00481990896304367
0.00498647431216663
0.00441984416505797
0.00489055629495593
0.00451678175913169
0.00386701226849312
0.00382933825477452
0.00310956614479274
0.00296974325451295
0.00234326065501134
0.00190268441248776
0.000618195598279701
0.000685676661653217
0.000741866413358452
0.000786457161928341
0.000534313173580108
0.000416225392461231
0.000816369106288472
0.000830182297290965
0.000254257741258293
0.000833084389429008
4.0306412997415e-05
0.000423998815420126
0.000847550045461108
0.00110584885461882
0.00129386093514216
0.00144819042175494
0.00155826313031492
0.00162408429749334
7.66003838622758e-06
1.17999676325147e-06
8.3208735942305e-06
2.55626600889044e-05
0.000101484742065288
5.05984459213588e-05
7.71533187540893e-05
7.37634122951392e-05
8.102565106301e-05
8.77541411868905e-05
9.3724716409003e-05
9.86389244979799e-05
0.000101837612148218
0.000102863315994472
0.000102409770307939
1.8771160057822e-05
0.000259444586795776
0.000487875913950522
0.00068187407214045
0.000796248832403918
0.000930135228838612
0.00104738046992658
0.00110064581877554
0.00112737964365325
0.00166315209857611
0.00239820417627269
0.00319309905184305
0.003958850793462
0.00461571571518352
0.00510478486761183
0.00538553746101549
0.00543004435600261
0.00521925458242067
0.00474332152768271
0.00400716295024016
0.00304204425172751
0.0019280776422773
0.000834845344530901
0.000101897918512839
0.00277505113556095
0.00363844101798403
0.0032045138028774
0.00353383596275617
0.00404582515034074
0.00435202334204163
0.00223899450715858
0.00314182489449982
0.00384524408053978
0.0044040301093403
0.00436225407269327
0.00476474965822656
0.00493762690145073
0.00485108850885494
0.00377394966694864
0.00448990543746751
0.00417321400264701
0.00376992009395203
0.00325258218797977
0.00256950346136701
0.00162713503260584
0.00338772752148001
0.00304380434134553
0.00365273532656049
0.00258859990548145
0.00195580497676027
0.00105901941161172
0.00385565180370155
0.00174967451317191
0.00105377652853198
0.00044228064639479
0.00225680357461878
0.00262130516782374
0.00288182161592857
0.00306011363104565
0.000383384390315752
0.00216860794110801
0.00230010948320694
0.00197129881742463
0.00169166123840037
0.00127485753581061
0.00064437610275184
5.49052797741566e-05
3.43057142003942e-05
4.48807896982716e-05
0.002238732996237
0.00187893153994121
0.00136275478429909
0.0025051825161019
0.0027091860087042
0.00286307898951644
0.000774284108655753
0.000307218238803446
3.30538250886622e-05
0.00297415178606315
0.00191820320240995
0.00187275887098619
0.00179856500397659
0.00169454972594242
0.00156087069431969
0.00139144188222832
0.00116696849798709
0.000863906193019165
0.000523584101248179
0.000209430144972163
1.81661991655823e-05
0.00508436175487857
0.00536689202679887
0.00541423042532458
0.00459513166771793
0.00520736602937923
0.00473737348358081
0.00400943893126093
0.00393953829297422
0.00317506587379492
0.00305262505309013
0.00237995615153355
0.00194344972282821
0.000664389766160224
0.000594480013572369
0.000723559849189754
0.000773344652830685
0.00081258044641573
0.000519444708918473
0.00039036660786285
0.000837870557771693
0.000847667164518121
0.000242958636328233
0.000847197697279681
4.94442416003558e-05
0.000454587368844285
0.000885711340697196
0.00114215128287439
0.00132173426342626
0.00147298775563494
0.00158267876467075
0.00164178840615718
6.43924300368093e-06
8.54790233181521e-07
2.14216675082763e-05
6.34174946917746e-06
9.4874417767775e-05
4.44011282178764e-05
7.0482429040611e-05
7.15101404374315e-05
7.86641636092207e-05
8.54734984198242e-05
9.15934533842779e-05
9.69644235856394e-05
0.000101340531208173
0.000104060152746915
0.000104656994419927
0.000103839355631479
2.20292258037793e-05
0.000273587269844422
0.000506142923349251
0.000678373475375705
0.000785095073620817
0.000939039972218133
0.00105530024178753
0.00110378037773292
0.00112562620956243
0.00167386644168036
0.00242676484726594
0.00324601784474754
0.00404839142347216
0.00475864738467281
0.00532112445649206
0.0056979794302215
0.00586316696034222
0.00579783789253698
0.00548868790317616
0.00492937612306184
0.00412639274023242
0.00311084631776863
0.00196154838258395
0.00084626536181179
0.000103036672432182
0.00242407378980101
0.00294589972099684
0.00341882608601304
0.00421124130104911
0.00388065361389161
0.00335615845057306
0.003663883686124
0.00425257554810361
0.00466387262059542
0.00485069129811158
0.00181898382200634
0.00287916838735902
0.00367483988032166
0.00429191627335249
0.00478100313868627
0.00502565844945789
0.00453500478259754
0.00531322164823434
0.0053678395389063
0.00517023126076565
0.00388250280887294
0.00471239148952666
0.00443906476205374
0.00409031988282359
0.00364616770710436
0.00307027522718858
0.00229580264403769
0.0012476851225367
0.00359788063175568
0.00330397523856932
0.00292466824315725
0.00382596134799475
0.00242114622197298
0.00173312549821645
0.000982805463081451
0.00399958887064346
0.00185267352658402
0.00115126500583988
0.000515590543446013
0.000459276204332583
0.00235674315405493
0.00271109302545566
0.00295918575841317
0.00312467543992774
0.00039216660880007
0.00221109399400507
0.00201979227119527
0.00233625320047411
0.00174649761183347
0.001329688950531
0.000669348565352268
6.61192885206958e-05
4.40071038692395e-05
5.92163792532061e-05
4.75095413117744e-05
0.00243206411091948
0.00214228270414379
0.00175770763504162
0.00127032844919484
0.00265724335079882
0.00283284918219519
0.00296492124964978
0.000759286185796724
0.000302211455208796
3.03508325375463e-05
0.00305823435023111
0.00192365707733686
0.00195984088622707
0.00186044087852614
0.00176979685808285
0.00165358350681295
0.00151003413999505
0.00133173472039859
0.0011086188102949
0.000824661845547505
0.000511527275003632
0.000196561871734365
1.53944436910473e-05
0.00567802365786262
0.00529962236446201
0.00584563626940802
0.00578310862577006
0.00473724098897747
0.00547763446600301
0.00492409940597776
0.00412927949286951
0.00402850716419674
0.00322759263995248
0.00312198163110921
0.00240827242691783
0.00197735542820776
0.000703089840082964
0.000641771198124126
0.000571637854652054
0.000755625367525935
0.000799942341874964
0.000834564898601163
0.000491904116063916
0.000365693857553533
0.000855879266022655
0.000862222814099109
0.000224983364589229
0.00085885399077605
5.7327530511718e-05
0.000467823215494344
0.000915144465057384
0.00116127666964462
0.00133526445671956
0.00149240145264089
0.00159938046196871
0.00165257576411439
4.88212196845969e-06
5.46459920462124e-07
3.75952754325918e-05
1.67371524093798e-05
4.25716861845546e-06
8.21428018950102e-05
6.31048202270441e-05
6.87072665579556e-05
7.61566012197908e-05
8.30708323770043e-05
8.9330280286689e-05
9.48568992303238e-05
9.96907847000377e-05
0.000103602054903645
0.000105908851746453
0.000106136844770126
0.000105005407807736
2.436908648031e-05
0.000283348589868423
0.000512953998861502
0.000673956891264991
0.000763450676665728
0.000948481955198103
0.00106131944446182
0.00110567214612491
0.00112321399943995
0.00167994443479111
0.00244793081327031
0.00328815290639286
0.0041206386931806
0.00487448789740306
0.00549722239679158
0.00595348291847218
0.00621921517558671
0.00627679871358738
0.00611272896011358
0.00571723484239157
0.00508600453600128
0.00422609667938118
0.00316800588439461
0.00198915888021646
0.000855605541327534
0.000103952686206589
0.00257319036800264
0.00312981303365889
0.00197407932057577
0.00308407306549716
0.00364360357263771
0.00401964769273714
0.00451007615745943
0.00472254546846273
0.00407727055533088
0.00347875385426325
0.00376900344049986
0.00442033662185218
0.00491808837799999
0.00521765381546732
0.00528654167954021
0.00140362012650551
0.00256960643136511
0.00346218309391031
0.00414397420511422
0.00467903522202291
0.0051046939793408
0.00562076763618614
0.00523812884308305
0.00467509834894468
0.00579454348690634
0.00573917846371192
0.00544240341033748
0.00397019422486894
0.00490055425009774
0.00466477578804229
0.00436298901258815
0.00398103459927547
0.00349505581496869
0.00286318606803104
0.00203057989247439
0.00114793260900587
0.00377516097971813
0.00352195879518463
0.00320074470664203
0.00278967979834023
0.00397210028542689
0.002254759858148
0.00160569968115397
0.000948401524528549
0.00412059321443781
0.00193592700843595
0.00122392107478401
0.000577348702574924
0.000524411339110981
0.00046264118934896
0.00243687703949256
0.00278306510246806
0.00302133603699232
0.00317646821407703
0.000378431439953066
0.00224473597332688
0.00205637516531994
0.00178775126039731
0.00236397402908354
0.00137311972208045
0.000697429937864854
6.13288385636582e-05
5.21392462840789e-05
7.40241526304417e-05
6.22301872254212e-05
4.31308428438108e-05
0.00259059307567609
0.00234783673253646
0.00204167795595039
0.0016586694869007
0.00120801022603438
0.00278446477848056
0.00293689920350923
0.00305050927514894
0.000732981850742179
0.000281568853494146
2.56378161982537e-05
0.00312855564852344
0.00196625460265565
0.00191242690446216
0.00199446424325127
0.00183300695513309
0.0017307872289526
0.00160589538590534
0.00145501505747315
0.00127336991774263
0.00105338642253522
0.000783974648672967
0.000481847968337315
0.000173197839064784
1.20882304106634e-05
0.00593244310918609
0.00620046410792819
0.0054748048915059
0.00626046865243681
0.00609888081096978
0.00485239722434101
0.0057067775675355
0.00508120486984255
0.00422944669317567
0.00410028900711924
0.00326940815497707
0.00317958223851783
0.0024292755478666
0.00200531610234557
0.00068095700559626
0.000735642626015002
0.000617939691007344
0.000547318360153176
0.000782615229955714
0.000822272030521921
0.000852957381382195
0.000462503117947288
0.000336540911753129
0.000870865736820705
0.000874244857135293
0.000199881502540912
0.000868377058235938
5.19986495999184e-05
0.000483168785643436
0.000934559284376572
0.00117369085657036
0.00134062350373553
0.0015073631570471
0.00161060413588776
0.001659544609804
3.35556865098932e-06
3.12124926225644e-07
5.42840867619606e-05
3.01469633083646e-05
1.20054656793066e-05
2.5730899387958e-06
6.50692800638055e-05
7.84079322401446e-05
7.33738001873854e-05
8.04770785610553e-05
8.69154040131883e-05
9.26073037228139e-05
9.76013363345846e-05
0.000101971397026393
0.000105483032862799
0.000107433351824782
0.000107343045699092
0.000105949767562102
2.60582752527505e-05
0.000291758477971202
0.000518506269983066
0.000680640169815485
0.000750405407606043
0.000951168954774574
0.00106527009820358
0.00110706691235827
0.00112096584957469
0.00168392401250903
0.00246348718720018
0.00332131272955923
0.0041787660160262
0.00496822902669269
0.00564035205296177
0.00616220317588099
0.00651167404839967
0.00667258468762478
0.00663222214316915
0.00638047860187681
0.00590981077692502
0.00521694648366731
0.00430883882896711
0.00321508832499132
0.0020116966189537
0.000863106899561784
0.000104704328404624
0.0026937210919089
0.00333308435032322
0.00209796992957233
0.00378183584525995
0.00279125691590449
0.00153017669707319
0.00382609113384283
0.00319568752215174
0.00430120465052173
0.00455434236787978
0.0047538714405055
0.00507669591804788
0.00516912271364676
0.00423687979339699
0.00357783968643912
0.00385395702195838
0.00455645020605325
0.00512523282419336
0.00551848245260983
0.00570483778039771
0.00566273735959044
0.00128118079777551
0.00227058622721197
0.00322208622800738
0.00396496503580819
0.00454705790847239
0.00501027947268126
0.00538032167418089
0.0058723405038453
0.00614590419227493
0.00541105527763597
0.0047886410924196
0.00621202486226804
0.00605697394022192
0.00567296012200399
0.00404095594513574
0.00505871861824767
0.0048552700508244
0.00459343414568655
0.00426318004993875
0.00384891390062101
0.00332509439461806
0.00265821562912375
0.00187255969595931
0.00109776908687531
0.00370417843076788
0.00392408431130451
0.00342786348001383
0.00308256345733461
0.00264934304247488
0.00409473351607196
0.00211799212103716
0.00151699622624534
0.000905568499852178
0.00422166498924202
0.00128435081510345
0.0020025495108233
0.000627253411164403
0.000573135909664249
0.000521509195222369
0.000442486707629445
0.00250081213833114
0.00284059138787761
0.00307119930251666
0.0032176293975972
0.000350610831071697
0.00227082507765284
0.00208422433269726
0.00181955007969851
0.00140684039353356
0.00238464439026928
0.000722865581606436
6.42107364930806e-05
5.9519541334592e-05
8.3982001379632e-05
7.6697136223255e-05
5.62460256425258e-05
3.62937711063833e-05
0.00251247599804947
0.00272150326867484
0.00225611263042479
0.00194371508112588
0.00157109342933289
0.00114566806528423
0.00289081494103957
0.00302407859978269
0.00312201018666804
0.000688555357755172
0.000250825923420662
2.03802019458248e-05
0.00318694026200073
0.00200166219350588
0.001955866943421
0.00188592131058475
0.00202301667032205
0.00179519831338202
0.00168478831634525
0.0015529249208196
0.00139687000273999
0.00121418254736266
0.000995689497615284
0.000732123039274777
0.000437429124173922
0.000144756981644135
8.77011882764406e-06
0.00614022422553204
0.00649190070420671
0.00665514815960992
0.00561715838179202
0.00661687405281517
0.00636724702441098
0.00494557139516445
0.00589974490317851
0.00521247787549481
0.00431254155642891
0.00415803057512566
0.0033023081129417
0.00322701575105741
0.00244487628458528
0.0020281360645091
0.000657040324196579
0.000713839070815624
0.000762951828332068
0.000592661041364449
0.000532311414788104
0.000805221011452422
0.000840923558724451
0.000868256995541303
0.000426723545640911
0.000301091860772468
0.000883241997468087
0.00088405954196211
0.000167009336791819
0.000875946304385006
5.39491697950444e-05
0.00049612007923415
0.000949336132140068
0.00118631991770734
0.00134506930137484
0.00151674171129776
0.00161821880418193
0.00166449454888103
2.04891897343103e-06
1.58636579100595e-07
6.96446303221609e-05
4.45592010521871e-05
2.25967050151533e-05
7.69183845563172e-06
1.33401106412622e-06
4.54134551917639e-05
7.07826723931832e-05
7.75989998802259e-05
8.4266911075126e-05
9.01884253259152e-05
9.53625050277628e-05
9.98955883195846e-05
0.000103867742376112
0.000107033786456643
0.000108676063688327
0.000108326295187987
0.00010672416715098
2.77989943829847e-05
0.000299884289349673
0.000527743288804458
0.000684767643256984
0.000742544528504843
0.000952348355032624
0.0010680842570132
0.00110842313889006
0.00111956123599642
0.00168682048343309
0.00247520792869922
0.00334722439414786
0.00422526742273608
0.00504385483469184
0.00575636735017912
0.00633227204796322
0.00675139584430619
0.00699904202286137
0.00706351261239602
0.00693526112284947
0.00660645999982954
0.00607087615393266
0.00532556380181745
0.00437693140339126
0.00325349595740558
0.00202985874225756
0.000868969318006868
0.00219835666704531
0.00349803900180707
0.00279088950460253
0.00404266039500541
0.00297067835497969
0.00163096147848239
0.00435164035813467
0.00351432199267688
0.0024642715931717
0.00138462007118356
0.00397418690954526
0.00453091613786298
0.00328577171371088
0.00489177798892036
0.00501786212962149
0.00536720646356126