/*--------------------------------*- C++ -*----------------------------------*\
  =========                 |
  \\      /  F ield         | OpenFOAM: The Open Source CFD Toolbox
   \\    /   O peration     | Website:  https://openfoam.org
    \\  /    A nd           | Version:  12
     \\/     M anipulation  |
\*---------------------------------------------------------------------------*/
/*   Windows 32 and 64 bit porting by blueCAPE: http://www.bluecape.com.pt   *\
|  Based on Windows porting (2.0.x v4) by Symscape: http://www.symscape.com   |
\*---------------------------------------------------------------------------*/
FoamFile
{
    format      ascii;
    class       volScalarField;
    location    "100";
    object      omega;
}
// * * * * * * * * * * * * * * * * * * * * * * * * * * * * * * * * * * * * * //

dimensions      [0 0 -1 0 0 0 0];

internalField   nonuniform List<scalar> 
10228
(
2.45525839003592
2.46742674694984
0.599638945322371
2.47469008983647
2.44248103211299
2.43076094342831
0.607261099740108
0.57005344906419
0.784211797627309
2.45215098310825
0.781841039346505
2.4044775775588
2.42539279675091
2.48290374824828
0.595785546224264
0.578329545531726
0.717001400233681
0.61582100847063
0.858251547722871
2.50624199840298
0.849713150207205
0.61514453760635
0.766765740364433
2.3786467035682
2.36519228612206
2.41877600948943
2.42153938426567
0.580391118440004
0.558197419599683
0.722543366134179
0.777754662290334
0.62502575189223
0.620103617730073
0.908658407086455
2.47352033303656
0.615769415407179
0.830690812211259
0.893517600541109
0.601600657203199
0.623173371406213
0.746887273567304
2.35771550848452
2.31066630402846
2.33138962150574
2.40498329726222
2.47110449589514
0.556115376090936
0.530627606975109
0.624553755750571
0.782639724064532
0.814612656377602
0.648626257862391
0.571596387084741
0.63186267693948
0.954423896048822
3.01331150696253
0.60494477426268
0.568856378086985
0.626536247450342
0.871258392700107
0.809161993799672
0.939584654347166
0.581858603612308
0.601042630656206
0.649323771134864
0.725776495134374
2.37667448793753
2.29353925530468
2.2653554747599
2.31570880181079
2.96292582682545
2.41548879988242
0.542080692645202
0.503946979318899
0.598744658252713
0.787110926773383
0.818773835263097
0.841103351186766
0.672950133342344
0.568866302927537
0.554250266316057
0.654519488759101
1.04883314227414
3.21721432051637
0.560596271585607
0.61666765876989
0.591241893239284
0.551821711477276
0.567741489492405
0.649307815896094
0.918682296382287
0.850316776736893
0.791130171543386
1.03323326305751
0.563345770556872
0.585006235708304
0.645582736324466
0.673945243745634
0.717568939302312
2.29336258109869
2.31908787530369
2.2440395238172
2.63690970725676
2.89628134429689
3.16624994407716
2.46124199758026
0.552511474369839
0.473477850108294
0.569153335028341
0.796936373164741
0.819612605893664
0.846177827871394
0.864371680692754
0.6956263083243
0.580038351884044
0.533410532156682
0.556811987423802
0.689259344433771
1.11983160847245
3.40345767505021
0.563580558151155
0.55108415394535
0.546277206624537
0.640122494196103
0.605599501182831
0.580275071686511
0.532346036438116
0.554727334770597
0.579542370024434
0.683778479730123
1.01044124949223
0.915618814080837
0.831812566627983
0.788076219143613
1.10387601892526
0.55423877457263
0.567910817267654
0.639098546339528
0.671567158016465
0.696953817791631
0.777142029083579
2.34880711927163
2.19723128411419
2.26653116136666
2.22078910154788
2.82160462820267
3.09920392693344
3.34868344866378
2.42692521687979
0.808605190457855
0.490029016271228
0.525107209925444
0.658222668245927
0.813374368399617
0.84803407252937
0.871268111618087
0.887184477649784
0.716425206762773
0.595415802653324
0.533200758483444
0.521872024738734
0.570121496115856
0.723322540026925
1.18058059961818
3.56556696158225
0.529141477401177
0.576730943030244
0.557928807554646
0.539854792073029
0.543931730512984
0.550056164471722
0.674114825838623
0.630839910790126
0.597380664195922
0.583759638330714
0.521131123145759
0.53273530556385
0.568065481245664
0.595222292557146
0.71752468466546
0.988706428229028
1.08025791120143
0.877645110887772
0.828598948389866
0.846074086429522
1.16386960796939
0.612783784738195
0.555781175152466
0.609061375582548
0.666979378554682
0.695381349625168
0.718365519632749
1.13027669716508
2.47411472882945
2.42132770044612
2.14804542246507
2.22757321367142
2.74690144813027
3.02427787824244
3.28030936795273
3.50883518339927
2.39924619658204
0.70331589872142
0.519544812398311
0.607590583637557
0.821569533674428
0.850987991368183
0.876277835607502
0.893353008412906
0.90458778014802
0.7356237992719
0.611571309542812
0.541041342615701
0.511877631155975
0.522860539738002
0.587251155773644
0.754679889220127
1.23335608713462
3.70756971664543
0.518641321745916
0.530673404929735
0.525551126643401
0.593108467111055
0.573335437765253
0.552323344558106
0.544740883982429
0.536763240016357
0.55124734705558
0.563468079219421
0.707398487401119
0.66344367953407
0.62128314737524
0.602133015596617
0.650613969784574
0.52222957948056
0.511707656624411
0.540847627998914
0.58505227833134
0.611597728000513
0.748561028216727
0.964330450192229
1.05605974738634
1.13960922884031
0.867255845770908
0.862282158089326
1.21604379250846
0.932818459212696
0.600450652462952
0.596743388995206
0.660743668943275
0.693420846836037
0.717698681797899
0.737770213032092
2.42304838411072
3.34281394003908
2.40073356072367
2.16214924801986
2.66778547999064
2.95122190880377
3.20560334955321
3.43921437230012
3.6485403245476
2.34978464187013
0.689924870607576
0.570953728292356
0.644318616201966
0.882217451273534
0.887384113605164
0.898624477103032
0.911393835487743
0.920495410333437
0.752519254537745
0.627173252341078
0.551884879146507
0.512785277749832
0.504503579690181
0.529864507339014
0.605064240562821
0.782935706192544
1.27942171320718
3.83021896267964
0.510300504194557
0.515982806741122
0.519931729807131
0.528842512323747
0.539396886476359
0.525508853775623
0.60989377160581
0.591150248261599
0.572546028228354
0.562201127472324
0.558027037305569
0.541842989541308
0.547113389160367
0.618784246179395
0.580228368442726
0.738010836630181
0.696056217045642
0.653703980988803
0.621427921931942
0.649979079072997
1.00719399675794
0.504459383512999
0.529162518414689
0.512854140974741
0.55184598464384
0.602679001243203
0.627322046338093
0.776533677958379
1.03389199963163
0.945938219646151
1.11501218501081
1.19114597683555
0.872296225857022
1.26149980480241
2.34197553591902
0.877944120095316
0.628068780008012
0.630486164025261
0.695083139466645
0.718005985539433
0.737671919742219
0.755025589529211
3.32881084425849
4.55077481046686
2.34602068617911
2.14776741119003
2.62307747000045
2.8767227051961
3.13501532558191
3.36446952283963
3.57767999815099
3.76941020383132
2.39770418160054
0.682307957646566
0.618730340676526
0.710065614304307
0.902885132518129
0.910702742068381
0.919674743812124
0.928845417378968
0.934170803739401
0.767552159888848
0.641545437329125
0.56352786883795
0.518556600794756
0.499384803017952
0.504565187281611
0.539457747433215
0.62221098554529
0.808088369467733
1.31940852218551
3.93544118011125
0.512004512569745
0.503256087318628
0.509216809107089
0.51723193583692
0.516346990602334
0.52671846290496
0.531227164190295
0.538671415001531
0.550747192181604
0.539323350728455
0.625952618471652
0.608987362703958
0.593332825084981
0.582481499346823
0.628066289066131
0.554042466694631
0.574319800001376
0.547802921567363
0.599273815926574
0.956806346228405
0.5975471878094
0.765599595072882
0.726209563689142
0.685690236756417
0.648605832471763
0.643533707287915
0.838132735069569
3.01866887263268
0.499568670705325
0.504474875538216
0.538619880186157
0.518744286942202
0.563598096624315
0.619656191526363
0.641884229531864
0.801439698573362
1.0934524547674
1.0142378871832
0.932841453663681
1.16626155180242
1.23597968765225
0.902821316519726
1.30095409603947
2.4284526135421
0.862604058037495
0.662883430752894
0.670224099340929
0.72206013038702
0.739506241605565
0.755981775268004
0.77054935462592
5.01509193282196
3.10207749963617
2.27411150516158
2.15460844671457
2.26153344129887
2.79850796615922
3.06525590184984
3.29576797323786
3.50272120228859
3.69746971891481
3.87310463126624
2.36740622686248
0.707859614830666
0.663487682078706
0.890317410870581
0.950739936331383
0.945412316062277
0.940989123437492
0.943843198694304
0.946439673937004
0.780742949799822
0.654552904893362
0.574925376988021
0.526357853926335
0.500654814390433
0.494373203733831
0.508464878990805
0.549884441005288
0.638107575456359
0.830251645235535
1.35390032739175
4.02481137042977
0.511879732557834
0.498897681124984
0.518212702629206
0.503140895565173
0.50206568725544
0.51162691346403
0.523534059948814
0.516316885913706
0.525883135735609
0.535908899516178
0.547199080388769
0.542795524838691
0.550779508413138
0.562753306715441
0.594046797398303
0.640886581237044
0.625874718543058
0.613184009324925
0.606257452430628
0.649493970164155
0.945562800365909
0.554708164064822
0.569058083628831
0.591122046906788
0.574641076442968
0.793823322597049
3.30360537831067
0.614236116817568
0.790169788570828
0.753400854705897
0.715235732628647
0.677531908242077
0.651124500400345
0.707329482455963
1.50652973218278
4.65865405731481
0.500938586517108
0.494510192813291
0.508258812351124
0.548916235483128
0.526629411110135
0.575102832190623
0.635413989865068
0.655086034959542
0.82339245385073
1.07391829914557
1.14488450192199
0.995435889339441
0.911003407119704
1.21075461882906
1.27485919139557
0.943388474086137
1.334976424103
2.4111239428683
0.883236872858348
0.699663126194599
0.724722381906278
0.748598900090466
0.760681025502308
0.772544140363149
0.784200284459143
3.1831489081328
2.94984523647159
2.3626617732365
2.19628630523527
1.44936258704856
2.26525913964641
2.71487763984652
2.98958274342081
3.22958002364491
3.43524901651311
3.62220286730465
3.80021763493027
3.96125128308831
2.39536856816751
0.729227759335116
0.712543098145081
0.94037764474887
0.9757133652504
0.9650763758307
0.962100348772904
0.958132489487472
0.957840258353697
0.792222399407066
0.666112269050098
0.585578405403722
0.53476881083382
0.504994225471002
0.491795314101118
0.494061133288367
0.514222126011504
0.560238483717393
0.652508902664677
0.84959270841763
1.38338637805581
4.10004773504647
0.518723645144244
0.515673732762658
0.498580255841434
0.500556862953619
0.49369330960375
0.526318257653821
0.506662898652166
0.501408755621337
0.503008829770006
0.523486733405739
0.532152718024241
0.521077079316284
0.520321648927716
0.556291410703973
0.545944953448481
0.603968290083372
0.560771367175139
0.55620136107835
0.563355863905836
0.574471305992194
0.784503580256716
0.654409877444624
0.641639671641454
0.631751404918064
0.631098323334554
0.674204689187081
0.963369352016176
3.2413170644985
0.563779002753345
0.565929993175365
0.584797636400239
0.607362493598097
0.643973927233662
1.43516117938978
5.05110430682481
0.629758529770099
0.811838488037293
0.777630171144299
0.741939751602639
0.705453467945671
0.671795476322982
0.662757759257815
0.827680701641366
1.28483608647078
3.14514132987044
0.492021327057234
0.505344507237445
0.494081201733701
0.513899056789577
0.559166527953541
0.535114980824977
0.585853474658311
0.64970481324614
0.666805741728277
0.842553645581263
1.05393205432832
1.12557551644486
1.1893705005628
0.974849013045443
0.909283866875772
1.24928442084035
1.30837437959451
0.963718641583516
1.36406481225705
2.41955515316451
0.90831427106509
0.733840832994758
0.755535876695841
0.77006737042402
0.778080860860699
0.787412152818254
0.795982669838137
2.97338144938118
2.90893689857734
2.35450589973612
2.2845954383097
1.23705793484377
2.24531975468491
2.6632704331565
2.90498135582638
3.15769597154017
3.37144533719582
3.55549791372548
3.72461761033194
3.88756494816718
4.0354800864308
2.37890978276077
0.75607287314622
0.745458312871641
0.954800869552739
1.00790629450126
0.988393642758834
0.970209650696205
0.969812948099125
0.970324259528769
0.802242902627663
0.676185569697241
0.595222865182739
0.543038886054245
0.510679516938428
0.493139070086043
0.488248146250042
0.496333301310168
0.520730377352501
0.570042535120575
0.665331895196328
0.866296531540418
1.40835379786838
4.16278607173895
0.523523614414145
0.527296107065794
0.500796019589825
0.529219871406708
0.500728698716832
0.49276896069575
0.505157671031187
0.4914699771188
0.492988659389194
0.534978095368374
0.512043492986093
0.504303936116074
0.500634840903825
0.50915610939294
0.556305073285039
0.528405457235886
0.541695826272249
0.520870645659262
0.533059624871587
0.627381305286401
0.555988327444631
0.61912168962066
0.794197043415885
0.576063374883028
0.569783931522501
0.575537424399684
0.58539264365253
1.38525874307292
0.666404485763434
0.655703968048563
0.648463745587842
0.652041304393065
0.698378330737882
0.984168246483548
3.25604549847162
4.9713936525135
0.565800044248631
0.583925413345301
0.579321131538399
0.600263470505719
0.622539190274579
0.766356437383394
1.22742561292103
3.26181748758348
0.643868572817852
0.830763333963784
0.799020402118164
0.765803087982362
0.731263629136552
0.696228814509465
0.667639508111008
0.680298852643347
0.797308972057061
1.11163111520225
2.99384101504179
0.493419221994804
0.488348068060916
0.511088628798549
0.496234938188119
0.520314716157211
0.568893397869296
0.543450991930003
0.595576075569133
0.662439861717391
0.676970193268349
0.85910512254806
1.03175136314657
1.10540934371182
1.17019538802067
1.22782270270551
0.953688203786711
0.896665575092698
1.28247571934935
1.33703303985162
0.924757657918504
1.3886972283381
2.40950399993545
0.934942057672257
0.76202597808899
0.776326891194974
0.790184098327508
0.794336994507171
0.798856237803998
0.806081272668912
2.9119638633319
2.89675869102122
2.34949397922304
2.27707425850259
1.12157923704195
2.23193093840036
2.22179422334675
2.81339612771777
3.07642851591346
3.30225689668693
3.49325612622129
3.65839689056305
3.81164776806829
3.96113052292288
4.09738409878989
2.38240017271011
0.781661864661981
0.763582434281988
0.976185728422293
1.0373371902131
1.01466734529494
0.980740962172267
0.981207719871291
0.984318159701483
0.811565089372211
0.684850637071736
0.603718827766902
0.55075026003251
0.51676500894272
0.496447500824084
0.487046746521718
0.487816862448066
0.499957033522301
0.527356359916723
0.579044797874429
0.676579921682846
0.880566880265954
1.42928409275135
4.21457041499916
0.538400297318918
0.503791694415702
0.532872812175034
0.536322467389652
0.505797508462824
0.491041165649437
0.563779166855913
0.508350455217352
0.49306452975957
0.491384745455447
0.511056233421074
0.493040053034333
0.487500114426338
0.494870424602293
0.543454839081279
0.518254775714063
0.509148555043092
0.502093604770719
0.502307872872669
0.524238567114228
0.628903685231716
0.5370132812156
0.525469938653845
0.551372197877209
0.523936284855751
0.556920269535577
0.74575291754462
0.565566452042683
0.635821253229891
0.808582349113197
1.38189053233853
0.591125106896956
0.582732852255053
0.58681434408868
0.595243057854554
1.2151850130539
0.668232671905834
0.676653148706019
0.663592211606835
0.670054849465045
0.722856038670402
1.00919860980791
3.22613162856628
5.00221093169546
3.26659509009907
0.574701042975644
0.568137252865513
0.608416096020891
0.593394340970031
0.614914981830522
0.636400093866033
0.745365605658545
1.09380863053068
3.01153699434461
0.656468244095644
0.847121528349223
0.817724097108879
0.786929944249545
0.754610264032005
0.720451882292714
0.686525802644372
0.661990443943183
0.669793123528664
0.741318765646581
1.02048661920527
2.94835620943578
0.496775864145319
0.487189913757717
0.487790088158013
0.517227373167166
0.499765636404406
0.526874981774188
0.577839597279499
0.551216706718627
0.604125645661242
0.673617478969597
0.685685249537627
0.873247256094792
1.08264633832306
1.00654282878901
1.15004078627301
1.20871122062153
1.26092202344794
0.909270775836863
0.872983185025324
1.31085480453921
1.36130986961404
0.881759472437479
1.40934629830901
2.40534948758315
0.965692759868915
0.785419305772226
0.796352598598544
0.809325481051723
0.809217264728312
0.808964130583273
0.815330944051639
2.91093425878155
2.91778076839671
2.27198643331627
2.34871472552772
1.06270148790997
2.22726843844899
2.21335306371686
2.71788505812119
2.9861354795435
3.22336003244353
3.42579758868577
3.59722623976639
3.74575140281754
3.88494141614916
4.02249326878604
4.14847345813797
2.37626736702397
0.806218564213859
0.782340828920577
1.02819833361954
1.09065252303336
1.03405913404259
0.994772615389902
0.994643525776211
0.998284862140773
0.820696562434157
0.692373336472456
0.611033742065627
0.557669614686364
0.522708698803626
0.500623826644296
0.488321961646712
0.484468985895813
0.489186373045955
0.504194876020556
0.533730105976749
0.587122109258011
0.686310125540967
0.892623530553585
1.44664869498721
4.25682293673388
0.574432632484644
0.548850437480357
0.512514065049073
0.492070911799454
0.509436857262711
0.542520878517688
0.54509129342552
0.512010578172119
0.492960056008465
0.486343334119915
0.637511013393706
0.525072668640843
0.496022702435675
0.490137765896168
0.49268993941015
0.496533440886253
0.51732423799278
0.486493458460271
0.486652236340604
0.49818807641658
0.551331820868294
0.524673092017917
0.514965525095379
0.505896933528039
0.500811322786639
0.507445003097526
0.550411595525775
0.746701460603057
0.546066061579672
0.532415135977946
0.523549122879027
0.560700332619292
0.529729927269805
0.584467669984149
0.736073654455882
0.574411936095818
0.653054266668557
0.825878585665245
1.37769854358116
1.22765423562024
0.605274321874085
0.594682599688357
0.596954075294372
0.603873839450225
1.10802112872991
0.679164541958054
0.677252854137206
0.685432399606133
0.686469274149045
0.743953784915862
1.06564373143444
3.21860275019408
4.9571536637421
3.27286443279374
3.03146650644804
0.586537639063892
0.570172434651691
0.569153795433879
0.60319939121708
0.607234180560958
0.628436005100868
0.648826868203842
0.702430699650908
1.02318391699917
2.97893409739132
0.66754582456882
0.833910334148955
0.861107821027845
0.805449010296328
0.775430363858851
0.743021534517821
0.708556789027158
0.674772867838884
0.647328316611971
0.646625877369498
0.698662825447364
0.971054669882322
2.95214327410365
0.48850388031548
0.500997550830791
0.484475712783145
0.489060079419541
0.523216909490952
0.503938984113729
0.533204719237807
0.58587641055494
0.558178289536384
0.611479044146583
0.683291122758817
0.693238134111152
0.885196752204929
1.12704815990252
1.05667772434824
0.975953594252905
1.18857192742075
1.24184004371387
1.28921807410472
0.883768749843093
0.846180624904108
1.33490083421087
1.38166663415042
0.845771632466448
1.42647375543705
2.3976017814397
1.01418722711154
0.806342961958535
0.820209512025144
0.83054534905879
0.821629579191092
0.818599143187566
0.824405872962526
2.92377496751797
2.93308967880842
2.22375396954262
2.26884822549948
2.34633921772024
1.02405608848255
2.20906938710183
2.61883302418878
2.88819893275033
3.13441593512401
3.34828022456746
3.53090726480006
3.68532921539575
3.81929305323319
3.94608627459789
4.07314611279474
4.19013640099098
2.37497633523925
0.829144105848429
0.812364797143388
1.07331028192733
1.15346453847738
1.0462953292799
1.00547799217131
1.00536495139786
1.01002185531076
0.829106380255926
0.69899160946827
0.617241497589831
0.563687822962208
0.528197120185745
0.505026809865167
0.490860773788791
0.484017607955898
0.48403459281898
0.491547940781722
0.50859370162371
0.539637062549589
0.594231884806581
0.694616743895928
0.902697456502936
1.46090325605016
4.29081754618933
0.586333656254646
0.530523015423325
0.649480387493173
0.55943358532566
0.519039680927408
0.495969909613712
0.494538405518384
0.485746503750285
0.516165776760437
0.551809298476921
0.553203661845268
0.518535516036719
0.496727070598424
0.485644116335977
0.48488159343968
0.754755838713266
0.552917311011561
0.502614563855729
0.489988269995419
0.490323612468489
0.495585055610375
0.487927105742411
0.500872778389365
0.52342235618889
0.483471469211139
0.487695415879251
0.502215414368604
0.558380681123496
0.530912844751524
0.52112112963393
0.511021044744302
0.50278813855788
0.500688455802537
0.515450919038095
0.580138124706154
0.74399448208051
0.55500245072241
0.540488936233385
0.527915470277912
0.521959188418561
0.569386276435199
0.53425728631122
0.583871939293697
0.702295143148589
0.582383711424194
0.669150226511043
0.848110300314483
1.38324949633763
1.24401070001174
1.13176025445613
0.618300120013911
0.605423505904065
0.605838589901267
0.611289752125475
1.04927385087569
0.688472549542711
0.689652736632706
0.701802448880986
0.693082878348404
0.762946661876831
1.10129353903691
3.82547126516637
4.94180733080082
3.26037498497836
3.03632537510818
2.99925132074685
0.599231389788643
0.579090799483632
0.5640016944773
0.561465223160549
0.584516685731557
0.620288572264776
0.640650016148801
0.659787574832008
0.665940937242758
0.979402632895391
2.98634313211537
0.67714642142966
0.847765174537982
0.82150781243002
0.872932971685468
0.793765338773379
0.76343502377443
0.730145601510786
0.694729709749741
0.659080658859634
0.628759179486696
0.621350388758681
0.665279790394034
0.939561757937036
2.96197195455537
0.491080881475471
0.484054545769339
0.505441175996965
0.48393391471545
0.491352899763511
0.528743254501946
0.508296588536904
0.539083353870904
0.592956879200051
0.564229735942926
0.61771838732679
0.691552336199698
0.699879260914984
0.89518240187547
1.10063911581521
1.16541902414373
1.02700541165774
0.942627087304449
1.22169913966982
1.27015345750077
1.31319791058587
0.856658062127268
0.818849367925127
1.35507193260609
1.39855591869483
0.813468606797803
1.44054070013691
2.8519592732791
1.04235862092068
0.828464284913071
0.842355500590864
0.851211172318322
0.832005498319999
0.827384792263279
0.832383229688182
2.93200931974705
2.92380103322977
2.20706772240039
2.22026898787758
2.26504132159882
2.34583502975879
0.999101486834219
2.20706254197263
2.78117653955084
3.03556010464312
3.25994855374712
3.45419918321422
3.61981523231753
3.75941095623368
3.88064209937856
3.99657217349325
4.1144461064279
4.22362366093287
2.37375461020311
0.848064069759298
0.838251546995979
1.09261878701262
1.19888813714153
1.06061211083756
1.01430629642128
1.01365636301126
1.01936568358734
0.836054145053983
0.704658282305999
0.622452949622457
0.568791548243652
0.533061940461258
0.509275841328849
0.493943310883567
0.485160013196933
0.482122111036043
0.484884891600938
0.494389502511634
0.51287219889496
0.544961508471624
0.600385674740811
0.701620289682444
0.911032033717172
1.47254811374548
4.31787881945837
0.598221248886576
0.538144639405885
0.663187475415376
0.503669935869839
0.559784947281297
0.767276270744659
0.526501624083678
0.569535366789631
0.499171608143486
0.486422061628987
0.498742334247158
0.485526956461666
0.483104353586011
0.523118653715905
0.560361047966571
0.560446441782896
0.52484711078326
0.501293417463422
0.487317916712037
0.481976232279256
0.485475218645231
0.758239670526697
0.58434351675451
0.512207309577922
0.491145332447904
0.488237089867925
0.492472456517773
0.499332693116188
0.4906090292442
0.483154779421226
0.505418831499799
0.529040315438706
0.482688731111174
0.489833059038341
0.50648315014454
0.56450571416625
0.536739663312225
0.527199954877398
0.516745004115813
0.506826253475705
0.499886265532534
0.501047441404883
0.522274767193387
0.582929698400778
0.71538608831208
0.548865437634648
0.563454960999848
0.534644621945062
0.523061538362226
0.518926191907925
0.577262521367684
0.530220421559528
0.569191893208242
0.670761138395326
0.589424382089814
0.867632162156778
0.683977114134825
1.3968001729583
1.27298414638623
1.15687433139114
1.07816950726459
0.630027991925323
0.614866504134131
0.613459315223661
0.61759659018775
1.00845161201033
0.696452078931126
0.700491116574598
0.715399608997739
0.780086420498235
0.699772311840915
1.12772894631933
3.98424762619922
4.91093010801365
3.24611735337975
3.02802348486956
3.00410436515963
3.00760912225152
0.590453272039843
0.611690391783318
0.57024348923611
0.554171305013029
0.547650892784976
0.562720089697874
0.632237584617809
0.651481834466508
0.66931123482207
0.635679114872108
0.946165290778643
2.99479239867607
0.685355121991638
0.859491416718354
0.835276071489285
0.809714163104865
0.882821042683626
0.781544762989561
0.750062478577165
0.715409382367605
0.678289597974227
0.639984474971433
0.60764720302133
0.596936722326217
0.636609279505403
0.910507473110474
2.96529566700496
0.494198991987985
0.485228525638393
0.482044646973438
0.509725053172431
0.484709735927352
0.494151040681032
0.533639183706043
0.512550599655899
0.544390240297229
0.599089393054849
0.569361251723545
0.622957540472799
0.698519587315278
0.705519524259124
0.903445072010506
1.07044189971147
1.13860455223677
1.19840473604874
0.99303463034038
0.887870998260791
1.25000159650297
1.29414905023242
1.33331779043156
0.830585507527254
0.790702751798619
1.37181735569342
1.41244239536062
0.7879693058883
1.45213693531832
2.91182462582106
1.06658178458615
0.848077340817697
0.858519004810007
0.867789618334872
0.841626245298621
0.834965398737994
0.83886123336055
2.93583886583162
2.95713776434728
2.20611034491874
2.20380049189387
2.2154500971396
2.26804300318133
2.36559470856337
0.996281141027974
2.67027486650645
2.9254088503098
3.16046126038237
3.3660957900052
3.54362512089703
3.69449854018616
3.82119126068848
3.93127806351393
4.03773809978259
4.1476357725686
4.25030745685512
2.37374233781451
0.86287682279973
0.848554381226043
1.10920371789933
1.23121923867711
1.07258754880662
1.02128729793888
1.01968507347169
1.02606525889474
0.841445133290897
0.709251927313935
0.626737742520874
0.573027724287261
0.537236218984435
0.513152996301035
0.49713335792385
0.487114306200118
0.482076320201525
0.48174024623571
0.486465517422587
0.49738086941308
0.516859792422753
0.549654477255999
0.605632325673561
0.707459973232126
0.917878891107696
1.48213490117983
0.676706807313218
0.546551355752983
0.609512210254388
0.507766667750051
0.568708115785863
0.782375656778885
0.488549575761722
0.514516981376903
0.592851362300701
0.777746695231199
0.534079895012309
0.503974475888404
0.578799059299829
0.486839223674291
0.481761344582276
0.487580537542505
0.5036705564104
0.48062937439123
0.482909220359488
0.52979145268557
0.567979067902855
0.530645052450482
0.566734033532122
0.506032131111326
0.490200751493957
0.481873398586247
0.480720325084262
0.487315295046563
0.733399430078646
0.589928626892371
0.520744103001495
0.4929173081677
0.486485817628369
0.489225717086173
0.495755147313198
0.503431575627661
0.48442172685657
0.493820550447058
0.480891720041635
0.509791749880469
0.534015603058049
0.483299275589062
0.492536270868031
0.510688466508494
0.569707183863888
0.542021022430229
0.532937514006117
0.522571833146324
0.511927139402642
0.502450635409231
0.496774451911812
0.500085926455122
0.520707410520147
0.571082056391874
0.686554984292792
0.542320212517591
0.557009896741747
0.571200593645517
0.528260631113945
0.517057405224545
0.512360222060077
0.584250575246721
0.519603275161139
0.550254010424518
0.642604038054766
0.595534485026436
0.885478202016884
1.41151053452759
0.697186749734595
1.35424422144996
1.19189985066105
1.10496651324861
1.03886213313888
0.640307060180027
0.622975576721518
0.619934749399906
0.622906622167688
0.973574393893324
0.703387931057793
0.709612372693666
0.72662117801863
0.794874685037909
1.15164329524456
0.70542793932924
4.04293337594411
4.89532847186856
3.89074917070841
3.01425699106073
2.99546181130858
3.01213344477139
3.01563607774666
0.580476675265231
0.60228244235045
0.623332747855038
0.559314374011218
0.541066232887401
0.530942125603292
0.541216612883459
0.642923661439753
0.660931024844606
0.677471278560592
0.608804779092386
0.914944888208203
2.9947625174394
0.692285632898055
0.869307882208282
0.846944648522457
0.823418927639949
0.797364013571703
0.891011495396901
0.767916482922912
0.734910963097104
0.698572859548361
0.659241111227178
0.617156935708617
0.586526528094617
0.573755288205112
0.611241346836258
0.893244615299588
2.96780581388503
0.497420395782494
0.487213528260931
0.482024960425696
0.481583096325929
0.513631443224324
0.486243175543996
0.497117288830249
0.537839413425261
0.516524964006775
0.549072814669105
0.604320636560465
0.573621520685484
0.627260583561805
0.704330599647738
0.71007816075229
0.910245238758966
1.03632758823049
1.10801126494379
1.17131876954341
1.22657415568108
0.951549517974978
0.855757166030948
1.27398500058512
1.31428603059245
1.35003095366971
0.805587612884089
0.767240972779082
1.38560826012227
1.42399006109741
0.777491295886055
1.46161698385148
2.98852527811255
1.08649592577866
0.861496448101852
0.871543202732668
0.880847620352699
0.849734423015004
0.841117907310237
0.843824581750374
2.9510659589547
2.91143612923146
2.20623425346863
2.20312084357587
2.19825999168993
2.21803832303274
2.29446168428478
2.39560718893061
1.01020263941211
2.80288102110367
3.04829070542009
3.26599415410905
3.45558702538574
3.61868517257729
3.75673247463477
3.87219686306179
3.97254152772029
4.07080357406891
4.17409748413392
2.37381029439358
0.876368300093156
0.858299141787963
1.12000488439154
1.25330365538661
1.08287748944234
1.02701016000305
1.02421155450025
1.03076331399548
0.845400574778282
0.712809135180866
0.630154680480771
0.576468101213947
0.540722322647834
0.516549376983789
0.500170608490054
0.489398808574471
0.483066445508611
0.480686259833838
0.482286641321144
0.488410338601553
0.500310192722313
0.52046112683377
0.553713833216764
0.610048198890204
0.712286312820085
0.923498355642783
0.689533102854874
0.797293119548644
0.578255395005826
0.513314768476905
0.554960818270437
0.619829421252504
0.489737015790441
0.519656820934306
0.603359412337538
0.803096413266673
0.491420005537373
0.48088532837106
0.524472073337659
0.601117155059138
0.75585134422893
0.541294961229797
0.509405636861387
0.489406181734185
0.587040204772797
0.479857818652986
0.480351174268686
0.480865884793075
0.490777467069159
0.508715463169665
0.478550442358351
0.48425687428357
0.535897605004935
0.574584134415603
0.535774614545939
0.510570305171166