/*--------------------------------*- C++ -*----------------------------------*\
  =========                 |
  \\      /  F ield         | OpenFOAM: The Open Source CFD Toolbox
   \\    /   O peration     | Website:  https://openfoam.org
    \\  /    A nd           | Version:  12
     \\/     M anipulation  |
\*---------------------------------------------------------------------------*/
/*   Windows 32 and 64 bit porting by blueCAPE: http://www.bluecape.com.pt   *\
|  Based on Windows porting (2.0.x v4) by Symscape: http://www.symscape.com   |
\*---------------------------------------------------------------------------*/
FoamFile
{
    format      ascii;
    class       volScalarField;
    location    "100";
    object      p;
}
// * * * * * * * * * * * * * * * * * * * * * * * * * * * * * * * * * * * * * //

dimensions      [0 2 -2 0 0 0 0];

internalField   nonuniform List<scalar> 
10228
(
83333.3333317597
83333.333330725
83333.3333239584
83333.3333047775
83333.3333015566
83333.3333297379
83333.333323872
83333.3333254683
83333.3332988619
83333.3332521279
83333.3332976285
83333.3332974958
83333.3332472902
83333.3333296291
83333.3333232714
83333.3333250607
83333.3333256061
83333.3333011251
83333.3332534682
83333.3332013819
83333.3332503903
83333.3333006406
83333.3332950303
83333.3332938088
83333.3332416429
83333.3331972001
83333.3333287228
83333.3333228653
83333.3333245017
83333.3333253808
83333.3333253295
83333.3333028562
83333.3332577254
83333.3332030101
83333.3331400626
83333.3332557703
83333.3332462162
83333.3331996302
83333.3332988422
83333.3333027325
83333.3332919777
83333.3332880621
83333.333234258
83333.3331917547
83333.33313621
83333.3333279494
83333.3333223962
83333.3333240863
83333.3333250941
83333.3333253963
83333.3333255507
83333.3333045705
83333.3332638947
83333.3332071814
83333.3331412556
83333.3330747094
83333.3332524592
83333.3332623591
83333.3332044937
83333.3331949947
83333.3332402873
83333.3331378902
83333.3332962943
83333.3333016369
83333.3333045035
83333.3332879437
83333.3332821639
83333.3332249485
83333.3331832916
83333.3331305007
83333.333071127
83333.3333219863
83333.3333221622
83333.3333234233
83333.3333246824
83333.3333253211
83333.3333255428
83333.3333257248
83333.3333063308
83333.3332695447
83333.3332147321
83333.3331463363
83333.3330761699
83333.3330113267
83333.3332595429
83333.3332004624
83333.3332473687
83333.3332124078
83333.3332683721
83333.3331434376
83333.3331329223
83333.3331878258
83333.3332326064
83333.3330727454
83333.3332923979
83333.333299684
83333.3333036931
83333.3333061841
83333.3332832898
83333.3332705195
83333.3332140633
83333.3331713311
83333.3331218669
83333.3330652291
83333.3330085449
83333.333308781
83333.3333223059
83333.3333223949
83333.3333241705
83333.3333251509
83333.3333254593
83333.3333257125
83333.3333260903
83333.3333076104
83333.3332742806
83333.333222746
83333.3331553396
83333.333081759
83333.3330121698
83333.3329476124
83333.3332660569
83333.3332551349
83333.3332087712
83333.3331389727
83333.3331940601
83333.3332400891
83333.3332208495
83333.3331527365
83333.3332732553
83333.3330788641
83333.3330674704
83333.3331251176
83333.3331776606
83333.3332231797
83333.3330092575
83333.3332864989
83333.3332967759
83333.33330257
83333.3333054322
83333.3333074721
83333.333277466
83333.3332592528
83333.33319914
83333.3331550901
83333.3331095041
83333.3330569973
83333.3330033896
83333.3329454109
83333.3332879509
83333.3333227735
83333.3333215381
83333.3333230547
83333.3333248772
83333.3333252982
83333.3333256025
83333.3333259941
83333.3333265774
83333.3333087038
83333.3332780437
83333.3332302673
83333.3331655134
83333.3330913193
83333.3330168699
83333.3329481695
83333.3328848374
83333.3332176851
83333.3332711954
83333.3332623092
83333.3332029905
83333.3332485438
83333.3331486409
83333.3330742528
83333.3331319098
83333.333184889
83333.3332294174
83333.3331632258
83333.3332285689
83333.3330887993
83333.3332770813
83333.3330143472
83333.3330596975
83333.3330044264
83333.3331138812
83333.333164506
83333.3332102078
83333.3329458022
83333.3332787242
83333.3332913196
83333.3333006094
83333.3333042045
83333.3333067349
83333.3333085667
83333.3332739388
83333.3332721358
83333.333173805
83333.3331324958
83333.3330916889
83333.3330458009
83333.3329955858
83333.332941013
83333.3328830054
83333.3333271028
83333.3333231816
83333.3333213332
83333.3333238761
83333.3333250012
83333.3333254133
83333.3333258197
83333.3333263851
83333.3333271166
83333.3333098102
83333.3332811302
83333.3332367581
83333.3331756056
83333.3331025896
83333.3330258795
83333.3329521636
83333.3328854538
83333.3328235276
83333.3331595098
83333.3332256968
83333.3332124608
83333.3332751313
83333.3332676696
83333.3332564428
83333.3331421384
83333.3331945475
83333.3332377437
83333.3330846356
83333.333010044
83333.3330671243
83333.3331216698
83333.333171886
83333.3332126319
83333.3331003402
83333.3331734736
83333.3332351299
83333.3330237194
83333.3332801917
83333.3329500873
83333.3330488233
83333.3329970266
83333.3329414663
83333.3330982809
83333.3331454482
83333.3328834389
83333.3332759444
83333.3332831887
83333.3332957552
83333.3333021447
83333.3333054949
83333.3333078257
83333.3333096697
83333.3332837021
83333.3331679906
83333.3330871669
83333.3330669256
83333.3330298152
83333.3329846568
83333.3329340366
83333.3328791616
83333.3328219153
83333.3333287035
83333.3333215709
83333.3333221029
83333.3333242397
83333.3333252234
83333.3333255709
83333.3333261382
83333.3333268329
83333.3333276237
83333.3333108957
83333.3332837996
83333.3332422243
83333.3331846776
83333.3331142505
83333.3330371559
83333.3329603249
83333.3328888562
83333.3328240221
83333.3327635652
83333.3331699943
83333.333153467
83333.3330964984
83333.3332208158
83333.3332323812
83333.3332046305
83333.333278261
83333.3332717672
83333.3332620541
83333.3332461501
83333.3330780258
83333.3331327021
83333.3331819619
83333.3332216718
83333.3330198052
83333.3329461698
83333.3330032107
83333.3330568412
83333.3331074519
83333.3331515676
83333.3331969219
83333.3331121503
83333.3330352553
83333.3331826497
83333.3332405854
83333.3329585964
83333.3332828245
83333.3328870836
83333.3329864181
83333.3330336284
83333.3329346634
83333.3328795774
83333.3330754043
83333.3328223111
83333.3332748643
83333.3332797346
83333.3332877717
83333.3332981621
83333.3333037043
83333.3333065567
83333.3333088931
83333.3333107305
83333.3331755607
83333.3330445556
83333.3330333691
83333.3330294185
83333.333007517
83333.3329696945
83333.3329241078
83333.3328729857
83333.3328185246
83333.3327621396
83333.3333294109
83333.3333211236
83333.3333225446
83333.3333247029
83333.3333253184
83333.3333258027
83333.3333264952
83333.3333272425
83333.3333280661
83333.3333118876
83333.3332861038
83333.3332467974
83333.3331924852
83333.3331251806
83333.3330493891
83333.3329710431
83333.3328959115
83333.332826847
83333.3327638924
83333.3327048891
83333.3331792347
83333.3331084635
83333.3331642512
83333.3330902649
83333.3331445903
83333.3330316064
83333.3332133888
83333.3332276849
83333.3332378473
83333.3331925514
83333.3332808704
83333.3332749594
83333.3332665558
83333.3332524863
83333.333229712
83333.3330684213
83333.3330134383
83333.3331194898
83333.3331624902
83333.3332078168
83333.3329550478
83333.3328835616
83333.3329398429
83333.3329932457
83333.3330427549
83333.3330869996
83333.3331244627
83333.3331689484
83333.3331231388
83333.3330475611
83333.332969556
83333.3331904557
83333.3332451084
83333.3328944882
83333.3332850601
83333.3328253404
83333.3329249177
83333.3329717688
83333.3330127349
83333.3328734497
83333.3328189106
83333.3330365084
83333.3327624263
83333.3332778812
83333.3332830074
83333.3332908697
83333.3333004626
83333.333304664
83333.3333075371
83333.333309909
83333.3333116732
83333.3330508947
83333.332970034
83333.3329664591
83333.3329933664
83333.332979059
83333.3329502122
83333.3329108793
83333.332864197
83333.3328130674
83333.3327591528
83333.3327036299
83333.3333279201
83333.3333214011
83333.3333225663
83333.3333247033
83333.3333254364
83333.3333260816
83333.3333268603
83333.3333275995
83333.3333283949
83333.3333127728
83333.333288045
83333.333250589
83333.3331990406
83333.3331348481
83333.3330612678
83333.3329830979
83333.3329056382
83333.3328328573
83333.3327661992
83333.332705077
83333.3326474252
83333.3331736388
83333.3331194616
83333.3331870119
83333.3330440264
83333.3331024457
83333.3331557361
83333.3330255482
83333.3330811413
83333.3331319629
83333.3329662429
83333.3332018119
83333.3332205456
83333.3332332029
83333.3332423224
83333.3331732421
83333.3332830556
83333.3332775542
83333.3332698424
83333.3332576088
83333.3332364905
83333.3332146961
83333.3330553138
83333.3330040705
83333.332949108
83333.3331001968
83333.3331399027
83333.3331754969
83333.3328913062
83333.3328222265
83333.332877805
83333.3329306226
83333.3329796234
83333.3330236575
83333.333057874
83333.333065064
83333.3330601391
83333.3331327326
83333.3330594208
83333.3329816498
83333.3329044442
83333.3331969273
83333.3332488421
83333.3328316572
83333.3332869327
83333.3327649003
83333.3329118038
83333.3328646909
83333.3329528195
83333.3329847829
83333.3328134608
83333.332759449
83333.3329971209
83333.3327038073
83333.3332790431
83333.3332861144
83333.3332922138
83333.3333011887
83333.3333054434
83333.3333084835
83333.3333108478
83333.3333125091
83333.332969342
83333.3329124984
83333.3329137487
83333.3329451228
83333.3329671914
83333.3329490284
83333.3329279584
83333.3328941973
83333.3328526156
83333.3328053181
83333.3327543429
83333.3327010058
83333.3326463187
83333.3333278321
83333.3333212208
83333.3333224735
83333.3333247833
83333.3333256465
83333.3333263957
83333.3333271763
83333.3333278885
83333.3333286126
83333.3333134666
83333.3332896466
83333.3332537018
83333.3332044288
83333.3331430221
83333.333071997
83333.3329951699
83333.3329169485
83333.3328414457
83333.3327712644
83333.3327069314
83333.3326475145
83333.3325910986
83333.3331814424
83333.3331653135
83333.3331135294
83333.3331290085
83333.3330558696
83333.3331934273
83333.3329784124
83333.3330381175
83333.3330935938
83333.3331434791
83333.3329605427
83333.3330165811
83333.3330686091
83333.333113279
83333.3329014708
83333.3331827989
83333.3332092859
83333.3332261397
83333.3332376473
83333.3332459829
83333.3331502488
83333.3332848936
83333.3332797004
83333.333272374
83333.3332608928
83333.333241096
83333.3332209483
83333.3331830304
83333.3330374624
83333.3329913123
83333.332940299
83333.3328858552
83333.3330746411
83333.3330794621
83333.3330704123
83333.3328288309
83333.3327621661
83333.3328170747
83333.3328694206
83333.3329181304
83333.3329619482
83333.3329983012
83333.3330167963
83333.3329863217
83333.3329818726
83333.3330700998
83333.3331408398
83333.3329936362
83333.3329157847
83333.3328404602
83333.3332022413
83333.3332519007
83333.3327702226
83333.3332884844
83333.3327057991
83333.3328952183
83333.3328531024
83333.33280568
83333.3329303712
83333.3329530598
83333.3327546359
83333.3327012025
83333.3329501526
83333.3326464063
83333.3332826529
83333.3332876305
83333.3332929613
83333.333301975
83333.3333063162
83333.3333093916
83333.3333116733
83333.3333132025
83333.332914524
83333.3328704963
83333.332872149
83333.3328995857
83333.3329172493
83333.3329127707
83333.332902259
83333.3328746911
83333.3328382209
83333.3327951474
83333.3327475206
83333.3326967772
83333.3326440174
83333.3325901269
83333.3333270897
83333.3333211248
83333.3333225358
83333.3333248894
83333.3333258571
83333.3333266842
83333.3333274295
83333.3333280994
83333.3333287437
83333.3333139843
83333.3332909086
83333.3332562144
83333.3332088188
83333.3331497988
83333.3330812646
83333.3330063403
83333.3329285745
83333.3328517228
83333.3327786968
83333.3327111365
83333.3326489875
83333.3325911274
83333.3325358396
83333.3331731427
83333.3331878058
83333.3331230643
83333.3331532048
83333.33310478
83333.3330499918
83333.3331370338
83333.3330664626
83333.3329903539
83333.3331986624
83333.3329128559
83333.3329727988
83333.333029341
83333.3330813274
83333.3331250576
83333.3329520017
83333.3328961959
83333.3330043184
83333.333051349
83333.3330882947
83333.3328377948
83333.3331902307
83333.3331591855
83333.3332149179
83333.3332305374
83333.3332412404
83333.333248973
83333.3330904754
83333.3332864199
83333.3332815157
83333.3332745166
83333.333263567
83333.3332444595
83333.3332250272
83333.3331908461
83333.3330801879
83333.3329746395
83333.3330140155
83333.3329283206
83333.3328777392
83333.3328239049
83333.3330330799
83333.3330003599
83333.3329938159
83333.3327677172
83333.3327033965
83333.3327576069
83333.3328095448
83333.3328581755
83333.3329022335
83333.3329402639
83333.3329656706
83333.332963757
83333.3329273634
83333.3329237231
83333.3330793066
83333.3330046883
83333.3331475364
83333.3329273055
83333.3328507338
83333.3327778356
83333.3332065548
83333.3332543721
83333.3327102103
83333.3332897277
83333.3326479816
83333.3328756469
83333.3328386948
83333.3327954815
83333.3327477738
83333.3329043598
83333.3329166484
83333.3326969608
83333.3326441237
83333.3329039134
83333.3325901472
83333.333284602
83333.3332885569
83333.3332939181
83333.3333025862
83333.3333070502
83333.3333102072
83333.3333123291
83333.3333137529
83333.332873846
83333.3328390305
83333.3328384737
83333.3328611923
83333.3328750382
83333.332875639
83333.3328722279
83333.3328519929
83333.332821236
83333.3327825832
83333.3327385849
83333.332690781
83333.3326403077
83333.3325881087
83333.3325349839
83333.3333265963
83333.3333213016
83333.3333225543
83333.3333250987
83333.3333261098
83333.3333268992
83333.3333276218
83333.333328221
83333.3333288186
83333.3333143484
83333.3332918831
83333.3332581895
83333.333212323
83333.3331553233
83333.3330890471
83333.3330161597
83333.3329395536
83333.3328624819
83333.3327877748
83333.3327174381
83333.3326524138
83333.33259228
83333.3325358439
83333.3324815895
83333.3331609965
83333.3331142808
83333.3331794246
83333.3331929472
83333.3331310081
83333.3330605299
83333.3331347695
83333.3330925421
83333.3330412502
83333.3329847199
83333.3331436386
83333.3330755536
83333.3330013001
83333.3329243041
83333.333202898
83333.3328480833
83333.3329076134
83333.3329643546
83333.3330172587
83333.3330642026
83333.3330999252
83333.3328882327
83333.3329403192
83333.3328329776
83333.3329881172
83333.3330284101
83333.3330469322
83333.3327754443
83333.3331958245
83333.3331658798
83333.3330991673
83333.333219319
83333.3332340656
83333.3332441631
83333.333251388
83333.3330113447
83333.3332830193
83333.3332876322
83333.3332762019
83333.3332655685
83333.3332473034
83333.3332278228
83333.3331964546
83333.3330891817
83333.3330050544
83333.3329129747
83333.3329537333
83333.3329812859
83333.3328667567
83333.3328165466
83333.3327633144
83333.3329785153
83333.3329382722
83333.3329350389
83333.3327079823
83333.3326458619
83333.3326993718
83333.3327509186
83333.3327995431
83333.3328440931
83333.3328831302
83333.3329139772
83333.3329276358
83333.3329145101
83333.3328825667
83333.3328816073
83333.3330869988
83333.3330143932
83333.332938147
83333.3331529749
83333.3328613791
83333.3327868882
83333.3327166464
83333.3332100081
83333.3332563214
83333.3326515598
83333.3332906976
83333.3325913698
83333.3328217584
83333.332853234
83333.3327829385
83333.3327388308
83333.3326909271
83333.3328748408
83333.332879403
83333.3326403917
83333.3325881411
83333.3328647408
83333.3325349677
83333.3332861492
83333.3332898058
83333.3332943426
83333.3333034231
83333.3333078394
83333.3333108066
83333.3333128594
83333.3333141313
83333.3328421516
83333.332814895
83333.3328287686
83333.3328121927
83333.3328413987
83333.3328412822
83333.3328415914
83333.33282701
83333.3328018662
83333.3327678169
83333.3327275955
83333.33268294
83333.3326350453
83333.332584858
83333.3325332118
83333.3324808263
83333.3333265431
83333.3333215016
83333.3333227372
83333.3333253438
83333.3333263604
83333.333327066
83333.3333277313
83333.3333282825
83333.3333288421
83333.3333146234
83333.3332926065
83333.3332596931
83333.3332150562
83333.333159733
83333.3330954123
83333.3330244822
83333.3329493566
83333.3328728088
83333.3327974111
83333.3327252437
83333.3326576225
83333.3325949971
83333.3325367361
83333.3324816116
83333.3324282881
83333.3331424209
83333.3331671536
83333.3331019117
83333.3330517066
83333.3331220997
83333.3331844407
83333.3331970824
83333.3331374951
83333.3330695084
83333.3329955726
83333.3331093034
83333.3330752658
83333.3330291287
83333.332976244
83333.332918996
83333.3330831313
83333.3331489862
83333.3330108746
83333.3329350172
83333.3328586331
83333.3332062785
83333.3327844812
83333.3328432465
83333.3328996613
83333.3329527377
83333.3330011043
83333.3330411378
83333.3330581981
83333.3328256784
83333.3328773714
83333.3329251947
83333.3327710893
83333.3329674448
83333.3329954497
83333.3329912386
83333.3327144965
83333.3332001877
83333.3331705204
83333.3331049679
83333.333020272
83333.3332227731
83333.3332368928
83333.3332465209
83333.3332532912
83333.3329482194
83333.3332841829
83333.333277702
83333.3332885829
83333.3332673181
83333.3332491594
83333.3332302024
83333.3331994592
83333.3330950589
83333.3330145196
83333.3329457249
83333.3328528874
83333.3328942139
83333.3329271957
83333.3329415727
83333.332806648
83333.3327567258
83333.332704067
83333.3329266217
83333.3328907798
83333.3328903062
83333.3326495735
83333.3326423085
83333.3325894942
83333.3326934724
83333.3327420878
83333.3327871699
83333.3328273717
83333.3328608367
83333.3328838538
83333.3328886555
83333.3328728203
83333.3328469705
83333.332848093
83333.3330226142
83333.3330932797
83333.3329478193
83333.3328715605
83333.3331573067
83333.332796407
83333.3327244192
83333.3326568777
83333.3332127061
83333.3332578098
83333.3325941973
83333.3332914101
83333.3325359051
83333.3327682848
83333.3328026362
83333.3328288218
83333.3327279117
83333.3326830938
83333.3326350957
83333.3328444508
83333.3328446774
83333.3325848582
83333.332533197
83333.3328317406
83333.3324808166
83333.3332878103
83333.333290403
83333.3332950094
83333.333304198
83333.3333086011
83333.333311306
83333.3333132243
83333.3333143956
83333.3328172524
83333.3327968161
83333.3328110333
83333.3328026619
83333.3327925823
83333.332814589
83333.3328123799
83333.3328018288
83333.3327807024
83333.3327511932
83333.3327147562
83333.3326733326
83333.3326281719
83333.3325802461
83333.3325303632
83333.3324792645
83333.3324276021
83333.3333265084
83333.3333217701
83333.3333229909
83333.333325689
83333.3333265196
83333.3333271801
83333.3333277738
83333.3333282971
83333.3333288292
83333.3333147922
83333.3332931325
83333.333260789
83333.3332171148
83333.3331631568
83333.333100486
83333.3330313284
83333.332957754
83333.3328821443
83333.3328067716
83333.3327336158
83333.3326641564
83333.3325991809
83333.3325388193
83333.3324823178
83333.3324283404
83333.3323759949
83333.3331483694
83333.333084349
83333.3331164893
83333.3331720032
83333.3331095157
83333.3330394032
83333.3330605252
83333.3329869679
83333.3331284194
83333.3331884419
83333.3332003708
83333.3331427162
83333.3330769437
83333.3330050055
83333.3329295798
83333.3330669331
83333.3330518128
83333.3330127627
83333.3329645197
83333.3329109492
83333.3328536898
83333.3330189604
83333.3330893008
83333.3331532343
83333.3329445424
83333.3328686691
83333.3327938865
83333.3332089144
83333.332722227
83333.33278006
83333.3328358826
83333.3328887538
83333.3329375444
83333.3329801947
83333.33300766
83333.3330016378
83333.3327644854
83333.3328157692
83333.3328635124
83333.332906419
83333.3327105832
83333.3329404069
83333.3329543601
83333.3329370399
83333.3326549376
83333.3332036468
83333.3331740098
83333.3331082891
83333.3330270356
83333.3329565756
83333.3332255819
83333.3332392041
83333.3332483715
83333.3332547444
83333.3328987163
83333.3332851072
83333.3332789956
83333.3332688222
83333.3332892774
83333.3332505494
83333.3332313392
83333.3332020854
83333.3330971418
83333.3330215611
83333.3329546304
83333.3328989215
83333.332794288
83333.3328362126
83333.3328716742
83333.3328958639
83333.3329001104
83333.3327479067
83333.332698215
83333.3326460978
83333.3328819617
83333.3328529681
83333.3328543828
83333.3325924222
83333.3325863528
83333.3326371202
83333.3325342374
83333.3326857053
83333.3327312664
83333.3327726124
83333.3328082805
83333.3328360348
83333.3328522755
83333.3328522001
83333.3328377987
83333.3328186269
83333.3328212337
83333.3330293719
83333.332956105
83333.3330982819
83333.3328807604
83333.3328056202
83333.3331606648
83333.3327326767
83333.3326633728
83333.3325984722
83333.3332147398
83333.3332588923
83333.3325380662
83333.3332919171
83333.3324815439
83333.3327518584
83333.3327152248
83333.3327818942
83333.3328038357
83333.3326735917
83333.3326282429
83333.3325802123
83333.332814991
83333.3328140181
83333.3325303052
83333.3324792451
83333.3328048901
83333.3324276215
83333.3332883446
83333.3332908008
83333.3332958299
83333.3333050883
83333.3333091393
83333.3333116982
83333.3333134482
83333.3333145499
83333.3327982139
83333.332783846
83333.3327854739
83333.3327859225
83333.3327826537
83333.3327786673
83333.3327939692
83333.3327770959
83333.3327590196
83333.3327331275
83333.3327003992
83333.3326621649
83333.3326197765
83333.3325742231
83333.3325263239
83333.3324767659
83333.3324262279
83333.3323754537
83333.3333267247
83333.3333219751
83333.3333231099
83333.3333259496
83333.3333265898
83333.3333272276
83333.3333277702
83333.3333282825
83333.3333287964
83333.3333148637
83333.333293468
83333.3332615411
83333.3332185847
83333.3331657105
83333.3331044075
83333.3330367897
83333.3329647007
83333.3328902081
83333.3328153051
83333.3327418108
83333.3326712078
83333.3326044835
83333.332542059
83333.332483845
83333.3324289121
83333.3323760334
83333.3323246822
83333.333153022
83333.3330916102
83333.3331219119
83333.3330226914
83333.3330604037
83333.3330734835
83333.3331155909
83333.3331758542
83333.3330479596
83333.3329750166
83333.3330677598
83333.3329962043
83333.3329213573
83333.3331334648
83333.3331916186
83333.3332029249
83333.3331468434
83333.3330829606
83333.333012923
83333.3329389347
83333.3328635646
83333.3330099868
83333.3330176939
83333.3329913878
83333.3329490586
83333.3328998638
83333.3328461735
83333.3327893233
83333.3330255867
83333.3329526782
83333.3330941986
83333.3331565182
83333.3328777082
83333.3328029425
83333.3327303593
83333.333210895
83333.3326613733
83333.3327182116
83333.3327733288
83333.3328258318
83333.3328747094
83333.3329184412
83333.3329524544
83333.3329653592
83333.3329459738
83333.3327555645
83333.3327046606
83333.3328032742
83333.3328466342
83333.3328833469
83333.3326514313
83333.3329078109
83333.3329107841
83333.3328904184
83333.3325967153
83333.3331772976
83333.3332064486
83333.3331106328
83333.3330319268
83333.3329635544
83333.3329056983
83333.3332278795
83333.3332410493
83333.3332497813
83333.3332557965
83333.3328588672
83333.3332858079
83333.3332799425
83333.3332702152
83333.3332518705
83333.3332897481
83333.3332317636
83333.3332038899
83333.3330986497
83333.3330260649
83333.3329618696
83333.3329063559
83333.3328607834
83333.3327796162
83333.3327369918
83333.3328167958
83333.3328459467
83333.3328623667
83333.3328611432
83333.3326904116
83333.3326409209
83333.3325893346
83333.3328445027
83333.3328226783
83333.3328253445
83333.3325364689
83333.3325314554
83333.3325817886
83333.332630306
83333.3324800491
83333.3326762566
83333.3327186324
83333.3327561843
83333.3327873495
83333.3328101081
83333.3328214808
83333.332819974
83333.3328092372
83333.3327963894
83333.3328004712
83333.3330347564
83333.3329629547
83333.3328887078
83333.3331021356
83333.3328140194
83333.3327407317
83333.3331631643
83333.3326703194
83333.3326037346
83333.3325413751
83333.3332161903
83333.3332596287
83333.332483121
83333.3332922315
83333.3324281824
83333.3327340904
83333.3327010623
83333.3326626034
83333.3327605522
83333.3327790755
83333.3326199632
83333.3325742316
83333.3325262243
83333.3327878791
83333.3327883554
83333.332476695
83333.3324262278
83333.3327838991
83333.3323754435
83333.3332881807
83333.333291164
83333.3332961901
83333.3333059154
83333.3333094383
83333.3333119327
83333.333313552
83333.3333146145
83333.3327840778
83333.3327752447
83333.3327540305
83333.3327622942
83333.3327662403
83333.3327683662
83333.3327698437
83333.3327788157
83333.3327376974
83333.3327144845
83333.3326849243
83333.3326497429
83333.3326100529
83333.3325668853
83333.3325210488
83333.3324732263
83333.3324240445
83333.3323743108
83333.3323243319
83333.3333266662
83333.3333219925
83333.3333231238
83333.3333260825
83333.3333266166
83333.3333272354
83333.3333277416
83333.3333282529
83333.3333287743
83333.3333148557
83333.3332936266
83333.3332619884
83333.3332195465
83333.3331674991
83333.3331072986
83333.3330409822
83333.3329702402
83333.3328969
83333.3328227123
83333.332749318
83333.3326781355
83333.3326102211
83333.3325461927
83333.3324862254
83333.3324299679
83333.3323764482
83333.332324739
83333.3331262256
83333.3330973417
83333.3331566944
83333.3330308461
83333.3330671404
83333.3330782658
83333.3329591698
83333.3330007616
83333.333025651
83333.3330166011
83333.3331203969
83333.3330549012
83333.3331788985
83333.3329839533
83333.3329099959
83333.3330038881
83333.3330735643
83333.3329304786
83333.3328558288
83333.3331374276
83333.3331940764
83333.3331500167
83333.3332048303
83333.3330877094
83333.3330193722
83333.3329468779
83333.3328724082
83333.3327981916
83333.3329535551
83333.3329744778
83333.3329628774
83333.332929447
83333.3328854857
83333.3328358778
83333.3327823903
83333.3327261759
83333.3329593828
83333.3330308486
83333.3328854943
83333.3330979605
83333.3331589523
83333.3328111717
83333.332738251
83333.3326681894
83333.3332122983
83333.3326019088
83333.3326577416
83333.3327121158
83333.3327641924
83333.3328130558
83333.3328574174
83333.3328946344
83333.3329186581
83333.3329201514
83333.3328977959
83333.3327444227
83333.3326966986
83333.3326461469
83333.3327882847
83333.3328266539
83333.3328565171
83333.3325935758
83333.3328724886
83333.3328697346
83333.3328509078
83333.3325397756
83333.3331800837
83333.3331132949
83333.3332086761
83333.3330344915
83333.332969282
83333.3329117541
83333.3328641702
83333.3332297245
83333.3332424145
83333.3332507978
83333.333256498
83333.3328266475
83333.3332862639
83333.3332805559
83333.3332713241
83333.333252805
83333.333232077
83333.3332900131
83333.3332047002
83333.3331005938
83333.3330281179
83333.332967534
83333.3329125676
83333.3328663424
83333.3328295942
83333.3327628493
83333.3327241637
83333.3326808202
83333.3327951733
83333.3328185363
83333.3328295294
83333.3328266578
83333.3326340417
83333.3325847596
83333.3325337215
83333.3328138394
83333.3327985517
83333.3328025241
83333.3324816703
83333.3324775837
83333.332527436
83333.3325758193
83333.3326220534
83333.3324268345
83333.3326653059
83333.3327044756
83333.3327383381
83333.3327655487
83333.3327843807
83333.3327932064
83333.3327927984
83333.3327867095
83333.3327797832
83333.3327847784
83333.3330388821
83333.3329684094
83333.3328952981
83333.3328213086
83333.3331049672
83333.3327481071
83333.3326771179
83333.3331649082
83333.3326093792
83333.3325454724
83333.3324855391
83333.3332171345
83333.3332600581
83333.3324292599
83333.3332923734
83333.332375799
83333.3327158019
83333.3326858232
83333.3326503732
83333.332610422
83333.3327394489
83333.3327558915
83333.3325670011
83333.3325210004
83333.3324731207
83333.3327645334
83333.3327679837
83333.3324239893
83333.332374261
83333.3327684096
83333.3323243321
83333.3332881526
83333.3332911333
83333.3332962365
83333.3333064355
83333.3333096246
83333.3333120553
83333.333313571
83333.3333146108
83333.3327744398
83333.3327706975
83333.3327178307
83333.3327333917
83333.332743799
83333.3327520351
83333.3327593084
83333.3327652091
83333.3327688552
83333.3326960253
83333.3326689822
83333.3326364442
83333.3325992863
83333.3325584112
83333.3325146294
83333.3324686089
83333.3324209458
83333.3323724609
83333.3323234581
83333.3333264758
83333.333322036
83333.3333231109
83333.3333261221
83333.3333266163
83333.3333272215
83333.333327704
83333.3333282225
83333.3333287789
83333.3333148019
83333.3332936302
83333.3332621638
83333.3332200645
83333.3331686195
83333.3331092749
83333.333044026
83333.3329744585
83333.3329022178
83333.3328288541
83333.3327558337
83333.332684479
83333.3326158486
83333.3325506574
83333.3324892547
83333.3324315787
83333.3323770646
83333.3323249518
83333.3331296147
83333.3330819803
83333.3330723909
83333.333037378
83333.333101815
83333.3331595365
83333.3329676646
83333.3330083452
83333.3330317741
83333.333020861
83333.332938967
83333.3328951875
83333.3329715014
83333.3329818235
83333.3329598163
83333.3331241344
83333.3330604105
83333.3329913051
83333.3331812268
83333.3329187782
83333.3328452092
83333.3329381558
83333.3330100912
83333.3330781063
83333.3328644047
83333.3327910022
83333.3331404478
83333.3331958718
83333.3331523478
83333.3330913325
83333.3332061617
83333.3330244605
83333.3329533835
83333.3328799814
83333.3328062056
83333.3327338613
83333.3329042397
83333.3329280989
83333.3329280207
83333.3329048242
83333.3328676393
83333.3328227058
83333.332772954
83333.3327198422
83333.3326643746
83333.3329647019
83333.3328919299
83333.3330348638
83333.3328182928
83333.3331007114
83333.3331606374
83333.3327454533
83333.3326748249
83333.3326074234
83333.3332131975
83333.3325438
83333.332598632
83333.3326522553
83333.3327038887
83333.332752701
83333.3327975852
83333.3328366908
83333.3328666603
83333.3328817648
83333.3328773889
83333.3328566201
83333.3326868302
83333.3327312138
83333.3326390768
83333.332588873
83333.3327709413
83333.3328040709
83333.3328275512
83333.3325369626
83333.332837693
83333.3328331684
83333.3328182371
83333.3324840764
83333.3331819257
83333.3331154377
83333.3330363892
83333.333210301
83333.3329722693
83333.3329168188
83333.33286875
83333.3328302508
83333.3332310545
83333.33324334
83333.3332514546
83333.3332568873
83333.3328007141
83333.3332865162
83333.3332809484
83333.3332720058
83333.3332533573
83333.3332319828
83333.3332053329
83333.3332901067
83333.3331022474
83333.3330294404