/*--------------------------------*- C++ -*----------------------------------*\
  =========                 |
  \\      /  F ield         | OpenFOAM: The Open Source CFD Toolbox
   \\    /   O peration     | Website:  https://openfoam.org
    \\  /    A nd           | Version:  12
     \\/     M anipulation  |
\*---------------------------------------------------------------------------*/
/*   Windows 32 and 64 bit porting by blueCAPE: http://www.bluecape.com.pt   *\
|  Based on Windows porting (2.0.x v4) by Symscape: http://www.symscape.com   |
\*---------------------------------------------------------------------------*/
FoamFile
{
    format      ascii;
    class       surfaceScalarField;
    location    "100";
    object      phi;
}
// * * * * * * * * * * * * * * * * * * * * * * * * * * * * * * * * * * * * * //

dimensions      [0 3 -1 0 0 0 0];

internalField   nonuniform List<scalar> 
29052
(
-2.17138820648774e-08
3.01613588472118e-07
2.05382957333943e-05
1.98069997008732e-05
2.28161129776077e-07
4.43160509537995e-07
-8.2994996699771e-08
4.32839706565299e-07
8.1821258798392e-06
1.00484640979425e-06
-1.16463475412944e-07
1.9649891481492e-05
-2.9147725684879e-07
1.20955561461207e-06
1.98936511833939e-05
1.93291158726486e-05
-8.19058103204967e-07
3.86311287757986e-07
9.26754624399019e-06
-2.37389034530971e-07
3.02904695903304e-07
1.9499933633428e-08
2.55572768003827e-07
6.01168775384311e-06
2.0152441797428e-07
-3.78875648633173e-08
7.90198066832978e-06
1.37170278158137e-06
-4.86341085427822e-07
1.87644755526953e-05
9.15170642037521e-06
-2.53988321425093e-07
2.79788502677073e-07
-5.01772351646108e-07
7.38136211287013e-07
2.03021604253707e-05
-7.33130661120617e-07
1.96886704604936e-06
2.00294803557518e-05
2.01499165826425e-05
-9.13992147186754e-07
3.75653327794263e-07
1.02345170806808e-05
-5.71240845583505e-07
1.70160590291693e-07
7.05296510698978e-06
-6.7238867115418e-08
2.24539999187982e-07
9.59521947071863e-08
4.03043595807792e-07
5.40192022726972e-06
1.34239319851816e-07
1.28207969593613e-07
5.71134152560195e-06
4.20875180328473e-07
-2.69108782416595e-07
7.26383196260553e-06
1.35303807751462e-06
-4.84269250744182e-07
1.7895666553672e-05
-4.89975254128776e-07
6.45271933183071e-07
8.68406933968503e-06
6.75469971483741e-06
1.89864899177342e-07
-1.13813804134662e-08
1.03039026855281e-05
-4.56492057049917e-07
1.64975497774696e-07
-7.12853106731834e-07
2.44230672169206e-07
2.13564758897056e-05
-1.03821400723532e-06
2.1216073963493e-06
2.11874158240785e-05
-7.03079606877137e-07
2.14758690318828e-06
1.99379248423394e-05
1.8971154798648e-05
-2.51120916872536e-06
2.23877030607241e-07
1.17053983923884e-05
-9.37967838758778e-07
1.18846972644323e-07
7.97092427615076e-06
-3.04757590711669e-07
1.65204784262183e-07
6.25932573115091e-06
4.64894331739716e-08
2.83073667827245e-07
9.55552385133776e-08
3.67093592749166e-07
5.0598827915421e-06
1.34272514536685e-07
2.6040111851659e-07
5.13544853914495e-06
2.09281215646833e-07
-5.66694544785208e-08
5.28961048658456e-06
3.45845368324233e-07
-2.91512216614112e-07
6.72521229193761e-06
1.21724536090639e-06
-4.81627214333124e-07
1.71600372737381e-05
3.42647087053337e-07
-2.3771120879305e-07
6.36903869224484e-06
-7.17776028185e-07
9.91812785467369e-06
7.10455749394151e-07
-4.87594922587933e-07
5.96461752327464e-07
8.21792155482769e-06
7.77246741653873e-06
1.15795737013241e-07
-1.84024917270144e-07
6.0556112225795e-06
1.96211481597132e-07
1.30374456060075e-07
1.18883948405534e-05
-7.40724092365356e-07
9.64586818590428e-09
-9.7241449828657e-07
-1.40994423955034e-06
2.15975251051533e-05
-1.41902478441647e-06
1.90693284739497e-06
2.29898861279675e-05
-9.66218490799663e-07
2.79643893547412e-06
2.15046172899677e-05
-6.83961931516554e-07
2.17761516144087e-06
1.96614851337686e-05
1.79312572252238e-05
-3.51301103764177e-06
2.36249954177897e-07
1.30556370282612e-05
-1.59918102357249e-06
3.60086621751529e-08
9.1857757563454e-06
-5.79404096443187e-07
9.89554874205991e-08
7.17284929431506e-06
-1.23871521116898e-07
2.13071273040972e-07
5.83513275496404e-06
7.7814555886201e-08
3.21129422915885e-07
1.02761413633812e-07
4.9991465938479e-07
4.92010030019784e-06
1.33158769784517e-07
3.29396700185985e-07
4.85772452117493e-06
1.63387843455319e-07
1.14684463261572e-07
4.80070015323367e-06
1.62567950596373e-07
-1.23868738273735e-07
4.95939306666571e-06
2.80524855437393e-07
-3.14127344777705e-07
6.27718415101719e-06
1.13827914722506e-06
-4.86276503504636e-07
1.65080342705906e-05
-4.26825060988976e-07
7.42159394816311e-06
4.0251249191863e-07
2.70199816198164e-07
5.72795868757072e-06
-1.68896750353012e-08
2.8364395292787e-07
-2.87330709716344e-07
6.04767947572697e-06
-6.85486779959389e-07
9.44166544269639e-06
7.9209970157178e-07
-1.02296654800163e-06
1.1513389406115e-05
6.89200045390926e-07
-4.83303832142909e-07
5.5079270211888e-07
7.74697645462141e-06
8.95310389922541e-06
1.86257941099714e-08
-4.10961428598583e-07
7.0197472269429e-06
1.60302838567382e-07
4.9535152703664e-09
5.65310615871994e-06
2.01658973447216e-07
2.4388540822341e-07
1.35316481418556e-05
-1.00101389758547e-06
-4.37980620549032e-07
-1.16817162347895e-06
-3.46355098261567e-06
2.11528590364994e-05
-1.78693558678923e-06
8.76339901902211e-07
2.44147457418266e-05
-1.29852014900499e-06
3.34113970543669e-06
2.3743468096415e-05
-8.82700240900706e-07
3.09858453495675e-06
2.14662648756567e-05
-6.45535073175291e-07
2.27454919147125e-06
1.91707348845795e-05
1.71213085896131e-05
-4.50007481170788e-06
-5.21046076451504e-07
1.43953779789711e-05
-2.65099793764731e-06
-2.35414835761782e-09
1.03079142334412e-05
-9.40906649796377e-07
2.44141929865592e-08
8.27306054704469e-06
-3.38614609770788e-07
1.48517073316199e-07
6.6338275126365e-06
-6.60488213819628e-08
2.83516302909813e-07
5.57941322816454e-06
8.80827479484421e-08
4.2320241265516e-07
9.39407788931016e-08
5.44181200053492e-07
4.78441947993417e-06
1.27424795047216e-07
4.28418269571235e-07
4.69365029826388e-06
1.34869814804648e-07
2.49049441111703e-07
4.58848481862388e-06
1.10908464597078e-07
3.88139145896973e-08
4.52710469490124e-06
1.22243115508439e-07
-1.57898191313092e-07
4.6809187306567e-06
2.53044835707515e-07
-3.11744352987149e-07
5.84960830322671e-06
1.04354767503054e-06
-3.4802767997935e-07
1.58125129546903e-05
-1.51742212403769e-07
3.24788737939491e-07
6.69004197635694e-06
-4.48854262643681e-07
7.08328629850361e-06
3.85280435983792e-07
-6.71233832680779e-07
8.58397502136535e-06
4.19831231798354e-07
1.88998159865949e-07
-7.69111187039627e-08
5.43943704910795e-06
2.17164962665995e-07
5.3876636433987e-06
1.66243505521543e-07
2.45464700502589e-07
-2.917073924467e-07
5.73285215457739e-06
-6.49874487756733e-07
8.92174307780033e-06
8.37833689110758e-07
-9.4056899974512e-07
1.09169132587052e-05
1.03047897285425e-06
-1.29865542422637e-06
1.31864112801285e-05
5.45942063025309e-07
-4.52847521967828e-07
5.52636265490155e-07
7.25468825127198e-06
1.00598701388528e-05
-9.02199785592311e-08
-6.44204447707998e-07
8.07289988872761e-06
8.53068827051556e-08
-1.35847667476255e-07
6.52222947193475e-06
1.40844224094668e-07
1.77343912392683e-07
5.39589596103027e-06
1.88341953503466e-07
3.66474750839839e-07
1.56089014432362e-05
-1.09141848930827e-06
-1.72841657713391e-06
-2.79761531618546e-06
-6.79772529358349e-06
2.32530042018971e-05
-2.20664551477293e-06
-9.40615784702782e-07
2.51762246379155e-05
-1.72417323419062e-06
3.66277465586768e-06
2.58170171093723e-05
-1.13297517776066e-06
4.21321969211461e-06
2.37616527590391e-05
-8.13222636556401e-07
3.43938511361098e-06
2.1114602974154e-05
-4.66577667431904e-07
2.17728424897181e-06
1.8503571580293e-05
1.40767621125906e-05
4.70733988872356e-06
-2.40590919262618e-06
1.66928570010876e-05
-5.03619287620365e-06
-2.39193704334542e-07
1.12878377832637e-05
-1.58024439319493e-06
-5.17366083109283e-08
9.36697562057955e-06
-5.61408729540299e-07
7.66331606060001e-08
7.62597574051856e-06
-2.40966488875655e-07
2.5466219094364e-07
6.29095962694582e-06
-4.56789736156835e-08
3.91782680011042e-07
5.40077622147024e-06
7.98243770184308e-08
5.05904248011563e-07
8.95069526964209e-08
6.09273961161046e-07
4.72117956228278e-06
1.1725133160194e-07
5.01522283420278e-07
4.59406132467665e-06
1.11417159757615e-07
3.59245278003722e-07
4.47203374282974e-06
7.44233215220639e-08
1.79982371997297e-07
4.3728902713965e-06
7.21082606507627e-08
-1.06397889931255e-08
4.30773602332184e-06
1.10146803169485e-07
-1.67529457041684e-07
4.42655668467096e-06
2.34329645973047e-07
-2.50964248868718e-07
5.5182168970503e-06
9.29448417511507e-07
-2.5878821004254e-07
1.51418520613514e-05
6.2462860849201e-06
9.00863677041806e-08
2.51255463759744e-07
-3.25178001697424e-07
7.67949467084986e-06
3.72091915339783e-07
-1.85628493288579e-07
2.54342799388066e-07
6.36144451190981e-06
-4.14684819041615e-07
6.70476533337232e-06
3.88771441481711e-07
-6.53195983937505e-07
8.14579971057593e-06
5.36017934758686e-07
-9.09979118353202e-07
9.61547530511523e-06
4.75459606050741e-07
1.21697959648126e-07
5.15057749874134e-06
1.12890784886315e-07
1.39176549635777e-07
-1.03007824349917e-07
5.1836627063772e-06
1.73265536104945e-07
5.17962807279164e-06
3.20651129930427e-07
2.43600927034851e-07
-2.75171185011645e-07
5.42171945239549e-06
-5.86805969861118e-07
8.96179837527905e-07
8.35175001743625e-06
-8.59802055877178e-07
1.02351549384044e-05
1.24631932377599e-06
-1.21342238753814e-06
1.23487907639148e-05
1.357152562723e-06
-1.41888561283986e-06
1.55182003332381e-05
-1.51327678880861e-07
-3.6068264298857e-07
5.41328927454682e-07
6.84178802063509e-06
1.14530569534864e-05
-5.26959470211914e-07
-8.19972667316733e-07
9.01678005560375e-06
1.03437463187281e-07
-3.12182544928706e-07
7.45420326593781e-06
6.03437807590167e-08
1.16395947369166e-07
6.18148414283887e-06
1.36330248599096e-07
3.38812973321169e-07
5.23725821375995e-06
1.71025609936236e-07
4.7620810879445e-07
1.89939933293702e-05
-1.11296593482563e-06
-5.71432252547365e-06
-5.62256167540301e-06
-9.54305736868568e-06
2.24446213198188e-05
-4.51627503768972e-06
-2.86700844339776e-06
2.96955129984265e-05
-2.47709744425209e-06
3.99953522788768e-06
2.73162947383047e-05
-1.48593105451404e-06
5.79946973610438e-06
2.57164818617622e-05
-1.01372946366594e-06
4.85637094499904e-06
2.33582935634551e-05
-6.02093104526862e-07
3.42089366873928e-06
2.04730456245873e-05
-3.43172536534329e-07
1.96927403099202e-06
1.78069227130789e-05
5.4469741947549e-05
-1.86432434760933e-05
1.42568557881947e-05
-5.97794604170501e-06
-2.07071638848152e-07
1.3610316398113e-05
-3.07735930902264e-06
-1.98547549252593e-07
1.02221997735851e-05
-9.47380655814147e-07
4.33210880176342e-08
8.70689289116143e-06
-3.91000295425507e-07
2.42850484280294e-07
7.11868216802235e-06
-2.10548591177931e-07
3.83178398964782e-07
6.06088594027618e-06
-4.24126216348332e-08
5.01283131695443e-07
5.29342459573028e-06
7.30509362184579e-08
5.7958761199578e-07
8.69457188458587e-08
6.37118350228325e-07
4.70074598705119e-06
1.09927118439883e-07
5.63564792307368e-07
4.54920737981837e-06
9.2432035455943e-08
4.48064608839624e-07
4.41280689635798e-06
4.53787489148753e-08
2.96265121738426e-07
4.31036974326228e-06
3.81601648854374e-08
1.20237759281788e-07
4.20385155843215e-06
6.02283613431247e-08
-4.18560836604288e-08
4.12183452642027e-06
1.05541261021283e-07
-1.51632367586262e-07
4.22168375950686e-06
2.15741093888459e-07
-1.99654131996085e-07
5.24334297671112e-06
8.23029673531877e-07
-1.97960607225531e-07
1.45167872527189e-05
5.96087402587728e-06
5.94542379142196e-08
1.62007453556609e-07
5.95835705071544e-06
2.95405402037455e-07
1.91054518994604e-07
7.09062685431917e-06
-5.72729792753642e-09
2.953474776913e-07
-3.25566562613958e-07
7.22898181411609e-06
3.77181125239805e-07
-5.00748533086831e-07
8.47118598258663e-06
5.08401901535513e-07
-1.78537099474495e-07
2.22109147018172e-07
6.04234682872652e-06
-3.65910387523779e-07
6.31954597476965e-06
4.07913465631054e-07
-5.69337217631333e-07
7.63303759514649e-06
6.11024753477318e-07
-8.62185946827828e-07
8.98497630899259e-06
8.15195676454418e-07
-1.10077883018128e-06
1.10098552817597e-05
6.00460344443208e-07
6.94510108460935e-08
4.94886266294218e-06
6.74124614247719e-08
6.81612402713586e-08
4.99944663463708e-06
2.70282144176357e-07
1.30639578274336e-07
-1.14857330443796e-07
4.95293794458116e-06
1.38006331039352e-07
5.06811255833505e-06
4.44211713755253e-07
2.46443422125213e-07
-2.37669314643847e-07
5.15780632681241e-06
-7.48664128107926e-07
1.36668916283987e-06
9.49951740991753e-06
-4.58282274909448e-07
9.00335289518121e-07
7.84891032574584e-06
-1.10067975500968e-06
1.12945072150177e-05
1.91521878379439e-06
-1.54685225450299e-06
1.41769273964731e-05
1.76797549622381e-06
-1.52209144814018e-06
1.84665909684112e-05
-2.83947917693305e-07
5.11204672073923e-07
6.48709597312915e-06
1.55528645499704e-05
-2.57770458917886e-06
-1.0048387372835e-06
1.00163133502849e-05
-2.20332355562456e-08
-4.88656373924455e-07
8.26863717501864e-06
1.2073584549832e-07
6.56513369907276e-08
6.9916963218873e-06
6.210088006008e-08
3.175879547973e-07
5.97121478912684e-06
1.23329878536225e-07
4.76165534725416e-07
5.15883240278899e-06
1.58532476618059e-07
5.62186133225548e-07
6.66484026764066e-07
-5.28516401659417e-06
-5.74035541590031e-06
5.06671746102386e-05
-1.09728081150536e-05
3.46487724911957e-05
-4.63908139496916e-06
8.69249836337069e-06
2.96414590693635e-05
-2.12296397579334e-06
8.60602830590292e-06
2.66324699497088e-05
-1.24021072642679e-06
6.78748587839984e-06
2.5025437954286e-05
-7.51649558556299e-07
4.89964724342196e-06
2.26311193777397e-05
-4.3821391378773e-07
3.14088673952315e-06
1.97396137798454e-05
-2.60856383340075e-07
1.75236585152556e-06
1.71384486834589e-05
4.92778703408823e-05
3.01609412920402e-08
1.66663234974402e-05
-4.44529759139433e-06
-3.43804162960111e-07
1.16519201407419e-05
-1.81695292732321e-06
2.46028764124029e-08
9.53884111855761e-06
-6.56577306155755e-07
2.36880945789487e-07
7.86654140493734e-06
-3.70993540417421e-07
3.86063851280507e-07
6.78743420896935e-06
-1.95035724812588e-07
5.10215969814383e-07
5.92738038029486e-06
-4.34956310666601e-08
5.91198252715453e-07
5.25166465760928e-06
6.91085989905015e-08
6.30000110590411e-07
8.7100876128179e-08
6.53131972572564e-07
4.72658071325481e-06
1.05942651504794e-07
6.04830509313534e-07
4.55353477539458e-06
7.83931840161482e-08
5.16534892488793e-07
4.40234042410709e-06
2.37422316899754e-08
3.89618891532352e-07
4.29570898721582e-06
1.19930538832042e-08
2.31129242742677e-07
4.18748460643306e-06
2.74287062526967e-08
7.04165366860618e-08
4.0641509810681e-06
5.75920319834486e-08
-5.69945766923017e-08
3.9696060534354e-06
1.03863826562808e-07
-1.34520431301125e-07
4.05268733314095e-06
2.01761975999757e-07
-1.60990199073981e-07
5.00461521208742e-06
7.27437540477085e-07
-1.56611595705694e-07
1.39459687279737e-05
3.61543867266898e-08
1.15627975395721e-07
5.69999409680268e-06
5.73356433163909e-06
8.90626266510903e-08
2.63329845974085e-07
6.6839473126462e-06
-1.638048615807e-08
2.59464692410922e-07
5.80503580357072e-06
4.58786220982715e-07
1.40787926434916e-07
6.69664351972892e-06
2.58542476502233e-07
2.21810075503281e-07
7.70780460675249e-06
-9.89231609516401e-08
4.54313730626945e-07
-2.76303801319807e-07
6.78664627221444e-06
3.71377984762286e-07
-4.66719101797717e-07
7.81903328182293e-06
6.33805818754112e-07
-6.71979207827803e-07
9.32863527073437e-06
7.67223603190319e-07
-1.65474256799798e-07
2.2254909932637e-07
5.74999627965223e-06
-3.03436212108477e-07
5.98893616389931e-06
4.22204634284353e-07
-4.75392308485022e-07
7.11968913143078e-06
6.47968699467389e-07
-7.34405094719428e-07
8.22918485671078e-06
1.00048005074083e-06
-1.11082043861381e-06
9.96315389529251e-06
1.42576880703057e-06
-1.33537363720696e-06
1.61432601038244e-05
-1.76741382455101e-07
6.01871832125715e-08
2.85033856618412e-08
4.77274471114089e-06
1.79011285342697e-08
4.85004245027911e-06
2.10905444277056e-07
2.88259225428139e-08
4.93908896935756e-06
3.94215702740381e-07
1.35155959385642e-07
-1.157217635601e-07
4.75343036631122e-06
1.13731697508893e-07
5.03001358261854e-06
5.37682252588508e-07
2.47800377092715e-07
-2.02520483887702e-07
4.93244580910773e-06
-9.17086993865194e-07
1.02702239309411e-05
2.06777809927924e-06
-5.73676246432688e-07
1.36917920604948e-06
8.85266434181135e-06
-3.55193101012936e-07
8.58868855992817e-07
7.41820912974793e-06
-1.51521361371454e-06
1.21222641544683e-05
3.36196012317205e-06
-2.30015826236065e-06
1.67059771128338e-05
-2.25264363208986e-07
4.77123895805549e-07
6.17614133694672e-06
1.93760335434097e-05
-3.90398478087069e-06
-7.16983221315711e-07
1.17664384906038e-05
-4.75348047355153e-07
-6.66073697633119e-07
9.03749529038366e-06
1.70326764874237e-07
-3.69252054012422e-08
7.64248450563406e-06
5.57839867484166e-08
2.96002570307355e-07
6.70300461783746e-06
4.31296191843255e-08
4.82197559095772e-07
5.86575782740541e-06
1.10756268106987e-07
5.85551157680547e-07
5.14346188927359e-06
1.53252891754136e-07
6.23069622871069e-07
2.46155574110629e-06
3.57908072249082e-05
-1.61812176966906e-06
4.13124425869971e-05
1.90418707562316e-05
2.61127665466255e-05
-2.76474674974216e-06
1.54028190457028e-05
2.56091354313906e-05
-1.58069990167411e-06
9.47839802997677e-06
2.55220927795435e-05
-8.93347301096353e-07
6.74468879766654e-06
2.40736702449606e-05
-5.45384022685608e-07
4.50382709764639e-06
2.18135096260393e-05
-3.2391707911322e-07
2.79647443944185e-06
1.9019405669414e-05
-2.02079635305725e-07
1.54754166404347e-06
1.65204293198527e-05
3.45450852965397e-05
-6.82414831250206e-07
1.51294520436054e-05
-3.46044692515154e-06
1.17820667051393e-07
1.06535161950521e-05
-1.19261017500909e-06
2.51717935699047e-07
8.61822894464554e-06
-5.73552411924378e-07
3.79851410700732e-07
7.42513586361073e-06
-3.46331829121517e-07
5.23845554339566e-07
6.60577855143708e-06
-1.85031788560029e-07
6.16841121813919e-07
5.87321792748063e-06
-4.13079792438283e-08
6.54964134258553e-07
5.26093819862626e-06
7.17136284060783e-08
6.59686352555211e-07
8.9564100174517e-08
6.55605024406319e-07
4.78085938727129e-06
1.05370133267432e-07
6.30838229099484e-07
4.59520007131666e-06
6.92293177199048e-08
5.67205597230123e-07
4.43363132552706e-06
9.65788917848946e-09
4.6305542250336e-07
4.3192441118379e-06
-7.21303076614672e-09
3.22899191874105e-07
4.21115171746538e-06
3.3244709878492e-09
1.69213415772278e-07
4.08536389649147e-06
2.66558558167412e-08
3.30664626540394e-08
3.94743617057542e-06
5.94043203526193e-08
-6.53138599905794e-08
3.84099716051776e-06
1.05109675105586e-07
-1.19226784524202e-07
3.90581609719352e-06
1.90279330761389e-07
-1.3384717913007e-07
4.7915759882258e-06
6.42662230621555e-07
-1.25916805761151e-07
1.34292298863141e-05
2.15446624228169e-07
5.53226599857248e-06
3.98982325217358e-08
-1.19098837442134e-08
6.31424682045157e-06
2.20909239810136e-07
1.23535834164456e-08
1.09917249489033e-07
5.47243418698701e-06
6.3652678016593e-06
1.64776123830131e-07
2.39251845458985e-07
5.63941012971136e-06
3.55159529028304e-08
4.22252105825101e-07
7.11005478618864e-06
-9.34754883809712e-08
4.83917279893885e-07
5.75028010476698e-06
5.816811044208e-07
1.06298678793504e-07
6.48125362136551e-06
4.63587862993453e-07
1.57470261587278e-07
7.19528326647135e-06
2.1573657475038e-07
3.54317095021303e-07
8.23971308246204e-06
-2.09277000853585e-07
7.89349401659938e-07
-2.2833114706444e-07
3.70162158082241e-07
6.39195961494924e-06
-3.74528623809105e-07
7.17927915474168e-06
6.51206195529745e-07
-6.24385765204361e-07
8.33903175219871e-06
1.13689616199525e-06
-9.19683608562807e-07
1.09716492991086e-05
1.14626574007342e-06
-1.50174352781417e-07
2.34913318399733e-07
5.49697952943975e-06
-2.50324205090583e-07
5.70678389997725e-06
4.25084623811372e-07
-3.77421256147186e-07
6.68679597884407e-06
6.58837386111084e-07
-5.82110644237948e-07
7.52437474564378e-06
1.01777667332275e-06
-9.79597238791866e-07
8.61349388305141e-06
1.81444110939684e-06
-1.42927791834695e-06
1.26028668212874e-05
4.09515876117728e-06
-1.71999765561905e-06
2.33230371860754e-05
-2.09181707332496e-06
1.10431766605143e-08
1.52584947473197e-07
4.71824474263501e-06
6.71086477328873e-08
-8.11834596487061e-10
4.61738648926104e-06
-1.86816081912672e-08
4.83440347087167e-06
3.27057584196347e-07
2.94538200764727e-09
4.94198985377683e-06
4.88945207163853e-07
1.43544130441263e-07
-1.12409680597465e-07
4.57918525135848e-06
9.85733793384097e-08
5.04660801471187e-06
6.05181901316196e-07
2.48577627479104e-07
-1.72099164220067e-07
4.73581621095607e-06
-6.74813683297218e-07
9.43229784621049e-06
1.98854819033791e-06
-1.16062731569978e-06
1.05921678079602e-05
3.17772961470289e-06
-4.32557965598171e-07
1.28825304536643e-06
8.31042965226975e-06
-2.75116317041929e-07
7.99635794547336e-07
7.04688171194352e-06
-2.84564214647199e-06
1.22475966965655e-05
7.90098823407838e-06
-1.82024018713699e-07
4.45341470546152e-07
5.90102586170836e-06
3.3401474493493e-05
-2.98764361944541e-07
1.67989284067029e-05
-2.10645449748604e-06
-7.55356747160733e-07
1.02611663969873e-05
8.8538092920905e-08
-1.91951326088771e-07
8.27104216612966e-06
1.22600784794383e-07
2.43425832730213e-07
7.27042068910736e-06
6.69495709886282e-09
4.87132704734686e-07
6.55317695241369e-06
3.30815054544739e-08
6.1245534663906e-07
5.83837744288667e-06
1.06637799812642e-07
6.66992625608806e-07
5.17359803806476e-06
1.53336763012372e-07
6.6243399370968e-07
2.03758594826958e-06
2.92408109070235e-05
2.20198600169696e-05
-3.31951553162339e-06
2.26121211677565e-05
2.16427565755051e-05
2.0511234727382e-05
-9.80687948487076e-07
1.96176650373136e-05
2.28782156429883e-05
-1.85893197584565e-06
1.25968574754192e-05
2.43494010114704e-05
-1.06310408546649e-06
8.91554820276818e-06
2.4414280682218e-05
-6.2557318841683e-07
6.066220806047e-06
2.31368066997868e-05
-3.88266450006779e-07
3.98392831127366e-06
2.1014276553071e-05
-2.44759376421265e-07
2.46233855344448e-06
1.83493527320786e-05
-1.58816753254382e-07
1.36601643806396e-06
1.59558997062064e-05
3.57633783462545e-05
1.68243011831047e-07
1.3732351735937e-05
-2.1576585774275e-06
2.93405533118337e-07
9.74252010546448e-06
-9.60415303770058e-07
4.22257608993259e-07
8.15397687034142e-06
-5.07182996640317e-07
5.32258443942512e-07
7.17769799659417e-06
-3.31877917078616e-07
6.38926205069964e-07
6.52367220515329e-06
-1.7043120056762e-07
6.9312100339343e-07
5.87470392121642e-06
-3.43604194952468e-08
6.97156191365546e-07
5.30353530263636e-06
7.66089295116756e-08
6.72123268299246e-07
9.37660684818538e-08
6.50412483509612e-07
4.85163144232451e-06
1.07539606326728e-07
6.43557701973952e-07
4.66059744762861e-06
6.48928970771647e-08
6.02079996158446e-07
4.49542933055993e-06
1.57391174457732e-09
5.19450757768012e-07
4.37565986164937e-06
-1.98493497172122e-08
3.97662512020524e-07
4.26432956198256e-06
-1.39174085467987e-08
2.54849372838676e-07
4.13943405599101e-06
4.84220683246092e-09
1.17193122752586e-07
3.99639671373091e-06
3.10142277614572e-08
6.01203628195465e-09
3.84509783874646e-06
6.44419135384995e-08
-6.89496565109438e-08
3.72628009096256e-06
1.06817786139446e-07
-1.0691515162216e-07
3.77206813118273e-06
1.80501913197809e-07
-1.13424222547308e-07
4.598584856524e-06
5.68935764818348e-07
-1.01379566368949e-07
1.29616771841824e-05
-1.28111053024164e-08
5.49028189464538e-06
3.58696780947456e-07
1.63559416535045e-07
5.35707424838097e-06
3.50286864172764e-08
2.06836037685332e-07
6.06977690638236e-06
1.16622917463154e-07
-1.26875219146327e-08
6.00288762796699e-06
2.05625952095516e-07
-5.90889444763446e-08
6.5809857988859e-06
4.34499268782342e-07
-8.05204201962858e-09
1.23394627180506e-07
5.27402975879026e-06
6.70031872486621e-06
3.56569072397961e-07
2.09653679792173e-07
6.22569290629811e-06
9.40777071771713e-08
4.36226682378944e-07
5.63361303613735e-06
-2.2272262955095e-10
5.42074554217574e-07
7.35533779101262e-06
-1.81547884242079e-07
9.25392243487095e-07
5.762914689941e-06
6.69894137552706e-07
8.58084293732251e-08
6.39296767585598e-06
6.15964794865379e-07
1.14108735963488e-07
6.9177274675524e-06
4.5880404168714e-07
2.67066223351226e-07
7.59221382625107e-06
1.58282113895577e-07
6.65549321221134e-07
9.2695935891739e-06
-3.86249646917232e-07
1.24745468058496e-06
-2.82961041011642e-07
6.12625912793465e-07
6.63764879592143e-06
-1.881335840688e-07
3.764671619193e-07
6.06112086065433e-06
-4.9176310663266e-07
7.33513348965259e-06
1.16720939625974e-06
-8.66963368371993e-07
8.98751898350143e-06
2.55863618949741e-06
-1.58031424931535e-06
1.94282548534382e-05
-1.62273066780658e-06
-1.3572343199877e-07
2.48842098597729e-07
5.27708510099833e-06
-2.05617474375886e-07
5.46352510649556e-06
4.22339204816068e-07
-2.97449893805323e-07
6.32855549403616e-06
6.48216717920068e-07
-4.33593027789777e-07
6.96556563818587e-06
9.76424669305633e-07
-7.19636790297304e-07
7.56961464261166e-06
1.62063520202458e-06
-1.38869758801398e-06
8.80519880626333e-06
4.15505127354956e-06
-2.28108148321129e-06
1.42565941552354e-05
1.33062289640742e-05
-3.2668429291067e-07
3.3674040914755e-05
-2.27321335190492e-08
2.57408743588989e-07
4.73839725450685e-06
2.13308470920768e-08
1.03717272365195e-07
4.59723195026964e-06
7.99452059787075e-08
-2.13616722327759e-08
4.47741230679245e-06
-4.25818147699771e-08
4.87244926248443e-06
4.19329269516126e-07
-1.23008541905676e-08
4.98943490488473e-06
5.59986460057526e-07
1.53821319321861e-07
-1.06222025137873e-07
4.42393332148933e-06
9.100804452672e-08
5.10085315068857e-06
6.51801353549588e-07
2.48722533183371e-07
-1.47602635909436e-07
4.55949283328559e-06
-4.82070700994491e-07
1.80361178469623e-06
8.77342746604012e-06
-7.76703186517709e-07
9.53215084653686e-06
2.76216751659921e-06
-1.52385072893731e-06
1.0358818980317e-05
4.73132575019286e-06
-3.22873353089228e-07
1.18466223259041e-06
7.85998406907481e-06
-2.16172262018871e-07
7.41267898635957e-07
6.72235260383228e-06
-5.62721087604065e-06
1.01397075869122e-05
7.57372408504162e-06
-1.49534908333371e-07
4.17248752203914e-07
5.6549944027134e-06
3.3813988619557e-05
-4.55716676746765e-07
1.43118787377765e-05
-8.55276807342363e-07
-3.9103841558221e-07
9.3224366159381e-06
1.55322051344361e-07
1.95400099473558e-07
7.83093669140502e-06
8.69128846138368e-08
4.86232841463692e-07
7.06799060443e-06
-4.23340809341138e-09
6.34137104930188e-07
6.50027545377211e-06
3.2192479717816e-08
7.10280377325996e-07
5.86534472430924e-06
1.08993133049872e-07
7.20682596198801e-07
5.23205148302775e-06
1.57339028652149e-07
6.84108679646751e-07
2.19458830009155e-07
1.97323616558252e-05
9.66490240217326e-06
-9.65062679405382e-07
1.39120748482906e-05
1.88329008893171e-05
1.26082509544687e-05
-1.33841107445076e-07
-7.0765027169633e-07
2.08871959416539e-05
1.9948911833198e-05
-1.70141847899765e-06
1.47099935298861e-05
2.24662501832686e-05
-1.20194418030094e-06
1.08807194531506e-05
2.35861294431464e-05
-6.80743689381519e-07
7.75803950796913e-06
2.34032073576262e-05
-4.27863318648273e-07
5.27831687610442e-06
2.2270246362325e-05
-2.83134895139657e-07
3.48179139132107e-06
2.02779114060255e-05
-1.8824191191854e-07
2.16555924271373e-06
1.77380316182888e-05
-1.24903128756474e-07
1.20765789426377e-06
1.54420814654268e-05
3.26059926402742e-05
-8.73500907428422e-08
1.2569756156193e-05
-1.71305154344233e-06
4.69429150649752e-07
8.99071643688372e-06
-8.18687840728802e-07
5.32580878577372e-07
7.74294915839254e-06
-4.8287664711918e-07
6.41717117399958e-07
7.0386234164085e-06
-3.00659143383505e-07
7.19912399220102e-07
6.5088813890727e-06
-1.52401207464531e-07
7.43667221040567e-07
5.91519374010651e-06
-2.403401598081e-08
7.18417436021348e-07
5.36615440352382e-06
8.35817242470923e-08
6.72328481236252e-07
9.81954869221948e-08
6.38149211121927e-07
4.92568612924751e-06
1.11569524459561e-07
6.46398309209234e-07
4.73721866235802e-06
6.396697140178e-08
6.23596213170182e-07
4.57511061483029e-06
-2.26042129411156e-09
5.61062953994917e-07
4.45607501942755e-06
-2.70472674905217e-08
4.57515467290694e-07
4.34285364424253e-06
-2.45511615049152e-08
3.27656262851071e-07
4.2160748466115e-06
-1.0281103949125e-08
1.94000563611857e-07
4.07290946999588e-06
1.15820238209269e-08
7.68591569491104e-08
3.91396945018044e-06
3.87140626617702e-08
-1.22623975176466e-08
3.74969798557133e-06
7.05259028071669e-08
-6.96280979710924e-08
3.61846860988777e-06
1.0843540853126e-07
-9.59580707548963e-08
3.64616768427491e-06
1.71890750240672e-07
-9.60736576472912e-08
4.42139012240525e-06
5.04507437502533e-07
-8.06736686215771e-08
1.25378443392008e-05
3.79910531451234e-07
4.52683835331125e-08
5.99452202167474e-06
-1.50204503459543e-08
2.89337446368617e-07
5.35679252991384e-06
-4.76213397061057e-08
5.52625953062865e-06
4.71083369662705e-07
1.18036944466536e-07
5.20049097627684e-06
5.18297035233089e-08
1.67861522759351e-07
5.8240315051342e-06
1.00220668288769e-07
1.96896475229886e-07
6.2706851739172e-06
2.90240621768599e-07
-1.70454845748004e-08
5.74282283815209e-06
2.12375321182014e-07
-2.99399094903168e-08
6.15709348542173e-06
3.7648729421631e-07
-1.10028256541165e-07
6.59285020419474e-06
8.15205552875235e-07
-2.28718703122814e-08
1.436493446278e-07
5.09747872068737e-06
6.84423106068571e-06
7.48372534411257e-07
1.74580041978745e-07
6.51724826029448e-06
2.62401159526567e-07
4.41772259088484e-07
6.19934504981294e-06
4.65866092041267e-08
5.830174646069e-07
5.68360022578735e-06
-2.18749580539321e-08
6.30950728144695e-07
7.61547236247933e-06
-3.26173507838117e-07
2.0386563502643e-06
5.81929801823027e-06
7.30517447576947e-07
7.64170060865235e-08
6.38815281201258e-06
7.24513699334654e-07
8.93613411674168e-08
6.79097755961133e-06
6.3805478993534e-07
2.11845106345892e-07
7.2471594132799e-06
4.47568166118848e-07
5.61525732736176e-07
8.39176307528338e-06
7.6974493988314e-08
1.13297164825707e-06
1.58039049757964e-05
-8.86903786646108e-07
-9.37981297739233e-07
-3.37633032819841e-07
1.00183944660883e-06
6.56390044044786e-06
-2.08274123903502e-07
5.7470526817466e-07
6.2140980717504e-06
-1.55703201061731e-07
3.8488643654316e-07
5.78333573459428e-06
-6.620148516468e-07
7.32305949134431e-06
2.1049125888005e-06
-1.49162330474779e-06
1.00138887403577e-05
1.11834524374516e-05
-7.35350592122916e-07
3.25999639959169e-05
-1.20956143269866e-07
2.62819907932253e-07
5.08342926059887e-06
-1.70247847706758e-07
5.24871352995759e-06
4.17609143313187e-07