/*--------------------------------*- C++ -*----------------------------------*\
  =========                 |
  \\      /  F ield         | OpenFOAM: The Open Source CFD Toolbox
   \\    /   O peration     | Website:  https://openfoam.org
    \\  /    A nd           | Version:  12
     \\/     M anipulation  |
\*---------------------------------------------------------------------------*/
/*   Windows 32 and 64 bit porting by blueCAPE: http://www.bluecape.com.pt   *\
|  Based on Windows porting (2.0.x v4) by Symscape: http://www.symscape.com   |
\*---------------------------------------------------------------------------*/
FoamFile
{
    format      ascii;
    class       volVectorField;
    location    "100";
    object      U;
}
// * * * * * * * * * * * * * * * * * * * * * * * * * * * * * * * * * * * * * //

dimensions      [0 1 -1 0 0 0 0];

internalField   nonuniform List<vector> 
10228
(
(-1.83254903408612e-05 -0.000999363109187806 0.00111250297885053)
(-0.000123507177199922 -0.00252703095372547 0.00102802789257215)
(-5.59130901843655e-05 0.000150150331685503 0.000796525343219265)
(6.36337992991189e-05 0.00070186231579713 0.000785507846810754)
(1.7227194470085e-05 -0.000562881588802137 0.000668030935255605)
(-0.0004359100794427 -0.00287699028561958 0.000936798905904348)
(-0.000187246412470697 -0.000930067284170197 0.000864980343451624)
(-2.991030438392e-05 0.00126341497435353 0.000426119100157262)
(-2.2163056865944e-05 0.00107100429926027 0.000527283240784107)
(9.7707557281661e-05 0.00144726914725731 0.000200457203130327)
(-0.00011247808666987 0.000236907861270341 0.000549234682416751)
(-0.000305884273187291 -0.000925507110742458 0.000574611047826994)
(0.00011220923623737 0.000325897970166598 0.000154958804790689)
(-0.000843132229417879 -0.00316836437363147 0.000878423826528722)
(-0.000364858519050348 -0.00129969753488035 0.000854113574726209)
(-0.000119358672210205 0.000634061608122027 0.000469527697440539)
(-1.69107282932599e-05 0.00168361480311315 0.000352928013590346)
(-2.47704654860745e-05 0.00166048825211816 0.000313968523960971)
(5.44620966863999e-06 0.00154052362815106 0.000141002787400618)
(5.50834933107967e-05 0.00146824962810951 7.68215570410124e-05)
(-3.88719796926147e-05 0.000880020468038878 0.000169715652517512)
(-9.49054658654159e-05 0.00117467255143255 0.000352512737802985)
(-0.000274183179479437 -2.32547503768814e-05 0.000502534515400637)
(-0.000759069550803921 -0.0011651962401403 0.000504539453020548)
(-8.13370389632316e-05 -3.40154798767803e-05 7.81562524091773e-05)
(6.69543732374596e-05 0.000440187404073554 7.30647571672634e-05)
(-0.00146697335559061 -0.0035915025480391 0.000788078805938415)
(-0.000636720654289091 -0.00158726393627276 0.000840396539423649)
(-0.000245510887744215 0.000302333980729732 0.000471167777647384)
(-7.60337970972385e-05 0.00134391251091759 0.000364512997434192)
(-1.72650948939279e-05 0.00185285494674516 0.000327664848545284)
(-2.24231944092918e-05 0.00186466182856213 0.000283549326105462)
(-1.32690276780071e-05 0.00182467363235953 0.000146451449006037)
(4.12502991964085e-06 0.00158762854294281 4.63136211294544e-05)
(4.45077857785335e-05 0.00152487703011645 1.36996124022712e-05)
(-6.04402165744523e-05 0.00146846510310749 0.000186683078915353)
(-0.000152814924554526 0.000646278359907614 0.000135306591335118)
(-2.79716375068746e-05 0.00102235845614063 8.09115107847392e-05)
(-0.000195336229324233 0.000952549873747077 0.000339338920257402)
(-8.10838341977713e-05 0.00158490846244837 0.000304831278315041)
(-0.000519998171731456 -0.000178114064285082 0.000436730560155278)
(-0.00149141289985645 -0.00145647628982077 0.000377834593774877)
(-0.000411347628272789 -0.000233017745415394 -2.37383012302713e-05)
(-4.73236524440903e-05 8.60263679357005e-05 3.36624309679737e-05)
(6.20578322237319e-05 0.00067448080332767 2.80259486171028e-05)
(-0.00239848923432021 -0.0043200747105253 0.000697905708883597)
(-0.00102871633997859 -0.00196959859182008 0.000798325113071026)
(-0.000415062091386442 2.61236581361246e-05 0.000462847092320603)
(-0.000177244748684726 0.00111624826676271 0.000355334012616019)
(-6.88180308433285e-05 0.00164254112557181 0.000325329504646079)
(-1.90188446451356e-05 0.00195046528425916 0.000338871397977849)
(-2.1360050277121e-05 0.00194917062712272 0.000289602983336551)
(-1.50121048763443e-05 0.0019239006757609 0.000181758998946642)
(-7.71409119947553e-06 0.00182733690088677 8.02088053885574e-05)
(4.81818353199814e-06 0.00163295762172836 4.11226886727546e-06)
(3.82944491541944e-05 0.0015598731513841 -1.01110129936315e-05)
(-0.000133175186396869 0.00130411717614496 0.00017615076395836)
(-5.80189289805177e-05 0.00171220962280847 0.000211546440224196)
(-3.94737432565494e-05 0.00153640323891245 0.0001166626718352)
(-0.000104828211973411 0.00080608830595583 6.80511812513476e-05)
(-0.000335035761973744 0.000526320049404306 6.65751559093866e-05)
(-1.48891150119361e-05 0.00113974920970049 3.35690710871141e-05)
(-0.00033887444460692 0.000774654153057437 0.000312279614514067)
(-0.000155002210433474 0.00143163903598606 0.00029555371182071)
(-7.41632491569833e-05 0.00176769998898324 0.000297330836833916)
(-0.000900134213039517 -0.000379235162308376 0.000340397579552014)
(-0.00274121995368706 -0.00185314862414613 0.000287598213127342)
(-0.00105283424101201 -0.000434994353422026 -0.000157097724612908)
(-0.000254316025359153 -0.00010999076373188 -4.4520014428867e-05)
(-2.60483250735417e-05 0.000367911280254359 -4.01764364349321e-06)
(7.36234706413842e-05 0.000829160949062261 8.844513339562e-06)
(-0.00354365548695627 -0.00507213045946796 0.00053648967912095)
(-0.00164433316975962 -0.00265666837788655 0.000711166030983082)
(-0.000669081632719398 -0.000366370803221751 0.000452247328395703)
(-0.000300099424278967 0.00088363935766833 0.000351937267242319)
(-0.000152523626190905 0.00150465865547212 0.000315844167314116)
(-6.97037157669571e-05 0.00180143589291568 0.000328297838405962)
(-2.15057054266796e-05 0.00201585998798983 0.000365709366889301)
(-2.18664383745389e-05 0.00201073881931341 0.000317302817297463)
(-1.61720699527183e-05 0.00197792102720708 0.000227001636127877)
(-1.03675901578802e-05 0.0019123892414231 0.00012827027140689)
(-3.78011532229673e-06 0.00182060560591681 4.11143266480434e-05)
(9.12051279686856e-06 0.00159691259270919 -1.44556890787539e-05)
(2.94467829198224e-05 0.00153137784659195 7.9307031820913e-06)
(-0.00011408062564903 0.00160145125148449 0.000207629155903091)
(-8.98753762225152e-05 0.0013963192149261 0.000113029013500033)
(-0.000237817561532542 0.00117772981593678 0.000145472758107938)
(-4.07958717613071e-05 0.00173704997120719 0.000157973381373302)
(-5.77665555102769e-05 0.00183162409766162 0.000242995759681442)
(-2.29341785688889e-05 0.00157235205493248 7.14882212654107e-05)
(-6.84242185181992e-05 0.0009415316666444 2.15665919043267e-05)
(-0.000225561889729195 0.00068229277982807 1.82632340186565e-05)
(-0.000639332694534415 0.000401980812141122 -2.80764964972358e-05)
(2.3893399108699e-06 0.00115676511470877 1.33629171483387e-05)
(-0.000555307707875546 0.000529039633825497 0.000274202756771809)
(-0.000252255318964511 0.0012808314263354 0.000279270960216051)
(-0.000141085162577438 0.00166284015889427 0.000288870011213259)
(-7.34251857476834e-05 0.0018763143123737 0.000314970690376934)
(-0.00149210909100085 -0.000697868682646573 0.000207520529526692)
(-0.00448964264084209 -0.00187865898435185 0.000100655178188244)
(-0.00228036209118318 -0.000595784453732948 -0.000292086189957056)
(-0.000661522444012454 -0.000267777252389719 -0.000162580716214418)
(-0.000191804420391726 0.000204433473848665 -5.09653403786118e-05)
(1.39967781539186e-05 0.000584768252377307 -9.08425017026923e-06)
(4.92549293294891e-05 0.000882821493162536 2.86807715995519e-05)
(-0.00463566001454399 -0.00647234103347613 0.000297247162164957)
(-0.00263436344769111 -0.00376425213804478 0.000398157102750447)
(-0.00108580104279466 -0.00104475959449329 0.00040793084809877)
(-0.000482751493174804 0.000531312307472348 0.000349169725064328)
(-0.000256026817526383 0.0013466126825928 0.000309400351290694)
(-0.000147761677536031 0.00169747892124999 0.000314790727001061)
(-7.44164422044335e-05 0.00189960204086432 0.000351685256250434)
(-2.35774835676886e-05 0.00207699876856698 0.000394328631605595)
(-2.3627830677673e-05 0.00207133245413438 0.000352126015760071)
(-1.77446374418581e-05 0.00203398719324929 0.000273094243061156)
(-1.25982367680986e-05 0.0019694423289298 0.000181158559374871)
(-7.04808700056359e-06 0.00189374819467811 9.05496503912431e-05)
(4.82067054459754e-07 0.00178162976630377 2.02517403191016e-05)
(9.25975087931541e-06 0.00155539892958171 -8.16151881137002e-06)
(2.10848753250543e-05 0.00153957576012686 1.69409065637004e-05)
(-0.000108831614399556 0.0017484684939716 0.000238336646685772)
(-0.00018707071110932 0.00149643776445643 0.000190518063844651)
(-8.19060262521338e-05 0.00164090889957713 0.000158065630184798)
(-5.55969103902203e-05 0.00144783515138629 7.04023162765164e-05)
(-0.00016124583274263 0.00128567384848223 8.92149513718566e-05)
(-0.000399904972197187 0.00100967502744589 9.9933626407538e-05)
(-4.44645898136391e-05 0.00184268176432598 0.00020080520908777)
(-2.75877184511309e-05 0.00174308653867204 0.000117825083929772)
(-6.01617160408747e-05 0.00191895993430378 0.000278858125277269)
(-8.60323917130967e-06 0.00156206147504893 4.67675584237916e-05)
(-3.31048606049385e-05 0.000979922352066115 5.82945535670254e-06)
(-0.000153647069997525 0.000822050333378199 -1.17211099587772e-05)
(-0.000436705655775853 0.000559823504927821 -6.21084948293353e-05)
(-0.00112092228585061 0.00028537495625736 -0.000163505237566734)
(6.27273644974008e-06 0.00115404343072735 1.97680364744288e-05)
(-0.000910276114453249 0.000121113193189107 0.000202735231131012)
(-0.000397187919231534 0.00105368256991672 0.000257730307276197)
(-0.000224523972745978 0.00154280611184969 0.000275899731583327)
(-0.000137134244131978 0.00179370570889081 0.000304203175896293)
(-7.66250825346386e-05 0.00196074120790878 0.000344322020313011)
(-0.00255087514281906 -0.000941923716987797 -9.85875947695855e-05)
(-0.00621723078912775 -0.00236160541979629 -0.000108676000697115)
(-0.00405944508123091 -0.000509882447817083 -0.000632733173399975)
(-0.00148360438463786 -0.000330091545054453 -0.000358779227209545)
(-0.000435650883262499 8.44994565508458e-05 -0.000106409943569033)
(-0.000106857218794688 0.00044789843921778 -3.02113524959225e-05)
(3.44953146639827e-05 0.000670571791130155 2.79463688897749e-05)
(3.49176716622914e-05 0.000958873097868971 4.07123001660037e-05)
(-0.00255056717406204 -0.00846764755647678 -0.00169328798108046)
(-0.00473537343015766 -0.00593178931860681 6.65214379183212e-05)
(-0.00185004330653829 -0.00225917925065509 0.000258564988872832)
(-0.000780553150701611 -7.68108773504266e-05 0.0003344964652858)
(-0.000393195312425973 0.00105203983872526 0.000301208112165125)
(-0.000241822685919266 0.00156353816319911 0.000304334099629743)
(-0.000150083932835658 0.00181565883892132 0.00033663353328438)
(-7.89193862160979e-05 0.00197743500901223 0.000379905014502509)
(-2.50729619471224e-05 0.0021389139581918 0.000417672332424244)
(-2.52969785318507e-05 0.00213771534055381 0.000383492565968736)
(-1.96330024510861e-05 0.00209972365722762 0.000315546474569035)
(-1.47039436721959e-05 0.0020348931191373 0.00022994244189043)
(-9.73715068712939e-06 0.00195482705135042 0.000141689669969731)
(-3.84134414478493e-06 0.0018613636164317 6.37352293627045e-05)
(3.29172040505323e-06 0.00173961967130017 1.37784148684743e-05)
(9.69508630194006e-06 0.00153094935227418 -2.54074871503725e-06)
(1.995322185565e-05 0.00151864632888985 1.9753042331247e-05)
(-8.36302089601263e-05 0.00176605479593319 0.00020049382226126)
(-0.000110524769288198 0.00184763080884498 0.000272503469255966)
(-0.000170232554949032 0.00165820862997503 0.0002267798697452)
(-0.00013401262457118 0.00154881981707956 0.000145387312976888)
(-0.00029238799280319 0.00133868929950577 0.000166643971837395)
(-5.54083620989097e-05 0.00165557505811786 0.000120723374962654)
(-2.76838948875339e-05 0.0014470472444469 4.8652979722434e-05)
(-0.000101815990733781 0.00134705714429242 5.46460690704732e-05)
(-0.000274062831476511 0.00114180888935759 5.06968087641947e-05)
(-0.000656008848821629 0.000755378948878454 2.77287742303921e-05)
(-3.36039677228544e-05 0.00184239785283602 0.000162727140622536)
(-4.90619553037541e-05 0.00192983832904534 0.000241016823750793)
(-1.6693703292081e-05 0.00172770008408585 8.92918822833876e-05)
(-6.41867109387376e-05 0.00199995257640259 0.000315012253277706)
(7.69809621696059e-07 0.00154151480910151 3.83672245384886e-05)
(-9.46985934794728e-05 0.000868548744998698 -8.99882100375401e-06)
(-1.05268202488601e-05 0.000985388412513463 2.47258309919927e-05)
(-0.000292684100400404 0.000696557126511757 -5.67382915622088e-05)
(-0.000785055471598875 0.000459021223100515 -0.00018995134310798)
(-0.00200440413879566 0.000371329709984843 -0.000448930240678949)
(1.10061856726658e-05 0.00116369265228134 2.32651554239757e-05)
(-0.00156803590834306 -0.000506439365385838 1.38293372215152e-05)
(-0.000645672528049183 0.000661119560244956 0.000229376634098647)
(-0.000335669348648793 0.00134169340795489 0.000261779745067998)
(-0.000212984350679485 0.00169154036136359 0.00029349169341301)
(-0.000139786388552893 0.00188825687607223 0.000332297857499921)
(-8.02680787874477e-05 0.00203865323544633 0.000373756449310555)
(-0.00516943347643941 -0.00232498085903326 -0.000110024375524601)
(-0.00681381254879464 0.00118155151300856 -0.000545407982234455)
(-0.00583760938416664 0.000661538664473416 -0.00127429970968133)
(-0.00273986148247599 9.48488299197308e-06 -0.00085539987974911)
(-0.000812732138833151 3.88106089291745e-05 -0.000210451414464699)
(-0.000251004130458118 0.00033222566420295 -4.45943187285574e-05)
(-8.35540946469157e-06 0.000563304340649126 2.54544700508032e-05)
(4.57433640465169e-05 0.000775742824586164 4.85971809765356e-05)
(3.63422959002673e-05 0.000992076482944618 4.24616489891437e-05)
(-0.00578523066299792 -0.00287184391105968 -0.00113340924590158)
(-0.0032259972909835 -0.00419326779061992 3.45413546049004e-05)
(-0.00134318250677213 -0.0012388510181311 0.000307857782991473)
(-0.000630485473478579 0.000490670003454153 0.000301916185003328)
(-0.000363735616206708 0.00133591745404148 0.000298663193376849)
(-0.000237722300436326 0.0017010968797182 0.000324217438364941)
(-0.000153331191940299 0.00190389801344789 0.000365509855913323)
(-8.21750710448714e-05 0.00204905401391602 0.000404461020380286)
(-2.59838573273371e-05 0.00220143541152079 0.000433618536480884)
(-2.65330513309258e-05 0.00220825496654794 0.000407979883918749)
(-2.12660951907497e-05 0.00217367505262395 0.000350727669306334)
(-1.66525805113921e-05 0.00211218460817538 0.000272817468594304)
(-1.20835705345163e-05 0.00202961386004356 0.000187946639904468)
(-6.92027973452281e-06 0.00193295187257892 0.000108310623898948)
(-9.29890318378375e-07 0.00182786349469132 4.55103618572054e-05)
(5.65288318269428e-06 0.0017046088145107 7.90808999383869e-06)
(1.15998924498848e-05 0.00150166052522488 6.10040782741292e-08)
(2.10766984620293e-05 0.00148405584091637 1.76770071922137e-05)
(-6.22209931059255e-05 0.00176919880750093 0.000166355163852325)
(-8.93280903768603e-05 0.00185967934406807 0.000239563638622528)
(-0.000129201304678829 0.00168295768866524 0.000192935063377338)
(-0.000115768932454429 0.00193247443756924 0.000307692476883666)
(-0.000167970632567859 0.00176349208985238 0.000263035008182554)
(-0.000251129024014661 0.00151199637537121 0.000214379330634616)
(-8.91971120254322e-05 0.00157031283237419 0.000113896139756186)
(-0.000207949135654384 0.00141426033141163 0.000127005259101356)
(-0.000464333912852166 0.00107437191363868 0.000134459007208254)
(-3.37499726255548e-05 0.0016444153557496 9.54615291215108e-05)
(-6.4358967017911e-06 0.00143199555842866 4.53096932092253e-05)
(-5.52265739185478e-05 0.00135063987815826 4.27442261598657e-05)
(-0.000171969620798525 0.00121795011109077 3.35223600893467e-05)
(-0.000457254543740821 0.00093800909812428 -7.06667371162027e-06)
(-0.0011279478206901 0.000416567642694005 -0.0001232109188503)
(-2.42241759281356e-05 0.001830722898978 0.000130186845947007)
(-3.94835323439433e-05 0.00193241879161254 0.000202435924207683)
(-5.37063733221335e-05 0.00201668095301018 0.000277915641673831)
(-7.537709510505e-06 0.00170651765593404 6.99419097968949e-05)
(-6.79099588840726e-05 0.00208105246828058 0.000347144338009632)
(8.99459188932638e-06 0.00152334488762842 3.10634567514527e-05)
(-0.000177609478025073 0.000746707550636121 -1.91131582699743e-05)
(-3.83853314537743e-05 0.000877184596228631 2.21768771239704e-05)
(9.23028854316043e-06 0.0010064358639716 3.27191842216629e-05)
(-0.000503173786994816 0.00057065347177189 -0.000123077788539642)
(-0.00126437988733884 0.000539145417714458 -0.000447304856467701)
(1.92849080543298e-05 0.00116254452137998 2.29470271206522e-05)
(-0.00273391674799431 -0.00136622922158384 -5.94477916323522e-05)
(-0.00111436457072031 -7.28483896690719e-05 0.000177849254141441)
(-0.000518825333594673 0.000984473831174899 0.00024816669208121)
(-0.000311052532582194 0.00151659046147591 0.000285221367058636)
(-0.000212692957110705 0.00179442942517581 0.000321235653941805)
(-0.00014373062760213 0.00196962441516176 0.000362341374144094)
(-8.28473174705478e-05 0.00211493393869686 0.000398284739581717)
(-0.00609559616554819 -7.86712912182151e-05 0.000452748744561539)
(-0.00565547742642033 0.00271106151200887 -0.000262224394602044)
(-0.00403653643789952 0.00113111016173477 -0.00107447013935404)
(-0.00114994719819418 0.000208587445244226 -0.000370367333368828)
(-0.000388218654163136 0.000255833322906268 -3.81349486382246e-05)
(-5.86516341763936e-05 0.000472304181590545 3.14019422280559e-05)
(4.96259814043393e-05 0.000679215076194807 5.3524038168703e-05)
(6.23820771742553e-05 0.000831334297537019 5.37653272236567e-05)
(4.46297599522276e-05 0.000998072809790978 3.92311990568361e-05)
(-0.00462905533233541 -0.00330235349336187 0.000277388480754514)
(-0.0024378208573741 -0.0033016515844369 0.000357230831402055)
(-0.00106710455929132 -0.000554439962887977 0.000314949785315949)
(-0.000547364431944351 0.000855325260766168 0.000297213146262686)
(-0.000346016921701712 0.00150078738074265 0.000317526233652433)
(-0.000236320732478749 0.00180010101898251 0.000354066588301601)
(-0.000155300273920397 0.00198051741436912 0.000391783488723608)
(-8.39402396876553e-05 0.00211766109645153 0.000422176389740878)
(-2.65026338022678e-05 0.0022633708562544 0.000441745922408392)
(-2.72188856792305e-05 0.0022796368532076 0.000425223976620752)
(-2.23668996501311e-05 0.00225195107710487 0.000377987776682979)
(-1.81233837727239e-05 0.00219711066039206 0.000308545502526084)
(-1.40987977588201e-05 0.00211734735581922 0.000228597868807117)
(-9.40096375014169e-06 0.00201836526374695 0.000149397049232927)
(-4.08216556101085e-06 0.00190955989072179 8.09955428687244e-05)
(1.74327741562869e-06 0.00179689702255468 3.00286256913355e-05)
(8.16733541378692e-06 0.00166976565713657 2.92087367454966e-06)
(1.38564992362374e-05 0.00146928632978207 -9.35619951014438e-08)
(2.23399034732351e-05 0.00144493599361003 1.49468754978069e-05)
(-7.05303147922359e-05 0.00186232555967304 0.000205576316554634)
(-9.36121077304087e-05 0.00168937983119712 0.000164074277510355)
(-4.38516768728933e-05 0.00175843243105286 0.000137718755102891)
(-0.000133798019201834 0.00177805398598198 0.000234570897913987)
(-9.58798928143459e-05 0.00194699510196846 0.000275692824150021)
(-0.000187569270057902 0.00155531455898654 0.000185231873269915)
(-0.000120595201792828 0.00201341974113919 0.000340105361976415)
(-0.00017274121105412 0.00184960015842765 0.000299564531158589)
(-0.000239104735889845 0.00162576919409645 0.000255539557096139)
(-0.000376708752888554 0.00126415366822507 0.000201734541115779)
(-5.3248224119357e-05 0.00156044102502222 9.54870830901339e-05)
(-0.000133379583730339 0.00145061699007059 0.000105724217256906)
(-0.000325396816678309 0.00120642342923551 0.000103281481439624)
(-0.000793899212955183 0.000621348689158056 7.06845314998669e-05)
(-1.55685675713332e-05 0.00162534250133673 7.97439113379683e-05)
(1.15781190383499e-05 0.00141878970321844 4.12313953063003e-05)
(-1.65633360301242e-05 0.00133652294773124 4.75189375573634e-05)
(-9.20423439408067e-05 0.00122938197396106 3.95074511220458e-05)
(-0.000277664740569698 0.00104522643469768 1.05333876227351e-05)
(-0.000800699999026618 0.000694081415271362 -0.000110931682299668)
(-0.00171866953495676 0.000269508484366657 1.29584309442823e-05)
(-3.06709090012722e-05 0.00192713447481871 0.000166462293307269)
(-1.54343684907503e-05 0.00181481955198236 0.000103356675674296)
(-4.45529569464458e-05 0.00202565914377027 0.000237941207901038)
(-5.73594870197088e-05 0.00210560736819403 0.000310182752768097)
(9.94571659799865e-07 0.00168470026614084 5.35584811015284e-05)
(-7.04369568590614e-05 0.00216265617132541 0.000373403938490599)
(1.75890646612589e-05 0.00150194160374244 2.46712250874075e-05)
(-7.28778477559546e-05 0.000760694671001952 2.56500560666855e-05)
(-0.000272544629370394 0.000618849673760474 -2.41381760498136e-05)
(4.65549826672775e-06 0.000900175520554142 3.83158553744921e-05)
(2.87100430172974e-05 0.00101522654105874 3.45130591908205e-05)
(-0.000718580452090936 0.000526935785543958 -0.000209789273449959)
(2.83958388586353e-05 0.00115279221143638 2.07041767298601e-05)
(-0.00475916014651049 -0.000480363587661671 0.000650733859205832)
(-0.00193092924199498 -0.00121580398977845 0.000197231875231256)
(-0.000881644468908063 0.000299578753561946 0.00024818886865053)
(-0.000462516058861989 0.00119473217667036 0.000279039676900101)
(-0.00030293210227646 0.00163492405444399 0.000314430638025763)
(-0.000214193431494415 0.00187861579764213 0.000352895838882243)
(-0.000145899510469994 0.0020462624475563 0.000388380716294595)
(-8.4134129143225e-05 0.00218937889225898 0.00041650455187731)
(-0.00417938299983926 0.00156326673573036 0.000644686635221819)
(-0.00414573258730334 0.00290981113406956 2.61353875248405e-05)
(-0.00268040294990143 0.00108560756120168 -0.000104927414004856)
(-0.0013716817076373 0.000490651704077724 -0.000199504988017864)
(-0.000461339039080538 0.000215278608607236 -6.627758555746e-06)
(-8.95355156889214e-05 0.000391246928249501 5.21581921507887e-05)
(5.29331594535088e-05 0.000579883769543621 6.46547712863664e-05)
(8.94467021389093e-05 0.000744377908910611 6.22692762869888e-05)
(8.02364866047998e-05 0.000849959469480905 5.1140599950176e-05)
(5.28196247048277e-05 0.000990693753841496 3.433095321686e-05)
(-0.00368790277840377 -0.00303127777908177 0.000552257153944798)
(-0.00192990644027601 -0.002489371385991 0.000403034775722776)
(-0.000908287890954792 -8.06989134356403e-05 0.000322869711902258)
(-0.000498899265262527 0.00110273182857562 0.000317793822752158)
(-0.000336333452778652 0.00160540963307509 0.000348617180912312)
(-0.000234695360193896 0.00188217776883699 0.000382065378180896)
(-0.000155733442735257 0.00205206622862595 0.000411325009585519)
(-8.47225014300415e-05 0.00218216733010414 0.00043217748407639)
(-2.67862869444149e-05 0.00232267966681531 0.000442695626259435)
(-2.7451888202408e-05 0.00234887531225929 0.000435259433916826)
(-2.29234165502709e-05 0.00233022949527778 0.000397863073209959)
(-1.90440844896109e-05 0.00228472019641083 0.000337217321150475)
(-1.54696629712879e-05 0.00221202922663833 0.000263309043952409)
(-1.13286819484297e-05 0.0021156993523029 0.00018651973020256)
(-6.47038777340084e-06 0.00200404191404457 0.000115850513363573)
(-1.28339304629531e-06 0.00188573234115057 5.79112500381953e-05)
(4.38168450195581e-06 0.0017654067738956 1.77163814425723e-05)
(1.04685849415198e-05 0.00163459239707142 -1.74212368084962e-06)
(1.58460334081286e-05 0.00143381223742831 -1.36280567329735e-06)
(2.32885512158506e-05 0.00140135077941517 1.29894630995149e-05)
(-7.79661216760259e-05 0.00195382253674517 0.000240476786286372)
(-5.35239463731254e-05 0.00185588967905298 0.000173842975070519)
(-0.000103045169471412 0.00178129405306848 0.00020587197958574)
(-6.38391908560812e-05 0.00167759814508236 0.000141233038924246)
(-0.000129558400372921 0.00157343915164296 0.000163510726716058)
(-2.72431751933722e-05 0.00174241678390799 0.000114352112841185)
(-0.000186483582843054 0.00165317014350813 0.000232283446593778)
(-0.000141100910865733 0.00186329751452936 0.000272576790006643)
(-0.000101109488697791 0.00203382206679161 0.000307904810938175)
(-0.000274722539946731 0.00135763420768962 0.000180309587141441)
(-0.000123659957987589 0.00209328568509702 0.000367336853824961)
(-0.000177064459055687 0.00192876180132857 0.000334062534973771)
(-0.000238574639428178 0.00171717729519773 0.000295292146529848)
(-0.000342827060938899 0.00139517093186419 0.000253093943246544)
(-0.000627449787646458 0.000824110802120492 0.000192778403843411)
(-7.53299236785526e-05 0.00144539601558726 9.81631222288859e-05)
(-2.3475062725723e-05 0.00154008298241379 8.58582048410877e-05)
(-0.000193556197255088 0.00128300047965897 0.000100419254493193)
(-0.000571440514663777 0.000893762996563278 6.91031563388459e-05)
(-0.00122926440237591 0.000104635247620337 4.19632561319031e-05)
(7.22737451174292e-07 0.00160492982193249 6.60425388088094e-05)
(2.81295183627443e-05 0.001401449023374 3.67247643691021e-05)
(1.43732419997809e-05 0.00132326016752092 4.89912796666717e-05)
(-2.79838275192832e-05 0.00121773586277393 5.41884400430306e-05)
(-0.000135819863292488 0.00107676613894214 4.32910230296835e-05)
(-0.000445260318749612 0.000830483760483667 -1.80165168644089e-05)
(-0.00101788080338195 0.000739153311843363 -0.00016191708559968)
(-0.00311149019191782 0.0010049260923477 0.000850593915663129)
(-3.56993144550594e-05 0.00202729401685987 0.000199356194125151)
(-2.17964897162101e-05 0.00191746613185312 0.000134715548746633)
(-6.77587227829936e-06 0.00179663163758466 8.02574203615663e-05)
(-4.81347931963737e-05 0.00212193533163459 0.000269296290985589)
(-5.96797224259813e-05 0.00219485855341262 0.000337108275944553)
(9.45838226050313e-06 0.00166041169324898 4.02071883267831e-05)
(-7.16450680692013e-05 0.00224254730446722 0.000393323670981922)
(2.56406349763104e-05 0.00147764746266324 1.8604010199497e-05)
(-3.14722585000011e-07 0.00078044016290436 5.02894882051784e-05)
(-0.00010518654745384 0.000631115227439629 4.06543976125986e-05)
(-0.000359588570798494 0.000484783384898825 -1.12469025092901e-05)
(3.92149911946524e-05 0.000910959379741318 4.43351115925761e-05)
(4.66517098990116e-05 0.00101304764203804 3.29681659790617e-05)
(-0.000802991534688675 0.00048842412294016 -0.000261678306750838)
(3.66919146012635e-05 0.00113595697715005 1.75589364011218e-05)
(-0.00378646491448559 -0.00053039103010126 0.000531363671891725)
(-0.001493350064064 -0.000873295124218545 0.000312522202597229)
(-0.000763944492968773 0.000575172232975225 0.000295726541462098)
(-0.000427981977714961 0.00134918096339222 0.000315230004682559)
(-0.000296153690252305 0.00172689480860365 0.000349354457593506)
(-0.000213856020778416 0.00195559459983723 0.000381323241059219)
(-0.000146449211954939 0.00212006529128414 0.000408197321266255)
(-8.4476560450818e-05 0.00226007185381616 0.000427771684099757)
(-0.00362957757589822 0.00144808350270922 0.000460803149060835)
(-0.00316278388190264 0.0014666672157584 0.000325424079121312)
(-0.000989598005215259 -3.85914851919945e-05 0.00073402296620401)
(-0.00100938269282283 0.000515198816891167 0.000318985357181274)
(-0.000407415062685235 0.000201963731557359 0.000111214314441923)
(-8.74691029598042e-05 0.000298780303032968 7.94653921858835e-05)
(7.2819697739871e-05 0.00047072511001079 8.30273779068974e-05)
(0.000120689347777411 0.000642386909563578 7.21411304461897e-05)
(0.000119538849161678 0.000767380090537575 5.9981422590745e-05)
(9.5178884070457e-05 0.000850154005600566 4.55932400560524e-05)
(5.93406268902232e-05 0.000972976863859927 3.03312349312771e-05)
(-0.00302289911181752 -0.00274732193237878 0.000601174823276543)
(-0.00164424924435643 -0.00188921200746736 0.000399413998545283)
(-0.000809485478488618 0.000254857249290976 0.000342342178843567)
(-0.000479101435916249 0.00127986245471992 0.000351152206375595)
(-0.000326189106741231 0.00169722239963269 0.000377944600593243)
(-0.000231558240867955 0.00195618732905265 0.000403533294342967)
(-0.000155035661426737 0.00211849600369615 0.000423012004519521)
(-8.48308232911745e-05 0.00224192585585689 0.000434853750501472)
(-2.68950291715105e-05 0.0023761999349687 0.000437505031007937)
(-2.74370706614213e-05 0.00241328804890854 0.000438821297769664)
(-2.30848716493034e-05 0.00240511716141908 0.000410867809187743)
(-1.94897608351446e-05 0.0023706636009758 0.000359272317238366)
(-1.62141025569715e-05 0.002308017506015 0.000292369418070888)
(-1.25310503295214e-05 0.00221873493675246 0.000219519097551966)
(-8.23447470619517e-06 0.00210902552079502 0.000149119237500153)
(-3.52000936981274e-06 0.00198671908156275 8.74148545999699e-05)
(1.47463552e-06 0.00185943838853236 3.94014885550148e-05)
(6.82282789411105e-06 0.00173241779972624 8.04747628250329e-06)
(1.2444441639544e-05 0.0015971650054081 -5.43165662145341e-06)
(1.74583387901792e-05 0.00139454796081858 -2.25832155654676e-06)
(2.38290390669581e-05 0.00135379273800776 1.16813068149654e-05)
(-0.000112388699267858 0.00186864715320875 0.000242551128412173)
(-6.12872197588804e-05 0.00195299163766967 0.000206121776662087)
(-8.34167221322809e-05 0.00204666203161657 0.000271490317382973)
(-3.73528642621274e-05 0.00184483062290353 0.000145566692710883)
(-7.61286862138479e-05 0.0017723842921994 0.000179397065143676)
(-0.000137504348274751 0.0016646898755482 0.000209815315583196)
(-3.79984645184426e-05 0.00165879647527779 0.000122945139026836)
(-8.35556088901555e-05 0.00156378228867624 0.000148277081519829)
(-0.000173530980197003 0.00141082756398999 0.000169070519906699)
(-1.14944212527136e-05 0.00172396620396716 9.37673673070453e-05)
(-0.000259509101780991 0.00146367746210005 0.000237035125385403)
(-0.000191295075690239 0.00173868830770154 0.000273981591364111)