/*--------------------------------*- C++ -*----------------------------------*\
  =========                 |
  \\      /  F ield         | OpenFOAM: The Open Source CFD Toolbox
   \\    /   O peration     | Website:  https://openfoam.org
    \\  /    A nd           | Version:  12
     \\/     M anipulation  |
\*---------------------------------------------------------------------------*/
/*   Windows 32 and 64 bit porting by blueCAPE: http://www.bluecape.com.pt   *\
|  Based on Windows porting (2.0.x v4) by Symscape: http://www.symscape.com   |
\*---------------------------------------------------------------------------*/
FoamFile
{
    format      ascii;
    class       volScalarField;
    location    "300";
    object      k;
}
// * * * * * * * * * * * * * * * * * * * * * * * * * * * * * * * * * * * * * //

dimensions      [0 2 -2 0 0 0 0];

internalField   nonuniform List<scalar> 
10103
(
4.27112083428356e-08
4.26740972972757e-08
7.12942355731172e-07
7.60558694523942e-07
4.2593712872137e-08
7.1414396377174e-07
7.61404944581601e-07
3.08383479535835e-06
1.44486613835933e-05
3.86597849711883e-06
4.23693079395615e-08
7.10959724966596e-07
7.59352399693407e-07
3.08463396105731e-06
1.44734759462492e-05
3.87121260453463e-06
6.43301722746275e-06
4.14518523711483e-05
4.39461294137555e-05
9.21531188794766e-06
4.18586417008136e-08
7.03035101425422e-07
7.51918984305292e-07
3.06647929413215e-06
1.44115338828367e-05
3.85139103747777e-06
6.43257467762364e-06
4.146838257158e-05
4.3965235822717e-05
9.21665446733268e-06
1.0298673510141e-05
6.81286490994773e-05
9.14469870932397e-05
7.54012084746391e-05
1.61706019196731e-05
4.10406260265078e-08
6.89880852798538e-07
7.38871413037709e-07
3.0288539093217e-06
1.42519098432459e-05
3.80475114165118e-06
6.39242875424415e-06
4.12858109833696e-05
4.37680564313411e-05
9.16371728339836e-06
1.02965406348807e-05
6.81215313295895e-05
9.14261921194199e-05
7.53747177296607e-05
1.61609995489356e-05
1.45582997137849e-05
9.33107498912452e-05
0.000134108376493097
0.000138281529021297
0.000107029373158682
2.43456682303278e-05
3.99508110761856e-08
6.71944102603172e-07
7.20660705516545e-07
2.97144401340073e-06
1.40035742455468e-05
3.73262494484429e-06
6.31535967004423e-06
4.09040611049187e-05
4.33561479779669e-05
9.05215107654059e-06
1.02317873859664e-05
6.78318907051442e-05
9.10584285074368e-05
7.50378861207173e-05
1.60600827750012e-05
1.45550108820399e-05
9.32910942786205e-05
0.000134058758841673
0.000138205916565496
0.000106950562022312
2.43176103946368e-05
1.91958082212985e-05
0.000117072537684423
0.000173760931625031
0.000192557323554553
0.00018407758712534
0.000138274747225617
3.37339429552855e-05
3.86086626863362e-08
6.49785363786687e-07
6.97920228916436e-07
2.89577797683762e-06
1.36774364484264e-05
3.63768305430798e-06
6.20131154381352e-06
4.03383756257785e-05
4.27544773364118e-05
8.88665480547791e-06
1.01099885697365e-05
6.72669329793029e-05
9.03561556300448e-05
7.43993178999646e-05
1.58646669488279e-05
1.44646770259395e-05
9.29075767348806e-05
0.000133546916395985
0.000137662071933531
0.000106475819580002
2.41578619938283e-05
1.91932216921658e-05
0.000117046345822988
0.000173694631632295
0.000192449456677466
0.000183940282847898
0.000138140697028874
3.36821903507232e-05
2.41307452094461e-05
0.000139669881659815
0.000210708373556124
0.000242544442104925
0.000248430716347984
0.000228700411133595
0.000169184163744173
4.4438223555139e-05
3.70260456556801e-08
6.23822648843543e-07
6.71044510949712e-07
2.8032785621158e-06
1.32801440900602e-05
3.52184955060796e-06
6.05189829463544e-06
3.95992927624239e-05
4.19727772867449e-05
8.67128064441124e-06
9.93301080367061e-06
6.64382642706352e-05
8.93340889219147e-05
7.34779172962901e-05
1.55804696190737e-05
1.42957962276332e-05
9.2176524475827e-05
0.000132591902338034
0.000136662898396835
0.000105608371906649
2.3862485227853e-05
1.90766616583174e-05
0.000116581102824272
0.00017305554650895
0.000191731753114636
0.000183216204801375
0.000137522950319082
3.34518143614822e-05
2.41299022709037e-05
0.000139643600660101
0.000210634233698747
0.000242416550061227
0.000248254644025554
0.000228495523871869
0.000168990119918235
4.43564951756988e-05
2.92129446529242e-05
0.000161187843154248
0.00024521670522546
0.000289059275427959
0.000306766295311336
0.000302341693358666
0.000271959338904591
0.000199898399700823
5.62619839446179e-05
3.52162706351488e-08
5.9436060321777e-07
6.40352897530751e-07
2.69520507025751e-06
1.28161375397327e-05
3.38654108484065e-06
5.86892512696342e-06
3.86934175052532e-05
4.10177178260779e-05
8.40869089838269e-06
9.70230046606841e-06
6.53540585897199e-05
8.80003859392933e-05
7.22811167674022e-05
1.52117660281219e-05
1.40508057292502e-05
9.11111250406239e-05
0.000131204657833315
0.000135219032027406
0.000104363973129053
2.34375942018559e-05
1.88581927709174e-05
0.000115698790893508
0.000171868523611345
0.000190421880178728
0.000181915687487742
0.000136420627366579
3.30389164176946e-05
2.39870474223984e-05
0.000139106635365946
0.000209883659809025
0.000241545132463684
0.000247327365075862
0.00022758548959287
0.000168222056420599
4.40426166302807e-05
2.92152207703931e-05
0.00016116630933605
0.000245142195471018
0.000288921244295207
0.000306565318163185
0.000302089849466287
0.000271680760648457
0.000199639160929166
5.61441948465831e-05
3.43020278325804e-05
0.000181561267266778
0.00027751220391999
0.000332415982559694
0.000360767346914439
0.00036793003397463
0.000354142383304039
0.000313906564500356
0.000230202159860588
6.82224519741669e-05
3.31944825110235e-08
6.06192517110676e-07
5.61760377459311e-07
2.57274473591894e-06
1.22892518402778e-05
3.23324963359132e-06
5.65449042862524e-06
3.76257894378631e-05
3.98943061733338e-05
8.10146673204236e-06
9.41966816820648e-06
6.4019628461117e-05
8.63605481954225e-05
7.08139711399897e-05
1.47618922311486e-05
1.37332718315247e-05
8.97164086236915e-05
0.000129391442731786
0.00013333629886505
0.000102747610978859
2.28867542255661e-05
1.85422679011184e-05
0.0001144137513428
0.000170144710624876
0.000188528803012945
0.000180045455639119
0.00013484529867765
3.24480491447564e-05
2.37161593750477e-05
0.000138085761395493
0.000208486230190303
0.00023995286594966
0.000245664059595447
0.000225978826974882
0.000166876059545939
4.34917024025261e-05
2.90471645664677e-05
0.000160566274452656
0.000244294429002401
0.000287914876100795
0.000305461236328422
0.000300948210426249
0.000270579780808543
0.000198713736558467
5.57346280210838e-05
3.4308527509312e-05
0.000181548374910102
0.000277443672480514
0.000332276373659673
0.000360552677524692
0.000367647396862501
0.000353808014722887
0.000313548506482779
0.000229873656161184
6.8065974822178e-05
3.93066489227392e-05
0.000200720857456747
0.00030772894582678
0.000372894524439947
0.000411060808814384
0.000428135825135988
0.000426204870411781
0.000403866141342436
0.000354535460009298
0.000259474883784947
7.70618621361727e-05
3.0981339928848e-08
5.68944329803829e-07
5.26368401601534e-07
3.06362875466622e-06
1.17040039238127e-05
2.43725135341975e-06
5.41084773752212e-06
3.64013641161662e-05
3.8607741529889e-05
7.7526563609587e-06
9.08787107904175e-06
6.24401703361998e-05
8.4419282463105e-05
6.90812546637546e-05
1.42346496565169e-05
1.33447758077977e-05
8.79956685610982e-05
0.000127156799568419
0.000131018862904416
0.000100762350395196
2.22134263447716e-05
1.81313890929381e-05
0.000112731878837206
0.000167889959032359
0.000186057185010574
0.000177608932978913
0.000132798357058266
3.1681371630473e-05
2.33274759166022e-05
0.000136597791926178
0.000206454765536297
0.000237649228723433
0.000243270089493605
0.000223677174249151
0.000164956885375427
4.2704077784434e-05
2.87247994916769e-05
0.000159418233788671
0.000242707427400276
0.00028606752885814
0.000303473980795703
0.000298930014717858
0.000268662160018242
0.000197113560670148
5.50250175914372e-05
3.41171557172368e-05
0.0001808936703297
0.000276511657605275
0.000331152589065038
0.000359294335470244
0.000366308145836214
0.000352448665229491
0.000312251825047394
0.000228785163560416
6.75553412273637e-05
3.93186781523216e-05
0.000200719779424382
0.00030767177061036
0.000372760853546785
0.000410842383927589
0.000427835554704498
0.000425833786950834
0.000403443431013923
0.000354093655188198
0.000259078028129669
7.68770623213779e-05
4.41773966912091e-05
0.000218655047100646
0.000335959981035978
0.00041071346608953
0.000458056336813104
0.000484070541286948
0.000491752989314064
0.000481726336966345
0.000451593135337726
0.000393834793976203
0.000287428301229886
7.06734162818152e-05
2.86040818391338e-08
5.29034238789406e-07
4.88628195771005e-07
2.87946706569613e-06
1.10651448425969e-05
2.29021035002644e-06
7.36582664516514e-06
3.71642723519193e-05
3.50258803939929e-05
5.14045514789515e-06
8.71008189691973e-06
6.06211396926535e-05
8.21816887120586e-05
6.70889901600915e-05
1.36350024024733e-05
1.28879422463954e-05
8.59543680202872e-05
0.000124505183932765
0.000128270960739382
9.84123035843708e-05
2.14226707695137e-05
1.76296229816384e-05
0.000110657166819797
0.000165108303527721
0.000183010565974071
0.000174608580070229
0.000130280110252203
3.0741638707349e-05
2.28212916424036e-05
0.000134648723715949
0.000203795451783002
0.000234639143972056
0.00024014826643087
0.000220681138913489
0.000162461382422096
4.16794844284478e-05
2.82621965010045e-05
0.000157742523672438
0.000240395766334293
0.000283390015321483
0.000300609851534936
0.000296036682333607
0.000265924390189224
0.000194834658809001
5.40103436780379e-05
3.37463048368224e-05
0.000179629901628861
0.000274754153790498
0.000329076294975185
0.000357016721029466
0.000363930168455211
0.000350075291378987
0.000310018069799431
0.000226920346855333
6.6677544437196e-05
3.91059695852244e-05
0.000200017821119698
0.000306667223683601
0.000371535594212873
0.000409450284550024
0.000426325925880713
0.00042425835747121
0.000401863853203207
0.000352597379413258
0.000257823716254382
7.62825877331068e-05
4.41961577410819e-05
0.00021866873006816
0.000335918665300288
0.000410592243274043
0.000457842956771013
0.000483764189370326
0.000491360620117857
0.000481261461703303
0.000451078091142805
0.00039330966247751
0.00028697773187764
7.05121192132937e-05
4.88860435940172e-05
0.000235399923868222
0.00036229538212618
0.000446041364402239
0.000502034849496878
0.000536365251446779
0.000552428255478788
0.000551940060577431
0.000534600743727958
0.000497400551283991
0.000432550113587836
0.000319948546124184
2.60990533159413e-08
4.86937013326464e-07
4.48944981738614e-07
2.68269585304969e-06
1.03779141489974e-05
2.13344058090539e-06
6.9449737124422e-06
3.55707056963218e-05
3.35058799946219e-05
4.84606668858147e-06
1.29692545443647e-05
6.4844890131704e-05
7.96539199238249e-05
5.85685499183348e-05
8.28979810668901e-06
1.23668050033663e-05
8.35980410323334e-05
0.000121441561784063
0.000125098001842775
9.57044628736489e-05
2.05221719117259e-05
1.704001292333e-05
0.000108192494333143
0.000161803624398263
0.000179392728405969
0.000171047853790363
0.000127293768355057
2.96346071289424e-05
2.22015459108185e-05
0.000132242859645765
0.000200512168737357
0.000230925980885908
0.000236300697185153
0.000216990694980026
0.00015938595409389
4.04186049014847e-05
2.76593223884383e-05
0.000155545758843712
0.000237366428111699
0.000279887989596682
0.000296872148862825
0.000292268345812665
0.000262362730859202
0.000191868161218475
5.26848803797377e-05
3.32122612255578e-05
0.000177780523167913
0.000272187586811867
0.000326059874886226
0.000353727854568539
0.000360516683690718
0.000346685587873371
0.000306838398907007
0.000224266995050078
6.54210920998385e-05
3.86892316581135e-05
0.000198648281643833
0.000304756839464694
0.000369254331240109
0.000406913060632132
0.000423629293545185
0.000421494591017464
0.000399135419581178
0.000350042763763823
0.00025568816775009
7.52669387877523e-05
4.396386483308e-05
0.000217926441074236
0.000334852072559347
0.000409279870211639
0.000456335510122187
0.000482107789322133
0.000489601482786535
0.00047944991288816
0.000449276688529758
0.000391611053901815
0.00028555442063018
6.99427877586076e-05
4.89124449370635e-05
0.000235430426793135
0.0003622735378634
0.000445938107077779
0.000501834197448941
0.000536062981822653
0.000552027905960933
0.000551450952434714
0.000534038936316656
0.000496794332760908
0.000431955122844897
0.000319484446397131
5.99994168443157e-05
5.34121734938619e-05
0.000251009895728637
0.000386828884771926
0.000479018468981068
0.000543196187907852
0.000585393106280917
0.000609130689559969
0.000616675071188971
0.000608855624736631
0.00058480404993014
0.000541454621126986
0.000473266431568441
2.35083076387068e-08
4.43182092545176e-07
4.07821256950248e-07
2.47537207444272e-06
9.64762914129523e-06
1.9684583545895e-06
6.49425396849137e-06
3.38340395034241e-05
3.18487421024341e-05
4.53061176506209e-06
1.22446385589259e-05
6.23579822298389e-05
7.68430555251474e-05
5.62895084376684e-05
7.83103828452667e-06
1.95224761139122e-05
9.26491633481342e-05
0.000121507129422932
0.00011797196864139
8.09330608580779e-05
1.17859184016464e-05
1.63667216030629e-05
0.000105342991611286
0.000157980628809591
0.000175208578530153
0.00016693262625865
0.00012384802690253
2.83723313288988e-05
2.14721492697277e-05
0.000129384131145334
0.000196608503040624
0.000226513099000678
0.00023173033135656
0.000212608143449176
0.000155733335613026
3.89287714154232e-05
2.69215514777633e-05
0.000152831751312717
0.000233623585392266
0.000275564950301406
0.000292263008725029
0.000287625056024408
0.000257973721985066
0.000188204870319213
5.10451757863638e-05
3.25154039247115e-05
0.000175354724530433
0.000268819938256809
0.000322109877527151
0.000349431645958131
0.000356068133491172
0.000342275603858023
0.000302702748912298
0.000220806712493418
6.37705881217757e-05
3.80869966104603e-05
0.000196639495365797
0.000301958611819463
0.00036593111472357
0.000403240530176008
0.000419750865786916
0.000417542516790581
0.000395251641342307
0.000346415017980356
0.000252651548231666
7.38106637778235e-05
4.35041091225605e-05
0.000216462024176725
0.000332804711986874
0.000406815440429651
0.00045356632181952
0.000479127837816629
0.000486496302524481
0.000476305492002826
0.000446193355512997
0.000388731192923255
0.000283141130964771
6.89798110685991e-05
4.86624187743329e-05
0.00023465384858622
0.000361154320776371
0.000444551425583012
0.000500227843894829
0.000534280461680508
0.000550111898420898
0.000549445100826306
0.000531992492422274
0.00049477073811109
0.000430048095564864
0.000317856205569368
5.94760260198428e-05
5.34467427972677e-05
0.000251058519358506
0.000386829254892119
0.000478937680909506
0.000543014810215088
0.000585103753177015
0.000608733892310989
0.000616176848007489
0.000608267702522137
0.000584148050536112
0.000540773195892753
0.000472643574399574
0.000381207115586547
0.000248973011803718
5.77367643283887e-05
0.000265538071812746
0.000409651555598343
0.000509766604100731
0.000581695371131952
0.000631386328552569
0.000662357250270607
0.000677114914424054
0.000677072395989624
0.000662436546687191
0.000632100301564088
0.000583503587099641
2.08745445117543e-08
3.98375499636149e-07
3.65806146521822e-07
2.25974760307191e-06
8.87971313660572e-06
1.79700656393596e-06
6.01787073974481e-06
3.19609521043306e-05
3.00615116324983e-05
4.19729037069074e-06
1.14686220470149e-05
5.96373673411251e-05
7.37566612003362e-05
5.37917203553778e-05
7.33823922436093e-06
1.84361620610003e-05
8.92593766458414e-05
0.00011750694075064
0.000114103564518907
7.79669058123128e-05
1.11504634596968e-05
2.6972711098327e-05
0.0001199578774528
0.000162271758884008
0.000170464671206224
0.000153645138765367
0.000102115204306829
1.56149287430785e-05
2.06398201721927e-05
0.000126076895605642
0.00019208878084891
0.000221404896597128
0.000226442092224253
0.000207540086597689
0.0001515151887747
3.72277396207005e-05
2.60525450917874e-05
0.000149604243509415
0.000229170592893249
0.000270424048611623
0.000286785022993553
0.000282108496431958
0.000252757870210955
0.000183844293553691
4.90987855804106e-05
3.16607933637106e-05
0.000172355166934366
0.000264655606883278
0.000317230083100201
0.000344130577071749
0.000350585030381282
0.000336842656334068
0.000297602708372427
0.0002165213709894
6.17140050316588e-05
3.72998728663051e-05
0.000194001867366319
0.00029828185398653
0.000361573273070372
0.000398437277734062
0.000414692007927948
0.000412399400822731
0.000390203830938202
0.000341696275771256
0.000248682723401424
7.18921148654555e-05
4.28373837270043e-05
0.00021430854420813
0.000329796446054143
0.000403214608546795
0.000449546877893081
0.000474831457395924
0.000482047494893085
0.000471824917882718
0.000441817252238534
0.000384649747860349
0.000279714620091903
6.75883561385301e-05
4.81624866156078e-05
0.000233104556629401
0.000358984719609643
0.000441923544441111
0.000497251511530818
0.000531047954086483
0.000546705287802797
0.000545941511698398
0.000528472662954341
0.000491332509027293
0.000426832631733687
0.00031511580562109
5.86034019918925e-05
5.31811341853892e-05
0.000250252943567698
0.000385665618115102
0.000477488019184189
0.000541324164264868
0.000583213286813346
0.000606683807727767
0.000614006747994522
0.000606019259080523
0.000581869796422957
0.000538526536619357
0.00047050661326003
0.000379270968494915
0.000247548241055522
5.77800356255945e-05
0.000265605472567905
0.000409675974091832
0.000509711760079733
0.000581538655411385
0.000631117414160221
0.000661973920412856
0.000676620426000473
0.00067647527388484
0.000661754262712877
0.000631369360406469
0.00058279745066782
0.000513378523871594
0.000438041263206295
0.000318612308971818
6.18421044460812e-05
0.000279028472084461
0.000430845408405605
0.000538392415354429
0.000617659394949522
0.000674506264534052
0.000712389269109936
0.000733894150946327
0.000740716008220102
0.000733601712211447
0.000712387709891637
0.000675873224461899
1.8237327251556e-08
3.53138495236575e-07
3.23450645234058e-07
2.03833467958624e-06
8.08087480805906e-06
1.62101398677923e-06
5.520178083672e-06
2.99582140331936e-05
2.81509747201767e-05
3.84967672416827e-06
1.06480155043446e-05
5.66909310901584e-05
7.0402116866602e-05
5.10834322579317e-05
6.81598726640348e-06
1.72757817910197e-05
8.55483345105705e-05
0.00011310663039547
0.00010984432669401
7.47078567605305e-05
1.04662889806483e-05
2.54582762184295e-05
0.000115643421309037
0.000157076601816454
0.000165169162543258
0.000148804228346156
9.85168672717778e-05
1.47911044118538e-05
3.53460820981904e-05
0.000146754558296388
0.000201798323476993
0.000220443493933193
0.000215607317151594
0.00018695828068139
0.000122325961065436
1.97098646418768e-05
2.50590283744193e-05
0.000145868242411037
0.00022401125303053
0.000264469184499878
0.000280442376240397
0.000275723597992093
0.000246722765898587
0.000178801432508525
4.68713192370778e-05
3.0653996748495e-05
0.000168785706542056
0.000259697881896256
0.000311423482962053
0.000337827093275706
0.000344068816082243
0.000330386503033405
0.000291535406499363
0.000211405567457492
5.92571912264094e-05
3.63333012950881e-05
0.00019073851477404
0.000293731123902785
0.000356184950565839
0.000392506259175977
0.000408453654001876
0.000406063231154003
0.00038398513816295
0.000335870450092485
0.000243749496049718
6.94623800531968e-05
4.19642214990594e-05
0.000211476787587854
0.000325837537348541
0.000398485306128933
0.000444282594236097
0.000469221091174484
0.000476253902056126
0.000466002102827402
0.000436134317575985
0.000379339864033324
0.000275227008554941
6.57731668230768e-05
4.74347535684666e-05
0.000230819869183544
0.000355786372774971
0.000438071496810132
0.000492918184861549
0.000526374320861271
0.000541812674634811
0.000540939974605992
0.000523473230527016
0.000486465804453608
0.00042228664307351
0.000311240461736192
5.73510690612111e-05
5.26438243151555e-05
0.00024862773250089
0.000383387064867815
0.000474714437312015
0.000538162979544775
0.000579755353573676
0.000603009399717238
0.000610188457499065
0.000602127464737641
0.000577980303144425
0.000534731627826217
0.00046693144535547
0.000376095611375292
0.000245217540281199
5.75007970877074e-05
0.000264775577031553
0.000408474987293345
0.000508209030860806
0.000579776622033501
0.000629135059493026
0.000659809448064165
0.000674310856503075
0.000674057880757617
0.000659269513852253
0.000628863124553618
0.000580319118248008
0.000510975617799879
0.000435820656224062
0.000316852587718614
6.18937925155087e-05
0.000279114779665303
0.000430894786152447
0.000538365953784012
0.000617531568102098
0.000674264013063411
0.000712027804618631
0.000733414287761425
0.000740123739308946
0.000732911713137632
0.000711633356775122
0.000675124846970866
0.000621172759135167
0.000551879142507995
0.000476501450857688
0.000358276158692321
6.57128976378517e-05
0.000291515889834327
0.000450480945003416
0.000564988972640954
0.000651195532552316
0.000714875499035142
0.000759400414756675
0.000787353156451679
0.000800548714334018
0.000800005943071293
0.000786028023044083
0.000758212558695752
1.56349879330549e-08
3.08062911384314e-07
2.8131871234319e-07
1.81359958818051e-06
7.2584204421678e-06
1.44248749920981e-06
5.00598503680275e-06
2.78332506292531e-05
2.61252533933035e-05
3.49104886371367e-06
9.78909648832665e-06
5.3525390686001e-05
6.67864234604316e-05
4.81735126995096e-05
6.26930500398417e-06
1.6050709060005e-05
8.15260897674127e-05
0.000108315014460867
0.00010520264685931
7.11647617177822e-05
9.73968977240275e-06
2.38511752424531e-05
0.000110925674847206
0.000151359384722528
0.000159331369113198
0.000143466066622364
9.4556643912298e-05
1.39026108103654e-05
3.33247837349429e-05
0.000141484418776458
0.000195399027143953
0.000213744502659613
0.000209128027962776
0.000181223756278074
0.000118139360517349
1.86894005578771e-05
4.44124503185651e-05
0.000173112415617082
0.0002398850353501
0.000268479409266871
0.000273241511995545
0.00025770562251856
0.000218150342225864
0.000141629119818648
2.3947915991236e-05
2.95020152672577e-05
0.000164650864552087
0.000253950200517677
0.000304693510771836
0.000330524806299459
0.000336523360733556
0.000322911919184084
0.000284509211588841
0.0002054767203606
5.64280126388879e-05
3.51936761496665e-05
0.000186852936656894
0.000288309577524483
0.000349769058832344
0.000385449873157346
0.000401037314951177
0.000398533915923737
0.000376592320212734
0.000328928794109485
0.000237836371350736
6.65648113012127e-05
4.08907348188092e-05
0.00020796979377297
0.000320932793766562
0.00039263209698292
0.000437776709251552
0.000462298041430094
0.00046911423490975
0.000458831679280113
0.000429131797329483
0.000372773977192367
0.000269622694955263
6.33697253503121e-05
4.6480380139256e-05
0.000227810710697687
0.00035157018876489
0.000433003870265405
0.000487234033721013
0.000520263004496153
0.000535434374512221
0.000534436827371459
0.000516984593438931
0.000480150626629649
0.000416372522804022
0.000306162664977481
5.57138746447929e-05
5.18585556883302e-05
0.000246224124388359
0.000380016770748346
0.0004706351616615
0.000533545519538125
0.000574740330328928
0.00059771720532651
0.000604724447013207
0.000596590219775448
0.000572472455645484
0.00052937623273492
0.000461897962882689
0.000371633558995253
0.000241929628761872
5.69289423730799e-05
0.000263082926438354
0.000406099352072588
0.000505305701560103
0.000576450613584953
0.000625475872613713
0.000655896267798022
0.000670214063680403
0.000669842578660385
0.000655000372606961
0.000624609775694679
0.000576165596714401
0.000507044002121128
0.000432214159019412
0.000314009899324652
6.16032955112359e-05
0.000278264708651845
0.000429662518304073
0.000536818751395582
0.000615709476043368
0.000672203920568054
0.000709766144456202
0.000730986220710681
0.000737563858516146
0.00073025594162134
0.000708919215650665
0.000672385821615969
0.000618424894542738
0.000549255973199608
0.000474058460743949
0.000356290973545097
6.57707439139998e-05
0.000291620161929301
0.000450555162814504
0.00056499223978967
0.000651099669661803
0.00071466487676088
0.000759067785961131
0.000786897068357734
0.000799973013838981
0.000799323280084627
0.000785270148251875
0.000757449658375119
0.000714621137721264
0.000656108723445272
0.000585906023812815
0.000504424616302391
0.000384647500514381
6.93325018900252e-05
0.000303027328519491
0.000468617368209735
0.0005896373321981
0.000682396640022312
0.00075259343198705
0.000803508946912114
0.000837683498280052
0.000856963845320992
0.000862499031446067
0.000854836516525523
0.000833995626813987
1.3091847433683e-08
2.63726536342682e-07
2.39992259918871e-07
1.58805408613459e-06
6.42047000036192e-06
1.26335216850992e-06
4.48073750423478e-06
2.55937150252772e-05
2.3993205288371e-05
3.12496886477811e-06
8.89892011879653e-06
5.01472975151885e-05
6.29169535635475e-05
4.50702868294809e-05
5.70350733003412e-06
1.4768310041501e-05
7.71988899738701e-05
0.000103140261361191
0.000100187000038568
6.73471494163277e-05
8.97739565349556e-06
2.2165443863631e-05
0.000105819316113016
0.000145131167360986
0.000152961158768777
0.000137639586737531
9.02440200496547e-05
1.29572514013589e-05
3.12058216077173e-05
0.000135739917354108
0.000188359765885894
0.000206356742786185
0.000201976252082908
0.000174893234175814
0.000113525965146262
1.75868867095547e-05
4.17937159512188e-05
0.000166832603600138
0.000232269134457715
0.000260388846292506
0.000265191344092765
0.000250140386569936
0.00021159392474048
0.000136893339392475
2.27274920348261e-05
5.33061955881749e-05
0.000198787980803801
0.000276547748660146
0.000314430245429947
0.000327955892979767
0.000322229287863904
0.000297044758136835
0.000247416623330524
0.000159955672089558
2.8212536571373e-05
3.38884222804413e-05
0.000182348504355722
0.000282020190318403
0.000342328520985771
0.000377271248531853
0.000392446261585856
0.000389814800202134
0.000368029466164464
0.000320878625913263
0.000230955108101364
6.31356547156969e-05
3.96240449442917e-05
0.000203791299160492
0.000315085195750308
0.000385657734178166
0.000430031630871475
0.000454064039377886
0.000460628839708198
0.000450311342685469
0.000420801623990744
0.000364932943988832
0.000262869093956916
6.0608160611251e-05
4.53053507152122e-05
0.000224080810684611
0.000346341144628315
0.000426725397634302
0.0004802024553097
0.000512715794175913
0.000527570053564666
0.000526428533289475
0.000508997453932924
0.000472366366976073
0.000409046283666306
0.000299789367566542
5.35450987559978e-05
5.08273345955083e-05
0.000243054035677136
0.000375566036793525
0.000465259314977144
0.000527478543602483
0.000568172506614774
0.000590808830303668
0.000597613180511386
0.000589401714048888
0.00056533336863232
0.000522433725704723
0.000455354883435968
0.000365799542062811
0.000237604847577052
5.60900927919643e-05
0.000260571889765616
0.000402573475006093
0.00050102093860174
0.000571575924583889
0.000620151495598044
0.000650242551154744
0.000664334813750162
0.000663830733093051
0.000648945432546042
0.00061860672166703
0.000570330114894562
0.000501542661594156
0.000427174345852359
0.000310024150355327
6.0999678347013e-05
0.000276512184789884
0.000427200511254531
0.000533799987678539
0.00061223665940096
0.000668365150779557
0.00070563975158147
0.000726641459640495
0.000733063264229572
0.000725658569661749
0.000704283327782025
0.000667774086526204
0.000613923226738756
0.000544992256266609
0.000470129054572207
0.000353117923147989
6.54711698869948e-05
0.000290753536952143
0.000449296758087349
0.000563407955554971
0.000649227414699736
0.000712539522874394
0.00075672406413792
0.000784368597902586
0.000797292594134759
0.000796524144956229
0.000782385017024554
0.000754502262740665
0.000711605745766677
0.000653152369273854
0.000583075246382186
0.000501793792707238
0.00038248555836526
6.93941533942556e-05
0.000303146595872074
0.000468715037999135
0.000589670481499635
0.000682334672660316
0.000752418202349898
0.000803210798839288
0.000837258789783481
0.000856414472437032
0.000861836044906293
0.000854090859120239
0.00083323876239507
0.000798791146880477
0.000749848193143553
0.000687403855713327
0.000613199388149514
0.000524108420018745
0.000402208301653787
7.26615305574225e-05
0.000313576320501509
0.000485302493485623
0.000612407879364441
0.000711344770358116
0.000787745284826664
0.000844803841300927
0.000885001381465872
0.000910169029507534
0.000921504231064297
0.000919683750816236
0.000904954074942814
1.0662538486661e-08
2.20695578813112e-07
2.00004372471411e-07
1.36448346470487e-06
5.57633446423243e-06
1.08556656599773e-06
3.95037675066132e-06
2.32487497796343e-05
2.17642311574462e-05
2.75502278743622e-06
7.986332319272e-06
4.65649413088931e-05
5.88012875304236e-05
4.17822721309801e-05
5.12385473831984e-06
1.34358151127843e-05
7.2571454802981e-05
9.7590605142443e-05
9.48058832668179e-05
6.32643670052098e-05
8.18654316862966e-06
2.04013412707476e-05
0.000100328193379698
0.000138401135796851
0.000146068652709372
0.000131334114838401
8.55889504601615e-05
1.1963375222512e-05
2.90098370344796e-05
0.000129544313497157
0.000180695218884063
0.000198292463241827
0.000194162409121358
0.000167975691857698
0.000108495328683858
1.64118277365508e-05
3.90999032528279e-05
0.000160025639648332
0.000223902115884612
0.000251467233076504
0.00025630300467584
0.000241782259949882
0.000204349524309152
0.000131668869284292
2.14072252802916e-05
4.9990962727063e-05
0.00019142625538812
0.000267688930840669
0.000304959067053911
0.000318377231235485
0.000312948514286152
0.000288483401837981
0.000240102485353389
0.000154706366402455
2.67952058536919e-05
5.93973736498764e-05
0.000223174942784885
0.000311751904550236
0.000358310908982427
0.000379914138446261
0.000382686561158269
0.00036797515766759
0.000333867150552694
0.000274866404959531
0.000177229858973384
3.24261372200515e-05
3.81717053437472e-05
0.000198944507038965
0.000308297124539111
0.000377564630099598
0.000421050029993856
0.000444521963572353
0.000450800554104824
0.000440443488268676
0.000411145657665349
0.000355817187346887
0.000254946362511334
5.70503105590203e-05
4.39174576124051e-05
0.00021963313906829
0.000340102059446132
0.000419238581774688
0.000471825824744568
0.000503734410955674
0.000518220295283573
0.000516913644623423
0.000499506100332648
0.000463097028812598
0.000400270546070804
0.000292060179125331