/*--------------------------------*- C++ -*----------------------------------*\
  =========                 |
  \\      /  F ield         | OpenFOAM: The Open Source CFD Toolbox
   \\    /   O peration     | Website:  https://openfoam.org
    \\  /    A nd           | Version:  12
     \\/     M anipulation  |
\*---------------------------------------------------------------------------*/
/*   Windows 32 and 64 bit porting by blueCAPE: http://www.bluecape.com.pt   *\
|  Based on Windows porting (2.0.x v4) by Symscape: http://www.symscape.com   |
\*---------------------------------------------------------------------------*/
FoamFile
{
    format      ascii;
    class       volScalarField;
    location    "300";
    object      nut;
}
// * * * * * * * * * * * * * * * * * * * * * * * * * * * * * * * * * * * * * //

dimensions      [0 2 -1 0 0 0 0];

internalField   nonuniform List<scalar> 
10103
(
1.14282090890788e-08
1.14182726564873e-08
1.78824254466861e-07
2.49534460608894e-07
1.13967966612255e-08
1.79124584648351e-07
2.49812215482928e-07
7.33597848369516e-07
1.59917553425257e-05
1.27659678446481e-06
1.1336761787389e-08
1.78328384230944e-07
2.49138549148392e-07
7.33779910723541e-07
1.60334498839767e-05
1.27832490572895e-06
1.48318180756742e-06
4.91178230021823e-05
6.29412200978851e-05
3.07953388490837e-06
1.12001725496296e-08
1.76339957022447e-07
2.46699460895067e-07
7.29477576310991e-07
1.597913699565e-05
1.2717782043316e-06
1.48306924784123e-06
4.91771709378157e-05
6.29946161282853e-05
3.07997963463154e-06
2.33727212005618e-06
7.62666230806285e-05
0.000187134800060684
0.000107213376977754
5.43559841174681e-06
1.09814033514148e-08
1.73041296244416e-07
2.42419698818423e-07
7.20521077996078e-07
1.58081521447932e-05
1.25637382160736e-06
1.47383134250753e-06
4.900138509836e-05
6.27437165875754e-05
3.06228122027125e-06
2.3367820694105e-06
7.62801788389211e-05
0.00018720358646024
0.000107203370596778
5.43235759705226e-06
3.2825367700586e-06
9.91660945156013e-05
0.000284191139600539
0.000321606836712831
0.000146624107297925
8.1866041330763e-06
1.0689956129124e-08
1.68543727940697e-07
2.36442678861328e-07
7.06865353124387e-07
1.55399035831688e-05
1.23255651548074e-06
1.4560580075988e-06
4.86126904346059e-05
6.21915709424673e-05
3.02497942909891e-06
2.32209103998974e-06
7.60156183478763e-05
0.000186687959710828
0.000106777450775418
5.39840277235724e-06
3.28178776819453e-06
9.91637664663809e-05
0.000284195912187256
0.000321606248333312
0.000146554216436742
8.1771277514918e-06
4.32365643426033e-06
0.000119454786097773
0.000358307681513295
0.000516268752701564
0.000432934087758148
0.000182156665576062
1.1350632149953e-05
1.03310542875993e-08
1.62988007804471e-07
2.28980331423823e-07
6.88868630869728e-07
1.51901165660303e-05
1.2011875170196e-06
1.42976270512855e-06
4.80347896658466e-05
6.14089457333726e-05
2.96963655802165e-06
2.29445282713808e-06
7.54916058312211e-05
0.000185635391841526
0.000105980049858001
5.33264281303413e-06
3.26141946793137e-06
9.88340245168198e-05
0.000283490459814622
0.000320779982474937
0.000146004020990911
8.1233089472656e-06
4.32306516111988e-06
0.000119444999130336
0.000358280587337111
0.000516227640529401
0.000432840449909861
0.000182033748570535
1.13331098584008e-05
5.44330629242583e-06
0.000138058905013281
0.00041881812429683
0.00066993702872878
0.000721209886169693
0.000526442198681715
0.000215361866382602
1.50021729880944e-05
9.90788377355878e-09
1.56478897491761e-07
2.20160571219273e-07
6.66869748167071e-07
1.47667207513681e-05
1.16291920051555e-06
1.39531522659057e-06
4.72777939259198e-05
6.04060035045807e-05
2.8975970242892e-06
2.25428633643324e-06
7.47207126381345e-05
0.000184101690807371
0.000104856777529073
5.2369690734666e-06
3.2233492209866e-06
9.82002707615621e-05
0.000282117163991377
0.000319184208074209
0.000145002841377296
8.02376350475168e-06
4.29680345085448e-06
0.000119063702434756
0.000357429961188324
0.000515085539838262
0.000431747549516988
0.000181365429044973
1.12553295836363e-05
5.44311134086303e-06
0.000138048634806576
0.000418780748138127
0.000669862536655699
0.000721078502891233
0.000526247639502894
0.000215183018744461
1.49743459576266e-05
6.6024370145305e-06
0.000155309010634065
0.00047065455244635
0.000792400490137248
0.000965234234664471
0.000893540913409113
0.000608286558861827
0.000247430943698706
1.90508868108227e-05
9.42400802399891e-09
1.4909290983984e-07
2.10088213311631e-07
6.4116768825618e-07
1.42738515464599e-05
1.1182118690262e-06
1.35313466609519e-06
4.63465201093771e-05
5.91911691952655e-05
2.80974051970685e-06
2.20192548332146e-06
7.37079114100252e-05
0.000182101655949924
0.000103411659509534
5.11278037118322e-06
3.16810755359189e-06
9.72741575283512e-05
0.000280102642885662
0.000316874456075001
0.000143588996015661
7.88045624341739e-06
4.24761227324778e-06
0.000118336717934451
0.000355802551592875
0.000512896999173762
0.000429700096888973
0.000180171833959699
1.11158260227278e-05
5.41088142214114e-06
0.000137624983218985
0.000417817747833936
0.000668461688120478
0.00071952400434781
0.000524906220939159
0.000214393986553213
1.48677771297701e-05
6.60295175235798e-06
0.000155302386401728
0.000470619612834575
0.000792315485824725
0.00096507224717642
0.000893289492070077
0.000607986251839841
0.000247192088121092
1.90105375876546e-05
7.76367807413699e-06
0.000171205949443315
0.000516217380933384
0.00089340356272114
0.00116419167431106
0.00122228753164845
0.00104055485590357
0.000682953078893744
0.000278176542270217
2.28648278356591e-05
8.88348100129729e-09
1.98877479967686e-07
1.40920662578165e-07
6.12044918858536e-07
1.37145475654479e-05
1.06755894743194e-06
1.30370044725668e-06
4.52436004192503e-05
5.7768308267621e-05
2.70692405831159e-06
2.13778561207183e-06
7.24550398333985e-05
0.000179639921467885
0.000101647970854605
4.96116110531572e-06
3.09651089825633e-06
9.60570409354226e-05
0.000277455378104275
0.000313862927767844
0.000141763766559583
7.6944712582954e-06
4.17644738923647e-06
0.000117276013937508
0.000353416443369049
0.000509696765529534
0.000426742819246278
0.000178482371690313
1.09158980451935e-05
5.34978567256758e-06
0.000136816319767158
0.000415983763218366
0.000665800352342145
0.000716603177412185
0.000522454847095828
0.000213002786977315
1.46804769229617e-05
6.56496806897023e-06
0.000154843490805851
0.000469569049126542
0.00079071342794367
0.000963128003406954
0.000891345765982518
0.000606402520337541
0.000246278406700929
1.88706494863888e-05
7.76514292784446e-06
0.000171206269895358
0.000516193823523444
0.000893325607812748
0.00116402097964933
0.001221997228183
0.00104016584499685
0.00068254282504356
0.00027787511268885
2.28116376353137e-05
8.90360647580802e-06
0.000185729364292394
0.000556679626967785
0.000979123049883461
0.00132767333626862
0.00149963150247949
0.00144285332998383
0.0011706258949306
0.000752852412712451
0.000305330158407875
2.40042179906463e-05
8.29184863822954e-09
1.86653652381744e-07
1.32048421465617e-07
1.01151012170121e-06
1.30926764371976e-05
5.79823658437575e-07
1.24753313485537e-06
4.39708438771812e-05
5.61406196555583e-05
2.59017223408607e-06
2.06248671055209e-06
7.09633416671512e-05
0.000176715877222511
9.95675201426415e-05
4.78337235577234e-06
3.00891391646215e-06
9.45482085140969e-05
0.000274175414228602
0.000310149665494834
0.000139524355741157
7.46686464729846e-06
4.08389991091752e-06
0.000115882833227328
0.000350274549155296
0.000505493899758184
0.000422882959165527
0.00017629174841267
1.06559821941634e-05
5.26210947855887e-06
0.000135635877222285
0.000413296885516879
0.000661900538800482
0.000712343822719119
0.000518917093550197
0.000211030430711706
1.44120267833543e-05
6.49211155055969e-06
0.000153962371227256
0.000467563869131411
0.000787673427609562
0.000959478508928578
0.000887763366573048
0.000603562283592406
0.000244682531212136
1.86277633487006e-05
7.72183633664577e-06
0.000170718619280994
0.000515074656063587
0.000891568710854621
0.00116176595202558
0.00121952969753027
0.00103784661403879
0.000680716630027211
0.000276833694560668
2.2638553793021e-05
8.90631579900314e-06
0.000185738934722704
0.000556674257490792
0.000979065428761746
0.00132751469403999
0.0014993281282184
0.00144240419137971
0.00117008742374593
0.000752329186906938
0.00030497130888993
2.3945818902417e-05
1.00107886712979e-05
0.00019894339825396
0.000592761263926271
0.00105323287871486
0.00146453512493072
0.00173080863488873
0.00179254009850709
0.00163603057059469
0.00129068056560295
0.000819708715420575
0.000324431431806001
1.44893847597115e-05
7.65640026978759e-09
1.73556722507955e-07
1.2259022367533e-07
9.50661007238126e-07
1.24123075286276e-05
5.44854699415667e-07
2.4606985827262e-06
5.43124706150216e-05
4.25305412103968e-05
1.18519974696544e-06
1.9767504774173e-06
6.92337535523538e-05
0.000173326824262479
9.71730946043488e-05
4.58111191249172e-06
2.90590676077851e-06
9.27479414130135e-05
0.000270258463577484
0.000305729748217891
0.000136868602948878
7.19929840856134e-06
3.97087999013759e-06
0.000114155843257724
0.000346372526447227
0.000500284119383225
0.000418112820486652
0.00017359018947475
1.03367431113591e-05
5.14792048168143e-06
0.000134084822766602
0.000409757139796222
0.00065676437354307
0.000706750393392023
0.000514291837114168
0.000208460816182603
1.40616934047984e-05
6.38757022469848e-06
0.000152674621679258
0.000464623288216624
0.00078321525194102
0.000954140827862015
0.000882553265037488
0.000599468562696115
0.000242410757821555
1.82790682351838e-05
7.63790352235345e-06
0.000169773024105968
0.000512925881467365
0.000888222659068856
0.0011575218516435
0.00121496230523446
0.00103364360435058
0.000677485810287008
0.000275022453001738
2.2339985071237e-05
8.85815293330028e-06
0.000185227835076118
0.000555501736638656
0.000977189637012504
0.00132501780045134
0.00149643056982926
0.00143942964266249
0.00116739600719796
0.000750256287725285
0.000303806104834951
2.37583875047407e-05
1.0015032212185e-05
0.000198964041526708
0.000592779110123792
0.00105320566399423
0.00146440575638714
0.00173051740361937
0.00179206287667418
0.00163539993033162
0.00128998279129323
0.000819074366722854
0.00032404149663423
1.4455852211484e-05
1.10795592235491e-05
0.000210969762568704
0.000625041807663676
0.00111807745165037
0.00158108774056522
0.00192472783820472
0.00208939051278055
0.00204950192577389
0.00181157184868461
0.00140813846399275
0.000891307659445806
0.000343882479041473
6.98689675277836e-09
1.59742606572218e-07
1.12643323263081e-07
8.8565251128932e-07
1.16780145504655e-05
5.07581451786178e-07
2.31986953758968e-06
5.22878977169982e-05
4.09252819828153e-05
1.11733537385229e-06
4.35659030393648e-06
9.44689032298688e-05
0.000169469714285225
6.72668909221869e-05
1.88137052385156e-06
2.78840752113337e-06
9.06560519091412e-05
0.00026569768103756
0.000300597102208789
0.000133798355341999
6.89446404699159e-06
3.83806947065039e-06
0.000112092717100209
0.000341702398994069
0.00049405617686313
0.000412421032857363
0.000170371474350199
9.96004510845806e-06
5.00811726119867e-06
0.000132161784813156
0.000405355553052597
0.000650381473201403
0.00069981044423498
0.000508561203554268
0.00020527554264647
1.36291441735305e-05
6.25130074426976e-06
0.000150981608823774
0.000460747495346701
0.000777336383423198
0.000947111451204918
0.000875708680080842
0.000594104285189387
0.000239437585645798
1.78213209502028e-05
7.51704661300096e-06
0.000168386441473931
0.000509768517847231
0.000883308775153629
0.00115130467099429
0.00120830078066591
0.00102754955847395
0.000672834180295584
0.000272435178254521
2.19101473930888e-05
8.76376065781106e-06
0.000184219869104843
0.000553231381907744
0.000973594029484436
0.00132029268570316
0.00149103742225666
0.00143400090074333
0.0011625867076901
0.000746623460608323
0.000301783310347217
2.34364955842496e-05
9.96240880352075e-06
0.000198434443478653
0.000591565497364106
0.00105123942817794
0.00146172293418514
0.00172727814115975
0.00178853614649826
0.00163192360931157
0.00128691194133929
0.000816745964868628
0.000322765283847151
1.43379131690645e-05
1.1085556799984e-05
0.000211002724728848
0.000625085991337272
0.00111808811570207
0.00158100150112582
0.00192447122232277
0.0020889170954672
0.00204881806379596
0.00181074074986454
0.00140727470785709
0.00089057636447107
0.000343492332932618
1.88452905589573e-05
1.2106065449223e-05
0.00022193835157181
0.000654029228540825
0.00117530582696149
0.00168169901464668
0.00208918783968758
0.00234058151482025
0.00240604958869946
0.00228028952052257
0.00197950207672039
0.00153672045397937
0.00100764693943224
6.2945678409428e-09
1.4538448040952e-07
1.02336155844247e-07
8.17162182905553e-07
1.08940208047774e-05
4.68346901779943e-07
2.16909704055321e-06
5.0069839624e-05
3.91582957142206e-05
1.04461550677511e-06
4.11237364006502e-06
9.14600691657154e-05
0.000165140206978607
6.50636868709276e-05
1.77725867462119e-06
6.55621481318143e-06
0.000130320285700404
0.000294745798571216
0.000260484432981546
8.82720704807374e-05
2.65743604016075e-06
3.68642674543796e-06
0.000109691959155314
0.000336253819343646
0.00048679530644655
0.000405798109221379
0.000166637814840994
9.53026574880143e-06
4.84357457357858e-06
0.000129864089230795
0.000400081461715235
0.0006427342421464
0.000691503595383457
0.000501706457758568
0.000201469479335063
1.31167454870913e-05
6.08455124331412e-06
0.000148881041232275
0.000455927001796047
0.000770020468593075
0.000938370473506722
0.000867205497785933
0.000587438597350589
0.000235734159480452
1.72522584115354e-05
7.35930728678313e-06
0.000166568448941161
0.000505603671411471
0.000876823165832445
0.00114310376657222
0.00119952674753771
0.00101953610700939
0.000666721089613933
0.000269028083749493
2.13413653267197e-05
8.62736217344904e-06
0.000182743409549135
0.000549886356907124
0.000968302779745079
0.00131335764866647
0.00148315416910563
0.00142610664900302
0.00115563086148997
0.000741394000341993
0.000298882945680481
2.29710386572269e-05
9.85823451756447e-06
0.000197372490166585
0.000589189365774197
0.00104743911120464
0.0014566086876949
0.00172120685592459
0.0017820530235183
0.00162566184827159
0.00128148690280528
0.000812692558031172
0.000320552204880783
1.41370945616319e-05
1.10289000138284e-05
0.000210458538972505
0.00062384186220459
0.00111605404006023
0.00157817771134938
0.0019209661763303
0.00208494245154583
0.00204466738951536
0.00180675426937607
0.00140380253631426
0.000887956498249843
0.000342079516054846
1.86801183533053e-05
1.21139296327935e-05
0.000221984260808431
0.000654101809005474
0.00117535952174556
0.0016816665923906
0.00208898491275537
0.00234014176398594
0.0024053528975671
0.00227937183950686
0.00197845631706653
0.001535694839499
0.00100679786405523
0.000697405899605556
0.000315508444838088
1.30865030653989e-05
0.000231960524253009
0.000680155516523744
0.00122615431314928
0.00176948005369724
0.00223021712329479
0.00255413403388181
0.0027107118719751
0.00268877574937025
0.0024948438979397
0.00215189864480719
0.00170346162437444
5.59074689112853e-09
1.30679924392475e-07
9.18046628236867e-08
7.45925815708992e-07
1.00645865047913e-05
4.27573118276327e-07
2.0097815206235e-06
4.76582029323292e-05
3.72312278204682e-05
9.67771913972886e-07
3.85108519792138e-06
8.81497034728363e-05
0.00016033123647882
6.26246123495702e-05
1.6654221003702e-06
6.18923995223315e-06
0.000126444614734327
0.000288168764048616
0.000254608134484158
8.55955816031385e-05
2.51415455325544e-06
9.05428567941356e-06
0.000162402137913652
0.000398238295268166
0.000478484524209513
0.000330013915140754
0.000106952052811054
3.51710179734486e-06
4.65583256850541e-06
0.000127188833633385
0.000393920857220852
0.000633800103643351
0.000681806981597123
0.000493716041094654
0.000197047803837343
1.25312971307166e-05
5.88813504393243e-06
0.000146369820307839
0.000450146847925982
0.000761243863872877
0.000927887765545669
0.000857012192901291
0.000579445567467324
0.000231284480517022
1.65742395658683e-05
7.16587336576772e-06
0.000164309140963809
0.000500420991116863
0.000868746415382162
0.001132891565057
0.00118860699156936
0.00100956366420567
0.000659097671507101
0.000264754859642549
2.06277443413259e-05
8.44904323855126e-06
0.000180808237983679
0.00054547249040474
0.000961311862098167
0.00130419833124242
0.0014727545030819
0.00141570725439246
0.00114647295738835
0.000734496960684489
0.00029503813941362
2.23525741282731e-05
9.70717162236973e-06
0.000195817843364509
0.000585681106378235
0.00104183217847848
0.00144908441486392
0.00171231091595992
0.0017726014197868
0.00161658098395276
0.00127365338462332
0.000806853354465974
0.000317376871675226
1.38427248652981e-05
1.09156151224777e-05
0.000209350090967522
0.000621376626228289
0.00111208467650555
0.0015727482086534
0.00191434323042456
0.00207757809633601
0.00203713163795955
0.00179965690658878
0.0013977242456087
0.000883421100837501
0.000339624526905795
1.84030963896916e-05
1.20537413495165e-05
0.000221428786660061
0.00065283534366219
0.00117327571281674
0.00167873775017327
0.002085277191719
0.00233581398074702
0.00240064656187798
0.00227459013633928
0.00197393429421413
0.00153176542648879
0.00100374995833081
0.00069500095488364
0.00031413839796978
1.30963435637485e-05
0.000232019468890933
0.000680257320779941
0.00122625426449863
0.00176950905307729
0.00223008308567936
0.00255375424238848
0.00271004167441189
0.00268782215832077
0.00249367294374932
0.00215063921644349
0.00170223183903868
0.00129890102584166
0.00102463680752511
0.000573102315930503
1.40171153171682e-05
0.000241122556458044
0.000703770532847615
0.00127157493834238
0.00184671567294734
0.0023523672439322
0.00273704354784421
0.00297107233159044
0.00304068216347777
0.00294620329426908
0.00270267663453141
0.00234254578774737
4.8857851451822e-09
1.15830528805292e-07
8.11846176172327e-08
6.72759740920687e-07
9.19570452739567e-06
3.85710617687262e-07
1.843340008937e-06
4.50526946658301e-05
3.51451553710455e-05
8.87624053118572e-07
3.57502131716627e-06
8.45343921549016e-05
0.000155029849849479
5.99494649683328e-05
1.54689379862736e-06
5.79817437553733e-06
0.000122179870675853
0.000280853957143752
0.000248054750373199
8.26257000899205e-05
2.35988841706957e-06
8.54098616514451e-06
0.000157686318608236
0.000389737535482891
0.000469103603466035
0.000322967333017588
0.000103871311428261
3.33153775130798e-06
1.18851713834977e-05
0.000192036249352204
0.000484589570593173
0.000670697221974703
0.000623552191831613
0.000386857017599562
0.000124132066568083
4.4460645650083e-06
5.66360342283008e-06
0.000143444988316119
0.000443389729534977
0.000750976642462393
0.000915626914590881
0.000845098102528802
0.000570113601281498
0.000226097974681632
1.57976309824717e-05
6.93798731312737e-06
0.000161606063871987
0.000494204521429369
0.000859048798339852
0.00112062845602127
0.00117549589557153
0.000997586423662661
0.000649922033544108
0.000259590043100545
1.97705562605473e-05
8.23008152054474e-06
0.000178406529469346
0.000539975525545024
0.000952599862427537
0.00129278167276678
0.00145979400778144
0.00140274836844726
0.00113504829281028
0.000725854066189904
0.000290175804473984
2.1559200781598e-05
9.50928184507441e-06
0.000193778607708625
0.000581048118760111
0.00103441571838807
0.00143913468515968
0.00170055974072593
0.00176013342272925
0.0016046140262274
0.00126332184152027
0.0007991221712751
0.000313143763308807
1.34573640947346e-05
1.07506810083269e-05
0.000207726957296055
0.000617728165276801
0.00110621150846079
0.00156473758503095
0.0019046124239939
0.00206681270885779
0.00202617490648411
0.00178938710599912
0.00138895580717809
0.000876888967539566
0.000336114636155851
1.80001539692959e-05
1.19319908293431e-05
0.000220280375253217
0.000650295139738696
0.00116916699802349
0.00167305226054842
0.00207820752366509
0.00232772561092877
0.00239203080283455
0.00226600971530873
0.0019659642813479
0.00152494049954194
0.000998501719743383
0.000690899335685761
0.000311831052890762
1.30330677378901e-05
0.000231455572001802
0.00067897492396828
0.00122413480519195
0.00176650351183913
0.00222622398855834
0.00254915503018009
0.00270489261602499
0.00268237952200434
0.00248823888647314
0.00214552903015739
0.00169773428641325
0.0012950996597642
0.00102136370023938
0.00057098363998224
1.40288657771747e-05
0.000241194488872854
0.000703901417299805
0.00127172263461833
0.00184681079966189
0.00235231320693361
0.00273674518299601
0.00297046409647457
0.00303974331312773
0.00294497005125722
0.00270125325729002
0.00234101154088271
0.00193985721335659
0.00157498575722104
0.00121566794843848
0.000696897309686733
1.48944499013817e-05
0.000249490314025747
0.000725148949804534
0.0013123064704674
0.00191512196602157
0.00245907247985688
0.00289497560367742
0.00319453488866487
0.00334317388312658
0.00333745613957546
0.00318588775189726
0.0029112199440282
4.18997882863445e-09
1.01026339262995e-07
7.06135998919346e-08
5.98460181152517e-07
8.29391626180267e-06
3.43225087051743e-07
1.67131968476877e-06
4.22519284806065e-05
3.29019790553504e-05
8.04914049412224e-07
3.2861537318468e-06
8.06049549363288e-05
0.000149217135728381
5.70376891663743e-05
1.4228037390941e-06
5.38624117455812e-06
0.000117522150317704
0.000272778638315492
0.000240804766470917
7.93603905819829e-05
2.19605087674553e-06
7.99906419897665e-06
0.000152513557862791
0.000380285930415145
0.000458625961644449
0.000315094860496662
0.000100447674509687
3.13141059277006e-06
1.1195392134803e-05
0.000186480612155215
0.000474335127749177
0.000658148552690305
0.000611958738311666
0.000378870482983264
0.000120691121901423
4.21587270134052e-06
1.49434326777364e-05
0.000220225210351028
0.000559455849519375
0.000831437120449443
0.000901546703418458
0.000739183316945422
0.000435635220847011
0.000140101700647437
5.41248533854251e-06
6.67727282895862e-06
0.000158455698392709
0.000486934328375194
0.000847693925625105
0.00110626542190808
0.00116014180952058
0.00098356542866656
0.00063918214168544
0.000253547106276686
1.87821142715808e-05
7.97193488889116e-06
0.000175533491819443
0.000533378539442638
0.0009421336830211
0.00127905934595606
0.00144421326244766
0.00138716460929429
0.00112128887438843
0.000715400190285991
0.000284254837505004
2.06103972769226e-05
9.26599642387778e-06
0.000191246069443274
0.000575276668415742
0.00102516631125176
0.00142672204853867
0.00168589941548477
0.00174457904592403
0.00158967493922885
0.0012503887929179
0.000789374587413596
0.000307726394011313
1.29306411197091e-05
1.05343589363015e-05
0.000205595624643223
0.00061290406655334
0.00109843279385771
0.00155413043106439
0.00189174085595918
0.00205259249962703
0.00201172004070539
0.00177584135284706
0.00137736341979976
0.00086820843358015
0.000331436324744575
1.74719689342113e-05
1.17539811755964e-05
0.000218597022692798
0.000646525518397761
0.00116306868253496
0.00166463774431521
0.00206778881320604
0.00231586713648574
0.00237946896829346
0.00225356465992247
0.0019544513688639
0.00151510448827357
0.000990954728755655
0.00068499952123941
0.000308512149887615
1.29034871497664e-05
0.000230273669116411
0.000676371494420666
0.00121991081567949
0.00176060960576645
0.0022187930923803
0.00254047787791001
0.002695381688757
0.00267253151511707
0.00247859050040293
0.00213660420303127
0.00168997614614972
0.00128857213196509
0.00101583053653649
0.00056743600921467
1.39630393378529e-05
0.000240624601591295
0.000702608246740565
0.00126957833713519
0.00184375050536534
0.00234834346092161
0.00273194232702856
0.00296497263916094
0.00303377115478281
0.00293877702500309
0.00269512583569172
0.00233524061868309
0.00193468994453645
0.00157042440515373
0.00121180428035275
0.000694365195616636
1.49075961720716e-05
0.000249574497921436
0.000725308116909831
0.00131250162062506
0.00191528515465366
0.00245910545603179
0.00289477468990088
0.00319401806941696
0.00334229610881622
0.00333622412420785
0.00318437690719185
0.0029094644649802
0.00255509250442155
0.00217438839076231
0.00178198411901375
0.00132488219025714
0.000759960163138791
1.57148551468006e-05
0.000257115308897583
0.000744505892110749
0.00134892425067939
0.00197600847776581
0.00255294068144253
0.0030323850130119
0.00338748823942281
0.00360378602676063
0.00367576203657106
0.00360718195276986
0.00341285988506453
3.5087552227681e-09
8.64525842773884e-08
6.02346637686356e-08
5.23833337335975e-07
7.36675360040974e-06
3.00557148552142e-07
1.49547768634375e-06
3.92506734958753e-05
3.05033291013287e-05
7.20437961799804e-07
2.98662672625468e-06
7.6347177150883e-05
0.00014286902373787
5.38863764269149e-05
1.29433897220394e-06
4.95545783759665e-06
0.000112454039137956
0.00026390734745041
0.00023283160975728
7.57967172664651e-05
2.02414113667836e-06
7.43355420807152e-06
0.000146889233198293
0.000369855388811375
0.000447014186646723
0.000306371535188779
9.66779140861373e-05
2.91846741126148e-06
1.04795807172876e-05
0.000180431961976658
0.000462956506011698
0.00064412659439
0.000598980530028353
0.000369937565839337
0.000116862823331812
3.9671651104793e-06
1.40427742537066e-05
0.000213757614350491
0.000547508044774749
0.000816005012634969
0.000885599761118999
0.000725822206496053
0.000426859712302834
0.000136335113708321
5.13666569610302e-06
1.7696142403265e-05
0.000246713520150799
0.000626916142749356
0.000967476522682381
0.00114248992518864
0.00108974523681551
0.00083463828814284
0.000478585223091042
0.000154852447854124
6.38542820345814e-06
7.67628595441209e-06
0.000172181652305526
0.000525659616452136
0.000929871118511783
0.00126297114771425
0.00142594097685951
0.00136888599759482
0.00110514299113187
0.000703117483720686
0.000277278369099708
1.94766141182119e-05
8.97897373513127e-06
0.000188215738831382
0.000568347595870137
0.00101404797292735
0.00141179169358482
0.00166825818170371
0.00172585332799138
0.00157166944806201
0.00123475054140975
0.000777508380408363
0.000301079710312705
1.23355758178496e-05
1.02680176320067e-05
0.000202948670125666
0.000606890159798261
0.00108872415141834
0.0015408858753643
0.00187566821873219
0.00203483610756159
0.00199366315476469
0.00175888955466949
0.00136278666113169
0.000857179903613461
0.000325341329731148
1.67488799955673e-05
1.15202360791822e-05
0.000216385948601083
0.000641534432930811
0.00115497984823585
0.0016534790176492
0.00205398693900768
0.00230018101965553
0.00236287635124753
0.00223713913231278
0.00193924303064647
0.00150206343146265
0.000980897506663684
0.000677065207255877
0.000304056968488165
1.27133256003467e-05
0.000228537526172592
0.000672496274133864
0.00121362079506979
0.00175185754749563
0.00220780600434367
0.00252771564507823
0.00268147314510367
0.00265821007477613
0.00246462603914388
0.00212373146996356
0.00167880576563806
0.00127917014677397
0.00100788438487839
0.000562356429056251
1.38262607154346e-05
0.000239414370703809
0.000699951596471721
0.00126525846943351
0.00183768605772932
0.00234062000407307
0.00272278877137878
0.00295473041460386
0.00302286701465126
0.00292769206227173
0.00268435365731028
0.00232523806916557
0.00192575237040315
0.00156263636479645
0.00120534164331615
0.000690162978003705
1.48397116129437e-05
0.000249000732037927
0.000724008335912798
0.00131034066666668
0.00191218666958204
0.00245505661608159
0.00288982262889394
0.00318826892694297
0.00333591330741213
0.00332942270193229
0.00317740594027768
0.0029026029305834
0.00254867079036233
0.00216849112927899
0.00177675528302226
0.00132059318874689
0.000757154508337623
1.57288628411441e-05
0.000257209068550645
0.000744691343977706
0.00134916458201476
0.00197623890276754
0.00255306365796671
0.00303229194510402
0.00338708513568295
0.00360300817979842
0.00367458970179374
0.0036056607667141
0.00341097458675274
0.00311840063607697
0.00276388632365097
0.00236909538847693
0.00191914043174694
0.00138635739156337
0.000793063165893608
1.64693834168698e-05
0.000264034386289912
0.00076201164986874
0.00138187979285373
0.00203038720709213
0.00263597047939845
0.00315273808281676
0.00355515857158123
0.00382930403917297
0.00396866519460445
0.00397390204361742
0.00385403766715839
2.85873727435516e-09
7.22873187516616e-08
5.01792071343724e-08
4.49772707636189e-07
6.42323694861169e-06
2.58157397274409e-07
1.31774343934211e-06
3.6043911114342e-05
2.79500408912318e-05
6.34984563363236e-07
2.67921647040956e-06
7.17456008173004e-05
0.000135952732379792
5.04906626784325e-05
1.16265101114313e-06
4.5074532660306e-06
0.000106947101344386
0.000254191784689285
0.000224099563369694
7.19292864656177e-05
1.84574267070452e-06
6.84316580174704e-06
0.000140786092985898
0.000358393594627491
0.000434216500132055
0.00029676475481169
9.25570750574958e-05
2.69457225708589e-06
9.74601616091517e-06
0.000173916689971672
0.000450428714766291
0.000628579062532938
0.000584567222685881
0.000360028397934278
0.000112642397816473
3.70208844154459e-06
1.3133435620887e-05
0.000206813059254208
0.000534306349918907
0.000798768143073184
0.000867728016604771
0.00071084292772218
0.000417035186897927
0.00013213990826541
4.83825821889803e-06
1.6558271880399e-05
0.000239248093065138
0.000613211607394773
0.000949307563460475
0.00112248036586253
0.00107100139222033
0.000819831068057805
0.000469129897718919
0.00015079039762322
6.06465201890075e-06
1.82559024346853e-05
0.000269375151617065
0.000689080247157671
0.00108659174533185
0.00134784414509777
0.00140489626570496
0.0012444456364816
0.00091576092568756
0.000516791371257486
0.000168344188900809
7.34506235353113e-06
8.64987381900198e-06
0.00018467967899412
0.000560235278616661
0.00100101396048652
0.00139427373962918
0.00164754754286817
0.00170385790102712
0.00155050101339206
0.00121632902542453
0.000763474248995785
0.000293112260480604
1.15375295725587e-05
9.95348233269822e-06
0.000199778411168296
0.000599666240599181
0.00107704666636356
0.00152494373335851
0.00185631191598327
0.00201343992501717
0.00197188181653015
0.00173839044043921
0.0013450603524026
0.000843640175762168
0.000317853801009773
1.5916043291728e-05
1.12320490614557e-05
0.000213637197958934
0.000635307529337518
0.00114487499183746
0.00163953284965362
0.00203673682418544
0.0022805774652737
0.00234213538116329
0.00221658240299909
0.00192014526456477
0.00148557040839946
0.000968004533639028
0.000666742829432544
0.000298217308252932
1.2463160685025e-05
0.000226254671063635
0.000667356648338931
0.0012052645830217
0.00174023232966781