/*--------------------------------*- C++ -*----------------------------------*\
  =========                 |
  \\      /  F ield         | OpenFOAM: The Open Source CFD Toolbox
   \\    /   O peration     | Website:  https://openfoam.org
    \\  /    A nd           | Version:  12
     \\/     M anipulation  |
\*---------------------------------------------------------------------------*/
/*   Windows 32 and 64 bit porting by blueCAPE: http://www.bluecape.com.pt   *\
|  Based on Windows porting (2.0.x v4) by Symscape: http://www.symscape.com   |
\*---------------------------------------------------------------------------*/
FoamFile
{
    format      ascii;
    class       volScalarField;
    location    "300";
    object      omega;
}
// * * * * * * * * * * * * * * * * * * * * * * * * * * * * * * * * * * * * * //

dimensions      [0 0 -1 0 0 0 0];

internalField   nonuniform List<scalar> 
10103
(
3.73734922155493
3.73735139990989
3.98683253486339
3.04791046762875
3.73734077550497
3.98685621615656
3.04790917893939
4.20371297736552
0.903506905534694
3.02834735616194
3.737337763125
3.98680068813873
3.04791210468647
4.20375907813518
0.902705035471715
3.02834794752523
4.33730861222848
0.843926905500404
0.698209048782517
2.99243724289199
3.73732114530662
3.98681679011599
3.04791498764207
4.203664915431
0.901896885092104
3.02835118919333
4.3373393973255
0.843244574276478
0.697920529163699
2.99244006801209
4.40627919263996
0.893295734720707
0.488669061358899
0.703281722860801
2.97494419100702
3.73728427170651
3.9867989189361
3.04790170369421
4.20369924186754
0.901554445624445
3.02835913660116
4.33728647904058
0.84254375464075
0.697568757665977
2.99244799032097
4.40629050079893
0.893043676174908
0.488378421846303
0.703100259908491
2.97495134666853
4.43507589818257
0.940954167319407
0.471894995324629
0.429970738292394
0.729957543347282
2.97384212483954
3.73722872139226
3.98676421136003
3.04792987876444
4.20369169356904
0.901136494869505
3.02836007758106
4.33729950117782
0.841427634208872
0.697138652729566
2.99246698653983
4.40628175629652
0.89234149743701
0.487757371436715
0.702750305198264
2.97496934782962
4.43508596841634
0.940778044269311
0.471712481048433
0.429736416135361
0.729767894931057
2.97385721902173
4.43971636349095
0.980057321341647
0.484948943575981
0.372978845895527
0.425186171129524
0.759097926986801
2.97198803640423
3.73714643361032
3.98670658375187
3.04794837432847
4.20367229261342
0.9004168196453
3.02840564255434
4.33730123297346
0.839774170062821
0.696225555182865
2.99250586118799
4.40627431959321
0.891051822764158
0.48673991922392
0.702012482534679
2.9750102350848
4.43508636903859
0.940036360849288
0.471080813383677
0.429147950166394
0.729266350730372
2.97389427764657
4.43972528214075
0.979918344637179
0.484800566291533
0.372799597635078
0.424960936266939
0.758874099520873
2.97201657546414
4.43310442460738
1.01166876302821
0.503102328510473
0.362040657112442
0.344463825457782
0.434426441699189
0.785580876438023
2.96211912703611
3.73702866342576
3.9866247707707
3.04797769752047
4.20363732171202
0.899329262986836
3.02845593145822
4.33729825297123
0.837587574929418
0.694844466635871
2.99257645964016
4.40627734069788
0.889154585454632
0.485243174737524
0.700745521918383
2.97509292121143
4.43507521138449
0.938658557262421
0.469988782185855
0.428163094976996
0.728319327425158
2.97397663997968
4.43973336842385
0.979148980254121
0.484166313124963
0.372232839568434
0.424359570787017
0.75826441148815
2.97208661131671
4.43310833819501
1.01155365176744
0.502970192959475
0.361889995030168
0.344282408961235
0.434197717423894
0.785332043877113
2.96216578014264
4.42456998660237
1.03785248837902
0.521012075525206
0.364789369801996
0.317815390600989
0.338363569951314
0.447090824123185
0.807895717134866
2.95324750513219
3.73686764118494
3.98651152396347
3.04801915079783
4.20358842097583
0.897875215951177
3.0285325872903
4.33728088860487
0.834872120149201
0.692970224844937
2.99269304030253
4.40628011236471
0.886662738632843
0.483248685907022
0.698964866343127
2.97524339474053
4.43507851029866
0.936642653667486
0.468416350812058
0.426727460781506
0.726824311228351
2.97414178543704
4.43971614115761
0.9777082964021
0.483044662951166
0.371267292430027
0.423355006910194
0.757169555131984
2.97224123066895
4.43311275021557
1.01076586614077
0.50233304089429
0.361344766283972
0.343737475860926
0.433573618513561
0.784639807884007
2.96228657760098
4.42456977819959
1.03775809934532
0.520892433688662
0.364654294235418
0.317660485067439
0.338176875635506
0.446853460627305
0.807627632610024
2.95331968323941
4.41827024575506
1.06048456760489
0.537587873190582
0.372078192241832
0.309886554658564
0.301017579291198
0.340339945842181
0.459631231195012
0.827539798941683
2.98372909100893
3.73665261468742
3.04807018476487
3.98635918382598
4.20352274260704
0.896074170994823
3.0286380357441
4.33726201484686
0.831626773492898
0.690591560835
2.99286812541596
4.40627353604342
0.883577299913468
0.480742518087003
0.69665897454343
2.9754914056977
4.43507944353046
0.933990967762646
0.466350458282186
0.42482334506124
0.724780481447455
2.97444144727839
4.43972260943726
0.975593793661566
0.481428393661936
0.369884244443025
0.421906233729062
0.755510459663892
2.97254967116919
4.43310458148978
1.00927843718129
0.501188384318885
0.360397625362553
0.342817429979302
0.432532740831159
0.783445427705655
2.96255378015007
4.42457057845584
1.03695850317648
0.520252409005276
0.36412038284154
0.317155388741567
0.337633522154579
0.446204908017088
0.806866258477047
2.95350873117985
4.41827379458625
1.06040727959943
0.537479643957641
0.37195438119504
0.30974757657144
0.300857799333277
0.340145772354175
0.459382906065665
0.827255287228923
2.98382676028519
4.41468847815087
1.08071687113919
0.552793619380269
0.380845415174661
0.309609899954499
0.285494019316151
0.295390294740879
0.345000177333663
0.470922924629999
0.849817407942806
3.2103467051583
3.73636100712315
3.04812856616502
3.986177159555
3.02876727472946
0.893935169020177
4.20343550655953
4.33723769441154
0.827852297259567
0.687697103572433
2.99310457387179
4.4062689143869
0.879893320541066
0.477711928265557
0.69381314875361
2.97586066853844
4.43508062320651
0.930696307672274
0.463779000484698
0.422437543807694
0.722184667042136
2.97493357574233
4.43972415789802
0.972809135724691
0.479309614236129
0.368070089667905
0.419995483689831
0.753287424136306
2.97310666001544
4.43310349426461
1.00709188987156
0.499531384752876
0.359040693869368
0.341506561487412
0.431046070806518
0.781673452587408
2.96308620753859
4.42456961313311
1.03543633757993
0.519089355324122
0.363180372513391
0.316290545303181
0.33672262899492
0.445127482816129
0.805589020571532
2.95392509349629
4.4182697262471
1.0596012965168
0.536838018236991
0.371426885032348
0.309265678550659
0.300368368706431
0.339596102605119
0.458710440253108
0.826435394446821
2.98408378225068
4.41469615940661
1.08065538183495
0.55269624285698
0.380731300070749
0.309482362622505
0.285351516224057
0.295225006621416
0.344797681631631
0.47066319019735
0.849516071110725
3.21045868736685
4.41297865150931
1.09908169368618
0.566771146297045
0.389955036905681
0.312765688589935
0.279678834233496
0.274333048238986
0.294448249088181
0.349887607648885
0.480457004503283
0.885944680605909
4.87759952916195
3.73597001609313
3.04819214804633
3.98586592895936
3.02891045680058
0.891465572946565
4.2033414642153
2.99338842102497
0.684267755288607
0.823546547896518
4.33720574194912
4.40626270054063
0.875600940035882
0.474142932357695
0.690407055916577
2.97635217452197
4.43508457337518
0.926752299951607
0.460689305654508
0.419556688503746
0.719027603585088
2.97566089829504
4.43972696868825
0.969351753374304
0.476678405245507
0.365813262671011
0.417611160229426
0.750503877243324
2.97401593288769
4.43310881036563
1.00420555390023
0.497356682752014
0.357265335064142
0.339792193504537
0.42909710593851
0.779337745083888
2.96404445955458
4.42456137573636
1.03319413493506
0.517399304836852
0.361829030549603
0.315058157828258
0.335432085587528
0.443600226495993
0.80373767468036
2.95476459648408
4.41826801530798
1.0580591502967
0.535660538330584
0.370488516156707
0.308431949273837
0.299540295931223
0.338680846962658
0.457600831031569
0.825097530687429
2.98467273924207
4.41468665981303
1.07984753499657
0.552054482384242
0.380208283162666
0.309014931279076
0.284895226331386
0.294740600649619
0.344239530309666
0.469969242753439
0.848645607021131
3.21076452338719
4.41298208579994
1.09903643085581
0.566684384728297
0.389850014399746
0.312647607928396
0.279548872700463
0.274187154096822
0.294277535896503
0.349677603598566
0.480187976155518
0.885620313627834
4.87775595528554
4.41227332312209
1.11579934964169
0.579633838383375
0.3989360162338
0.317524977657095
0.278670698682818
0.264396843050473
0.269304484975792
0.295103251972111
0.353232699768474
0.48529832432584
0.930400836402012
3.73542850845234
3.04826009650922
3.98554453769171
3.0290614195225
0.888671109643692
4.20314921555509
2.99369149855641
0.680285634906261
0.818708592128728
4.33716393661953
2.9769277438473
0.686415189704475
0.470018612232767
0.870689117861651
4.40625490917017
4.43507805427943
0.922145176982982
0.457066698173009
0.4161650292819
0.715288783849552
2.97661598811017
4.439735406989
0.965205386505358
0.473522061520767
0.363101883565088
0.414740859856971
0.747154233656536
2.9753486863003
4.43311223617488
1.00061345140522
0.494657510492621
0.355062360170271
0.337663861881158
0.426675675343511
0.776448825997687
2.9656010962143
4.42457074454339
1.03022984094219
0.515176817039638
0.360060323388086
0.313450068083479
0.333750655281484
0.441610568042893
0.801328499454165
2.95628368553332
4.41825931584835
1.05578882487065
0.533943500397639
0.369134649239182
0.307240875052692
0.298366672818031
0.337390625118116
0.456038661371527
0.823193966678408
2.98588096766863
4.41468373781182
1.07832169574922
0.550866869507259
0.379269305334222
0.308199132691111
0.284117143689143
0.293929097812266
0.343316689362643
0.46883440212101
0.847257482383328
3.2115270184991
4.41297538578652
1.09822890247216
0.566043952954285
0.389330783493367
0.312190155500693
0.279114161080293
0.273744248191527
0.293794335808657
0.349112222909513
0.479477182314338
0.884712312385514
4.87817068871056
4.41226776602996
1.11576960485073
0.579557921444333
0.398839859591715
0.317415383281793
0.278550791305491
0.264265109974347
0.269155647433628
0.294928435424347
0.353018731870336
0.48502872979505
0.930106484967172
3.18378836646791
4.41201757233935
1.13098927675608
0.591455041902275
0.407569211342608
0.323004403984845
0.280201279731964
0.260247586210109
0.256301895889977
0.267008035276634
0.295429874415204
0.352344253455388
0.46967485638879
3.73469763655541
3.04834526558004
3.98511409370256
3.02922984717811
0.885589381017561
4.20299215625941
2.99398959432219
0.675736925812049
0.813333203642671
4.33710942990764
2.97751119685036
0.681805544197143
0.465320087282572
0.865144770374522
4.40624563905747
2.97770537882039
0.710934317325908
0.412243804702015
0.452894506174762
0.916859210589594
4.43507133324402
4.43972516836721
0.960352904829874
0.46982552976785
0.359922489411658
0.411368664528649
0.743216820388012
2.97707661850531
4.43312040385567
0.996304150837203
0.491421177571492
0.352421085026125
0.335110812009674
0.423769995704317
0.772987234230289
2.96786816926001
4.42457469765671
1.02653601860749
0.512414453348772
0.357867045800611
0.31145801895581
0.331668856757418
0.439150105472393
0.798377590816745
2.95875325819566
4.41826963566356
1.05274873870246
0.531681143664081
0.36736013609009
0.305686724317213
0.296840511661853
0.335717000609248
0.45401705994868
0.820757109874904
2.98812129146836
4.41467459517049
1.0760415155378
0.549129121002113
0.377909805050758
0.307030252258737
0.283012295370504
0.292784916950273
0.342022400503137
0.467248207863242
0.845319386345188
3.21320532689983
4.41297161728593
1.09671831162503
0.564851864815256
0.388390538483692
0.311385154881435
0.278367377033979
0.272997658377187
0.292991739031851
0.348184093443518
0.478325030888672
0.883291790396745
4.87934849469073
4.41226402572497
1.11496473239737
0.578919663230183
0.398324283256949
0.31696547245438
0.278131113532236
0.263849919700676
0.26872101723916
0.294446511869037
0.352450380528682
0.484312121610108
0.929188070759565
3.18392126296775
4.41200703796252
1.13097441433096
0.591389978695016
0.407481857294371
0.322902775539566
0.280089985142719
0.260126929778023
0.256169000661284
0.266857601721418
0.295254459498116
0.352135842345587
0.46945230147374
0.5466072423565
0.789116791886462
4.41193220525402
1.14475543917599
0.602291013814106
0.415744249018247
0.32873802104552
0.283105318292865
0.259327522159809
0.249792285718175
0.251814379145678
0.265522242587702
0.293740740573181
0.34253990741583
3.73376668954166
3.048482783321
3.98461401927223
3.02945354012724
0.882273020593396
4.20280529136216
2.9942910102377
0.670628562090615
0.807427350434349
4.33706569708152
2.97802345510432
0.676546431713211
0.460026772200934
0.858954943387319
4.40623384469903
2.97874411127788
0.705916790789265
0.407771262574511
0.448153648940098
0.910875355386965
4.43507478299561
2.97899934388573
0.738647156951716
0.407474019480567
0.356259528953089
0.465571697786853
0.954775543085928
4.43971475459327
4.43311048421536
0.991257581377405
0.487632927598997
0.349329221191979
0.332120524336397
0.420363264149848
0.768926046492611
2.9707810159132
4.42458348821906
1.02209760997707
0.509101849650031
0.355239708909866
0.309072965117609
0.329176759407495
0.436206409026001
0.794883829397971
2.96235524925807
4.41827419319998
1.0489688274393
0.528865918059526
0.365158436896285
0.303763032302597
0.294954541633978
0.333651723290871
0.451530510936149
0.817818306646872
2.9917960980358
4.4146859961745
1.07297028901875
0.546832075372315
0.376124842859214
0.305503594192227
0.281575786772446
0.291302738997201
0.34035153504805
0.465211286174451
0.842883309580496
3.21627900450719
4.41296243576115
1.09442806909686
0.56309900125267
0.387024529359097
0.310228219475605
0.277304462040256
0.271943534238545
0.291865933452366
0.346889709219594
0.476728200646738
0.881332715315617
4.88259044344408
4.41225584405502
1.11346766343447
0.577724852298764
0.397382999494018
0.316167272545533
0.277404775510768
0.263145481157584
0.267995205378691
0.293651896102826
0.351523206791996
0.483158746524212
0.927835832388207
3.18443161688371
4.41200226911478
1.1301734853106
0.590754808021952
0.406970001993699
0.322459040555318
0.279681420354756
0.259731216924107
0.255767241102829
0.266430091909151
0.294776679309182
0.351572458358589
0.468748824699788
0.545712873960604
0.788022867167406
4.4119211858135
1.14475510972211
0.602236773611085
0.415665637083949
0.328644069042796
0.283001749223151
0.259215984617894
0.249671594495796
0.251681560028314
0.265373317848935
0.293572885484049
0.342372547206583
0.395240679357333
0.427508810916458
0.55594315380581
4.4118995275966
1.15720601250764
0.612195862566604
0.423405966192031
0.334463720646149
0.286735103234372
0.260276921670113
0.247013222513323
0.243601918384298
0.248999012946066
0.263585995005707
0.288520816966327
3.73273214225141
3.04875147233586
3.98413707827085
3.02981072677852
0.878766252654668
4.20266882073121
2.9946608096763
0.664959427075406
0.800991613864624
4.33705768860459
2.97844811532053
0.6706256429487
0.45411975135728
0.852108226235473
4.40624125098417
2.97952090987583
0.700183541178669
0.40272400483778
0.44282291118694
0.904172148365785
4.43507790662619
2.98071858754717
0.733376378684744
0.403031752181205
0.352095275591327
0.460740802965521
0.948451174026223
4.43972288954153
2.97396486408835
0.764202377371122
0.416431420985757
0.328678107960775
0.345772687476684
0.483274884972907
0.985450129426011
4.43310355791921
4.4245732802205
1.01689326426363
0.505224271354844
0.352166991016797
0.306284548620662
0.326262237682277
0.432760708293935
0.790813950281045
2.96698405533615
4.418283770928
1.0444268147992
0.52548665711342
0.362521295139336
0.301462176389081
0.292700993154005
0.331185845353011
0.44856981522781
0.814382419804944
2.9972445107505
4.41469518915327
1.06912294825405
0.543971180186931
0.373908253207347
0.303613724919186
0.279802254170528
0.289476887150819
0.338298502887695
0.462724486556244
0.840006273064616
3.2219366922213
4.41297483687434
1.09133195912854
0.560775479393756
0.385227427469771
0.308715090267454
0.275921556848208
0.270578295887166
0.29041382862832
0.345228193831547
0.47469570695059
0.878915823348288
4.88752227851304
4.41225570098546
1.11116954769898
0.575959447495073
0.396010612310188
0.315016517515172
0.276368207111389
0.262148898307404
0.266975952014256
0.292543312049145
0.350238504306304
0.481573675465881
0.925994967954548
3.1861432496099
4.41199000804579
1.12868762010727
0.589558558013933
0.406027913988792
0.321665373063941
0.278968941730723
0.259055189703668
0.255092224053299
0.265721484188609
0.293993287990029
0.350657371869158
0.467632089282202
0.54435659719081
0.786379476989104
4.41191577026331
1.14395853485649
0.601605409675524
0.415157733204978
0.328205756822916
0.282601868781606
0.258834570770516
0.249293022764807
0.251291018004024
0.264954268433088
0.293103992402045
0.341819755242165
0.394545403473361
0.426704665656236
0.554924109083878
4.41188856594604
1.15721872821248
0.612152178646518
0.423335984694169
0.334377277962179
0.286638705711455
0.260173219283481
0.246902256328182
0.243482315139103
0.248868986910324
0.263445626527094
0.288390225840707
0.320215712196845
0.350402624263567
0.39196677963728
0.514101796222131
4.41190497621237
1.16844572091982
0.621225398071451
0.430531270976455
0.340028230110636
0.290709405636042
0.262316688884019
0.246468792450956
0.239457695686871
0.239705305362622
0.246721819554373
0.260444958908405
3.73151955475405
3.04933261594638
3.98391687682987
3.03044320290094
0.875149954864651
4.20274494385181
2.99522890948021
0.658745094724575
0.794032886269653
4.33716974658718
2.97889182525409
0.664045910431705
0.44757877930322
0.844590890752804
4.40630343576115
2.97994622591734
0.693708288582352
0.397080266731118
0.436879420623991
0.896728975196584
4.43509295505786
2.98174569539078
0.727316813020652
0.398014684785458
0.347410269889432
0.455310716259313
0.941352245075412
4.43972784740026
2.97665176294687
0.758708463798342
0.411942982319617
0.324766349156117
0.341735504161179
0.478326405506971
0.978857091193847
4.43310362571774
2.97203803679816
0.786069929692199
0.428782781619289
0.322910058576338
0.303080817620957
0.34863560447156
0.500763785356271
1.01090221720474
4.42456921235463
4.41827315177398
1.03909714969053
0.521528645074297
0.359438119775542
0.29877532078095
0.290070884414228
0.328307512416192
0.445114456481259
0.810408461678009
3.00434827639555
4.41469688854442
1.06448595490309
0.540534641355755
0.371252047491556
0.301354174359464
0.277685661376282
0.287301098408564
0.335856645699916
0.459782927899406
0.836701227104179
3.22967143266788
4.41298840925913
1.08744610740696
0.557875560381026
0.382993561799258
0.306840922308552
0.274214485860749
0.268898239954086
0.28863239141374
0.343198691287101
0.472239647863214
0.87617669528
4.90074117467561
4.41226470640602
1.10805232890055
0.573613731659411
0.394201513908457
0.313509100640489
0.275018115117231
0.260857610368114
0.265661631120434
0.291120934091377
0.348601262185004
0.479576685390011
0.923745051823843
3.18875765259067
4.41199921231785
1.12638370530044
0.587783095847655
0.404649500694773
0.3205174947884
0.277949240588942
0.258096501267135
0.254142607056948
0.26473179597872
0.29290698390631
0.34939915816508
0.466114091269029
0.542531122244925
0.784181851022732
4.41190367474504
1.14247941350757
0.600408733103729
0.414215281203691
0.327415351874106
0.281899143620782
0.258178303185074
0.248652747948837
0.250639730484542
0.264263246591352
0.292337614429723
0.340931200731491
0.393492913235584
0.425478604426544
0.553383807557862
4.41188297337482
1.15642667795242
0.611525014540178
0.422832318174959
0.333944031066918
0.286245999256109
0.259802755509919
0.246540629433108
0.243117829554599
0.248489740939285
0.263037519904415
0.287929995837066
0.319650648047851
0.349750023877042
0.391200516807839
0.51311755801454
4.41189465792056
1.16846939233792
0.621191397573337
0.430469746407322
0.339949207082712
0.290619857317596
0.262219988522534
0.246365878731981
0.239348336530935
0.239589203340593
0.246600880215643
0.260339889863639
0.279685035467257
0.301744033509693
0.328794189331545
0.380731675625052
0.506141662644142
4.41190842946719
1.1785658731048
0.629434062477542
0.437116711261681
0.345340947521575
0.294794719461245
0.264975899651355
0.247287500080822
0.237795429295035
0.234644958750009
0.236981812317263
0.244368551566897
3.73119428472262
3.05053386832833
3.98428819725289
3.03160179573688
0.871546728535188
4.20336756119692
2.99619148125814
0.652057983870437
0.786576612954872
4.33759606027879
2.9795889926814
0.656832372676775
0.440382050058555
0.836394833313924
4.40650204661802
2.98021101692259
0.686492815781959
0.39081996904452
0.430298103178557
0.888523300812187
4.43516288998876
2.98180967585644
0.720402127568914
0.392399764208932
0.342184126003281
0.449257097767651
0.933450218725756
4.43974510435196
2.97777386801731
0.752305278217106
0.406862768834562
0.320366748684874
0.337200028978149
0.472764191381878
0.971446366856328
4.43311186194363
2.97617231439773
0.780475606013214
0.424229628540478
0.319102018076682
0.299448301293219
0.344630385142807
0.495698981754374
1.00409451145029
4.42456125810728
3.01230598021972
0.8057441711435
0.44112398740817
0.325000388183242
0.287053641130022
0.295692311356672
0.355896395308908
0.516975057718106
1.0329553991955
4.41826854400994
4.41468992709466
1.0590472440824
0.536507240601547
0.368146202383027
0.298717234526416
0.275219148586485
0.284767906814045
0.333015247002142
0.456365590875752
0.832935900666358
3.24161347205935
4.412981495787
1.08275376132632
0.554388191381216
0.380315078254976
0.304599915713868
0.272178517904328
0.266899180965915
0.286517844601953
0.34079889814043
0.469362071437946
0.873088039323198
4.91328183671417
4.41227823508888
1.10412554339903
0.570681760177894
0.391949969217072
0.311640506923441
0.273351005820459
0.259269064277058
0.264050891461456
0.289385682336699
0.346617985374034
0.477200039270592
0.921461063106488
3.19693607991513
4.41200460182899
1.12324315533638
0.585418361845014
0.402828946052864
0.319011331847692
0.276619337652297
0.256853189055593
0.252917669685027
0.263462252094959
0.291522702259684
0.347810694782708
0.464222694361577
0.54027224873271
0.781448452763548
4.41191349574454
1.14017113132148
0.598625584245183
0.412831537360834
0.326268494490882
0.280890392714735
0.257245134523278
0.247749941096083
0.249728469315563
0.263303812521376
0.291282928381545
0.339723705129044
0.392084401640417
0.423832685833209
0.551294756024415
4.41187097527514
1.15495232795349
0.61032864759212
0.421890072719715
0.333156284679795
0.285550473642235
0.259160666078457
0.245924790989068
0.242505958970922
0.247860278412845
0.262366073063456
0.287185254439706
0.318796557737188
0.348764606113337
0.390038008874216
0.51164425563565
4.4118896373895
1.16768145447804
0.620568487683081
0.429970594584538
0.339520939575236
0.290233438286913
0.261858308040017
0.2460170756846
0.239002791938039
0.239237914877541
0.246233887558031
0.259939881818081
0.279206615643565
0.301201310189829
0.328168573327879
0.379976056959214
0.505161831770678
4.411898946231
1.17859995209455
0.629408468071527
0.437063416398803
0.3452693253355
0.294711884680985
0.264885708032224
0.247191539699714
0.237694290354052
0.234539394829739
0.236874990294383
0.2442817268798
0.256154112348238
0.271302110628428
0.290154570836109
0.319517726793622
0.378047120611314
0.507157965406937
4.41191565696349
1.18763440212367
0.636870175894579
0.443170153099754
0.350349316560601
0.298844501857409
0.267958777135763
0.248934432500503
0.237685234757203
0.232195004082763
0.231430906127483
0.234806754135863
3.72980706632655
3.05303312703156
3.9858017671708
3.03371779020565
0.868150203525916
4.20505698251919
2.99783450459337
0.64501184973746
0.778683338680689
4.33872403581603
2.98084623152946
0.649028522703021
0.43251273071996
0.827524732584421
4.40704449504757
2.98079964889272
0.678573368429034
0.383925095225773
0.423052512201542
0.879535584374944
4.4353653944105
2.98127239084857
0.712628578944564
0.386170785057427
0.336395905418032
0.442552940364289
0.924715375966605
4.4398049416014
2.97658412991545
0.744864184790186
0.401162743316262
0.315461451170173
0.332147273378159
0.466562340141739
0.963183763724817
4.4331268676292
2.97712680683831
0.773769510616996
0.419051946357355
0.314818806004215
0.29537251278194
0.340134578991518
0.490005473708789
0.996435301134223
4.42457271021127
3.01909300005156
0.800116117690446
0.436535981401175
0.321243692552343
0.283637238492666
0.292201781024176
0.35188151934935
0.511803844779143
1.02596961637451
4.41825941046303
3.2535983286712
0.828491200636587
0.45241741558571
0.329756700731236
0.281868003676866
0.27239488814944
0.295694039884265
0.364578943245503
0.531871119075984
1.05278275496525
4.41468508493501
4.41297828644528
1.07724091855985
0.550299376541159
0.377182182270556
0.301985197043041
0.269808276851603
0.264576379188119
0.284065269525435
0.338021743353405
0.466050017816451
0.869790851100221
4.94475963855479
4.4122706148914
1.09938375114651
0.567152253070483
0.389248298024232
0.30940539930967
0.271363021816758
0.257380559928628
0.262142305025672
0.287338269190233
0.344294609520975
0.474456477501429
0.918850673477868
3.20514503594969
4.41201799720138
1.1192808010471
0.582458184563905
0.400560372281862
0.317142519555137
0.274976154072047
0.255323391691925
0.25141705864056
0.261914947759274
0.289847335050334
0.345909601700232
0.462019963592087
0.537670918321641
0.778415873409398
4.41191902232994
1.13701180404485
0.596246114009062
0.411000359437225
0.324761093165859
0.279572804605051
0.256033452447226
0.246584387377765
0.248559074668096
0.26208128154985
0.289951384383765
0.338218105376558
0.390347097021028
0.421788202728179
0.548647904310425
4.41188085684322
1.15264121252346
0.608541179454267
0.420501934812527
0.332009552506131
0.284548984372518
0.258245052881146
0.245054164931239
0.241647830456061
0.246984565375603
0.261440663778925
0.286172858531375
0.317657667467586
0.347456518599586
0.388488034596042
0.509659696491269
4.41187795539698
1.1662112433684
0.619372967190147
0.429029204001375
0.338735712484791
0.289543595243158
0.261226786897517
0.245418913113478
0.238418753635319
0.238650794897403
0.245625648588024
0.259288008039168
0.278483033080566
0.300387115386939
0.327229067801963
0.378840994047766
0.503708810113914
4.4118952858957
1.17781627743417
0.628789797386512
0.436569058757662
0.344846170915655
0.294331327129278
0.264531469194445
0.246852849507473
0.237362950469598
0.234208306949914
0.236536789755795
0.24392275180948
0.2557346517468
0.270837697199658
0.289629799710871
0.318902356458174
0.377284840618706
0.506164400671294
4.41191028755742
1.18767847410146
0.636852284498392
0.44312500112479
0.350285211873642
0.298768436508646
0.267874888132096
0.248844771497012
0.237590985041376
0.232097670563304
0.231334560266511
0.234733163446523
0.241825687197087
0.251954679357238
0.265149475491996
0.283961557378919
0.316104706952723
0.378539831215934
0.510944542055628
1.19569445239636
0.643570796721628
0.448704734413582
0.355024450754221
0.302765849265561
0.271074560653166
0.251068531521635
0.238552089882516
0.231404422870185
0.228491408703351
0.229151189019439
3.73222390316149
3.05702376403129
3.98802086140757
3.03739650218479
0.86519954699165
4.20832058114266
3.00059479822098
0.637710905491365
0.770460746440698
4.34115802681052
2.9830000182944
0.640671405249163
0.423958403026942
0.818012915350755
4.40834345907444
2.98228923855998
0.670000127495
0.376377774226846
0.415115273644795
0.869758644819939
4.43591004973567
2.9812211633034
0.704090412712548
0.379318519379353
0.330024100410999
0.435169296194681
0.915118706442984
4.43999119860972
2.97371997420901
0.736384941126385
0.394832774713533
0.310034673468181
0.326557162685518
0.459692193715496
0.954033656598254
4.43317923465626
2.97269085907046
0.765669350696556
0.413211073149751
0.310043868035955
0.290838839909993
0.335130069508792
0.483656098791781
0.987884629872091
4.42458602420099
3.02013570071261
0.793050720097506
0.43127170123971
0.317015287505832
0.279809101437215
0.288291557608419
0.347377334527018
0.505990131200776
1.01810507095614
4.41827085300465
3.26799751162666
0.822987733723675
0.447850143403032
0.326056420919228
0.278590361300738
0.26920421804728
0.292274679345122
0.360536225260374
0.526604548076942
1.04565868812856
4.41467513577452
4.96589621338643
0.865779700894664
0.462238956545602
0.334850407099751
0.281267505245762
0.261924301615358
0.267097746583596
0.298988938670423
0.373583334401878
0.545591161695929
1.0708838904325
4.41297355357068
4.41226721043568
1.09380385306774
0.563010962550153
0.386087071527068
0.306797472679125
0.269049853498579
0.255189089737928
0.259934078292923
0.284978737432121
0.341634341571709
0.471370814819207
0.91677963465065
3.22819544540167
4.41201010782603
1.11449078401832
0.578892188595968
0.397836240915935
0.314906036393115
0.273016406239803
0.253505306757191
0.249640698246919
0.260092657420664
0.287889251097049
0.343716419450643
0.459532512116779
0.534770781952172
0.774911397230875
4.41193244564022
1.13302357205455
0.593261744479885
0.408715715552095
0.322888850219279
0.277943555762534
0.254541818012949
0.245156284384706
0.247134224805003
0.260602737301957
0.288358477803943
0.336446836001549
0.388337926413316
0.419396311430427
0.545455810250144
4.41188593691433
1.14946832709181
0.606147616566375
0.418661409177806
0.33049964858197
0.283238801421205
0.257054485736225
0.243928790075554
0.240545532241509
0.245867969384377
0.260272091181058
0.284911128483795
0.31625899298185
0.345857420151788
0.386574100799279
0.507156407020306
4.41188734811947
1.16390270290736
0.617582092109609
0.427637855880807
0.337588868337258
0.28854715597558
0.260323574143564
0.244570906885153
0.237597451349835
0.237831850064727
0.244785354603715
0.258400578088146
0.277519747512385