/*--------------------------------*- C++ -*----------------------------------*\
  =========                 |
  \\      /  F ield         | OpenFOAM: The Open Source CFD Toolbox
   \\    /   O peration     | Website:  https://openfoam.org
    \\  /    A nd           | Version:  12
     \\/     M anipulation  |
\*---------------------------------------------------------------------------*/
/*   Windows 32 and 64 bit porting by blueCAPE: http://www.bluecape.com.pt   *\
|  Based on Windows porting (2.0.x v4) by Symscape: http://www.symscape.com   |
\*---------------------------------------------------------------------------*/
FoamFile
{
    format      ascii;
    class       surfaceScalarField;
    location    "300";
    object      phi;
}
// * * * * * * * * * * * * * * * * * * * * * * * * * * * * * * * * * * * * * //

dimensions      [0 3 -1 0 0 0 0];

internalField   nonuniform List<scalar> 
28828
(
1.73464086907403e-06
-1.11548888298203e-08
6.654455723069e-09
1.7361862252679e-06
-5.89938211743475e-09
4.36424791296261e-09
1.54375761665072e-06
-1.86716055191097e-08
6.50861239087871e-09
1.52599558826231e-06
-6.28442285683179e-09
1.64292239399133e-08
1.73613226890138e-06
-1.19516760979279e-09
1.26017475669749e-09
1.54696253813041e-06
-1.14702165818996e-08
2.4003461513332e-09
1.52886670422642e-06
-4.26371706600889e-09
5.76898376573371e-09
1.59813343861829e-06
-2.86413028740983e-08
3.15027195874532e-09
1.11096186698157e-06
-7.37535438642386e-09
1.06182176296807e-08
1.64013015056062e-06
-3.10956547925649e-09
2.15634855460839e-08
1.73523402818224e-06
5.05923528992951e-09
-4.16153820472131e-09
1.5496952002784e-06
-2.63483647186417e-09
-1.31454417716485e-09
1.53490450614149e-06
-1.4729887318065e-09
-3.29723942992413e-09
1.60135800208881e-06
-1.47407172634396e-08
5.41757585989993e-11
1.11366807623908e-06
-5.22436922628747e-09
6.79069324640708e-10
1.64234135530558e-06
-2.00513258049269e-09
5.5728868586978e-09
1.67708906129067e-06
-3.79545819327708e-08
-8.06905510618836e-10
6.49646503435423e-07
-6.67872507469951e-09
4.31156486588939e-09
5.46171676223476e-07
7.13878904927702e-10
1.09166781174882e-08
1.77802903646313e-06
-9.64519051864406e-10
2.10368486331124e-08
1.73245815607846e-06
1.21619192822508e-08
-9.39519718846637e-09
1.55000872725278e-06
1.04711475672786e-08
-5.72592654976327e-09
1.53968683902546e-06
3.99108140708587e-09
-1.29469333687448e-08
1.59900271516929e-06
9.0246042754678e-10
-1.18644356047218e-09
1.11711091287247e-06
-2.09529860228128e-10
-6.03776315158333e-09
1.64436951096511e-06
2.46355475217451e-09
-7.80466627292644e-09
1.68024947312281e-06
-1.58191847885474e-08
-2.0793235800711e-09
6.50378767314086e-07
-3.09521568641855e-09
-2.80052600811615e-09
5.45254285630543e-07
-3.20937175148779e-10
-6.62520230554197e-11
1.77876459417471e-06
8.780855843981e-10
3.96621569004851e-09
1.72343982127336e-06
-4.56270358985164e-08
-2.7148182649349e-09
4.90206221237386e-07
-6.67451639700968e-09
3.53460413819704e-10
7.23485968799774e-08
3.47322258390872e-09
3.98316018042988e-09
3.4644347018393e-07
3.32652895941208e-09
8.32416002541605e-09
1.82742222728623e-06
8.9484073778586e-10
1.77399425825434e-08
1.72714214587337e-06
1.97143615823376e-08
-1.44035685462967e-08
1.54799014115873e-06
2.46452868976919e-08
-1.04592479474805e-08
1.54205159889952e-06
1.05166727400082e-08
-2.22860331767163e-08
1.5938630314046e-06
2.02140185879052e-08
-4.58964352733483e-09
1.11888481555644e-06
8.74951753797245e-09
-1.22951449139767e-08
1.64289296758771e-06
8.4346748997103e-09
-1.99137876958358e-08
1.67580528638317e-06
6.86440888276708e-09
-1.53130097851262e-09
6.5221232970095e-07
3.10724737502582e-09
-6.3454213497329e-09
5.46149032548654e-07
2.85140588347712e-09
-7.3189055121829e-09
1.77646158872215e-06
5.22152682428062e-09
-1.07330494903964e-08
1.72737939091484e-06
-1.60920018043168e-08
-3.65939522555241e-09
4.8999168017002e-07
-2.72335321629597e-10
-4.68750328150572e-09
6.90423286877395e-08
3.08928500925775e-09
-2.89266431418952e-09
3.4462189825944e-07
2.70803106333829e-09
-7.01588825379543e-11
1.82736002656407e-06
2.1393824198729e-09
1.89442235703569e-09
1.73176974280963e-06
-5.16322161725663e-08
-3.82812024430412e-09
4.17972943461064e-07
-6.02908801608162e-09
-1.7805509138092e-09
1.07204216087647e-08
4.92279062180986e-09
5.12710220792238e-10
-2.75828694753309e-08
6.15497432789397e-09
2.59153290528758e-09
2.61582793824054e-07
4.70915687390499e-09
6.03514027436235e-09
1.77711433109527e-06
1.58301403226718e-09
1.42768318827316e-08
1.71920274382242e-06
2.74474339352001e-08
-1.95170909572048e-08
1.54360291619216e-06
3.9191403348089e-08
-1.51019649902344e-08
1.54182240421273e-06
1.75629203905445e-08
-3.17571229081722e-08
1.58645182359994e-06
4.07635268573171e-08
-8.7110827824181e-09
1.11924543536065e-06
1.85446944493396e-08
-1.88424196086537e-08
1.63838337842625e-06
1.40184354584679e-08
-3.17987793053365e-08
1.66787724238798e-06
3.18005520057135e-08
-3.66509044590423e-09
6.54297004462408e-07
1.20474095391186e-08
-9.98281475387087e-09
5.47775558806099e-07
7.84454199530663e-09
-1.33287324072427e-08
1.77044048084798e-06
1.01013979156145e-08
-2.40046264782568e-08
1.72337736149524e-06
1.29353117011253e-08
-2.08044927832813e-09
4.90714579878829e-07
7.04021140720466e-09
-6.19887741462864e-09
6.72454737934146e-08
5.03418455684553e-09
-6.74096709270912e-09
3.43496668896292e-07
5.52505332776652e-09
-6.50847572007203e-09
1.82335709717666e-06
5.98537181180159e-09
-1.27154822391008e-08
1.73649728724412e-06
-1.62712416451877e-08
-4.54396913110072e-09
4.17167939190708e-07
2.44452827772777e-09
-5.58575067699119e-09
7.38259734776526e-09
6.08488895488669e-09
-4.34652042427064e-09
-3.14411024269827e-08
6.06290338540324e-09
-2.38714253044052e-09
2.59294995625359e-07
4.47140875514572e-09
-1.12022833358939e-10
1.77661978549774e-06
2.61227369956414e-09
-2.12404118848681e-10
1.71510592641871e-06
-5.68626840389436e-08
-4.21476797932266e-09
3.73335479500844e-07
-4.73672146471671e-09
-2.9553775727119e-09
7.98646031917078e-09
6.41919232437757e-09
-1.4540456012835e-09
-7.06651001254842e-08
8.11141338275585e-09
-1.62375418912699e-10
-4.26728130258888e-08
7.4487793548424e-09
1.534051998669e-09
2.09186714958929e-07
5.27813345916961e-09
4.45504723026382e-09
1.65315365193374e-06
1.71132869903469e-09
1.15094516999555e-08
1.70871250722367e-06
3.52064171271213e-08
-2.4718230804002e-08
1.53700867203862e-06
5.38614342219851e-08
-1.98318069997135e-08
1.53935207425062e-06
2.45531986860769e-08
-4.16321799707534e-08
1.57680999185494e-06
6.17330962451236e-08
-1.29001785650058e-08
1.11874284293768e-06
2.86641415389481e-08
-2.57003714452948e-08
1.63122587253147e-06
1.98131843227411e-08
-4.4407452061425e-08
1.65734336100531e-06
5.81755511775011e-08
-6.88841581207581e-09
6.56560048006912e-07
2.19461827013671e-08
-1.43897176891348e-08
5.49702706608901e-07
1.28126998274138e-08
-1.95835889419238e-08
1.76154664078858e-06
1.46122609945159e-08
-3.75225690781648e-08
1.71483955712075e-06
4.2735849795897e-08
-2.41000778558393e-09
4.91672086939721e-07
1.56716793393789e-08
-8.26301405435098e-09
6.64595930951996e-08
8.52523778071768e-09
-9.88225562037623e-09
3.43103765088889e-07
9.11524646555317e-09
-1.19447164097447e-08
1.81565107938862e-06
1.02684735739838e-08
-2.65715673869713e-08
1.73348131408842e-06
1.81811264566794e-08
-2.24486131486408e-09
4.17431985592015e-07
1.08375808664607e-08
-6.15667782884827e-09
4.84778499964907e-09
8.14142765002139e-09
-6.77203652721794e-09
-3.46340786562853e-08
7.78432125352085e-09
-5.80992034364562e-09
2.57113136844058e-07
7.11992115090244e-09
-5.45032190982628e-09
1.77222208056269e-06
6.17446132148241e-09
-1.44921004299133e-08
1.72056175001269e-06
-1.66396027040194e-08
-5.08951809052832e-09
3.72042052945687e-07
5.10641737350253e-09
-5.92019127577966e-09
4.74281907293095e-09
8.87481075147393e-09
-5.13204153897854e-09
-7.42555579888894e-08
9.01958004077188e-09
-3.70903501207334e-09
-4.65273940417077e-08
7.87248173559226e-09
-1.92905072270039e-09
2.06449024159966e-07
5.37349174267375e-09
-1.37023009518261e-10
1.65225736176248e-06
2.72334184713452e-09
-2.01939524272584e-09
1.69098498905432e-06
-6.15247911959472e-08
-4.71405016008752e-09
3.42895244637073e-07
-3.02997873987318e-09
-3.3336975959891e-09
1.61929060545119e-08
8.2187784396271e-09
-2.53293542653065e-09
-6.36926814560437e-08
9.95769782528785e-09
-1.75222771886065e-09
-7.97376070505533e-08
9.56188594557558e-09
-6.61186313285453e-10
-3.93575212619038e-08
8.04459066771734e-09
9.25061403915757e-10
1.70685005397854e-07
5.34386099392689e-09
3.42623993603758e-09
1.48827257308147e-06
1.57256484218819e-09
9.68788814361739e-09
1.6956765964898e-06
4.29440867464267e-08
-2.99079298462433e-08
1.528480784881e-06
6.85083991986691e-08
-2.47651885767387e-08
1.53509510749251e-06
3.14217009101983e-08
-5.18731431881278e-08
1.56495907000813e-06
8.28548847148585e-08
-1.71469261844132e-08
1.11748784237609e-06
3.88574760360538e-08
-3.28983144324654e-08
1.6218946618684e-06
2.55746228901857e-08
-5.78887297135778e-08
1.64444865098082e-06
8.4912913932407e-08
-1.02815365322297e-08
6.59164166601929e-07
3.22683984821344e-08
-1.91083848427364e-08
5.52149788558672e-07
1.78950427643143e-08
-2.62192070022028e-08
1.75011893555929e-06
1.91999237103776e-08
-5.21907094607855e-08
1.70325414624866e-06
7.38889777862398e-08
-4.14916210748202e-09
4.9270096049417e-07
2.51480360565197e-08
-1.11447375926094e-08
6.59472419593636e-08
1.22732911788575e-08
-1.33344909612097e-08
3.43162297316659e-07
1.23950486527706e-08
-1.74269683049131e-08
1.80507697603235e-06
1.41401703742911e-08
-4.1117012234948e-08
1.72533853490087e-06
5.26408267584878e-08
-1.76353724910927e-09
4.17858889885918e-07
1.98473715014618e-08
-7.02586111675672e-09
2.97155699742064e-09
1.09608894518132e-08
-8.83269655009329e-09
-3.70755678417331e-08
1.02721879046011e-08
-8.5984305161685e-09
2.55374939417899e-07
1.02182220366532e-08
-1.01622125474551e-08
1.7641914696035e-06
9.94706059834878e-09
-2.84851174156676e-08
1.7184016903331e-06
2.26064127623934e-08
-2.28685481601231e-09
3.72075970397766e-07
1.44194171021953e-08
-5.8811846684299e-09
2.04519476538573e-09
1.1419291999724e-08
-6.73937210646643e-09
-7.77332150356305e-08
1.05746629827789e-08
-6.08542890136461e-09
-5.021134426358e-08
9.71576369072274e-09
-4.72465053111835e-09
2.03667668776898e-07
7.93517127250992e-09
-4.43405466728614e-09
1.64798856151345e-06
5.86543179920649e-09
-1.60834845852191e-08
1.69696748126431e-06
-1.71358467830528e-08
-5.47819067884263e-09
3.41141409034989e-07
7.71896804118166e-09
-5.95990261982334e-09
1.29305847139617e-08
1.16193346491377e-08
-5.40281530230262e-09
-6.70292133182555e-08
1.16965709477342e-08
-4.4710236320312e-09
-8.32026475792386e-08
1.07724702528441e-08
-3.14333469882273e-09
-4.32252006250865e-08
8.84953860066496e-09
-1.53653531895317e-09
1.67698216394667e-07
5.73237727977972e-09
-1.4731491872358e-10
1.48695071488667e-06
2.68330534621895e-09
-3.36649832877211e-09
1.67134172675565e-06
-6.59288427617287e-08
-5.00589100636114e-09
3.22908547976384e-07
-1.2068401316196e-09
-3.58720474502121e-09
2.71527593259664e-08
1.03461104849203e-08
-3.03904314042219e-09
-4.69733996573893e-08
1.19486401842263e-08
-2.62689465758369e-09
-7.27872144571832e-08
1.14998168217696e-08
-1.93412146748074e-09
-7.08357107953596e-08
1.02228509055719e-08
-8.5030485543183e-10
-3.19334559644249e-08
8.15747487368084e-09
6.02002547056659e-10
1.40731617831348e-07
5.10338227229168e-09
2.75332737875351e-09
1.3122098068247e-06
1.27599450616378e-09
8.8339458811997e-09
1.67999447115312e-06
-3.49129964957453e-08
5.05866536052448e-08
1.51814066654138e-06
8.30310371845505e-08
-2.97262158936866e-08
1.52931155839415e-06
3.81890924403945e-08
-6.23048877864946e-08
1.55102402303776e-06
1.03931162124172e-07
-2.14837075718233e-08
1.11560002789947e-06
4.90100927059583e-08
-4.04582934312915e-08
1.61092660272526e-06
3.12200015815891e-08
-7.21302188774623e-08
1.62916443236724e-06
1.11700812185325e-07
-1.35677174786356e-08
6.62129724204624e-07
4.27539821148353e-08
-2.40229666231383e-08
5.55179999046779e-07
2.29341238852499e-08
-3.32935532500685e-08
1.73659489676472e-06
2.3748635124965e-08
-6.81192972643588e-08
1.68896592095714e-06
1.05445943406399e-07
-6.2423959382229e-09
4.93950886753195e-07
3.5072376273867e-08
-1.43486808339005e-08
6.56977798525597e-08
1.60688523846176e-08
-1.7038056949559e-08
3.43741520824962e-07
1.56051624843069e-08
-2.32094046217895e-08
1.79207880101526e-06
1.7858849710735e-08
-5.70473196544328e-08
1.71354025797971e-06
8.80515128021128e-08
-2.36837860906872e-09
4.18215935245692e-07
2.93675497120282e-08
-8.73596828113701e-09
1.26402005040113e-09
1.40366633688338e-08
-1.12003669051334e-08
-3.93090427329035e-08
1.27016924503081e-08
-1.14092801093677e-08
2.54010906908228e-07
1.29120084832972e-08
-1.48346371375838e-08
1.75340467602329e-06
1.32334109949444e-08
-4.3572918462973e-08
1.71079321345542e-06
6.15290450816444e-08
-1.30240350099063e-09
3.72195994060083e-07
2.39482037523032e-08
-5.9974669370167e-09
-1.95275990310927e-10
1.41995489238772e-08
-8.02536176413074e-09
-8.07722604132621e-08
1.25125841517996e-08
-8.03339588315469e-09
-5.34781562399877e-08
1.19915374746057e-08
-7.10627538786067e-09
2.01115646872753e-07
1.07899942225533e-08
-8.45987998965777e-09
1.64022160909567e-06
9.54194510702504e-09
-3.02650544593338e-08
1.69552945347458e-06
2.62946530014403e-08
-2.28049063831187e-09
3.40974964679704e-07
1.77816445889632e-08
-5.49726818557868e-09
1.0195071314223e-08
1.47134981600605e-08
-6.44406786306604e-09
-7.0451839143321e-08
1.34857076888664e-08
-6.22974594676873e-09
-8.69175023443907e-08
1.24661219622262e-08
-5.12339789874206e-09
-4.70978792200983e-08
1.08103700053502e-08
-3.72441494187202e-09
1.64498467985988e-07
8.22590732830224e-09
-3.59952429048179e-09
1.48298116021867e-06
5.27335750091375e-09
-1.7379699514842e-08
1.67775850842586e-06
-1.7831678119608e-08
-5.73072565040802e-09
3.20714051026846e-07
1.02606753457369e-08
-5.83606284310692e-09
2.37745670693043e-08
1.43778408941678e-08
-5.34487305524416e-09
-5.02176305187615e-08
1.4310785692744e-08
-4.77508863283657e-09
-7.59490556346058e-08
1.33344238407751e-08
-3.87108509007713e-09
-7.42407776905778e-08
1.17245801417376e-08
-2.61209668007561e-09
-3.57721356178378e-08
9.24141668208902e-09
-1.20740615786464e-09
1.37687132943817e-07
5.75483116656542e-09
-1.69944170492936e-10
1.3105141497736e-06
2.54582707088963e-09
-4.19678948344985e-09
1.66127163752099e-06
-7.02340808472584e-08
-5.19906190480046e-09
3.11717997906068e-07
6.17337819940257e-10
-3.6390672208704e-09
3.92365350884458e-08
1.25302058751939e-08
-3.16393094972856e-09
-2.8995071027565e-08
1.40567798948375e-08
-3.02323500256753e-09
-5.60273570280853e-08
1.34742738652666e-08
-2.63319597579703e-09
-6.4856713958801e-08
1.21590733370845e-08
-1.88505978458108e-09
-5.81623779553751e-08
1.03847519936215e-08
-8.4782964604073e-10
-2.42512524283524e-08
7.9455641391275e-09
4.15205111862469e-10
1.18785964344537e-07
4.68325411672192e-09
2.32467331165435e-09
1.15174237781507e-06
8.13100807552822e-10
8.99257150854373e-09
1.66142075499735e-06
-3.94720400048742e-08
5.80603270188027e-08
1.52213839584487e-06
-7.25095873398804e-08
4.478672555068e-08
1.50602214215157e-06
-3.45908948115097e-08
9.73070309466555e-08
1.53505850027904e-06
1.24758095516421e-07
-2.57649049712014e-08
1.11310911640954e-06
5.9098414069395e-08
-4.81327670352378e-08
1.598801828568e-06
3.66651083444047e-08
-8.68150845100397e-08
1.61152550678191e-06
1.38387889251154e-07
-1.68116939190555e-08
6.65466196868837e-07
5.32897682198658e-08
-2.90773580188086e-08
5.5889901306098e-07
2.78450246642877e-08
-4.07898094283517e-08
1.72153808075299e-06
2.81587512938154e-08
-8.52265947209955e-08
1.67199747995569e-06
1.37000701000122e-07
-8.34393232951187e-09
4.95506381741472e-07
4.52051317481271e-08
-1.75922458212053e-08
6.57906532070538e-08
1.9740308138198e-08
-2.09215740555532e-08
3.44931888060454e-07
1.86791745257181e-08
-2.9422630489443e-08
1.77712294260202e-06
2.14689326082544e-08
-7.46262769713001e-08
1.69884916891933e-06
1.23903984165256e-07
-3.78015698920135e-09
4.18569560177054e-07
3.92475207663332e-08
-1.07902049614734e-08
-3.65429378855905e-10
1.71188215275533e-08
-1.37727441395238e-08
-4.14097073603819e-08
1.4993090056679e-08
-1.43310993754456e-08
2.53053538241667e-07
1.53817723732624e-08
-1.97855399169157e-08
1.74034999236233e-06
1.63594099330888e-08
-6.03464638898688e-08
1.69938086147607e-06
1.00941252102093e-07
-1.49123616211378e-09
3.72281185749913e-07
3.38482167088529e-08
-6.95096934036758e-09
-2.38310783669797e-09
1.70887984515981e-08
-9.60053306137673e-09
-8.37011423443988e-08
1.44286595082517e-08
-9.99688819872003e-09
-5.66432540025457e-08
1.40707751545181e-08
-9.40684037105038e-09
1.98741596160743e-07
1.32009598212371e-08
-1.24252869399467e-08
1.62989977476087e-06
1.24773231295247e-08
-4.57310375199231e-08
1.68828526587748e-06
6.92953884634693e-08
-5.36573099496967e-10
3.40925480915777e-07
2.7753097241478e-08
-5.06547454071486e-09
7.84584060326915e-09
1.77196012904237e-08
-7.17415969200883e-09
-7.36551093350901e-08
1.53229201867249e-08
-7.63188677122934e-09
-9.0492588777955e-08
1.43387206995782e-08
-6.80626789779892e-09
-5.0783095601709e-08
1.30405211743907e-08
-5.67490294154054e-09
1.6149314563853e-07
1.09244522906755e-08
-6.8380001623762e-09
1.47579292125755e-06
8.58707947379996e-09
-3.1669287789416e-08
1.67694882518515e-06
2.93643351301469e-08
-2.26486618060472e-09
3.20243396596937e-07
2.10077822971289e-08
-5.04494069115108e-09
2.09760640398535e-08
1.7991107561556e-08
-5.9807965476992e-09
-5.35517728285437e-08
1.64600980490341e-08
-6.08509367061985e-09
-7.95043100025358e-08
1.51858493255269e-08
-5.39615543375347e-09
-7.80012838401508e-08
1.36055357151141e-08
-4.15937114911577e-09
-3.9697146265296e-08
1.1286439598e-08
-2.86125444322195e-09
1.34332231723972e-07
8.03621328041974e-09
-3.00933910056553e-09
1.30693663087062e-06
4.55634132597863e-09
-1.83505093413111e-08
1.66813046056916e-06
-1.87673371357186e-08
-5.91656829106097e-09
3.09109056108175e-07
1.27425861442506e-08
-5.60808038975038e-09
3.57502763931842e-08
1.71349444225909e-08
-5.10597384976924e-09
-3.22204929997532e-08
1.69443742698755e-08
-4.7542308463737e-09
-5.90597951543733e-08
1.57875456543793e-08
-4.19643697927001e-09
-6.79229736336098e-08
1.41967308837455e-08
-3.27693020052192e-09
-6.15182881595085e-08
1.21103366370598e-08
-2.12367794994451e-09
-2.79645839928275e-08
9.23853107389178e-09
-9.73807852065558e-10
1.15844875559979e-07
5.56337197041646e-09
-2.31936271849541e-10
1.14984551953954e-06
2.24422911331972e-09
-4.52122265771856e-09
1.66141726966806e-06
-7.45652443312089e-08
-5.29448564918389e-09
3.07916350714284e-07
2.38277140683686e-09
-3.58499657044004e-09
5.23507698745506e-08
1.47425028300691e-08
-3.1236387379266e-09
-1.12910030902644e-08
1.6249497605495e-08
-3.10610805207357e-09
-3.76851422975633e-08
1.54974051912498e-08
-2.94552810119064e-09
-4.97031478460954e-08
1.40539854125368e-08
-2.45813235524253e-09
-5.28886687206043e-08
1.23070018707675e-08
-1.68667578665164e-09
-4.59150493837401e-08
1.02126894818887e-08
-7.67674631462403e-10
-1.70249558536321e-08
7.51957565719156e-09
2.93805364048454e-10
1.082421627858e-07
4.12020157193292e-09
2.11229481184593e-09
1.03634524979194e-06
-1.41173437236889e-10
1.0682972504319e-08
1.6394271798274e-06
-4.32449100697551e-08
6.52521175735197e-08
1.51351635717582e-06
-8.19379486974099e-08
5.10961632664354e-08
1.49195491302139e-06
-3.90753365351829e-08
1.11220716556607e-07
1.58585711320531e-06
-1.01343251544023e-07
4.17800014379404e-08
1.11003307362731e-06
-5.5768664400798e-08
6.90573367353963e-08
1.51705133485247e-06
-2.98582298202501e-08
1.45168313900585e-07
1.59151970946372e-06
1.64766825136477e-07
-2.0011046227248e-08
6.69136858893024e-07
6.38144536654022e-08
-3.41270923859736e-08
5.6340613951818e-07
3.25404124949159e-08
-4.85045946867254e-08
1.70554944288413e-06
3.23011983608497e-08
-1.03140837338689e-07
1.65243640509469e-06
1.68376337677925e-07
-1.04233090820587e-08
4.97375409900008e-07
5.54172246681149e-08
-2.08040770215244e-08
6.62838306258436e-08
2.31935667038423e-08
-2.49118184264032e-08
3.46878456828346e-07
2.15136810477746e-08
-3.60914423480398e-08
1.76091676882746e-06
2.49630652885604e-08
-9.39755309680575e-08
1.68137191012661e-06
1.59714648046808e-07
-5.24496556632393e-09
4.19052560508009e-07
4.9291460319254e-08
-1.29134150315528e-08
-1.86118670374192e-09
2.00486546545823e-08
-1.64058928758662e-08
-4.33250252343052e-08
1.70428125160668e-08
-1.73684479407236e-08
2.52644156937028e-07
1.7630470187445e-08
-2.51767231804094e-08
1.72555282818119e-06
1.94698224658739e-08
-7.92963170357826e-08
1.68470692438479e-06
1.40617932205783e-07
-2.03444340045319e-09
3.72181656694985e-07
4.38201327931842e-08
-8.26157056309082e-09
-4.59682053693581e-09
1.99008021802803e-08
-1.13574805150183e-08
-8.6620761953196e-08
1.61601733639503e-08
-1.2020742281917e-08
-5.97516766974567e-08
1.58999350253888e-08
-1.17403024655438e-08
1.96636947151185e-07
1.53396708509043e-08
-1.66552537141842e-08
1.61746411193225e-06
1.53728839943121e-08
-6.32862509514614e-08
1.6772965005762e-06
1.12675226586464e-07
-7.57848446640191e-10
3.40684944943807e-07
3.80648521587437e-08
-5.48827422736656e-09
5.46968405311402e-09
2.06856538066314e-08
-8.17509922473719e-09
-7.68398994525687e-08
1.70510332582028e-08
-9.0401293002229e-09
-9.40671479220895e-08
1.60537666384942e-08
-8.40615760666455e-09
-5.44925333115071e-08
1.50186149259127e-08
-7.51424151167673e-09
1.58459082976062e-07
1.31711843838757e-08
-1.00880973960343e-08
1.46624114495871e-06
1.12049675397625e-08
-4.73825050259207e-08
1.67007557445675e-06
7.6108891324331e-08
5.50929784864966e-11
3.20161685476318e-07
3.14763696481681e-08
-4.20120116954256e-09
1.85676752087098e-08
2.13545026166079e-08
-6.29738703567628e-09
-5.67745685138228e-08
1.84423977479864e-08
-7.07251133272621e-09
-8.31044754808008e-08
1.69783603162242e-08
-6.67261466420231e-09
-8.18119162278336e-08
1.55608642961695e-08
-5.51720077545431e-09
-4.35558825414605e-08
1.35085243558821e-08
-4.3996454901388e-09
1.3105449215676e-07
1.06700764449667e-08
-5.64530874055266e-09
1.30041876251551e-06
7.60368573366028e-09
-3.27534916667203e-08
1.6678524266174e-06
3.18976498088384e-08
-2.28265742859652e-09
3.08259915784787e-07
2.41526197592442e-08
-4.57888495633994e-09
3.28576470725394e-08
2.12629681381538e-08
-5.42930215163861e-09
-3.55179061415812e-08
1.94949704275377e-08
-5.72130327926542e-09
-6.24782017092397e-08
1.79107377244107e-08
-5.39352518150183e-09
-7.14611430548635e-08
1.62340592720515e-08
-4.48773767393013e-09
-6.52470808455281e-08
1.41432075706836e-08
-3.28725337503704e-09
-3.18823316453265e-08
1.13149806944457e-08
-2.22238498962926e-09
1.12513800731802e-07
7.56746154619418e-09
-2.68786931702396e-09
1.14664515203639e-06
3.78546156285743e-09
-1.89385536937316e-08
1.66870108847847e-06
-1.99679886241034e-08
-6.07973723984001e-09
3.04928721071378e-07
1.51663104462815e-08
-5.34670948921045e-09
4.87461480200482e-08
1.98884619698108e-08
-4.7605044607131e-09
-1.45435589308025e-08
1.96122079087675e-08
-4.5237357520026e-09
-4.06650667735225e-08
1.82342006592218e-08
-4.22152654750052e-09
-5.26066350524366e-08
1.65054879465786e-08
-3.60202745448306e-09
-5.58871560089446e-08
1.45262615288423e-08
-2.69455645501665e-09
-4.91893136628796e-08
1.21061102975415e-08
-1.71586611020939e-09
-2.05447702435248e-08
8.97169597068154e-09
-8.60567548762696e-10
1.05443596816052e-07
5.19900339694556e-09
-3.80345269427347e-10
1.03424914100846e-06
1.08747070370022e-09
-3.5012347420653e-09
1.670669378775e-06
-7.90208359176529e-08
-5.35805143235609e-09
3.10134148831498e-07
4.0394630559237e-09
-3.47721535330532e-09
6.66464888184233e-08
1.69402784577695e-08
-2.97016061023745e-09
6.23516619253032e-09
1.84658547225664e-08
-3.00489236137324e-09
-1.94845725280253e-08
1.75565345494096e-08
-2.99521468028092e-09
-3.26396646658261e-08
1.59422638284858e-08
-2.71667948180682e-09
-3.93567050471375e-08
1.41222917271687e-08
-2.15643475095695e-09
-4.10264258093196e-08
1.21259807923895e-08
-1.42375496759574e-09
-3.50760461712244e-08
9.80424669938627e-09
-6.66679898051681e-10
-9.55821513068082e-09
6.94310743512836e-09
2.30494043141311e-10
1.23267199410278e-07
3.30096081906955e-09
2.03896701514963e-09
8.774368833862e-07
-8.20500780593867e-10
1.61335775416407e-06
-4.60653333373264e-08
7.21336568591836e-08
1.50307700248554e-06
-8.98549272468895e-08
5.70426357649323e-08
1.47555662218462e-06
-4.3012169153726e-08
1.24676890206998e-07
1.57221294018472e-06
-1.14750038616201e-07
4.64727168612025e-08
1.10624426660733e-06
-6.295021559264e-08
7.87649480132031e-08
1.49685590098055e-06
-3.36322061522024e-08
1.65048616708992e-07
1.68919283963942e-06
-1.21036792428081e-07
3.605769649397e-08
5.68780894065452e-07
-5.62742984464501e-08
3.69361192067883e-08
6.73118531710693e-07
-3.90753197792091e-08
7.43055864338269e-08
1.56909283098173e-06
-2.31171750424539e-08
1.907117683376e-07
1.63025488175615e-06
1.99396889836294e-07
-1.24484691889615e-08
4.99568838680629e-07
6.56232293249287e-08
-2.40067700056046e-08
6.72415108511828e-08
2.63684227051629e-08
-2.89089514771065e-08
3.49772519110735e-07
2.40026603232233e-08
-4.30982443211973e-08
1.74432661785111e-06
2.82472082263745e-08
-1.14769047198145e-07
1.66106115782253e-06
1.95296455136265e-07
-6.61311249432899e-09
4.19694736561409e-07
5.93609669224574e-08
-1.50162241604519e-08
-3.15855208768911e-09
2.2704515973386e-08
-1.90191986876307e-08
-4.49802750095754e-08
1.87520499618017e-08
-2.04964589330338e-08
2.53013675255371e-07
1.95855251309699e-08
-3.10696418686843e-08
1.70987487694122e-06
2.2652660205635e-08
-1.00941068195469e-07
1.66714817499718e-06
1.80313185335599e-07
-3.04557739947544e-09
3.72000714032682e-07
5.38776221462876e-08
-9.65277691209942e-09
-6.80143600838648e-09
2.24927811691683e-08
-1.31590514850828e-08
-8.95033120396677e-08
1.75850407709651e-08
-1.40641972150477e-08
-6.27501033892818e-08
1.74112341223607e-08
-1.415329914641e-08
1.95012755814714e-07
1.72413385359051e-08
-2.13214430635601e-08
1.60342290432337e-06
1.84784033849579e-08
-8.37311038260534e-08
1.66295914222354e-06
1.56002713769657e-07
-1.05396073749308e-09
3.40315964884559e-07
4.8394005490541e-08
-6.24676066663538e-09
2.97827224856608e-09
2.34721054300478e-08
-9.34082239134517e-09
-8.00833460645604e-08
1.85267507486498e-08
-1.04825737664377e-08
-9.76857889528681e-08
1.74826807087759e-08
-9.98451953722058e-09
-5.82389645904008e-08
1.66951824169719e-08
-9.34964893643419e-09
1.55557331929579e-07
1.51558338998216e-08
-1.35276556388843e-08
1.45472140094684e-06
1.36837135554072e-08
-6.54528203633511e-08
1.6593335851955e-06
1.23098077099828e-07
3.15385136154754e-10
3.19671991104811e-07
4.20653494445209e-08
-4.27258987032829e-09
1.60737465851606e-08
2.45606117567105e-08
-6.876169097901e-09
-6.00516019106735e-08
2.02119831731113e-08
-8.06116535521284e-09
-8.67832575230162e-08
1.85555039942663e-08
-7.86321815703685e-09
-8.57317356854083e-08
1.7298359995929e-08
-6.7671165979992e-09
-4.75534721125267e-08
1.54522757745746e-08
-5.79806812853411e-09
1.27691365610307e-07
1.27419167242181e-08
-8.26244847544868e-09
1.29176868564155e-06
9.85857245271566e-09
-4.8593564911652e-08
1.66126149112912e-06
8.20934306512005e-08
5.89969322853622e-10
3.08054580755974e-07
3.52110358943245e-08
-3.49176754517811e-09
3.03745635643101e-08
2.50611552403348e-08
-5.42725391878846e-09
-3.87471405611627e-08
2.17570522170602e-08
-6.38478953525502e-09
-6.60290738834072e-08
1.98211152665337e-08
-6.36659670180592e-09
-7.51986318465174e-08
1.81611776631444e-08
-5.53465580320362e-09
-6.91295760867819e-08
1.61917633125322e-08
-4.31855096442671e-09
-3.57494399885319e-08
1.35355124167019e-08
-3.39569210214455e-09
1.0916406082645e-07
1.02067305449844e-08
-4.89618722585821e-09
1.14075713087956e-06
6.55524230380281e-09
-3.3423299714596e-08
1.66889847687996e-06
3.40019233975516e-08
-2.31160924985282e-09
3.03693299960638e-07
2.72431458046338e-08
-4.1454604627373e-09
4.57328815925656e-08
2.45339794830582e-08
-4.84162673855152e-09
-1.78552133738599e-08
2.25934926372451e-08
-5.21620979816489e-09
-4.40077344690816e-08
2.06880381374916e-08
-5.15739925071095e-09
-5.59734278964727e-08
1.87862195365906e-08
-4.57864558079804e-09
-5.93600527341224e-08
1.67352312800472e-08
-3.60699473427893e-09
-5.28418563450131e-08
1.42489553815619e-08
-2.56784751313638e-09
-2.44029939213144e-08
1.10491596773885e-08
-1.8462755671666e-09
1.02227381810706e-07
7.01984776066803e-09
-2.7015235875524e-09
1.03117453180183e-06
2.66357065259751e-09
-1.85286566615541e-08
1.67838374544418e-06
-2.14250831990619e-08
-6.24818623326524e-09
3.06796998417648e-07
1.75203328349733e-08
-5.09243361382809e-09
6.29141447753056e-08
2.26411215927785e-08
-4.36731085057063e-09
2.94192091163094e-09
2.23109459225093e-08
-4.16658266148621e-09
-2.24505437693463e-08
2.07109848057485e-08
-4.03470290715713e-09
-3.54600122414143e-08
1.87678179653601e-08
-3.66394436144945e-09
-4.21660075941592e-08
1.67272211824433e-08
-2.99309208004756e-09
-4.3946634914214e-08
1.44909269263282e-08
-2.15712998575911e-09
-3.82314909577745e-08
1.18266789670953e-08
-1.41403260551629e-09
-1.28980198349543e-08
8.52194746274931e-09
-8.41837497388342e-10
1.20369456963426e-07
4.24892712418737e-09
-6.35029460742709e-10
8.74342885534559e-07
-8.40829475328293e-10
4.31818496780747e-10
1.68773106901395e-06
-8.36819758839432e-08
-5.41098914055146e-09
3.17214382144849e-07
5.57289280711198e-09
-3.35011300025373e-09
8.22719706384076e-08
1.90924652646948e-08
-2.76456172122759e-09
2.40079547261199e-08
2.06776680232176e-08
-2.79746514066734e-09
-1.43435359483918e-09
1.96308909533614e-08
-2.87439645818518e-09
-1.53485518823839e-08
1.78314863956646e-08
-2.75295010838566e-09
-2.37587889998863e-08
1.58851445222278e-08
-2.37646911741315e-09
-2.87780151615515e-08
1.38782110244748e-08
-1.79465437855384e-09
-3.03584133807149e-08
1.17059817947781e-08
-1.14676357774896e-09
-2.56854672379713e-08
9.22613151542284e-09
-5.53635074298823e-10
-3.22286401474982e-10
6.25180702414506e-09
1.64539926827877e-10
2.09715717061633e-07
2.91805742665408e-09
1.58253412915414e-06
-4.79708850773024e-08
7.87866712030934e-08
1.490143886037e-06