/*--------------------------------*- C++ -*----------------------------------*\
  =========                 |
  \\      /  F ield         | OpenFOAM: The Open Source CFD Toolbox
   \\    /   O peration     | Website:  https://openfoam.org
    \\  /    A nd           | Version:  12
     \\/     M anipulation  |
\*---------------------------------------------------------------------------*/
/*   Windows 32 and 64 bit porting by blueCAPE: http://www.bluecape.com.pt   *\
|  Based on Windows porting (2.0.x v4) by Symscape: http://www.symscape.com   |
\*---------------------------------------------------------------------------*/
FoamFile
{
    format      ascii;
    class       surfaceScalarField;
    location    "0";
    object      phi;
}
// * * * * * * * * * * * * * * * * * * * * * * * * * * * * * * * * * * * * * //

dimensions      [0 3 -1 0 0 0 0];

internalField   nonuniform List<scalar> 
28680
(
-5.30191097295019e-07
8.25035413973685e-07
-4.48816607713988e-07
3.35974846608236e-05
7.72253703248347e-07
-5.5115363619825e-07
-1.37522317968666e-07
3.23251072315241e-05
7.31844197430756e-07
-1.26040506592531e-06
3.14965821885276e-05
1.61080915493227e-06
-3.42685268112166e-07
3.6683416442097e-05
1.38085385427341e-06
-8.44204674751512e-08
3.12338715779753e-05
6.04851014835552e-07
-7.38976705126513e-07
3.02835880034483e-05
1.52009100859631e-06
-1.74490664730012e-07
3.52885627961849e-05
1.30124105770753e-06
-2.25741072377705e-06
2.83045115429065e-05
2.36213887383393e-06
-1.30048792432895e-06
3.44918331299213e-05
3.21493450007896e-06
-3.2778141327797e-07
4.14425606052178e-05
1.6821259764155e-06
3.30981866260048e-07
3.0616298895919e-05
7.16009669377267e-07
-2.5632591065787e-07
2.94063777124736e-05
1.34484307866448e-06
-6.05763285421598e-08
3.42179819814137e-05
1.18735530129815e-06
-1.48510178525548e-06
2.72531995466052e-05
2.25807968676473e-06
-7.3079559179674e-07
3.31898313029754e-05
3.04913342136131e-06
-2.19825070561996e-07
3.99445038049346e-05
1.60258765585223e-06
-3.32928947992575e-06
2.50185751542227e-05
2.14665834222679e-06
-2.51565385975855e-06
3.13588587576217e-05
4.54720151830328e-06
-1.42483335324931e-06
3.95821448706443e-05
4.38508651713495e-06
-3.71272869135499e-07
4.66469763120667e-05
1.58741902531477e-06
2.38685969013009e-07
2.96518320901435e-05
6.25020370396631e-07
3.25692921144373e-07
2.8737853101993e-05
1.29642680491456e-06
2.89510020463808e-07
3.35458355946613e-05
1.17519320572939e-06
-6.92064531828065e-07
2.65011912557005e-05
2.11214926640783e-06
-2.4184150849082e-07
3.22888182984827e-05
2.78505618488586e-06
-6.84466330295867e-08
3.88131261211551e-05
1.50013444582378e-06
-2.27838913870309e-06
2.41363901502802e-05
2.06590957416353e-06
-1.62194815793411e-06
3.01998160834632e-05
4.35439117862791e-06
-7.60008678162763e-07
3.81484756899468e-05
4.18034226042848e-06
-2.64756180891595e-07
4.50591736988938e-05
1.52902954338744e-06
-4.33142506492072e-06
2.17973948840449e-05
1.83680593991247e-06
-3.78302756746936e-06
2.77653395080762e-05
4.45324908472197e-06
-2.92795449070076e-06
3.63121762019608e-05
6.71611348553203e-06
-1.56791965377406e-06
4.53122756578745e-05
4.94978521771917e-06
-3.89430671706687e-07
5.11013821749761e-05
1.14127356410658e-06
4.58196931785729e-07
2.84206219325674e-05
5.67546259530389e-07
4.95139257484232e-07
2.81923187508226e-05
1.29006647097239e-06
4.47828294889146e-07
3.31391902266627e-05
1.10908521372202e-06
2.11571915132392e-07
2.59730013628659e-05
1.86121431005479e-06
3.9501137205267e-07
3.1601391141467e-05
2.60402147090481e-06
2.67341352570733e-07
3.8267685320984e-05
1.40866122935639e-06
-1.21739757172639e-06
2.34853912470474e-05
1.95480816619451e-06
-6.86987570396478e-07
2.93800739056765e-05
4.08593460025577e-06
-3.19300809786277e-07
3.72348926097403e-05
3.92258749873498e-06
-1.0079481899127e-07
4.3921053060994e-05
1.44480839165213e-06
-3.05703862983386e-06
2.10771781410852e-05
1.78482588826078e-06
-2.59040577105572e-06
2.67791977117031e-05
4.29390767271165e-06
-1.88378594839e-06
3.5003497267577e-05
6.45520537952827e-06
-8.7602826555172e-07
4.37761624356577e-05
4.77146802565123e-06
-2.9186576740642e-07
4.95104021528736e-05
1.13448728819934e-06
-5.1620755925832e-06
1.86696324793766e-05
1.6033559280245e-06
-4.89782725196061e-06
2.41497708854909e-05
3.91139587625584e-06
-4.47797381165666e-06
3.20730441469348e-05
7.20715857508396e-06
-3.35825352709765e-06
4.17899029902746e-05
9.01257892736597e-06
-1.66847760169199e-06
5.11578121922554e-05
4.1022119484864e-06
-4.32773932799793e-07
5.44406823532073e-05
8.7115455651232e-07
-1.34149809427226e-06
2.62787574293973e-05
-1.41755520324491e-07
6.87797594668343e-07
2.7417760286476e-05
8.10203559090261e-07
2.43699714452416e-07
3.27145823670743e-05
1.13015092999469e-06
9.20933271623349e-07
2.56350850880425e-05
1.84787068278828e-06
9.56708302681387e-07
3.14006313637706e-05
2.46693106510244e-06
5.08683469150517e-07
3.84817347134926e-05
1.35644928097364e-06
-3.87797431786296e-08
2.30337309232385e-05
1.76065127623243e-06
2.6534349656849e-07
2.88510082451529e-05
3.65926685198269e-06
3.40313855545961e-07
3.65439404859457e-05
3.66815692474095e-06
2.49572017536457e-07
4.35348858175149e-05
1.32370132778166e-06
-1.7778943571465e-06
2.04937826034762e-05
1.71246423774545e-06
-1.38429751874294e-06
2.60443248387753e-05
4.08444988040071e-06
-7.80512501056728e-07
3.41101963052196e-05
6.10736096427583e-06
-4.29360269836771e-07
4.28507368479158e-05
4.5462410069945e-06
-1.38755832480009e-07
4.84441483922643e-05
1.08723574522494e-06
-3.76541714859954e-06
1.81098437609315e-05
1.57067542715394e-06
-3.47942667037766e-06
2.33433814449244e-05
3.80224172634424e-06
-3.09974399179902e-06
3.09478885281072e-05
6.97129068246166e-06
-2.1962272436451e-06
4.03584066955004e-05
8.71093896417099e-06
-9.79126080545288e-07
4.95649285646818e-05
4.02758868570985e-06
-2.87831927402351e-07
5.29346371727316e-05
8.97647618376898e-07
-5.77929661029307e-06
1.57406975946677e-05
1.37003262681153e-06
-5.78344469549475e-06
2.06620080026617e-05
3.41069199616758e-06
-5.76349303760618e-06
2.76081112100378e-05
6.61569670490478e-06
-5.19481563918252e-06
3.62568043628956e-05
1.10899578672864e-05
-3.73597969377327e-06
4.80671524680237e-05
1.07976549355611e-05
-1.62964163216237e-06
5.52253581723851e-05
2.63238486205596e-06
-8.18623575025844e-07
5.96842604576469e-05
-8.28581153562383e-07
1.95318770529538e-05
-4.01707428306252e-07
-1.09082508025552e-07
2.71738872497859e-05
-9.82489911461897e-08
-2.42461017853006e-06
3.08841713339096e-05
1.39246959670424e-06
1.54837820166061e-06
2.53646240020402e-05
1.42569067576777e-06
7.33265978003072e-07
3.15630978051e-05
2.18513285903108e-06
4.43911390552191e-07
3.96510485506048e-05
1.34313692201191e-06
1.3464627238263e-06
2.26105883603543e-05
1.63925185120773e-06
1.50575709691864e-06
2.86099245022987e-05
3.39816399770398e-06
8.79629071072058e-07
3.68445443961613e-05
3.56481101390554e-06
5.68360187371291e-07
4.42826498825332e-05
1.24154909321473e-06
-3.54055480711615e-07
2.00095386927215e-05
1.60035242122952e-06
-9.14143663980345e-08
2.55640557302183e-05
3.75472048175936e-06
1.04927698265081e-07
3.36363602752561e-05
5.68140961937082e-06
2.88074173867791e-07
4.22151597378764e-05
4.27045354605567e-06
1.92133555970363e-07
4.82189110716948e-05
9.47012850591921e-07
-2.39564568374517e-06
1.76012848577188e-05
1.52272547907773e-06
-2.05534341175188e-06
2.26785060469051e-05
3.65419956081507e-06
-1.70887719916644e-06
3.01195855978063e-05
6.68419772466288e-06
-1.01199922766404e-06
3.94310080758591e-05
8.34286607317804e-06
-5.38257267377036e-07
4.86613770791657e-05
3.88814265995425e-06
-1.70709195795526e-07
5.20259957762526e-05
9.30483454634181e-07
-4.35691646238647e-06
1.53356949204602e-05
1.35176760768395e-06
-4.24691970549574e-06
2.00375822235864e-05
3.33994890826707e-06
-4.14436100006574e-06
2.6691541545491e-05
6.4394590468584e-06
-3.66216079323271e-06
3.5029689558596e-05
1.07673616257384e-05
-2.49838805712112e-06
4.65439860476534e-05
1.04942927786096e-05
-9.63414466029995e-07
5.3681618539596e-05
2.61437466164616e-06
-6.37752955441542e-07
5.82274423019445e-05
-6.19634035223824e-06
1.30876681595634e-05
1.13824130408147e-06
-6.4413842569271e-06
1.74142775918265e-05
2.9032603875758e-06
-6.72123611613246e-06
2.34054776183005e-05
5.7122657725558e-06
-6.62657564742962e-06
3.0419044579841e-05
1.05128653818742e-05
-5.88799766937183e-06
3.93529386411021e-05
1.80313955565067e-05
-4.17414922604251e-06
6.22174354255274e-05
2.37961711417033e-06
-1.65919135017075e-06
6.19433254188729e-05
1.72383430329521e-06
2.50289129576838e-05
-2.39563105020321e-07
-1.63792236317007e-06
2.05056060585459e-05
5.55106108997358e-07
-1.03053508953336e-06
7.75758574971513e-06
2.82709228240953e-06
2.5063511748335e-05
8.3165778264212e-07
3.07973825272078e-05
9.85735841628492e-07
-2.63931013185094e-07
4.64866192083189e-05
6.34546151080394e-07
-2.42275756512101e-06
2.96641631246582e-06
2.23138753132984e-05
1.43079267754409e-06
2.7864368894639e-06
2.88070818255617e-05
2.90102583083278e-06
6.22663561562206e-07
3.84256580003482e-05
3.66749248814903e-06
3.83213630869001e-07
4.64014640352724e-05
1.16733237498414e-06
1.31212440961777e-06
1.95208028700166e-05
1.42360399144557e-06
1.70717644840497e-06
2.51143717505594e-05
3.33621279284729e-06
1.35103035117995e-06
3.3606351597961e-05
5.39025611559476e-06
1.09205713844578e-06
4.28826953798323e-05
4.16078738388546e-06
5.47308203852313e-07
4.92379249162416e-05
8.20067094071858e-07
-9.57381777239835e-07
1.71170000891665e-05
1.45427360111633e-06
-4.55536603944862e-07
2.21283233121778e-05
3.43627708048748e-06
-2.58002874768107e-07
2.96453158749613e-05
6.2948933594708e-06
-6.42110800596669e-08
3.90137847660582e-05
7.93500019589063e-06
2.06841966175554e-07
4.81142066605075e-05
3.6300579115804e-06
8.82948166213737e-08
5.19956393906533e-05
8.06182121442351e-07
-2.99095942433346e-06
1.49146952186516e-05
1.32063138559501e-06
-2.74484357823133e-06
1.9461739433386e-05
3.23741510551634e-06
-2.52144295474365e-06
2.59345259593171e-05
6.21634310204756e-06
-2.10949847381986e-06
3.41488583853424e-05
1.04136928159091e-05
-1.2480464308125e-06
4.56013275635861e-05
1.01525762971901e-05
-5.77391851899621e-07
5.28571902068126e-05
2.67091987524812e-06
-4.74297473334878e-07
5.74586501436221e-05
-4.81747542998282e-06
1.28259673268285e-05
1.13086170218343e-06
-4.87968227847417e-06
1.69647209028782e-05
2.86292576684466e-06
-4.98537464866603e-06
2.27015424679534e-05
5.59408688247502e-06
-4.84129836556796e-06
2.94348667127216e-05
1.02490100373709e-05
-4.23438351705127e-06
3.80953364114924e-05
1.75624076950329e-05
-2.809617819753e-06
6.04568747283693e-05
2.35450551692365e-06
-1.16173201312659e-06
6.034435252211e-05
-6.44879882880417e-06
1.07400108359834e-05
9.24488906655414e-07
-6.89703251884083e-06
1.44770990448073e-05
2.406237344578e-06
-7.41520424253666e-06
1.96251598440263e-05
4.7537034914085e-06
-7.59824286641198e-06
2.53030476717324e-05
8.75902904526725e-06
-7.37209806232038e-06
3.13033742743331e-05
1.65117758338844e-05
-7.09683441284185e-06
3.85557733388517e-05
3.96583297886191e-05
-2.63200690373147e-06
6.3757608897008e-05
6.11216400696048e-07
4.13750319930621e-05
-5.61573170239678e-07
2.22480107354523e-05
1.70455203292731e-06
2.19640391633154e-06
9.58012070559992e-06
-3.94442344437042e-06
2.7691269497484e-05
-4.14144370101307e-07
-2.66944965107668e-06
-2.45819399096751e-07
-2.30113325987684e-07
3.70048415320154e-06
5.79470650612922e-06
-7.06572594755095e-07
5.25826252264811e-06
2.18752090960573e-05
8.96457999898792e-07
4.43443219661336e-06
2.89347589834239e-05
1.04628708535821e-06
4.408711799886e-05
4.08849866808482e-06
-8.05966318965596e-08
5.29887703101833e-06
-1.39225735409296e-08
4.93948398502967e-05
-1.86457742794937e-07
9.89336874917202e-07
1.17841838864116e-06
4.95936472284032e-05
2.0714505515866e-06
3.24494461812337e-06
1.90570263329349e-05
1.32402661018851e-06
3.96875227643018e-06
2.50675355534751e-05
2.90876323848131e-06
2.5889582941545e-06
3.47881757878772e-05
5.30058151667458e-06
1.41033870438152e-06
4.54531932220726e-05
4.29748437413494e-06
3.32284668628943e-07
5.11060673065615e-05
6.90521089917629e-07
6.14598093698027e-07
1.65964889912227e-05
1.35233257402234e-06
1.39664278012316e-06
2.16137254077656e-05
3.07206923997484e-06
1.60977447044854e-06
2.92842944809887e-05
5.7904947589631e-06
1.41521808799781e-06
3.91305243746051e-05
7.66300075231662e-06
1.32709062399325e-06
4.88388377614407e-05
3.43962465620575e-06
4.21497809958945e-07
5.31902593642981e-05
6.22452524373842e-07
-1.6154751135948e-06
1.44611775572989e-05
1.28033677180816e-06
-1.1695552859006e-06
1.8911405935126e-05
3.09590135776763e-06
-6.95508118777308e-07
2.53315367995997e-05
5.92412229770475e-06
-5.0697478039295e-07
3.37097276758335e-05
9.99643315686651e-06
-1.91931559492951e-07
4.51972358089151e-05
9.79585781170722e-06
3.40555087560866e-08
5.2533001620746e-05
2.48124249421233e-06
-4.25246243131868e-08
5.77806292117582e-05
-3.51598924168124e-06
1.25023593239832e-05
1.11084844204309e-06
-3.38380497754827e-06
1.64920901195611e-05
2.79440221992509e-06
-3.2929807227565e-06
2.20485463497681e-05
5.43100121391151e-06
-3.05222587065885e-06
2.86300285489376e-05
9.94610583647142e-06
-2.54367800848828e-06
3.72199996418505e-05
1.71043251797741e-05
-1.52314889804842e-06
5.94304345162447e-05
2.292863887294e-06
-7.77235732728811e-07
5.9745069747824e-05
-5.15311483617529e-06
1.06050715093225e-05
9.25211211254111e-07
-5.37913662553852e-06
1.41881384065109e-05
2.38954730204622e-06
-5.65829819645755e-06
1.91221229804606e-05
4.68543913757667e-06
-5.70792358299651e-06
2.45585495725745e-05
8.58008669857303e-06
-5.47651260598978e-06
3.0332884621597e-05
1.6115883318528e-05
-5.16584431005469e-06
3.74011010816983e-05
3.86872002391187e-05
-1.7327476125351e-06
6.17995981271773e-05
-6.57112386655558e-06
8.69452115509307e-06
7.3828350657429e-07
-7.17972373700566e-06
1.18784027160353e-05
1.95062516612227e-06
-7.90375801656847e-06
1.62779854548297e-05
3.87526838575702e-06
-8.26851642361508e-06
2.10130342545168e-05
6.96101959126454e-06
-8.2217728849756e-06
2.54347471830602e-05
1.24947094475014e-05
-7.86186594890415e-06
2.93512627696658e-05
2.36571424454655e-05
-2.12644937765303e-05
-7.39185971057224e-06
2.65427401998942e-05
3.2545007679055e-05
-3.37778266536543e-06
4.10475000074909e-05
1.43205401302765e-06
5.76914924004146e-05
1.76636616594108e-06
3.90470927840668e-05
2.81912664893835e-06
-8.09700853013372e-06
2.3581467501472e-05
-2.71232544399378e-06
4.16953169788475e-06
1.72294974006596e-08
6.16122171291141e-06
1.19604471579247e-05
-9.32474367100693e-07
2.19215595120229e-05
-1.88832163538408e-05
2.94228030062419e-05
-3.70017292006221e-06
-5.71432461595784e-06
5.95368905448373e-06
1.8182438154505e-05
9.84025216558145e-07
6.74486112622461e-06
2.51325964978633e-05
1.92251291292652e-06
5.59150972469963e-06
3.71681964588239e-05
4.96266026832672e-06
4.98893385699154e-05
2.69123317212867e-07
4.73522059262195e-06
-4.50204020813335e-07
-1.12785351477073e-06
4.73614354144181e-05
3.72967334890719e-06
5.57806286153854e-07
5.30973845715261e-05
1.18951087418087e-06
5.15715476626262e-05
2.83933812745392e-08
8.64587322791658e-07
2.51070094999004e-06
1.58833423004228e-05
1.27757924093526e-06
3.82732421892028e-06
2.11632871121106e-05
2.79759186719519e-06
4.26375550754146e-06
2.96669969370464e-05
5.3759642247094e-06
3.43308782985773e-06
4.13529991952944e-05
7.38291013578579e-06
2.24732847312686e-06
5.12539092227605e-05
3.22940309148166e-06
5.14966535205155e-07
5.47779242819252e-05
4.00246295701949e-07
-2.03942571251196e-07
1.39381806744372e-05
1.24677414983399e-06
5.62939335571222e-07
1.83442720891169e-05
2.88928949562135e-06
1.30152868858347e-06
2.48598402825317e-05
5.49948718430233e-06
1.44565714404863e-06
3.34497671893311e-05
9.51862649479908e-06
1.71215767193293e-06
4.51922950341238e-05
9.40545607710088e-06
1.1242856820488e-06
5.33188744955761e-05
2.22077385037396e-06
9.14760514140631e-08
5.92372691701257e-05
-2.24638825335065e-06
1.21099893005237e-05
1.0815857897275e-06
-1.87422304234214e-06
1.59785313584097e-05
2.7036278679267e-06
-1.51925145896879e-06
2.14320852263408e-05
5.22162337171044e-06
-1.03749470610451e-06
2.80183037948794e-05
9.60081949857701e-06
-8.01308574903757e-07
3.68245270670696e-05
1.662678186165e-05
-3.54036644520985e-07
5.89075573421104e-05
2.25219090287763e-06
-6.04553509416683e-08
5.95450873750039e-05
-3.94525975282722e-06
1.03809844630036e-05
9.13518741739906e-07
-3.94953661173529e-06
1.38278198074298e-05
2.34551762729057e-06
-3.97716342617182e-06
1.85887248135775e-05
4.57308890950934e-06
-3.86640775489207e-06
2.38688559665988e-05
8.35065993709641e-06
-3.56814096694703e-06
2.95515813976958e-05
1.57061591512179e-05
-3.13921237933031e-06
3.6631040372619e-05
3.78770971083863e-05
-1.42370778051757e-06
6.1728893289086e-05
-5.37755101337216e-06
8.66672100566174e-06
7.44777135778134e-07
-5.74852030246158e-06
1.17305493800294e-05
1.95159598468987e-06
-6.19560820558319e-06
1.59572441119347e-05
3.84627624244527e-06
-6.37025413667671e-06
2.04869831617129e-05
6.85874407264737e-06
-6.26573819736717e-06
2.47146477551324e-05
1.22422903788838e-05
-5.94091841655535e-06
2.8489958982325e-05
2.31060824930334e-05
-2.06752769164245e-05
-5.68743359995046e-06
2.5813573236005e-05
3.18444825438611e-05
-2.41617372411443e-06
4.01627126353986e-05
-6.58989242860651e-06
6.93095294298763e-06
5.82074236886072e-07
-7.31877255563958e-06
9.61448853569671e-06
1.5547836613062e-06
-8.21512300190715e-06
1.33428393630473e-05
3.11329785184279e-06
-8.74966835760184e-06
1.73561108664888e-05
5.51029808877515e-06
-8.80927617640224e-06
2.09101512197724e-05
9.36184081947644e-06
-8.58499443645301e-06
2.36346062915797e-05
1.61122996134744e-05
-8.07657797559528e-06
2.35873554993516e-05
2.46630882989152e-05
-1.09434836005031e-05
-6.56065433493571e-06
1.61890017564575e-05
2.5768569407741e-05
-4.85386970856581e-06
2.88082834208959e-05
1.05317639100951e-06
6.25661677641083e-05
4.48140650975552e-06
5.3848596470413e-05
1.80846076144222e-06
2.91416208663948e-05
-5.22310243038121e-06
2.39247404660218e-05
4.87981387267909e-06
-1.46185251138102e-05
1.40387715588766e-05
-1.17650893158747e-06
1.37167054027365e-05
1.09021341206186e-05
-1.30334164233587e-06
2.56364018298547e-05
1.08666745517226e-05
6.50813268523947e-07
1.63577617934146e-05
-5.91790587849552e-06
4.93726537138779e-05
5.79802548054731e-06
4.66956839077918e-06
1.48982457343163e-05
1.1253230777466e-06
7.35349696359151e-06
2.04064332517689e-05
2.18401592303821e-06
8.0272883666668e-06
3.05661844347316e-05
4.76099597687309e-06
5.93646480947589e-06
4.53569466240391e-05
6.99167703738176e-06
9.38965352389103e-07
5.24066251192824e-05
3.75058833789222e-06
5.71963559286939e-05
6.49021002188588e-08
1.29283831798678e-06
8.1487308007377e-07
5.29613016076965e-05
6.37356280597506e-07
5.31156109312393e-05
-9.88406670166919e-08
7.68845002153703e-07
1.39053247898376e-06
1.31526196457107e-05
1.13624582744384e-06
2.75244133015959e-06
1.75232445171351e-05
2.72811791471863e-06
4.03732884515195e-06
2.44863922658501e-05
5.2423973527363e-06
4.40672326304692e-06
3.44725845312514e-05
9.29531848271063e-06
4.23518613043943e-06
4.71486248785105e-05
8.96516910713617e-06
1.94875110209692e-06
5.52262807058145e-05
1.95657743802259e-06
2.84972712175156e-07
6.17195334840884e-05
-9.80960190233024e-07
1.16256585497534e-05
1.04709247165591e-06
-2.68277282296668e-07
1.53803853890149e-05
2.60471335670921e-06
4.40234596784876e-07
2.08391553119955e-05
4.95048779828102e-06
1.0846678221873e-06
2.76321282903538e-05
9.19496761931885e-06
1.26534490490496e-06
3.651115777495e-05
1.61331195576856e-05
1.75399455129976e-06
5.85230784125862e-05
2.0932232317651e-06
7.42654855900029e-07
6.06549292115968e-05
-2.79653786387262e-06
1.00692161204149e-05
8.9204999023499e-07
-2.55828833669884e-06
1.33884462478795e-05
2.28042110018897e-06
-2.27249165189e-06
1.80062782606273e-05
4.4247623370328e-06
-1.93567635981963e-06
2.32284518855292e-05
8.0807449502675e-06
-1.41419715210889e-06
2.89789333355224e-05
1.52924751895567e-05
-1.26539767300017e-06
3.6324165321307e-05
3.73363682903444e-05
-2.98344940485094e-07
6.06719150731241e-05
-4.27255593944881e-06
8.53644472969382e-06
7.3954381439826e-07
-4.41600051900508e-06
1.14826889806111e-05
1.92612886022117e-06
-4.58814686881927e-06
1.55530436791284e-05
3.77373727355886e-06
-4.55308348795883e-06
1.99257505618388e-05
6.69902459874163e-06
-4.35393049435683e-06
2.4049444707648e-05
1.19409907031889e-05
-3.99005674938894e-06
2.78093546371376e-05
2.25769883420367e-05
-2.07947803208035e-05
-3.78151028875664e-06
2.54096878201344e-05
3.13562716069497e-05
-1.43517720048999e-06
3.99531173381195e-05
-5.50537198343124e-06
6.98982947166819e-06
5.92370636908491e-07
-5.99705532435633e-06
9.58539933340504e-06
1.56820922303564e-06
-6.60094425183919e-06
1.31812536181165e-05
3.11340759061322e-06
-6.90757529497491e-06
1.70249637933231e-05
5.46620324356012e-06
-6.86687747302657e-06
2.0408634285108e-05
9.22235918999601e-06
-6.64693415904598e-06
2.300186936232e-05
1.57923204587538e-05
-6.24991992906299e-06
2.29489629976271e-05
2.41440372532005e-05
-1.06629654067719e-05
-5.09929655998841e-06
1.57748620803018e-05
2.52712285513263e-05
-3.62616996787664e-06
2.82720480103175e-05
-6.52607502298306e-06
5.42149754908667e-06
4.54467182853943e-07
-7.34101852642742e-06
7.6630566182567e-06
1.22370714931465e-06
-8.37040499362066e-06
1.07945813436733e-05
2.46856409191775e-06
-9.06518009746737e-06
1.42017441993807e-05
4.35841875006153e-06
-9.24037446808331e-06
1.72047935160908e-05
7.1616672044829e-06
-9.09336387165915e-06
1.9411955117259e-05
1.15092134360609e-05
-8.78724099936932e-06
2.01028739478189e-05
1.75954724335778e-05
-8.07674583944312e-06
1.72328009949785e-05
2.18317749551954e-05
-6.29525883930757e-06
-6.87355589835798e-06
1.04169527737739e-05
2.01907114470125e-05
-5.69918944141047e-06
2.12159826256731e-05
7.77749191290373e-07
7.04133269384787e-05
3.52405346740099e-06
6.44624919525872e-05
6.73207235259542e-06
4.30070762532729e-05
-4.29035395393459e-06
2.82088683144606e-05
4.51422420990928e-06
4.79199079857887e-06
4.89926857133094e-07
2.35871484777711e-06
2.03117221626632e-06
-3.77646766668548e-06
1.06776384835762e-05
7.54499460444939e-06
-4.07393427952092e-07
-3.21600649587589e-06
-3.28808557701565e-06
1.85187280868274e-06
3.47571109978931e-06
1.17122937621635e-05
1.26353085362147e-05
2.35779311633664e-07
1.83954128612241e-06
6.3365140450525e-06
2.18391292941727e-06
3.51098734898922e-05
1.88028185090276e-05
1.40307779692678e-05
1.39608594689579e-06
1.82138512422179e-05
6.76260089373311e-06
9.53557326636635e-07
1.33111707322636e-05
-4.01528242356537e-07
5.66922776612005e-05
7.85037279803425e-06
2.9165673984498e-06
1.23081693813622e-05
1.06403955945398e-06
5.32597809872785e-06
1.64651530922827e-05
2.49306461475441e-06
8.05370065166086e-06
2.38729792502097e-05
4.86085201466527e-06
9.28626454491587e-06
3.61267585813065e-05
9.11164602630121e-06
3.89821935012886e-06
5.8521596711283e-05
6.00339855598699e-06
2.95447964532982e-06
5.33338456212351e-05
4.88468338008899e-07
5.40193877702504e-05
-1.44453619619143e-06
3.78234389335846e-06
9.35392968660368e-07
3.92997941119038e-05
5.75034078877246e-07
6.41239933182598e-05
-8.8250336946675e-09
1.53840737183461e-07
1.10105167598722e-05
1.00730027886827e-06
1.42636861252805e-06
1.45283181293273e-05
2.43652442663928e-06
3.01148388869868e-06
1.98805270717633e-05
4.7627327845013e-06
4.32526195432732e-06
2.73563063786903e-05
9.1180848417212e-06
4.17142735452622e-06
3.74713356887837e-05
1.6066529005559e-05
4.35335792486285e-06
5.9561136727064e-05
2.0309483264298e-06
1.67058892144235e-06
6.27481737255194e-05
-1.6937181877851e-06
9.66002295859775e-06
8.62814481173799e-07
-1.17620577310559e-06
1.28444470147617e-05
2.20094663835608e-06
-4.00487011928515e-07
1.73226624000633e-05
4.24920075227246e-06
2.06921097624601e-07
2.26487292598865e-05
7.79129001468759e-06
7.53941596817295e-07
2.86573292214987e-05
1.48806620087822e-05
1.10603271137117e-06
3.58920286135119e-05
3.63927457535487e-05
8.17840697622036e-07
6.1631966608842e-05
-3.23904072656468e-06
8.31097602133879e-06
7.24723812693073e-07
-3.15127784497113e-06
1.11363788785483e-05
1.87939326641915e-06
-3.02442636968864e-06
1.50566310962551e-05
3.66634691322128e-06
-2.70419744859701e-06
1.93111348097576e-05
6.49319341682644e-06
-2.33931221833028e-06
2.34366108665148e-05
1.16084499012476e-05
-1.78574375875649e-06
2.7324966078927e-05
2.20873652388501e-05
-2.07920475551827e-05
-1.85515111107298e-06
2.52570323402698e-05
3.09450288301815e-05
-1.00049574734326e-06
3.94451870703574e-05
-4.50328813079426e-06
6.9423477799872e-06
5.92012413097931e-07
-4.77399156985266e-06
9.4422656488538e-06
1.55690264164707e-06
-5.0985182162362e-06
1.29051892381187e-05
3.07155708206915e-06
-5.17261331854073e-06
1.66016492289416e-05
5.36287731181625e-06
-5.00283646880938e-06
1.98688144037186e-05
9.01561441032055e-06
-4.73970500405034e-06
2.2415785712836e-05
1.54273314037058e-05
-4.3817663766602e-06
2.24569710725951e-05
2.36615543469485e-05
-1.05892628304429e-05
-3.57175167480534e-06
1.55390292411997e-05
2.48789623200067e-05
-2.19226972243026e-06
2.79299549178048e-05
-5.55077579397714e-06
5.54756941637908e-06
4.66960440360376e-07
-6.13833640756806e-06
7.72985431587311e-06
1.24523281618606e-06
-6.87646308411669e-06
1.07665178947241e-05
2.48900283010624e-06
-7.32286688817111e-06
1.40397454612289e-05
4.35631324299982e-06
-7.36256357752102e-06
1.68953116598071e-05
7.10171521090016e-06
-7.18526475299836e-06
1.89766116811225e-05
1.1339517230576e-05
-6.92731899797352e-06
1.9608374491208e-05
1.72729871596213e-05
-6.39431823908139e-06
1.6810608650649e-05
2.14258648359001e-05
-6.1490672038019e-06
-5.48324225139354e-06
1.01786637859242e-05
1.98513189131829e-05
-4.43346048556925e-06
2.0857252357907e-05
-6.3977311546712e-06
4.13599256335244e-06
3.52222369709877e-07
-7.27015198672004e-06
5.99299002428201e-06
9.54215416875918e-07
-8.39412757065172e-06
8.6008880313865e-06
1.93623300215607e-06
-9.22256104729601e-06
1.14810635318745e-05
3.42634719682891e-06
-9.52885712828238e-06
1.40619206459287e-05
5.56259529212455e-06
-9.45776604178126e-06
1.59938367276558e-05
8.57939342387238e-06
-9.25466573337135e-06
1.69239676432586e-05
1.27087168021236e-05
-8.91567709826756e-06
1.59651469978959e-05
1.69861099105118e-05
-8.16315248481355e-06
1.21897776928167e-05
1.84061806946813e-05
-3.89679790581095e-06
-7.32918010033474e-06
6.83136465930326e-06
1.58556445848853e-05
-6.36544342024891e-06
1.60460543849138e-05
-5.02524737823376e-07
6.69751186184758e-05
2.48213891757856e-06
7.44097139813372e-05
3.34479317972148e-06
6.74482378254457e-05
2.78991603506954e-05
1.08175580714793e-05
1.95527527472599e-05
1.31703384670835e-05
3.86262022593243e-06
4.34490869072915e-06
2.77043861841978e-06
-3.24463094480492e-06
1.33256376875224e-05
2.45064701654657e-06
-3.25630241588115e-06
8.93915918567199e-06
5.03828078904322e-06
-4.34998772284499e-08
1.01479284866649e-05
9.12312613043238e-06
-1.37652345371725e-08
9.14086384788024e-08
2.00226069653642e-06
-3.05525118737331e-07
-2.19553480254485e-06
7.9541748974535e-07
1.17378787312436e-05
1.09041900431994e-05
7.51152173309789e-06
1.09929668114101e-05
8.93420380865884e-07
1.28645083430598e-05
1.35367737126393e-05
-3.96843046034549e-07
9.39663012167502e-06
3.76908553787606e-05
2.10749779307829e-05
1.91932690865094e-05
4.07639572818052e-06
2.12900018216779e-05
-1.25533823395103e-06
5.17752121653286e-06
5.88948726048716e-06
8.99114962859056e-06
7.74725656801848e-06
2.02712008235336e-06
1.47190094723515e-05
4.24275592867702e-06
9.56970158332031e-07
1.10280105172172e-05
-1.43262638580269e-06
6.41087428015746e-05
2.40632105230313e-06
1.41537302645185e-06
1.0132138175224e-05
9.14497334475261e-07
3.10489591800538e-06
1.35701030565619e-05
2.28056037299753e-06
6.19068262210497e-06
1.86788905420496e-05
4.50795412383189e-06
9.55216439695575e-06
2.66517745043269e-05
9.10893952758807e-06
1.1445463983663e-05
4.22159723270154e-05
1.81432465370536e-05
5.79373985430309e-05
5.09079278905365e-06
1.34795459187642e-06
4.8417730388814e-06
4.36040960965079e-06
2.91415437705277e-05
6.91020796185667e-05
4.74847808749475e-07
6.08550564046013e-05
-6.44821950303021e-07
9.13550191647272e-06
8.26117170689937e-07
9.39671423622286e-08
1.21562507933938e-05
2.1091930064876e-06
1.47571699861079e-06
1.63849178603084e-05
4.05592830725708e-06
3.15450796107552e-06
2.15652377294005e-05
7.60621454555608e-06
4.1606106269144e-06
2.82521951347781e-05
1.49305612085793e-05
4.67065606682227e-06
3.60283343879079e-05
3.60347177156623e-05
3.09758654374749e-06
6.24993769155302e-05
-2.27111049899117e-06
7.99026514993256e-06
7.01826428759252e-07
-1.94038895116121e-06
1.06810729265894e-05
1.81529829788804e-06
-1.47253807423058e-06
1.44384371674622e-05
3.53328273220312e-06
-6.48766982328557e-07
1.85880937549225e-05
6.25440553908814e-06
-7.35582734715952e-08
2.28884158690172e-05
1.12944496297791e-05
3.38981325103646e-07
2.70623645945499e-05
2.15856053025329e-05
-2.11191974051086e-05
-8.40688394471518e-08
2.52386438416719e-05
3.05022227482898e-05
-6.41444407369419e-08
3.95764190682965e-05
-3.57410348645411e-06
6.79900834734223e-06
5.82782220340628e-07
-3.63118636168048e-06
9.19310750827267e-06
1.52518878012614e-06
-3.67397524974343e-06
1.25162644286501e-05
2.99521617181373e-06
-3.48179255563055e-06
1.60763754015274e-05
5.21028536657312e-06
-3.09929908822402e-06
1.92728045898318e-05
8.75346168991444e-06
-2.70775409000418e-06
2.18697420081466e-05
1.50317228903525e-05
-2.35092871691072e-06
2.21119204526752e-05
2.32016418231856e-05
-1.08473387243522e-05
-1.86891025398292e-06
1.55062795544603e-05
2.45832483301495e-05
-1.4278342824038e-06
2.78334135832133e-05
-4.64792016332228e-06
5.56942428108008e-06
4.70067380355893e-07
-5.02705966122849e-06
7.67860674496623e-06
1.24439402005938e-06
-5.49369900779689e-06
1.06089393746704e-05
2.47038827000132e-06
-5.6994430002154e-06
1.37530654291897e-05
4.29671754095163e-06
-5.59008582442382e-06
1.64901725664769e-05
6.9690417177431e-06
-5.34769887906271e-06
1.8498862777743e-05
1.10949711803535e-05
-5.0882020232414e-06
1.91421170541002e-05
1.6903068761628e-05
-4.69521977782818e-06
1.64761710141375e-05