/*--------------------------------*- C++ -*----------------------------------*\
  =========                 |
  \\      /  F ield         | OpenFOAM: The Open Source CFD Toolbox
   \\    /   O peration     | Website:  https://openfoam.org
    \\  /    A nd           | Version:  12
     \\/     M anipulation  |
\*---------------------------------------------------------------------------*/
/*   Windows 32 and 64 bit porting by blueCAPE: http://www.bluecape.com.pt   *\
|  Based on Windows porting (2.0.x v4) by Symscape: http://www.symscape.com   |
\*---------------------------------------------------------------------------*/
FoamFile
{
    format      ascii;
    class       volVectorField;
    location    "0";
    object      U;
}
// * * * * * * * * * * * * * * * * * * * * * * * * * * * * * * * * * * * * * //

dimensions      [0 1 -1 0 0 0 0];

internalField   nonuniform List<vector> 
10063
(
(-0.000356779869887072 -0.0184258305081659 0.000433979897546399)
(-0.000341376050127721 -0.0174599456647892 0.000334198426490123)
(-0.000949818120707288 -0.0189777718729061 0.000445267784180863)
(-0.000326899526971215 -0.0167322748806218 0.000276265415883458)
(-8.44252743137349e-05 -0.0177727313312725 0.00102105850971554)
(-0.000903315237017035 -0.0179860915064279 0.000350979715618638)
(-0.000340312082083993 -0.0162657578268095 0.00018524799687356)
(-8.46271282154411e-05 -0.0170597930174241 0.000725942932192631)
(-0.00086803183975358 -0.0172253965288363 0.000320283149391237)
(0.000265432234908901 -0.017196596854379 0.00173973081317716)
(-0.000117929133836088 -0.0179498647806366 0.00104165725353322)
(-0.00112009991414912 -0.0187980359051684 0.000384737909338279)
(-0.000287548628072365 -0.0160653066087923 0.00010480160055017)
(-0.000104977014781486 -0.016559386404647 0.000411016744191426)
(-0.000865510290428415 -0.0167087937304646 0.000336821898949244)
(0.000253592536242333 -0.0165174097685228 0.00124882719376274)
(-0.000121239526607568 -0.0172327897539513 0.000759679260460053)
(-0.00106703188097478 -0.017991642372259 0.000399268641898312)
(0.000342914892877492 -0.015820339910207 0.00243603968996388)
(0.000796398136058901 -0.0171982918315461 0.0017619777616226)
(0.000147312805213367 -0.0183889466813785 0.0010822264045657)
(-0.000954471703733027 -0.0199546809670315 0.000428487457450816)
(-0.000297847272113988 -0.0162626145913619 -6.18847568952831e-05)
(-9.08008994975404e-05 -0.0163129858943571 3.31974419738608e-05)
(-0.0007766685506517 -0.0165063200585397 0.000301859741530542)
(0.000233585456031482 -0.016029602927708 0.0007548647553555)
(-0.000166235614572399 -0.0167216696521 0.000507125490911758)
(-0.0010242008661712 -0.0174078564742493 0.000493504251172035)
(0.000329850156242747 -0.0152160534058833 0.00177538824935482)
(0.000762329659536592 -0.0165243537964751 0.00127886294546851)
(0.000135946780757848 -0.0176563045299669 0.000816700688774789)
(-0.00088780430524453 -0.0190916209574928 0.00048417741962017)
(0.000331869461908588 -0.0140955385913891 0.00305189297742783)
(0.00105839502663512 -0.015798470067781 0.00246196196240298)
(0.00146429119177445 -0.0173846377573436 0.00180563379619155)
(0.000754531279335716 -0.0192232771197882 0.00113694488779387)
(-0.000513819057434849 -0.0215414808903812 0.000445764730628792)
(-0.000296095010099998 -0.0167983228306632 -0.000505958769207458)
(-6.02562373079871e-05 -0.0163324161586343 -0.000397316698026205)
(-0.000771272342323277 -0.0167167128195893 0.000107299835135685)
(0.000196670548917906 -0.0157148671947259 0.000173005523912656)
(-0.000151661334371907 -0.0164361837391222 0.000191712196370972)
(-0.00094895339482496 -0.0171726061005616 0.000532793776479875)
(0.000311146797721632 -0.0147585255753981 0.00113274853888837)
(0.000704422145624874 -0.0160449282144719 0.000798057269492375)
(9.24084868550424e-05 -0.017120892074838 0.000634577551795391)
(-0.000819593078836637 -0.0184372681485905 0.000630930108472062)
(0.000322175581028648 -0.0135870424952346 0.00226493662096216)
(0.0010199119123746 -0.0152003740354361 0.00180569045255041)
(0.00140662317144105 -0.0167113265110563 0.00133524284687947)
(0.000733983730693397 -0.0184596681707759 0.000901585034057491)
(-0.000440781803821816 -0.0206139566765302 0.000512415430491383)
(0.000303209825779567 -0.012252696548385 0.00355290195409954)
(0.00104868162782457 -0.0140324255458724 0.00307581919542647)
(0.0019248850169696 -0.0158462485755307 0.00250323651794788)
(0.0024442884770825 -0.0178992583767574 0.00187072087947981)
(0.00164364685374417 -0.020628601384585 0.00118813275048559)
(-2.58943995673485e-05 -0.023628382925138 0.000415289849875465)
(-0.000195739356109779 -0.0177577815423689 -0.00112856169464573)
(-0.000126486168429191 -0.0166668506196818 -0.00104281371448157)
(-0.000805379192211528 -0.0172475224824812 -0.000346184252734004)
(0.00022465990598594 -0.0156244622587367 -0.000496490026921093)
(-0.000109346109199436 -0.016476349591205 -0.000297992240917287)
(-0.000905988246115052 -0.0173688727500898 0.000403240436218664)
(0.000279571123127319 -0.014428702056234 0.000430412021508166)
(0.00060474315142198 -0.0157128161240207 0.000274178967101426)
(8.48081676072751e-05 -0.0167800285198019 0.000427865616929838)
(-0.00074540300227806 -0.0181387283422512 0.000740285066550549)
(0.000308362850592971 -0.0131729578368774 0.00151179760682419)
(0.000965999593427306 -0.0147497855515919 0.00117422219926588)
(0.00131458787588451 -0.016237024570393 0.000877655558140798)
(0.000697003376933355 -0.0178845084212168 0.000778590002601909)
(-0.00036303667054138 -0.0198842549593747 0.000681220774641587)
(0.000296740361602661 -0.0118472733714482 0.00269474422939712)
(0.00101854890382466 -0.0135302111029004 0.00229244184085692)
(0.00185970509267855 -0.015255501633752 0.00185919558607712)
(0.0023577323909663 -0.0172188700628672 0.00141657516368043)
(0.00161625169156206 -0.0198158311671982 0.000971201795542943)
(4.34302268912932e-05 -0.0226332497904391 0.000413362632992783)
(0.000264810757275054 -0.0104364808413995 0.00392535937834583)
(0.000965449242492331 -0.012166916401692 0.00356931196197036)
(0.00191717565403212 -0.0139795818702634 0.0031101660271014)
(0.00312715861608717 -0.0160422635595379 0.00256595647326293)
(0.00389184444942256 -0.0189623925242455 0.0019556399517489)
(0.00235681149744437 -0.0230600663431825 0.00121247023068522)
(0.000104999784802352 -0.0264825529612904 0.000390173449471513)
(-0.000489972467721977 -0.0180587891781443 -0.0014457437088411)
(-0.000257763739862069 -0.0174538262430067 -0.00209082207920964)
(-0.00130689447739771 -0.0181573419367683 -0.00141362652278506)
(0.000187622354250298 -0.0157561987018408 -0.00132478545386088)
(-0.00018633928775715 -0.0168472332514454 -0.000889733467789064)
(-0.000964558045500442 -0.0179153937862445 -3.50195299120795e-05)
(0.00027487423032241 -0.0142006077647846 -0.000419155261432193)
(0.000619467345397466 -0.0156079185593985 -0.000419848448204738)
(0.00012441908284931 -0.01680937112629 6.36532689610934e-05)
(-0.00067475674068143 -0.0183195465683948 0.00068846686152672)
(0.000288504663958238 -0.0128334501698178 0.000714090876560086)
(0.000880235303304475 -0.0144304005573943 0.000510759936444406)
(0.00119067276593508 -0.015878543603962 0.000455030649700151)
(0.00066656633521117 -0.0174907614070477 0.000641485482846628)
(-0.000297138216923416 -0.0195031609944345 0.000826139868481303)
(0.000286860431683254 -0.0114851361983292 0.00188865605482458)
(0.000976363189847392 -0.0131222112608205 0.00154519436960484)
(0.00177380198944399 -0.0148138234368155 0.00124940277554007)
(0.0022373743552295 -0.0167341179115487 0.000998364738758785)
(0.00157531008470902 -0.0191861791441955 0.000882302044632926)
(0.000125144139036641 -0.0218217122691985 0.000510669265930154)
(0.000261124457851343 -0.0101337424150631 0.00304651979091305)
(0.000944611296250071 -0.0117672213231207 0.00271580590725517)
(0.00186420074791065 -0.013487276029491 0.00233843193488629)
(0.00302891666709623 -0.0154577091285104 0.00193906727012522)
(0.00376381387035562 -0.0182564543046098 0.00151541213978244)
(0.00231744482299481 -0.0221591445529666 0.000982171912463072)
(0.000138619736945824 -0.0253933691792053 0.000279194055065871)
(0.000223520081263044 -0.00874583839948571 0.00417429581501138)
(0.000840504880827899 -0.010351633844032 0.00393341945144346)
(0.00174824790407216 -0.0120404034711548 0.00359241821113164)
(0.00305788640569914 -0.0139073765757627 0.003160828231752)
(0.0050898504503831 -0.016473027814539 0.00266077770894974)
(0.00599722863127611 -0.0208719048648371 0.00206285906105528)
(0.00155783713447345 -0.0274228005100213 0.00123003342785045)
(-0.000523023827834181 -0.0184579844046493 -0.000898287358557476)
(-0.000215927277865928 -0.0194042782406331 -0.00290293931743875)
(-0.0014424690110424 -0.0186261745944634 -0.00231101002508538)
(2.98620321234769e-05 -0.0162344701481949 -0.00280003352559814)
(-0.00020586889886141 -0.0178319105852929 -0.0014637697069177)
(-0.00174653631970328 -0.0188110011315198 -0.000850939357273839)
(0.000273558956753336 -0.014124478498998 -0.00150030523795938)
(0.000552397046956038 -0.0157707027302908 -0.00139012033399917)
(0.000186335421247089 -0.017160681912537 -0.000365285222249297)
(-0.000694751172329971 -0.0188991552891752 0.000385662074366749)
(0.000262879474623934 -0.0124965164508894 -0.000201361027016331)
(0.000819517458992114 -0.0141684051761673 -0.00033193742242162)
(0.00116145372961058 -0.015742448496881 -5.05392669212174e-05)
(0.000711191375806158 -0.017491911485905 0.000302671596522297)
(-0.000225138502527699 -0.0196581194372025 0.000819450733399079)
(0.000273258858249817 -0.0111457657226081 0.00107956735273041)
(0.000916303768214915 -0.012794343953008 0.000755663724878286)
(0.00165164871536461 -0.0145102033510433 0.000635200041931172)
(0.00210702863189387 -0.0163480503853422 0.000642523684312393)
(0.00151274947492263 -0.0187384084090296 0.000786871197786521)
(0.000164448441425734 -0.021335029386286 0.000622984676237143)
(0.000254522740731498 -0.00983307185318262 0.00223115955934135)
(0.000913633836636253 -0.0114101362139216 0.00191511859063449)
(0.0017930186914764 -0.0130906486079337 0.00160688335302063)
(0.00290985288566435 -0.015023976400662 0.00135315724165673)
(0.00361239158469845 -0.0177423879583557 0.00112478846565701)
(0.00229610204110554 -0.0214347717367363 0.000874345480969717)
(0.000183889547814002 -0.024507360636874 0.000134496480179732)
(0.000222015093625855 -0.00853881413836763 0.00331419987727127)
(0.000828380535028309 -0.0100533988632411 0.00305981733927172)
(0.00171099484455532 -0.0116510523653388 0.00275051570683918)
(0.00297678931210517 -0.0134293529297037 0.00240725317850775)
(0.0049377362548356 -0.0158899504335646 0.00205260015859359)
(0.00579856335495813 -0.0201129691609414 0.00163083392342685)
(0.0015260480776224 -0.0263582027558978 0.00101084928784141)
(0.000183496616513967 -0.00722767605725703 0.00431514372883981)
(0.000703850234671861 -0.00867195278263376 0.00417621825396384)
(0.0015058658126923 -0.0101949633950174 0.00394468636718378)
(0.00271220920651756 -0.0118139259482931 0.00362607149586646)
(0.00460836685736687 -0.0137328905212102 0.00323885670927812)
(0.00883837857728646 -0.0174591832687551 0.00282427401198546)
(0.00712048335284587 -0.0309105745733871 0.00214441473096663)
(-0.000467476415513519 -0.0198944864901177 -0.00016552411907178)
(-0.000199228910553673 -0.0200983010819395 -0.00250277791728507)
(-0.0011767560042538 -0.0183980792667106 -0.00137133264598047)
(0.00017631379646309 -0.0171985830574756 -0.00539316333425969)
(-0.000645799238785588 -0.02020917673091 -0.00353389342261412)
(-0.000150107617138655 -0.0202148975450579 -0.00255474494584412)
(0.00024464192535874 -0.014110343278229 -0.00304969473327681)
(0.000364452155664717 -0.0162248870068946 -0.00260349737175374)
(0.00042941692979717 -0.0180340795646677 -0.000727236756986077)
(-0.00116309135489235 -0.0194672378372211 -0.00169013556948063)
(-0.00111914800717708 -0.0198346825427875 2.24318591593626e-05)
(-0.00123150132686141 -0.0193323409461884 -0.000460838403198308)
(0.000267921194980611 -0.0122266839933913 -0.00126638565366987)
(0.000792824374127441 -0.0140965175997262 -0.00146621603381346)
(0.00118882621485145 -0.0159368513345768 -0.000745964268163202)
(0.000861801818515296 -0.0178457459888852 -0.000252650179219231)
(-0.000200715215526303 -0.020266458975697 0.00059758066329806)
(0.000255955287740059 -0.010783719990029 0.000225851945658087)
(0.000830959273410219 -0.0124498985853851 -0.00013499011832948)
(0.00151888675325513 -0.0142219405629844 -7.79834359646469e-05)
(0.00205494659154294 -0.0161595585097538 0.000194248159646873)
(0.00151538461318629 -0.0187076689165489 0.000425234663139371)
(0.000195600411909496 -0.0214259145612776 0.000605806773650715)
(0.000245897304733825 -0.00952109407181392 0.00143945099712918)
(0.000871375025724786 -0.0110777776814883 0.00111314503223377)
(0.00169632412413795 -0.0127830130483152 0.000841965600967794)
(0.00275800066039563 -0.0147260317894174 0.000780405607858289)
(0.0034565768652416 -0.0173223219119516 0.000803050731759589)
(0.00220033108143805 -0.0209236004605296 0.000799214656607707)
(0.000195485874253314 -0.0238947446942345 -1.58962498731648e-05)
(0.000217773005512039 -0.00830362841889279 0.00252216685617378)
(0.000807403768864923 -0.00975666403138389 0.00224914552571363)
(0.00165728167407327 -0.01130505973852 0.00196223006622345)
(0.00287458477764397 -0.0130481227797478 0.00169710972461863)
(0.00476860730300599 -0.0154566843755026 0.00148960428117401)
(0.0056107424459441 -0.0195395387236313 0.00128139617867481)
(0.00151625607736645 -0.0254717460433628 0.000782682667133497)
(0.000183633534692349 -0.00710554154328258 0.00350044810430615)
(0.000698805193951245 -0.00846812336681605 0.00332123788370002)
(0.00148388573390157 -0.00990577106821429 0.00308244601312819)
(0.00265522076765201 -0.011441328863699 0.00280277609298449)
(0.00448912904740871 -0.0132757598521973 0.00250766987968726)
(0.00857605052140553 -0.0168635285897469 0.00223235072529205)
(0.00688299528863862 -0.0297732776422254 0.00184082948034115)
(0.000147351375455264 -0.00589392329918766 0.00436675411080541)
(0.00057355772881356 -0.00716625487784494 0.00431339881061188)
(0.00124981126916232 -0.00851652620663682 0.00417791437332117)
(0.00228394625594641 -0.00991156807119298 0.00396088885947657)
(0.00387423587063348 -0.0113786459634706 0.00367767767197996)
(0.00665799336723022 -0.0131225523505394 0.00337027250289139)
(0.0120592571932357 -0.0113424451505297 0.00325147068476886)
(0.0238036386582564 -0.0112638536376654 0.00290346312993302)
(-0.00156571769025441 -0.0209964447616919 0.000320826052797092)
(-0.000494319250763075 -0.0215456366385702 -0.00125056925072934)
(-0.00146698903042786 -0.0236894124196661 -0.00922315728657587)
(-0.000614903388873846 -0.0197642674345095 -0.00229096091271913)
(0.000264448086307725 -0.0196287311846235 -0.00212394318507495)
(-4.18648926706521e-05 -0.0142448659986151 -0.00607960233801577)
(-0.000295614080803898 -0.017027259299673 -0.00418177243170564)
(0.00071334397407468 -0.019067455934765 -0.00160704427386124)
(0.000251683407198187 -0.0118155643889555 -0.00259888284675976)
(0.000691866249537903 -0.0140700074139738 -0.00303666062640927)
(0.00111408515539015 -0.01662593070402 -0.00194950644144295)
(0.00102987776221568 -0.0187420951159917 -0.000886823179382896)
(4.98075693214463e-05 -0.0198736574508906 -0.00119913063574572)
(-0.000365943190830204 -0.0190406999134175 -0.00252125887200697)
(-0.00119600993095701 -0.021072271352522 -0.00034485775273408)
(-0.000419633999466918 -0.0211867211875095 0.000280073591001971)
(0.000251341206700123 -0.0103764312814867 -0.000734505338203218)
(0.000816512542784223 -0.0121878306981623 -0.0012124791647847)
(0.0014646715146771 -0.0141866567612874 -0.00103771086002213)
(0.00207721774873999 -0.0163408931255249 -0.000601768883964742)
(0.00160313858972682 -0.0191178101164956 -0.000356137987719639)
(0.000174042983920617 -0.0219995769288202 0.000334667623168498)
(0.000239127891554531 -0.00917145215755965 0.000648731835474284)
(0.000815830087774404 -0.0107300671571809 0.000268982675357408)
(0.00155857914063279 -0.012455111785806 2.3370254784242e-05)
(0.00258303717906122 -0.014410414119308 0.000157562510696637)
(0.0033301903080602 -0.0170767208879693 0.000331648793131067)
(0.00211624636294813 -0.0208559084077002 0.000457365816890024)
(0.00019505182789334 -0.0238469841244993 -0.000160198873700162)
(0.000211471401365154 -0.00803353521944507 0.00176947236254979)
(0.000779681975847977 -0.0094491808323004 0.00145989484705594)
(0.00158575152703181 -0.0109890089957911 0.00117572749096193)
(0.00274523504718272 -0.0127623520523137 0.000962372551132219)
(0.00456905989675362 -0.0151547816903118 0.000951452468172794)
(0.00543650271657825 -0.019065566962827 0.00102798888075257)
(0.00144846476586073 -0.0248474904901131 0.000528184429573277)
(0.000181182889840528 -0.00693552223100174 0.00275289130085742)
(0.000685387488484251 -0.00823577960370408 0.00253367441729555)
(0.00144673686607806 -0.00961833659533842 0.00228159456668504)
(0.00257704534752732 -0.011112893674932 0.00203284447142937)
(0.00434924413787883 -0.0129147623034651 0.0018212753964514)
(0.00830415846083159 -0.0164212815424479 0.00168899234245004)
(0.00662316634434053 -0.0288666728289268 0.00159935851987401)
(0.000148658773184603 -0.00584404808513497 0.00361310821390579)
(0.000573823399840619 -0.00704626729403177 0.00350328873074482)
(0.00124045420442678 -0.00831967925561458 0.00333384656721305)
(0.00225018521125222 -0.00963774281009986 0.00311724232386272)
(0.00379329853029905 -0.0110322308505783 0.00287871689956096)
(0.00648703841829124 -0.0127043091139342 0.00266024011786446)
(0.011716430855552 -0.0109838978910339 0.00265937224433451)
(0.0230385579840407 -0.0108864823882283 0.00223776654720606)
(0.000116416880957636 -0.00473805937681472 0.00434761556205752)
(0.000458338908963499 -0.00584376597321209 0.00436303612050525)
(0.00101155699904332 -0.007027528446762 0.0043085216185301)
(0.00186513822701189 -0.00823624390260817 0.00417950918921174)
(0.00314849824099823 -0.00942027122299856 0.0039857176346399)
(0.00515829477637577 -0.0105009371749428 0.00375677258371328)
(0.00841738347422032 -0.0102047476330845 0.00358335441592573)
(0.0119944150523315 -0.00647495214004227 0.00362572357187529)
(0.0169790230649895 -0.00343575608971589 0.00346860726089635)
(-0.00248195557555329 -0.0240811755741157 -0.000254302425845681)
(-0.0014810122427569 -0.0216589726471647 -0.000825859991029517)
(0.000424829253796948 -0.0255679389241634 -0.00498403964090358)
(0.00440971260988023 -0.0140333689454757 -0.0251003651123889)
(0.000123834947438153 -0.0091307059723006 -0.00867333539728493)
(0.000608168700071529 -0.014398983985779 -0.00557850981420841)
(0.000235064567048171 -0.0111046555799405 -0.00436582466052259)
(0.000384614464496201 -0.0180310132363514 -0.00364116308854484)
(0.00024325874624672 -0.00980222476232536 -0.00181475675242861)
(0.000762392168052903 -0.0118151769195398 -0.00263174360289971)
(0.00136878422542423 -0.0142908808155412 -0.0024354301455001)
(0.00192738403010224 -0.0169796725271649 -0.00197792608608878)
(0.000220358303782411 -0.0203471220994285 -0.00155858715329487)
(0.00170099272510874 -0.0199834543152081 -0.00142645002922951)
(-0.000852486097949193 -0.022552779451931 -0.000144101730006084)
(0.000123813691687872 -0.0228916499229944 -8.0615846892826e-05)
(0.000219754769632366 -0.00868964918708317 -0.000188732462059282)
(0.000792384240315926 -0.0103117651947639 -0.000694215214176637)
(0.0015116622999818 -0.0122076897561319 -0.000927744140816763)
(0.00249058092232643 -0.0143996431647028 -0.000681836243425803)
(0.0032268898135258 -0.0172459047163538 -0.000602077917004428)
(0.00201498846777544 -0.0212966373204563 -0.000310511394982742)
(0.00014865344409955 -0.0243308572567452 -0.000319340252814021)
(0.000204075432067502 -0.00771258336369265 0.00103635696729507)
(0.000752754434908298 -0.00910689659241524 0.000654724912867236)
(0.00149222284176789 -0.0106742993430358 0.000353875835426161)
(0.00257269750318559 -0.0124572192520452 0.00020818633900783)
(0.0043385778016172 -0.0148116033722005 0.000388631820003429)
(0.00524028284757116 -0.0187495932121796 0.00063787983980319)
(0.00134679266505936 -0.0246367185756112 9.31960409151129e-05)
(0.000176656126182712 -0.00671634646963153 0.00205317633204075)
(0.000665503519694006 -0.00796811881632652 0.00178489695442681)
(0.00139694536038343 -0.00932236277171155 0.0014991430179003)
(0.00247735624070358 -0.0108196910765941 0.00126743695718371)
(0.00418447082701089 -0.0126531405365018 0.00111679935221396)
(0.00803539416019633 -0.0160971346297771 0.00122152479468417)
(0.00643320642200292 -0.0280968248405983 0.00135335343139354)
(0.000147575771832527 -0.00573522221927827 0.00292162732715097)
(0.00056613355321704 -0.00687835545483877 0.00275966690574649)
(0.00121657337406483 -0.00809439714683593 0.00255534407650751)
(0.00219532826056944 -0.00936614592275411 0.00233232891232203)
(0.00368862742252341 -0.0107293008510712 0.00213097874260677)
(0.00629904846515719 -0.0123788479230195 0.00199511187672786)
(0.0113673308195284 -0.0108048602830671 0.00210944551563471)
(0.0224709539417513 -0.0106267955259993 0.00198161474709531)
(0.000118489494011166 -0.00474741040650377 0.00366246352456023)
(0.000462327679827112 -0.00579526955743992 0.00361337184090093)
(0.00101169533210404 -0.0069125151383815 0.00350852601847203)
(0.00185044348431568 -0.00805163208574646 0.00335359454884454)
(0.00310126564168439 -0.00917022869573551 0.00316768908986502)
(0.00505093107579481 -0.0101968251409024 0.00298481523185341)
(0.00821002704816685 -0.00990514313986239 0.00288571344216368)
(0.0116942945065692 -0.00628584490310116 0.00297396167190391)
(0.0165175999064799 -0.00332651871828375 0.00280782711757306)
(9.09366046417259e-05 -0.00374527136442991 0.00427435445747928)
(0.000361177639861 -0.00469754894267193 0.00434292272970112)
(0.000804508873996517 -0.0057265783022145 0.00435413142162645)
(0.00149305588518368 -0.00677811166627212 0.00429959312165108)
(0.00251261136758994 -0.00777973712568008 0.0041825423444945)
(0.00400766271477353 -0.00861336872696809 0.00402257572559087)
(0.00618779165725046 -0.00876281193748735 0.0038663210496216)
(0.00878510583677358 -0.00710258416504899 0.00380193494161907)
(0.0100368074354987 -0.00379697785729799 0.00387465702880708)
(0.0121817239986415 -0.00162633777211755 0.00379253274438284)
(-0.00211920060252952 -0.0269200569915196 -0.000182873357802172)
(-0.00165188764122511 -0.0244763147278162 -0.00121079294860086)
(-0.00167947245231049 -0.0243902085230907 -0.00528365319932944)
(-0.00107829807728341 -0.0076886369383029 -0.024974475317969)
(-0.000157617523956885 -0.0114391584226145 -0.0245396884822715)
(-0.000599875070417093 -0.0170421800303471 -0.0150545430546031)
(9.06508571592397e-05 -0.00493480031083243 -0.00889774673516624)
(0.000768581944983036 -0.0110388817434804 -0.0148944769931915)
(0.000145553242884576 -0.00838084642368013 -0.00586002009724676)
(-0.00104268838804356 -0.00981562058553873 -0.0085247815786295)
(0.00131691577083428 -0.0153140209437537 -0.00510031219526785)
(0.000760941109941058 -0.0112828149917025 -0.00455441618723199)
(0.00024278858274978 -0.00890750894197733 -0.00294215446818977)
(0.00078560041967734 -0.0181163762003969 -0.00426260539975743)
(0.000211817497027551 -0.00813712794715045 -0.00104382477661686)
(0.000767759413651244 -0.00976340339247598 -0.00178169023267183)
(0.00147177464379552 -0.0119035130506748 -0.00214690724168652)
(0.00243715500193205 -0.014583174793124 -0.00198775527830958)
(0.00304045220899875 -0.0179699716514345 -0.00201698486184937)
(0.00108329628840268 -0.0215391246499844 -0.00180726692801407)
(0.00193918306274222 -0.0222396906882766 -0.00124949756991714)
(-6.38428654464493e-05 -0.0236584246342043 -0.000658584931022571)
(0.000162960332863973 -0.0258329521407686 -0.000672829718203269)
(0.000196094221691473 -0.00727687459875672 0.000351894196670138)
(0.000702455964040168 -0.00862544804959842 -0.000177742287193088)
(0.00144169533123784 -0.0102537107030296 -0.00059049682634851)
(0.00248987164770351 -0.0122341146018163 -0.00067800266317351)
(0.00419066187352176 -0.014783563742444 -0.000330776990557237)
(0.00508377603965405 -0.0189441333404626 -0.000149712501466283)
(0.00119769907325491 -0.0249827740693819 -0.000563862889587537)
(0.000170483974735861 -0.00643931364980102 0.00138942974925554)
(0.000641638142065084 -0.00764745912461977 0.00105569596207114)
(0.00134002459418374 -0.00899784543342991 0.000685774626566667)
(0.0023535070359383 -0.0105441124811471 0.000473455504302654)
(0.00397984604651912 -0.0123720079883354 0.000422412127835648)
(0.00765807689058657 -0.0157221727172962 0.000772337753394731)
(0.00609273253022247 -0.0275710582060357 0.000824655123399562)
(0.000144519021961514 -0.00557031291282911 0.00228016264370441)
(0.000552028430513299 -0.0066611480939109 0.00206351972138854)
(0.00118103537411607 -0.00783392868548196 0.00181396993812505)
(0.00212216462738839 -0.00908868227854599 0.00156351426729826)
(0.00356172445713351 -0.0104645844114215 0.00138761979267166)
(0.00609278065495798 -0.0121550941833616 0.00131706490078211)
(0.0110606520885131 -0.0106438648469167 0.00159137530669655)
(0.021796466536396 -0.0104463872180794 0.00211278305292401)
(0.000118414205847017 -0.00469313261118471 0.00303204262670617)
(0.000458944413045605 -0.00568800482981375 0.00292526064562055)
(0.000998002137443702 -0.00674989832937696 0.00277327516020041)
(0.00181495000849102 -0.00783901844227756 0.00258999727996003)
(0.00302812330717138 -0.00892202482521775 0.00240448684419756)
(0.00491916694439932 -0.0099323643288857 0.0022601152818281)
(0.00799194117286649 -0.00968701973323606 0.00223081577697102)
(0.0114262465534723 -0.00617078699821964 0.00236968514214954)
(0.0161766171618687 -0.00326365027885357 0.00219949992700603)
(9.3445925209784e-05 -0.00380137956449991 0.00365947833752981)
(0.00036756753968093 -0.00470772352361056 0.0036611946343668)
(0.000811279456136906 -0.00568138495442783 0.00361356084167056)
(0.00149261463788611 -0.00667198253979063 0.00351674286053296)
(0.0024918579722106 -0.00761388326035196 0.00338237082430049)
(0.00394735639689706 -0.00839795932782252 0.00323550172987777)
(0.00606400649419449 -0.00852912571269279 0.0031214738237948)
(0.00859065830239513 -0.00691302353815826 0.00311131252741262)
(0.00982022677298124 -0.00369878624689629 0.00321244870770543)
(0.0118960699613122 -0.00158008403459164 0.00312426958601632)
(7.04719711036163e-05 -0.002897707226017 0.00416127312443478)
(0.000281787874847666 -0.00371288738590423 0.00426927494207697)
(0.000632011721976719 -0.00460161839517679 0.00433183581439522)
(0.00117893645476335 -0.00551653280695212 0.00433845602001165)
(0.00198231161294333 -0.00638699000106472 0.00428699844833096)
(0.0031179175474196 -0.00710516078148965 0.00418850368182843)
(0.00467355425367077 -0.00741047721730843 0.00407043325596445)
(0.00655999071099903 -0.00674975653101889 0.00398055605632435)
(0.00806135171621548 -0.00478706550690033 0.00397050402996649)
(0.00809835884549307 -0.00233766247847444 0.00403358334711406)
(0.00915022547944671 -0.000917852305357812 0.0039904636561605)
(-0.00133535726222432 -0.0287131644483135 -0.000317202300752899)
(-0.00074332499472682 -0.0270470475966689 -0.000960156752441511)
(-0.00192356850554235 -0.0256157343430184 -0.00540240516028394)
(-0.000599275989697407 -0.0132155307670689 -0.0233032798960733)
(-0.000173513472792985 -0.00364467041804763 -0.0185948720011258)
(-0.00126883930888952 -0.00955947806504386 -0.0130779493571983)
(0.000562446711777767 -0.0119767031746498 -0.00794487188380843)
(0.000523034939681545 -0.00303581682070463 -0.0126037270824634)
(0.000173171370624569 -0.00313489466960811 -0.00694307948349726)
(1.23531751740258e-05 -0.00581196988339317 -0.0062281889802446)
(-6.95196874797323e-05 -0.00203536070177168 -0.0109466128147904)
(-0.000520870563140575 -0.00931162516317653 -0.00960533970296503)
(0.00256513097065362 -0.00884566502610856 -0.010928222668718)
(0.000249921827687995 -0.00731668806895004 -0.00381009400882255)
(0.000481411749947572 -0.00835919888979952 -0.00623744330655159)
(0.00250352486453463 -0.0155265137291743 -0.00421334254177752)
(0.00146025231030041 -0.0117192557265049 -0.0042106942390056)
(0.00287361996107984 -0.013101530135984 -0.00788754462047496)
(0.000726366139327754 -0.00887459907942924 -0.00291474872032191)
(0.000199937097021817 -0.0073224030340559 -0.00183685509671727)
(0.00181756747293652 -0.0193580692644001 -0.00335476642539265)
(0.000178537010544138 -0.00675632157323913 -0.000328360727166841)
(0.000672186309132729 -0.0080772251478117 -0.00100702709261747)
(0.00140327843402578 -0.00973044079728851 -0.00168954101452396)
(0.00247576485727244 -0.0119709056900053 -0.00193091499900513)
(0.00408379508715931 -0.0153117408408872 -0.00158966633684577)
(0.00500241084516237 -0.0200068641697443 -0.00129730338334831)
(0.00179352217759417 -0.0227679172175479 -0.0020232892506745)
(0.000731507777835265 -0.0262413429042119 -0.00145751803700154)
(0.000147943478803617 -0.0275442835783588 -0.00101951620641051)
(0.000162828287366284 -0.00608984765283125 0.000759340923045975)
(0.00061531636782281 -0.00722125879242045 0.000366627618087944)
(0.00127111495886441 -0.00852005486019601 -0.000141730357431897)
(0.00226412838420079 -0.0101266812287232 -0.00045437292430374)
(0.0038495389479346 -0.012160485448163 -0.00037267024648501)
(0.00738251634753488 -0.0157131199478001 0.000128909173608112)
(0.00579027689033238 -0.0276316928442517 -0.000181142631757685)
(0.000139793115012239 -0.00534692181130315 0.0016820088701009)
(0.00053277211507105 -0.00638569846521578 0.00140327689037436)
(0.00113725571274103 -0.00751891543772107 0.00109088950162478)
(0.00203383915185188 -0.00879008108105131 0.000758618628243461)
(0.00341505110977012 -0.0102288973085924 0.000613542523205696)
(0.00585191257241021 -0.0119111491254675 0.000671476615447591)
(0.0106284356825689 -0.0105633364816607 0.00120097273216997)
(0.021298236847291 -0.0103242625350003 0.00263854050458266)
(0.00011654136321421 -0.00458071395593069 0.00244930773523939)