/*--------------------------------*- C++ -*----------------------------------*\
  =========                 |
  \\      /  F ield         | OpenFOAM: The Open Source CFD Toolbox
   \\    /   O peration     | Website:  https://openfoam.org
    \\  /    A nd           | Version:  12
     \\/     M anipulation  |
\*---------------------------------------------------------------------------*/
/*   Windows 32 and 64 bit porting by blueCAPE: http://www.bluecape.com.pt   *\
|  Based on Windows porting (2.0.x v4) by Symscape: http://www.symscape.com   |
\*---------------------------------------------------------------------------*/
FoamFile
{
    format      ascii;
    class       volScalarField;
    location    "400";
    object      k;
}
// * * * * * * * * * * * * * * * * * * * * * * * * * * * * * * * * * * * * * //

dimensions      [0 2 -2 0 0 0 0];

internalField   nonuniform List<scalar> 
10107
(
2.09576113744649e-05
1.92362552859336e-05
6.70597528678878e-05
1.71430174503249e-05
1.431952216778e-05
3.08200755605043e-05
7.0814131466486e-06
4.284674065819e-05
9.42177277474986e-05
7.78915907834838e-05
7.773803350454e-06
2.31031529885276e-05
5.54338383698145e-06
2.53806608011666e-05
2.80972210521433e-05
1.81738495163466e-06
1.56500071656172e-05
2.53758759480375e-05
6.29855209241203e-05
6.8738963996514e-05
9.00481525478708e-05
0.000122455549010051
0.000104628959114663
7.58139006450831e-05
7.65924299067923e-05
2.96331715330865e-06
1.22641254599265e-05
2.09173657411534e-05
7.38034138599362e-06
7.02710707377118e-07
3.04693782592219e-06
2.44109673168156e-05
9.984254253219e-06
1.80172331857539e-05
4.29142299801781e-05
1.74450144334857e-06
3.90905043708255e-06
6.08081314978188e-06
4.22751489984145e-05
5.68457235725017e-06
3.06185244202119e-05
2.80439108377738e-05
0.000122341392990172
7.60181759886947e-05
5.98720982245663e-05
5.4893405009796e-05
7.88140361022133e-05
8.51132534346678e-05
9.98630675067148e-05
6.93956536748152e-05
7.77265577284255e-05
3.80997608539518e-07
4.02370594268281e-06
1.00882816960331e-05
1.10042527779104e-06
1.91154728070698e-05
3.25601763787022e-06
1.04895265230013e-06
2.82247983360398e-06
7.20017852544067e-06
6.66151905940116e-06
3.7623686467676e-05
3.04956396508942e-06
2.50767679295371e-06
1.73981217172972e-05
2.72772874708578e-05
5.90412641587431e-05
3.36438994269004e-06
9.9836690179166e-06
8.88646859979851e-06
5.67879001082108e-05
3.39252205615219e-05
1.47788349039535e-05
0.000203343050255377
0.000129600929533046
6.09979491803161e-05
4.97814767758324e-05
3.58474956852712e-05
8.58500169788834e-05
6.84866869997283e-05
4.59664398281132e-07
1.75500775488609e-06
1.12931425407862e-05
5.36734144394338e-07
8.50613778354228e-07
6.45898609527043e-06
5.45524787781391e-06
2.07929590743786e-06
4.12584345731606e-07
2.92294303275754e-06
3.96031850329207e-06
8.58206960383894e-06
2.76732171741052e-06
2.23020888191966e-05
5.03698302805005e-07
3.96691509635823e-05
1.31872579514356e-06
8.97229418574301e-06
4.52831232766947e-06
1.97782833590919e-05
1.15021499795131e-05
3.91044264120992e-06
0.0001269834482504
6.17503937967235e-05
2.50931155221967e-05
1.17340650360249e-05
0.000283312828883489
0.000206801145465994
0.000131864596432898
7.71765195707521e-05
1.51783192469356e-06
3.30446231733568e-06
3.0469293575401e-06
2.5018894671793e-07
1.77340956193061e-07
2.36267922147854e-06
4.95796233707426e-06
5.29473335438659e-07
7.70874239492815e-07
7.14671279124803e-07
9.58611125064155e-07
1.65244684213994e-05
5.03389381658056e-06
4.42541151338102e-05
5.54075832656344e-07
2.98878447911837e-07
4.3521765502012e-06
4.57748705143749e-06
1.56265683127335e-06
2.04992015282479e-05
8.89420542988394e-06
1.18552355268109e-06
5.53035689930625e-05
2.10903148166465e-05
4.91712624342512e-06
1.84258308010987e-06
0.00021893668433827
0.000130269678108934
6.13135482287065e-05
2.7935048530797e-05
1.99854729964356e-05
0.000285340917445627
0.000211892838551576
0.000148980509016923
0.000107420094359071
4.16052457022038e-07
2.09030669187907e-06
2.03359018941063e-06
8.83554876107956e-08
1.7818852870652e-07
3.58302359497241e-07
9.46055833101045e-07
2.88577657737382e-07
6.54507007321997e-07
1.838963318297e-06
7.60553536852647e-07
2.08529283191564e-05
8.61319035466845e-06
7.1269749352271e-05
1.7630234344413e-06
3.3103784245777e-07
4.60810685748333e-07
1.17618469798559e-06
1.16885952674081e-05
4.84506856274673e-06
1.13505165368602e-05
5.49813709419064e-06
8.5984536944138e-07
3.81365938916474e-05
1.28288761691211e-05
1.81232942210291e-06
1.03879524098466e-06
0.0001388186186999
5.57216263217339e-05
1.15994022955119e-05
3.07092909647465e-06
6.21757124677441e-06
0.000221350809447971
0.000134271634918363
7.43299578083776e-05
5.46116054764524e-05
4.25597579830363e-05
0.000288483757010281
0.000223805530281912
0.00017414389179979
0.000137041453358993
1.32781541286274e-07
4.91249854516007e-07
2.28286722855447e-07
8.03916385655668e-08
4.79463332993806e-07
4.37918449402786e-07
4.90177147509013e-07
4.49412685109998e-07
1.2339237705256e-06
1.20538091102946e-06
1.00769376972773e-06
2.17171768995936e-05
1.33719847827492e-05
9.18493164130715e-05
3.74608512109702e-06
9.00963889882131e-07
5.40803095773951e-07
4.68272519201416e-07
5.25721898336308e-06
2.81346506906181e-06
3.8585377514028e-06
1.89905818423401e-05
8.40574566002224e-06
1.48246435072232e-06
1.97868735293676e-05
7.73956937746073e-06
9.32341057138444e-07
6.66985738574271e-07
7.85555313913228e-05
2.57973942622652e-05
3.71644533810914e-06
1.92845097908601e-06
4.2516579318669e-06
0.00023754508573026
0.000138162550630544
4.54776136821102e-05
1.24473944921245e-05
1.87510962686018e-05
2.24306241040813e-05
0.000225759112900987
0.000152379911599066
0.000111210525086245
9.45720506807661e-05
6.81203804701434e-05
0.000294204288957782
0.000238862996753816
0.00019431740326167
0.000153565588555835
4.36727122634382e-07
2.26147605231887e-07
1.328697096408e-07
3.76159151194376e-07
5.64673843273437e-07
3.56910212407292e-07
4.80899895286113e-07
4.43501062861877e-07
3.76568354237174e-06
3.52274195392433e-06
4.68847140631543e-07
2.00185278900135e-05
1.64931221153542e-05
0.000100492492447427
7.43664024577803e-06
2.50209396590022e-06
1.01610657133682e-06
5.65216781147116e-07
2.05612255860684e-07
7.99230226144433e-06
1.58502808050809e-05
5.30463717480135e-06
5.31352136693727e-06
1.15539017177897e-05
1.47510534913726e-06
2.48880013944526e-05
1.14620950179239e-05
2.10000984657114e-06
8.1692928377877e-07
3.83469655749081e-05
1.22575559255408e-05
1.06461061572791e-06
7.82989220148091e-07
1.91580079614976e-06
0.000159464982195685
6.93818437524335e-05
1.22121830732891e-05
5.56785160643065e-06
1.10264324367842e-05
1.46800376426543e-05
0.000328816744101159
0.000239125188761835
0.000136281100589819
5.60450271947841e-05
5.02758988193746e-05
5.50645489893672e-05
4.70033898646177e-05
0.000238536963732543
0.000184269041101361
0.000150689001164331
0.000124480467792806
8.32004187134495e-05
0.000300706153852185
0.000249642873995608
0.000204766608751021
0.000159380264481402
3.81483434499493e-07
1.03169625744064e-07
5.19593463034118e-08
3.38482240128442e-07
1.20662982667313e-06
1.69573284716073e-06
1.80907932170663e-07
1.39367080936627e-07
4.51053821958111e-06
3.7008615204027e-06
2.01836910857155e-06
1.69913815281802e-05
1.67514123704468e-05
0.000100262815393615
1.17067865317489e-05
4.69233282597793e-06
1.791728980098e-06
7.24274461887479e-07
3.22582651455172e-07
8.46639351473018e-07
9.40794583725218e-06
1.66582311604825e-05
5.56124748769038e-06
2.26424865516141e-05
1.93007160892603e-05
3.74408393367455e-06
7.09145702957004e-06
1.68904208925366e-05
5.28268600564829e-06
9.94648392219942e-07
3.21844090531915e-05
1.34094948781508e-05
2.53124171600019e-06
8.58471174121994e-07
2.21610587622487e-06
8.78041018477101e-05
2.95580249827965e-05
2.19347924737094e-06
1.51097445491126e-06
4.57782796167799e-06
8.80472882378938e-06
0.000257597673681871
0.000156513518829577
5.39030343847216e-05
2.27888237677721e-05
2.6868965543724e-05
3.47023295168637e-05
3.31695211978382e-05
0.000410110764101317
0.000330903842006296
0.000242351201966969
0.000153962429566303
0.000110054806037827
0.000101454299012952
9.41354890702162e-05
6.59063572876925e-05
0.000256847475457019
0.000210577008129638
0.000174658628240111
0.000138865964472781
8.80295194674129e-05
0.000304362244682481
0.000254210230499539
0.00020725827028357
0.000157858302949865
7.39335287455161e-08
6.69713432980562e-08
2.64943909226644e-07
1.56019260208544e-07
1.06075320369662e-06
8.94784291798433e-07
1.18843598076834e-06
3.22257217615738e-07
3.13550260606422e-06
6.82016389127823e-06
1.41848418535675e-06
1.40118336063202e-05
1.48431468634791e-05
9.50322428369581e-05
1.40306832886347e-05
8.14880783457382e-06
3.20652528254629e-06
1.33718920879741e-06
7.63453487057106e-07
6.76425815074278e-07
3.72673747756277e-07
5.00561744620276e-06
9.17347621350427e-06
8.05980353168896e-06
1.94486469855037e-05
7.39352246886316e-06
1.78981025728469e-06
2.52455710431663e-05
2.03975326225227e-05
6.09558541789553e-06
1.49808832862109e-06
9.45387607965975e-06
1.93693849633695e-05
6.20662908757271e-06
1.88979059262237e-06
1.50273935296097e-06
5.03038260566196e-05
2.1384243457863e-05
3.1020518916345e-06
8.47875022314205e-07
3.67878746245912e-06
7.35679363124466e-06
0.000177001042811944
8.08379510908754e-05
8.99073170569405e-06
4.53616163051045e-06
1.26701263387909e-05
2.01197314160026e-05
2.29346342202183e-05
0.000352400214335513
0.000259254161274133
0.000153616866425373
7.64330903646707e-05
6.01156740096688e-05
6.55362732450266e-05
6.85560383635606e-05
5.05489076158873e-05
0.000484807664342452
0.000411531090470914
0.000334204071541057
0.000255379956253644
0.000193823214515229
0.00015946341616351
0.000139810519125312
0.00011634042381865
7.52593172100007e-05
0.000270624429239697
0.000225566778440545
0.000185264470835444
0.000142814924734881
8.62093728005235e-05
0.000303945317627239
0.000253242849566852
0.000204092577174238
0.000151792816155764
3.71398999656064e-07
8.13389854580083e-07
1.30330878842615e-07
5.80140275821013e-07
1.14522497198737e-06
2.03615679457339e-06
4.31272030864257e-07
3.25120624160449e-07
2.16060028215053e-06
4.21439056240268e-06
3.4547247921962e-06
1.14841168581024e-05
1.23814520811322e-05
8.67735529609382e-05
1.33774463224617e-05
1.07243557123895e-05
5.11036835842638e-06
2.18371456441367e-06
1.311181668843e-06
9.07516409014092e-07
3.54942916185069e-07
1.30912153216905e-06
3.61071598655542e-06
4.9299795975531e-06
4.14762812228856e-06
7.87386502674883e-06
5.89208947826333e-06
3.81981122388449e-06
1.65698432906493e-05
9.09634049994466e-06
2.139425570474e-06
9.37711738381105e-07
2.39253877295767e-05
2.00356320993585e-05
7.25204214080181e-06
1.89166031885287e-06
1.65897661441558e-06
1.71149782633584e-05
2.04396077123893e-05
5.42602114679345e-06
2.19192866731637e-06
2.80014692626401e-06
4.51899727098605e-06
0.000112834952863117
4.70493521006517e-05
5.9641741656438e-06
1.05656157105722e-06
6.41432487752767e-06
1.566275768338e-05
1.67883034429296e-05
0.000280451381216268
0.000174926978384987
5.39024522048669e-05
1.71839133990134e-05
2.88522543230145e-05
3.96284188531013e-05
4.80676353611053e-05
3.80010288978727e-05
0.00043938598351997
0.000354880755221491
0.00026289170873316
0.000174398570623345
0.000123307080064745
0.000108970397033656
0.000106034176898018
9.43138064677171e-05
6.20104747410818e-05
0.000554440092283546
0.000485312817324025
0.000413034360115633
0.000340825426087279
0.000275857077021965
0.000225912879654928
0.000189922677468239
0.000160013248543909
0.000126054672452796
7.67729648140777e-05
0.000277604562154476
0.000231283220064867
0.000187352349965001
0.000140279316658315
8.01661321500718e-05
0.000299564071294273
0.000247879050444875
0.000196865176788154
0.000142720053264193
2.7158316610922e-07
1.18341966995868e-07
5.78498791895587e-07
3.64854992827865e-07
1.28643114939108e-06
1.84705547569069e-06
2.11401983287615e-06
1.08809577585875e-06
1.48944366119502e-06
2.80480435947563e-06
4.05284338686378e-06
2.77307407219579e-06
9.23440895707151e-06
1.02178373210169e-05
7.74397119696167e-05
1.12327408808501e-05
1.10047942318542e-05
7.37105221079371e-06
3.14463916334494e-06
1.87020969434896e-06
1.38787148946039e-06
4.11404830480977e-07
7.4288535992766e-07
1.15848976359459e-06
3.26774296177774e-06
3.14226195491713e-06
2.7081068889379e-06
4.22170195579031e-06
3.25600606572442e-06
2.95387102274286e-06
3.18569394119559e-06
6.24262246375919e-06
4.17091977518579e-06
2.42342108193526e-06
2.88692869108085e-06
1.2004133464008e-06
1.3174501390462e-05
6.71896773451313e-06
2.59567186324415e-06
9.55977125848644e-07
1.15449374485107e-06
2.16431171820326e-05
1.84865875533017e-05
6.11904341225283e-06
2.51244911102023e-06
2.68987414118176e-06
3.39842194750206e-06
4.13637458845189e-05
2.47728277475319e-05
6.22037371472876e-06
2.36040215196066e-06
5.27358546882573e-06
1.00839065393368e-05
1.10311755212412e-05
0.000207059072379485
0.000108436394070154
2.50935129955118e-05
2.45411507851729e-06
1.11809638190657e-05
2.75923842569743e-05
3.5926822699053e-05
2.77332792679912e-05
0.000381904298468571
0.000282732014605999
0.000168393904788698
7.44830345480918e-05
6.27030889792662e-05
6.79455461170936e-05
7.62535394050159e-05
7.38441555959778e-05
4.93526285756519e-05
0.000519413860729922
0.000441010677631602
0.000358946025249568
0.000276721700928946
0.000210797176517706
0.000170634632571373
0.00015021821648694
0.000133123697309301
0.000108311639421637
6.64701843015486e-05
0.000618955300612373
0.000554155899454094
0.000484740556559916
0.000415035865062828
0.000349305132737432
0.000292017164649668
0.000244804926984242
0.000205229461406054
0.000168229878475204
0.000127521360654042
7.34914527074124e-05
0.00027853550364885
0.000230546738496448
0.000183727402257825
0.000133635054033168
7.17681810609934e-05
0.000291609383711002
0.000238883199302926
0.00018647986838262
0.000131496793118462
7.75259304752566e-07
1.83458208349104e-06
7.92325735643371e-07
6.47675006357442e-07
1.93189774357616e-06
2.48994710639025e-06
1.34668595012262e-06
1.16707417618116e-06
1.11258397771642e-06
1.76910321057674e-06
2.06344000999112e-06
2.43727517272858e-06
2.44916826001609e-06
1.91974268354864e-06
1.76588226368326e-06
7.16489506111429e-06
8.27580698042156e-06
6.77021192190131e-05
9.14736057918234e-06
9.6101801508218e-06
8.14732137895229e-06
4.40375133806648e-06
2.33336648336629e-06
1.97815689595785e-06
5.94468633610006e-07
5.27620628184857e-07
6.06963454067059e-07
8.20012908622164e-06
3.9797448429054e-06
5.32647846287705e-06
2.894915178069e-06
2.25697079192775e-06
3.75440639001605e-06
2.33740610551845e-06
2.39584246389123e-06
3.43884775653193e-06
2.84346699756116e-06
2.35231578153559e-06
3.31279084196124e-06
2.47695990060455e-06
3.32178581699236e-06
3.10637382624905e-06
4.68597841839709e-06
2.8357067757685e-06
1.82556987228178e-06
8.25640621418488e-07
2.31209365058992e-06
2.51218622469585e-06
1.00142862236991e-06
1.55246131343691e-06
1.30779178586703e-05
4.8304653563581e-06
2.38351390793976e-06
1.04243049285487e-06
1.29322560739608e-06
3.31957925140422e-06
2.67390887564102e-05
1.78234679664273e-05
6.18888620269626e-06
3.64449652639276e-06
5.08117300466809e-06
7.45822765715697e-06
8.70194191479147e-06
0.000109544217066743
4.57312278833543e-05
1.36186233347763e-05
2.88859826405401e-06
7.7913099823176e-06
1.76697725687866e-05
2.36953324911552e-05
1.85843297871925e-05
0.00031533051612263
0.000206447790171217
9.28724114970384e-05
1.52169445566626e-05
1.99586455893072e-05
4.23822521210817e-05
5.56078188863644e-05
5.69907881404846e-05
3.77101877553088e-05
0.000475698031371853
0.000384690465622061
0.000287284873149597
0.000189790111246096
0.000133773082993968
0.000113858114243836
0.000110954301817565
0.000106601973525898
9.080883956809e-05
5.58253022194536e-05
0.000592377889394008
0.000519944814719883
0.000442916637362066
0.000366549687244441
0.000297548857366542
0.000243527395629086
0.000204839880293817
0.000175533473431036
0.000147483845090618
0.00011376136531048
6.56206878314405e-05
0.000678153571667769
0.000618080809241007
0.00055178801315787
0.000483229210956989
0.000416691478320877
0.000355379086955272
0.00030106198810146
0.000253439741622376
0.000210519998433222
0.000168917147996263
0.000123738360242638
6.70903481691324e-05
0.000274577207671135
0.000225002153772252
0.000176013815921126
0.000124161071690139
6.31097985145153e-05
0.000280361016257677
0.000226707674812827
0.000173422061366405
0.000118415953867096
1.16875733764426e-06
1.95612160260813e-06
1.33313799604923e-06
1.41289713706324e-06
1.76325369548015e-06
1.74316814330227e-06
2.89185598324031e-06
2.30479303589611e-06
2.07690931306601e-06
1.87520148679267e-06
5.23511967458091e-06
6.47469068075571e-06
5.74538392674509e-05
7.42944380049057e-06
7.83235188795437e-06
7.50434482559849e-06
5.49498552056688e-06
3.21134850648958e-06
2.49250848451475e-06
1.04728468029826e-06
6.31806940256951e-07
7.12702459575818e-07
1.44440801734927e-06
1.64431958027109e-05
1.87636696687842e-05
1.15525887048142e-05
1.00025650002283e-05
4.43031226673013e-06
9.01203411018395e-06
7.20465023613355e-06
5.67408144825584e-06
5.04834872404275e-06
4.92876696066399e-06
2.30087835973983e-06
2.51255268232026e-06
3.81525692371017e-06
4.35892021008836e-06
3.73221941855025e-06
2.35757387336568e-06
1.94877410531477e-06
1.69524407888941e-06
4.42257915887315e-06
3.96919207568493e-06
2.61901282438841e-06
3.76881870752346e-06
5.02313877472783e-06
2.49808940562022e-06
1.48987677759302e-06
7.78631980637398e-07
1.28648298514794e-06
2.24725519923638e-06
3.60556833146096e-06
3.86854740260902e-06
6.24194141214883e-06
1.72317777784454e-05
7.3329062501909e-06
2.64482665598129e-06
1.50436985223159e-06
1.60542664562763e-06
5.11535212783687e-06
8.64159707167114e-06
6.71207769358892e-05
2.61088442245811e-05
1.00329347428559e-05
4.5778347771199e-06
8.02164353848713e-06
1.35220530843497e-05
1.68262954472134e-05
1.58720695273097e-05
0.000236919861277567
0.000117539441911137
4.45520139699076e-05
8.93098434846687e-06
1.11493550277732e-05
2.61172551702425e-05
3.81744420955162e-05
4.14210959690358e-05
2.76132062948202e-05
0.000424312827552581
0.000318766083108522
0.000206158975832265
8.59858812378542e-05
5.45635814318048e-05
6.96224670847704e-05
8.03700239063144e-05
8.3930536824623e-05
7.50982675508678e-05
4.53840910228711e-05
0.000559912139835391
0.00047735744658295
0.000389426189419413
0.000302003594328726
0.000230320730768653
0.000184059536155875
0.000159852819977907
0.000144344354328285
0.000126371643438965
9.97053091332199e-05
5.71871264805296e-05
0.000658031770789728
0.000592008738462354
0.000519331866479424
0.000445463165679041
0.000375931264573478
0.000315174948713497
0.000265099211426043
0.000224080967941557
0.000188217042302028
0.000152834634986161
0.000113024528071507
6.13627485612835e-05
0.000676866947152734
0.000614335901916591
0.000547468649039104
0.000480347512444329
0.000416308426507998
0.000357227905412719
0.000303614989343438
0.000254804161037762
0.000209214085421008
0.000164332050975534
0.000116356787220125
5.91245507269654e-05
0.00026652082552465
0.000215551261851144
0.000165050787634985
0.000112446029496377
5.38235263356417e-05
0.000265994673748753
0.000211619818577858
0.000157935556027218
0.000103602530892552
1.41268100837495e-06
2.32855296011918e-06
1.46194020414829e-06
1.65170436373389e-06
6.53401716492579e-06
5.00749208791929e-06
3.46138271947964e-06
4.76377691213367e-06
4.65085212026271e-05
5.85507593108967e-06
6.45034034731575e-06
6.37812054679518e-06
5.44742327617286e-06
4.02289114286071e-06
3.41302162204476e-06
1.71044341552226e-06
1.12174522202344e-06
1.00932271720749e-06
1.13515675820511e-06
1.49943561827818e-06
2.57275718928163e-05
4.2008087764602e-05
1.76985612807382e-05
4.15201318306053e-05
2.19863849110757e-05
1.44440489058763e-05
2.62160823729435e-05
1.16650466983263e-05
7.86714950251098e-06
7.36746283686766e-06
5.29691986948945e-06
4.8908866177307e-06
1.23005260825665e-05
5.06828755227112e-06
3.09733734467503e-06
5.41112215639098e-06
3.71969733085503e-06
7.00725650675656e-06
2.76339955831481e-06
1.77426751532516e-06
1.89817963753837e-06
4.523085230381e-06
5.40990955929239e-06
7.32673590847502e-06
5.52967922467447e-06
1.17695115965065e-05
3.71515102048676e-06
1.71745709711976e-06
1.0226081965227e-06
1.84115061717872e-06
6.14613143062266e-06
9.1482002479515e-06
7.86794956101797e-06
8.64060498291467e-06
1.22249969210193e-05
4.88516651815296e-05
1.55345751931974e-05
5.42394490260599e-06
3.02582930005556e-06
2.8548979387019e-06
7.0198778975041e-06
1.61782684778663e-05
1.4856959301335e-05
0.000172984481297984
7.23803169060304e-05
2.6848798971528e-05
8.74163905183318e-06
1.18297500391628e-05
2.00787799313574e-05
2.87603708137941e-05
3.27917043904575e-05
2.36991013920108e-05
0.000368035459834776
0.000244045603447936
0.00013033439245924
4.91154913157063e-05
3.07521478484468e-05
4.35260938686367e-05
5.74762752437246e-05
6.52473144462358e-05
6.09626582802643e-05
3.6185853653107e-05
0.000522229398436564
0.00042722908436051
0.000325587005402871
0.00021951886109844
0.000145371164118632
0.000124572647911385
0.000118608920340084
0.000116000963968036
0.000106884820425259
8.63429087207805e-05
4.8637897038496e-05
0.000633814950608654
0.000560232564826409
0.000479195409431264
0.000397729557360863
0.00032386548519331
0.000265168465508074
0.000222474412764918
0.000191325422837476
0.000164544626851123
0.0001363311388163
0.000101971216628565
5.45522165189027e-05
0.000657045719761793
0.000589346755853612
0.000517746679225244
0.000447603603928659
0.000382971226053967
0.000325843467911827
0.000276190452748828
0.000232383273083157
0.000191907063982139
0.000151734519394089
0.000107957377947159
5.48561040259942e-05
0.000672131089523878
0.000607824660241989
0.000541095242391142
0.000475344143948197
0.000412849091164221
0.000354649609648124
0.000300812721243832
0.000250659252058907
0.000202962530881623
0.000155763722072772
0.000106208620332315
5.06675646282305e-05
0.000254782527909698
0.000202683010007019
0.000151262950999649
9.88434966405693e-05
4.37512464894873e-05
0.000248638535148339
0.000193788779432926
0.000140141631258747
8.71081545380872e-05
3.13535670177119e-06
1.77493128887254e-06
1.53525748742139e-06
1.11340115956418e-05
1.93357282230438e-06
3.16355056324627e-06
3.49262869012239e-05
4.3343238025885e-06
5.15298653794388e-06
5.42759055358611e-06
5.00698111898359e-06
4.09667531198862e-06
3.96465564987734e-06
2.82819639241923e-06
1.61747760710533e-06
1.34139994305537e-06
1.50332449040859e-06
2.22406299788683e-06
2.73334778713867e-06
3.41113165365185e-05
6.06591233139388e-05
2.6250509526573e-05
7.04686070980321e-05
4.34584031348794e-05
2.0109538185958e-05
6.69635570170157e-05
4.25995419393431e-05
2.58622841276045e-05
1.69714181165455e-05
5.12329355363322e-05
2.74618835577677e-05
1.68869262158734e-05
1.55403429796854e-05
3.23704202150025e-05
1.32221329973636e-05
6.21290595820762e-06
7.04477388014716e-06
1.29747591251137e-05
2.36319317738225e-05
7.39668593005747e-06
2.82990300862285e-06
2.57948288095593e-06
5.80531477250667e-06
1.27131470402271e-05
4.86309820220027e-05
1.27101948998182e-05
4.22036845446809e-06
2.30250581784472e-06
3.37770782774305e-06
8.88638217960667e-06
1.76303132868773e-05
1.47078706387081e-05
1.22481709392198e-05
1.19517157202801e-05
1.41873999629411e-05
0.000145257905984796
5.48284348500851e-05
1.85032550815367e-05
7.90403397486956e-06
7.87375873037786e-06
1.22243731580569e-05
2.39429044049972e-05
3.09589210775137e-05
2.26600440924362e-05
0.000314475594333636
0.000183496460926593
8.85925271626306e-05
3.7623043028624e-05
2.71052462715033e-05
3.53459951916474e-05
4.56968464762308e-05
5.30419890328086e-05
5.20441250349964e-05
3.22244637627057e-05
0.000481493249934885
0.000372940380211648
0.000258201895659023
0.000155164507531938
9.82734512875305e-05
8.74189244645504e-05
8.96769109434801e-05
9.36660994596219e-05
9.04581270828641e-05
7.47360750690293e-05
4.11722897515032e-05
0.000605944360226782
0.000523432346083551
0.000432064252545155
0.000339836766090323
0.000259593840161276
0.000206661374642011
0.000177218095058977
0.000158929929490029
0.000141980965581244
0.00012072840131844
9.12606654946858e-05
4.7682946418233e-05
0.000698555033475286
0.000633220234936783
0.000559120288781827
0.000481557793203396
0.000407599259130043
0.000342703390017294
0.000288995074316576
0.000245256752889176
0.000208157829422081
0.00017387047072014
0.000138790757341671
9.92289096050936e-05
4.96209546811759e-05
0.000652943281558034
0.000584555203712582
0.000514713199056719
0.000447585471047833
0.000385661324251378
0.000329726762299069
0.000279288860500329
0.000233072561779619
0.00018929235444487
0.000145797089337751
9.95981497744868e-05
4.73924966843166e-05
0.000663973724422648
0.000598658041895265
0.000532372047386179
0.000467617549095301
0.000405910957715493
0.000347868406149932
0.00029343567814232
0.000242009162670883
0.000192626273522773
0.000143878071107581
9.39135549419199e-05
4.13894373838757e-05
0.000239616037698528
0.000186684332452851
0.000134869676538882
8.34215074826452e-05
3.29077111789945e-05
0.000228394782058725
0.00017331912980272
0.000120085070810214
6.90150557976758e-05
3.56617042509283e-06
2.94820062173211e-06
2.44961250457667e-06
8.18594401316034e-07
1.77184557693303e-06
2.30992138027891e-05
2.89473864556758e-06
3.85458532307377e-06
4.43725392579526e-06
4.48605525308431e-06
4.04593950563667e-06
3.82361587634484e-06
3.50515744558989e-06
2.58694801552628e-06
2.05256623550855e-06
1.73697706075928e-06
2.38127120475509e-06
3.25410653897938e-06
3.73319290714789e-06
4.04495921549801e-05
7.41034228216917e-05
3.44341826463807e-05
9.29816469106973e-05
6.15680536739071e-05
2.8931865821659e-05
0.00010092999259317
7.14958738940198e-05
4.62911982826847e-05
2.4488521484266e-05
9.72271412665166e-05
6.8479564799506e-05
4.56266981298076e-05
3.27151885356556e-05
2.06062441455156e-05
8.38672768051746e-05
5.34247488726806e-05
3.33140526251313e-05
2.48718361498144e-05
2.5206020850368e-05
6.93270944167798e-05
3.54336529859351e-05
1.74945761378541e-05
1.33498612026687e-05
1.7516544057318e-05
2.30303446947772e-05
7.78088604736742e-05
2.80748571744536e-05
1.07388339384802e-05
6.1460516134157e-06
9.95290190291822e-06
1.78154659936662e-05
2.49253120581815e-05
0.000146129609636074
5.73436268091282e-05
1.89893286259834e-05
8.46368410935036e-06
8.81058642673294e-06
1.60238976196536e-05
2.72416994387097e-05
3.26107045156826e-05
2.22283460713913e-05
1.72758617972893e-05
1.57897170228931e-05
1.72388036607382e-05
0.000281922556672302
0.000156686704949022
7.25200912910814e-05
3.38164837230005e-05
2.54720068591254e-05
2.94493660044502e-05
3.91483156356851e-05
4.85662894596004e-05
4.86264748891833e-05
3.05096610712399e-05
0.000442574622049868
0.000322344709803859
0.000205962039437582
0.000121043354660646
8.05698205326006e-05
7.26776474166257e-05
7.47642649498008e-05
7.91623641660719e-05
7.8966778121179e-05
6.68193303138396e-05
3.72367346103365e-05
0.000576184722051002
0.000483910382935698
0.000381779922664476
0.000281912725974574
0.000204822715407261
0.000162518287637801
0.000142663562018786
0.000132871822637272
0.000123068804042406
0.000107301452050767
8.18916411888873e-05
4.18290702884358e-05
0.000677033511615726
0.000605856694167701
0.000524368432848702
0.000439520750054168
0.000360590155279253
0.000296046435844764
0.000248195020580811
0.000212972054043587
0.000184064526359206
0.000156390841044331
0.000126388053196936
9.07141622475583e-05
4.4417444194115e-05
0.000755609697526164
0.000697362394808075
0.000629999449185248
0.000556770665431308
0.000483327269787279
0.000414899150300487
0.000354264413450494
0.000301721978391189
0.000255866590947379
0.00021447710204245
0.000175189671330579
0.000135569511635032
9.27023930430587e-05
4.33829908604716e-05
0.000645826616323472
0.000577563986650198
0.000509428064186616
0.000444289023622846
0.000383641158932589
0.00032778742015524
0.000276227634612367
0.000227991819707898
0.000181750729991633
0.000135972348660393
8.87006870894156e-05
3.88832179053763e-05
0.000652614035266451
0.000586839543837956
0.000520970575686085
0.00045678952433194
0.000395354874653311
0.00033708704243588
0.000281915608599798
0.000229348805564481
0.000178679894501756
0.000129021421927083
7.96002423543295e-05
3.12574715541415e-05
0.000221202751473155
0.000167736942667781
0.000115978778712152
6.62079440218989e-05
2.16961628001799e-05
0.00020532379941717
0.000150261339128868
9.78598696927735e-05
4.96371900547897e-05
3.85968476615426e-06
3.61536915974698e-06
3.5910492016758e-06
2.26916983892617e-07
7.50001495264414e-07
1.20630938097644e-05
1.62838852744739e-06
2.59707152102572e-06
3.36947272232246e-06
3.78358094862925e-06
3.78429109257264e-06
3.54905518465844e-06
3.5102577943089e-06
3.1872642568764e-06
2.84430187781729e-06
2.57617786152617e-06
2.81334565296196e-06
3.74100738565972e-06
4.41672631908669e-06
4.52499877873591e-06
4.43011746915399e-05
8.25536639415237e-05
4.0695751695105e-05
0.000108422037034376
7.4664750310344e-05
3.6560024745331e-05
0.000125504073507651
9.38307195060361e-05
6.36293183056136e-05
3.26612367995989e-05
0.000134362675387018
0.00010225629676919
7.40324035417041e-05
5.11974720378569e-05
2.8859999136053e-05
0.000134509907515186
9.95176463582355e-05
7.21540902793504e-05
5.28114567931357e-05
4.14269690638569e-05
2.52441709030699e-05
0.000129331075733072
8.75519769470245e-05
5.98512229014552e-05
4.42177042616436e-05
3.89759659245285e-05
3.62817113905459e-05
0.000133307982984267
7.51315627428189e-05
4.38678962991447e-05
3.07524745917724e-05
3.06915015902076e-05
3.51150859426016e-05
3.54394539260044e-05
0.000175807635249515
8.77137980901308e-05
3.98906330932307e-05
2.2598093106911e-05
2.24734538964425e-05
3.03031518160328e-05
3.90359621151046e-05
3.95216408446252e-05
0.000276295760489906
0.000158332276913551
7.78246957304197e-05
3.91300012999686e-05
2.99278120929098e-05
3.4484689430638e-05
4.43613147314797e-05
5.20608523450264e-05
4.90119649283832e-05
2.95522300749164e-05
2.45628604040761e-05
2.18230713039772e-05
2.22707724644236e-05
0.000414434991274956
0.000291425397184638
0.000181083591057731
0.000108110653149005
7.47842730569201e-05
6.69812766076192e-05
6.79529026342141e-05