/*--------------------------------*- C++ -*----------------------------------*\
  =========                 |
  \\      /  F ield         | OpenFOAM: The Open Source CFD Toolbox
   \\    /   O peration     | Website:  https://openfoam.org
    \\  /    A nd           | Version:  12
     \\/     M anipulation  |
\*---------------------------------------------------------------------------*/
/*   Windows 32 and 64 bit porting by blueCAPE: http://www.bluecape.com.pt   *\
|  Based on Windows porting (2.0.x v4) by Symscape: http://www.symscape.com   |
\*---------------------------------------------------------------------------*/
FoamFile
{
    format      ascii;
    class       volScalarField;
    location    "400";
    object      nut;
}
// * * * * * * * * * * * * * * * * * * * * * * * * * * * * * * * * * * * * * //

dimensions      [0 2 -1 0 0 0 0];

internalField   nonuniform List<scalar> 
10107
(
3.97675007403811e-06
2.64297689814461e-06
4.74415172155754e-05
2.87236433586151e-06
3.45109363124773e-06
1.35924694095299e-05
7.74726649662825e-07
2.59596155022579e-05
6.09419891870154e-05
4.06094596740689e-05
2.05636445135161e-06
1.32660101770047e-05
1.18726192632355e-06
2.03187098781226e-05
6.94565692627654e-06
1.97937281046656e-07
3.88866875981221e-06
2.28414369428218e-05
5.82956061206294e-05
2.29678465519464e-05
4.09247916301125e-05
7.57190910422287e-05
9.10658601808018e-05
4.50275594702582e-05
5.03351801311354e-05
7.26899036783524e-07
1.20350353710922e-05
1.2541159423668e-05
3.76370420051237e-06
1.37902333343704e-07
4.34642948027013e-06
1.32174217117903e-05
3.05811853287025e-06
6.13209274255374e-06
1.52642408236967e-05
3.93712913962637e-07
1.06074204351515e-06
1.69004587194083e-06
9.83978103775947e-06
7.90994410730396e-06
3.16960785612539e-05
1.89645910564583e-05
0.000189151830059546
7.85866352439935e-05
2.56999461635856e-05
1.44432715001256e-05
3.2503462550753e-05
2.89944035447179e-05
5.25011008026073e-05
2.80257418135014e-05
4.2992932107705e-05
8.37865864991749e-08
3.74738003029739e-06
5.38342735213748e-06
2.49301516867674e-06
1.06106199453205e-05
1.52453102784907e-06
2.0837239910301e-07
3.40837338953444e-06
4.91416243750015e-06
2.88063069328802e-06
1.54002671404468e-05
6.40988585034455e-07
5.68491696166311e-07
6.94308207734115e-06
9.94818330339969e-06
1.58394866835449e-05
4.34908849479976e-06
1.2747835418035e-05
6.66256968566666e-06
7.48429861051337e-05
2.94300688539034e-05
7.63933530205591e-06
0.000459862902262443
0.000202687129141073
4.54910571580955e-05
1.71384811516116e-05
1.73012602707304e-05
3.65357645806941e-05
3.35099484874401e-05
1.09151452250876e-07
5.48817931981067e-07
1.22728557828295e-05
6.5266726488069e-07
9.00492207094314e-07
5.12589132516e-06
3.77061179511832e-06
6.01716126861009e-07
3.58032773106029e-07
2.9789822573503e-06
1.59927099341268e-06
2.70032711300579e-06
5.36065171493629e-07
9.89602733217166e-06
1.13347130571318e-07
1.6221352629711e-05
2.25732328260339e-06
1.18297175248349e-05
4.06569997432249e-06
2.52837455995635e-05
9.50256312520736e-06
1.85300722147297e-06
0.000224418565046034
7.59611827080417e-05
1.81350750993389e-05
5.76345656545171e-06
0.000822388033083146
0.000463238191881622
0.000185543902172958
6.52737051138817e-05
4.13995189674769e-07
4.22700097224295e-06
3.4242157951101e-06
1.04388342746238e-07
2.81533650130004e-07
2.53726285095184e-06
2.71158169922685e-06
1.59584630097215e-07
1.23463343594697e-06
8.35841313669462e-07
4.63022466186482e-07
5.53083725766699e-06
1.54192284678112e-06
2.62306893684582e-05
1.05821180200227e-07
6.62961550631379e-08
4.69938909696632e-06
6.47983543429762e-06
1.58028886486076e-06
2.47810352219547e-05
7.51388533952677e-06
6.1433087475974e-07
8.40508779047927e-05
2.10263450057532e-05
2.84621185645881e-06
6.54030284862919e-07
0.000512884937776528
0.000223158844587879
6.77125461555628e-05
2.01323437235457e-05
1.1836422476815e-05
0.000824091933052742
0.000467281297831206
0.000232853134440584
0.00012477422734378
1.22675271704844e-07
1.38567854977707e-06
2.52137144705382e-06
9.68305144700598e-08
1.14408070526346e-07
3.31976281965576e-07
6.31822568862166e-07
8.80137128967282e-08
1.16654051764873e-06
1.86519883057455e-06
3.59582770183709e-07
7.02531177601654e-06
2.86562213173749e-06
5.87914258508292e-05
5.34996092255582e-07
6.29691175213616e-08
1.02199466081866e-07
1.60149398412668e-06
1.00255439710517e-05
4.36900039183917e-06
1.43083819547551e-05
4.74717222498169e-06
4.60456106497727e-07
5.23306426263297e-05
1.21050501025985e-05
1.08539576652798e-06
4.51415926909667e-07
0.000271788241378255
7.609604060915e-05
8.49468959898602e-06
1.47510453398436e-06
2.83765367657635e-06
0.000506273803001126
0.000215788765986858
8.56820125683677e-05
5.21279549089741e-05
3.33777374927624e-05
0.00083478933501158
0.000527919604103208
0.000345068231799358
0.000227995030648596
4.04757602776288e-08
2.19103078431742e-07
3.01704716258079e-07
4.76824070756851e-08
9.26726201023219e-07
3.89517019056603e-07
2.01618809479609e-07
1.37984437723017e-07
2.62962953619911e-06
1.13986133852588e-06
4.80732716703763e-07
7.29125093758773e-06
4.50127613491758e-06
0.000101486660753723
1.2415791164299e-06
2.72454239393143e-07
1.02777870374649e-07
1.03216780895521e-07
6.26303497581508e-06
6.76492109065692e-06
2.91146976805735e-06
1.53306397421431e-05
7.00275188973514e-06
6.7902165396627e-07
2.5543755873329e-05
6.86375195569344e-06
5.44861291404544e-07
2.06514907493293e-07
0.000136798639540742
2.94336997787328e-05
2.65246895391647e-06
1.08896774878366e-06
2.1719755941984e-06
0.000578286954029851
0.000253516879518503
4.78049528101048e-05
8.1051890264628e-06
1.27068992986553e-05
1.41867859727386e-05
0.000498322159322694
0.000254725699476479
0.000161633080764315
0.000128553739462464
7.09196018063726e-05
0.000890286880889836
0.000653276034750366
0.000491270107703527
0.000328202838552986
1.34902806996839e-07
8.02933420313036e-08
1.09407984906867e-07
4.09049416256013e-07
4.95650723771709e-07
2.57871322324592e-07
1.73696110650578e-07
1.36093488682551e-07
4.56330643502979e-06
1.95030480184926e-06
1.66056004314417e-07
6.69670500693038e-06
5.53944935751332e-06
0.000130474806848318
2.50107704962831e-06
8.27504800365948e-07
3.0647153412984e-07
1.06357129731242e-07
4.52423545229546e-08
8.15885469731127e-06
1.34167678143863e-05
3.47801561136448e-06
9.89403657982073e-06
6.9785455706561e-06
1.00499998792491e-06
2.08039847096871e-05
9.92426975435044e-06
1.0171610585467e-06
2.46419736576584e-07
5.73954863305915e-05
1.21319495760129e-05
7.05070896275974e-07
3.12116660106049e-07
7.83086474121907e-07
0.000337982952690694
0.00010561126895023
1.08804867926368e-05
4.0318213942202e-06
7.87958321471773e-06
9.29043834164984e-06
0.000970982657182963
0.000557620366797077
0.0002168802508486
5.5034490527469e-05
5.05256261540401e-05
5.62880430608769e-05
4.29098131295102e-05
0.000549099895695448
0.000379684492709661
0.000303113293874055
0.000235011567750528
0.000104876782510093
0.00100102506832475
0.000797413612020613
0.000616613141795532
0.000391373346930072
1.18311460096552e-07
3.65378047508028e-08
2.93941936519257e-08
3.04457159323913e-07
1.54587956271873e-06
8.03569778631157e-07
2.15775879554085e-07
4.24914993019106e-08
4.15192067334787e-06
2.34646938337803e-06
1.19693476466272e-06
5.66911173152757e-06
5.60643649060476e-06
0.000139125376552464
3.93217231937239e-06
1.57665047920309e-06
5.91281444769302e-07
2.17392841898535e-07
6.02280350581994e-08
1.836159928316e-07
8.35367713196737e-06
1.46754467467065e-05
4.35841563386636e-06
1.71861812699989e-05
9.95342660810971e-06
2.61522652286569e-06
1.20446492919646e-05
1.02047107425979e-05
3.32447202479629e-06
5.28933937281546e-07
2.97139497642255e-05
1.28060427095398e-05
1.38470014255788e-06
3.24050990398094e-07
9.36198366593007e-07
0.000159131414847994
3.46367503227571e-05
1.6778359856958e-06
7.3903060734238e-07
2.51380695892313e-06
4.97516766411001e-06
0.00064356735755526
0.000304432519438492
6.51009608489688e-05
2.18527797291647e-05
2.67031687531462e-05
3.44284291781047e-05
2.87548262213472e-05
0.00141305215807742
0.000957784649175253
0.000525750498959378
0.0002425661597818
0.000157439951871039
0.000153761816454308
0.000150112577161878
7.87745998669735e-05
0.000688714361966926
0.000555210165772863
0.000461724998074685
0.00032276943901839
0.000121855349867174
0.00112738240359268
0.000920150973863514
0.000695524317604511
0.00041506887477904
2.27488631178584e-08
5.21880126109999e-08
7.29630323050702e-08
9.23342871366402e-08
6.19058584194279e-07
6.47763429178096e-07
7.02375478649488e-07
9.66562089475095e-08
1.17573362429881e-06
3.82192068762175e-06
7.51287116205147e-07
4.66628422638302e-06
4.95410436941356e-06
0.000135255384346903
4.69706100150982e-06
2.73634679557854e-06
1.0759730990913e-06
4.39985606938984e-07
2.27945305691203e-07
1.22909677401512e-07
8.14277915363894e-08
3.71643503639271e-06
8.41234622669842e-06
4.83817705984206e-06
1.68929217482023e-05
5.59734931621578e-06
1.01363562196199e-06
1.89403407119665e-05
1.14513146596007e-05
4.23529189151895e-06
8.69153653718557e-07
1.50622872977507e-05
1.29921929276208e-05
4.1610983003838e-06
1.0026084903404e-06
7.20634763244478e-07
5.89789119468405e-05
2.3065595263365e-05
1.98952124674128e-06
3.85374441032207e-07
2.01329841430592e-06
4.31390377467051e-06
0.000377723639964607
0.00012362977791617
8.11163258063422e-06
2.75315330476451e-06
9.58643033720477e-06
1.69330400904188e-05
1.79837483182039e-05
0.00104470086159132
0.000615152654851469
0.000256480744190472
0.000101269107663747
8.06975782341433e-05
9.14806067754586e-05
9.91947223470605e-05
5.78904843982802e-05
0.00187564313341743
0.00141091144277952
0.000939694920502686
0.000569136974632495
0.000386201672811357
0.000326649280550422
0.00031327121747064
0.000250893134339524
0.000103565372401261
0.000860855107237027
0.000727089251851293
0.000582809645284369
0.000369221090825792
0.000123775018584761
0.00123722227002436
0.0010033246179413
0.000732010368188244
0.000414031690917056
8.22488254478343e-08
5.55996921441956e-07
1.04835808537442e-07
7.94009983338293e-07
4.37779864538228e-07
1.5813466395318e-06
2.56335324860146e-07
9.52615683731015e-08
6.2892654268751e-07
1.77368283016987e-06
1.88898196616059e-06
3.8195989396045e-06
4.12423835862319e-06
0.000121811015869894
4.46590076807459e-06
3.59014389661903e-06
1.71481342804674e-06
7.31352889407215e-07
4.29874588479222e-07
2.68446672685382e-07
6.23761576616947e-08
3.38007989220322e-07
2.07421412742153e-06
4.14279765058978e-06
2.10100667310139e-06
8.5085673636196e-06
5.12771347729516e-06
2.46907454628914e-06
1.60669544613318e-05
7.01761249415009e-06
1.39315803686104e-06
3.62934458740254e-07
1.92101331257456e-05
1.26644289814492e-05
5.37902218605748e-06
1.41453640895479e-06
8.67773485866951e-07
2.38993814325052e-05
1.5753376767584e-05
4.19208587688878e-06
1.27255785195953e-06
1.80139615722924e-06
2.5558603989368e-06
0.00016570963522673
6.02788323968473e-05
4.52917065059363e-06
5.64316582827987e-07
4.46534198518938e-06
1.4112166982918e-05
1.32437642633331e-05
0.000702503677267059
0.000342710361305936
6.07527624915977e-05
1.29850514656712e-05
2.90285386391891e-05
4.77289354594628e-05
6.03643545343669e-05
4.11060077381808e-05
0.0015085214971963
0.00103122370016948
0.000569514798785689
0.000299321248396336
0.000209229725468619
0.000196244883769281
0.000211989864948891
0.000190575322095444
8.42051400886715e-05
0.00234155428135904
0.00188125892745998
0.0014099435006795
0.000983888923581142
0.000718420506325966
0.000586782783535289
0.00052593734293597
0.00046364750253183
0.000318166986778539
0.000111692237355134
0.00102235071226644
0.000857724318784395
0.000652752359866382
0.000382324801969046
0.000114317601197026
0.00131424194219964
0.00104660237129573
0.000737452976909932
0.000397349089565707
7.91170837487692e-08
5.16347517516836e-08
2.98619665256244e-07
2.34012934705057e-07
3.71180690311562e-07
1.20159806086518e-06
1.31768418541599e-06
2.90995287385761e-07
2.67435512045368e-07
5.72458241486024e-07
7.87378703554986e-07
1.22258743251449e-06
3.06984024912338e-06
3.39885580328614e-06
0.00010684639086916
3.74216081526301e-06
3.67401196054671e-06
2.46671022964636e-06
1.05395332173415e-06
6.24929478014492e-07
4.53368417728879e-07
1.20567157252608e-07
1.24344302090435e-07
2.41662918937341e-07
1.77923000230465e-06
2.4092864752526e-06
1.21793302045334e-06
4.53014366083053e-06
2.34510735788499e-06
1.33680867273201e-06
1.61364663151677e-06
8.35060151784086e-06
4.37972201366981e-06
1.84998627506862e-06
1.74063846011233e-06
4.12534257787871e-07
1.48341307219793e-05
6.78170001874882e-06
2.19611609799595e-06
5.39133735810445e-07
5.21023765897126e-07
1.96167036184781e-05
1.37929545164788e-05
5.32782434174522e-06
2.08061987554747e-06
2.4113130224446e-06
2.04311019502321e-06
5.37642485375735e-05
2.24949616980775e-05
5.59903998664209e-06
1.56028942938921e-06
4.23424726124875e-06
8.76608529185364e-06
8.15758348581157e-06
0.000342573916452369
0.000175813666878278
2.37513853836269e-05
1.51906545375497e-06
9.51525015911768e-06
3.4586939156498e-05
4.6795415835834e-05
3.0044271706142e-05
0.00113784006427894
0.000683201486838972
0.000251696093719792
7.48924875397264e-05
7.75254634275004e-05
0.000106702303856738
0.000134755809042096
0.000136492494905011
6.55590751711896e-05
0.00199998842572905
0.00151004969599973
0.00100781992007194
0.000603878289455955
0.000430164761256204
0.000369511071550529
0.000366248472485702
0.00035633634832203
0.000265622537328839
9.73466216797189e-05
0.0028032348531382
0.00234977296958287
0.00189235243259524
0.00145116049076308
0.00111341016436789
0.00090880116837358
0.000789710335022635
0.000698232911783512
0.000564163480154298
0.000347084000334877
0.0001086778477268
0.00114776790202288
0.000939267210415453
0.000680778297584885
0.000374086944136309
9.86838938468065e-05
0.00135386867756299
0.00105508826467753
0.000720341170314268
0.000371910107975221
1.4356048366286e-07
5.39304301558771e-07
3.29334756548004e-07
1.88557203100161e-07
4.9664107432833e-07
7.64344373860164e-07
1.66605580177605e-07
2.77305628226615e-07
1.57906537074387e-07
3.35576651454413e-07
4.06353669882364e-07
8.39363817444833e-07
7.42307086614713e-07
8.94713470234374e-07
5.88197942862606e-07
2.38448722886979e-06
2.75133657805702e-06
9.26064154761655e-05
3.04303334375512e-06
3.20177945559277e-06
2.71960733439972e-06
1.47271404923451e-06
7.80923037365908e-07
6.59704423158756e-07
1.93656074989517e-07
1.52826614264841e-07
1.12919407013879e-07
5.19305276412156e-06
3.35456713495299e-06
1.65834337698512e-06
3.10179759123548e-06
1.58169384174643e-06
9.25182410135103e-07
5.84440476965132e-07
1.06172934447119e-06
4.88482362224699e-06
3.34455445021993e-06
1.98661628088432e-06
1.04505355307049e-06
6.79404488149836e-07
1.69483555420349e-06
1.52681266001109e-06
7.66185483191009e-06
3.88819032623159e-06
1.69695737447307e-06
4.4731015499815e-07
1.17054192047341e-06
1.41766751931797e-06
4.3144064487754e-07
6.4111919500755e-07
1.57718424871851e-05
6.41388830175776e-06
2.61770664571934e-06
8.28991109332911e-07
8.43915483475752e-07
1.83640225096779e-06
2.79035283524142e-05
1.58892475074828e-05
6.48829500185612e-06
3.50358688152162e-06
5.24447055331027e-06
7.48690454077777e-06
6.63868142941437e-06
0.000112870715540022
5.10279573035443e-05
1.42021836695287e-05
2.17403319009524e-06
7.47211778656754e-06
2.1564836808882e-05
2.86668500140952e-05
1.83410559889358e-05
0.00078646686265343
0.000417225921013347
0.000121610061742333
1.10382728897202e-05
1.95108050605616e-05
6.55003383163664e-05
0.000101219853924247
0.000105162783324995
5.07129122744814e-05
0.00164513353235305
0.00113659199985619
0.000635764418116396
0.000237242079231267
0.000186843291084091
0.000206178024837561
0.000241802505186317
0.000264212050725728
0.000215187715742977
8.1826377752446e-05
0.00249751115156145
0.00200924081028169
0.00151352951659493
0.00104366569685343
0.000751006517255951
0.000621595797197356
0.000572352051368424
0.000545568807361022
0.000474209006209147
0.00030803842082506
9.86195491985854e-05
0.00325320723326553
0.00281043533032939
0.00236419128773385
0.00193006288001573
0.00155388224797843
0.00128049726047409
0.00109764399119946
0.000961156872766165
0.000818288695259824
0.000616790409639489
0.000350176196031324
9.72227811793332e-05
0.00122778263630229
0.000976274372049954
0.000678588229611236
0.000352347217848622
8.53185273693136e-05
0.00135699550717578
0.00103421142669411
0.000685979055008903
0.000339664932792242
2.71877086644617e-07
7.57464867658907e-07
4.88669169635988e-07
4.54017436288257e-07
5.32186846241551e-07
3.93654249095754e-07
5.90312471598224e-07
4.88189154494071e-07
5.42731938190081e-07
7.41046726518778e-07
1.74763988602247e-06
2.15484514769611e-06
7.83814372017208e-05
2.47006578827084e-06
2.60566775637233e-06
2.50003446148045e-06
1.83359982608486e-06
1.07302511276614e-06
8.33187231201634e-07
3.49034720074863e-07
2.0593848927162e-07
2.05281081826046e-07
4.57214526317423e-07
1.51537862270485e-05
2.0190515743022e-05
8.24549542922268e-06
1.35368185667944e-05
4.13440811389729e-06
4.44042884762363e-06
3.38400310616482e-06
3.03564320721548e-06
1.76626085140526e-06
7.37059748895686e-06
2.56972775367594e-06
2.27625189029639e-06
1.65986898946304e-06
1.88515152893068e-06
6.74919059811009e-06
3.60934349278799e-06
2.30341437767174e-06
1.20409551838953e-06
2.20918768710134e-06
1.74717933072696e-06
6.61020662422717e-07
1.97538478722431e-06
9.30528033179416e-06
4.0526665588727e-06
1.79729136495383e-06
6.16852614163326e-07
8.68267337663923e-07
6.96581984872702e-07
1.94324729646365e-06
1.88386999035756e-06
3.20501033440084e-06
2.22977556231944e-05
1.01513263069654e-05
3.65981362436054e-06
1.63240649516332e-06
1.44495684451113e-06
4.25825455634713e-06
6.80346824679343e-06
8.46951944447955e-05
2.82494276157853e-05
1.16414464196277e-05
4.8958200692642e-06
1.01300831899916e-05
1.8205067411576e-05
2.04286620646397e-05
1.59640617203102e-05
0.00029493644484092
0.000165544743844398
5.59898676632739e-05
7.78671136577647e-06
1.20979764931168e-05
4.07103457075501e-05
6.73081039550678e-05
7.09332369009708e-05
3.5207258612198e-05
0.00129162020755907
0.00079708638642509
0.000380160340051288
8.34110002699081e-05
6.04154949190447e-05
0.000117256182944801
0.000176282741685698
0.000206722276434701
0.000177756352615821
6.71165591853469e-05
0.00217795309055654
0.00165570675209498
0.00112840939444473
0.000646695538101566
0.000433721669612466
0.000373346409373654
0.000387244210481099
0.000414338098860628
0.000390592123495427
0.000267759145117192
8.67869893649802e-05
0.00298798752655888
0.00250793306497212
0.00202690535531002
0.00155599418269606
0.00117987023125558
0.000955143158702768
0.000839222754224159
0.000771356882875278
0.000693441863761998
0.000548079548733748
0.000322119705818948
9.20349662413906e-05
0.00325765475328877
0.00282128599013191
0.00239468560487664
0.00200524634428095
0.00168552375713092
0.00144337870872178
0.00125587102858344
0.00108465153029314
0.000886794430696569
0.000632315842196506
0.000335817381416882
8.26889250408628e-05
0.00126260162984862
0.000975966428475595
0.000653965147038576
0.000321915765930999
7.24283795080588e-05
0.00132607806511321
0.000987647931400607
0.000636285819947596
0.000300836711461736
1.80431687748435e-07
7.32724088778295e-07
4.3273455392707e-07
4.19807904312914e-07
1.42646852788707e-06
1.36918213310016e-06
1.15827117907932e-06
1.59030896240441e-06
6.33243703695056e-05
1.94866889024016e-06
2.14458958575207e-06
2.12182865629149e-06
1.81447638152728e-06
1.34174758655782e-06
1.13957750222129e-06
5.7160605122014e-07
3.74407484166801e-07
3.32299703657348e-07
3.52194518030828e-07
4.05117903360493e-07
3.35715102998046e-05
7.35241075672913e-05
1.85798743740095e-05
7.54482123600496e-05
2.65030535018246e-05
1.3043299417707e-05
5.31982494836776e-05
1.76859851985599e-05
8.56489176412784e-06
5.3843458408834e-06
2.70642745158234e-06
2.52467283439704e-06
2.44430677225155e-05
7.94507799460345e-06
4.16746890266161e-06
4.46604885798663e-06
1.66825154715255e-06
1.52975543142634e-05
5.12798248924171e-06
2.66187869333377e-06
1.92213669598905e-06
3.35475156899109e-06
2.90656884976782e-06
3.8147451348823e-06
2.53220763863547e-06
2.11437355186804e-05
7.01001378643792e-06
2.62118159735761e-06
1.12515712739126e-06
1.81348868277261e-06
5.14410408046127e-06
6.98799435297342e-06
5.08034536275472e-06
5.44128382334909e-06
8.62841664238667e-06
7.30730459464047e-05
2.22180043606931e-05
8.2192446898123e-06
4.25036390108741e-06
3.58710140459996e-06
8.50452266372219e-06
1.90381032777836e-05
1.70247951811401e-05
0.000235027024910802
0.000100197021330316
3.57044142213482e-05
1.0067471738966e-05
1.6574550010118e-05
3.39193014822168e-05
5.06553049134445e-05
5.42671175948319e-05
3.00985233175046e-05
0.00096432089290597
0.000373280470258463
0.000210990013961241
5.37213285732955e-05
3.72621131432668e-05
7.68241313467356e-05
0.000127430874355773
0.000156165238865992
0.000140033477059299
5.26053304200003e-05
0.00186082430909265
0.00131013226736219
0.000797642077074667
0.0002994208061628
0.000198908506944744
0.000210702496168457
0.000272787190374356
0.000325227133500801
0.000325619811643081
0.000231816270873226
7.44036177885534e-05
0.00270994474496673
0.00219182012400013
0.00167501401205429
0.00116286692644941
0.000806276416431152
0.000646284917244848
0.000599159029044586
0.000597178059557735
0.000576100006635054
0.00048031726898867
0.000291881255666038
8.20228421181121e-05
0.00299603395309951
0.00252679007776869
0.00207017873186874
0.00166491564178329
0.00136388471911177
0.00116935265971498
0.0010421604523387
0.000932716981268993
0.000791209942957204
0.000581762578624016
0.000316265276636097
7.97463243562017e-05
0.00326132187329934
0.00284024398608551
0.0024448829775313
0.0020978924853424
0.00181062127156845
0.00157498118584071
0.00136703778328573
0.00115529241148357
0.000910276927790588
0.000619941026385164
0.000308658554142912
6.98021119275717e-05
0.00125577025774026
0.000944217959973112
0.000610949048887958
0.000285567400416671
5.88323507546132e-05
0.0012628504552848
0.000916559820864525
0.000570758227795174
0.000254584012422593
1.02382055096319e-06
5.55944956076012e-07
4.74442747914844e-07
7.44997510975879e-06
6.44497812559195e-07
1.05861386000143e-06
4.72678529459646e-05
1.44695436342154e-06
1.71502130492688e-06
1.80453691313875e-06
1.66556800059431e-06
1.36423313397827e-06
1.32176525681524e-06
9.44107145515181e-07
5.41159995000548e-07
4.49683800746246e-07
5.02035568869268e-07
7.24988343787964e-07
8.56211683072292e-07
5.20487301159334e-05
0.000155451321865745
3.59097059018748e-05
0.00019287847418615
8.14127151310443e-05
2.45539079556226e-05
0.00017600631602718
8.12601591473658e-05
3.48465139921525e-05
1.70995858640679e-05
0.000135592419615408
5.82698667308894e-05
2.70596128981708e-05
1.6059290197024e-05
8.22298713839565e-05
2.66270025523812e-05
1.08331110610879e-05
8.39835429657349e-06
1.20491366808117e-05
5.59557172344632e-05
1.60983548018847e-05
5.23435510467112e-06
3.56221134087728e-06
6.27335939885293e-06
1.23199724069652e-05
9.39356359553356e-05
2.41083817019259e-05
7.79176706276772e-06
3.39030921278513e-06
4.64158734742937e-06
1.12076908554055e-05
2.13087429338883e-05
1.70564511404105e-05
1.15276354168002e-05
1.08358790352155e-05
1.30813743674479e-05
0.000286109153057157
9.0391937454552e-05
2.99253164837795e-05
1.21796255737059e-05
1.31908737045652e-05
2.08376035077307e-05
4.11034644595628e-05
5.47898126068919e-05
3.19679992268772e-05
0.000726409862691553
0.000284876472661837
0.000144335480109616
5.0891468083614e-05
4.0824778328094e-05
7.00782553209911e-05
0.000103751094776655
0.000123378139973367
0.000118029979188977
4.75373885254358e-05
0.00156852164551986
0.00099961750611504
0.000536706264829654
0.00024344326894834
0.000142481439648029
0.000158864571156193
0.000212316151655725
0.00026180320729254
0.000271968712320564
0.000200202238638297
6.2960033255498e-05
0.00243559067193488
0.00188051404642876
0.00133961193913111
0.000815133270358586
0.000511953068877035
0.00041642450180029
0.00042346700804782
0.000467819755239653
0.000483531662575838
0.000421715068561323
0.000262609386023624
7.1286252835958e-05
0.00322298877029567
0.0027218451961488
0.00221865656063119
0.0017271169329628
0.00130768829776803
0.00103752085738057
0.000899502972331844
0.000835760594133116
0.000786459530464419
0.000697490632058574
0.000530063851937771
0.000293221537293774
7.22268135905625e-05
0.00300848499052319
0.00256155175352183
0.00215014525754269
0.00180668268516219
0.00154689439688308
0.0013560462679315
0.00120031326880838
0.00104006526918341
0.000839406863468766
0.000582921475036083
0.000294791218045187
6.75739655948454e-05
0.00326609149929564
0.00286707886839858
0.00250200912848898
0.00218214053225441
0.00190639954582627
0.0016614316438414
0.00142582069390761
0.0011762379876402
0.000895836491945326
0.000585090134287607
0.000274666187305816
5.68483909342823e-05
0.00121082900368195
0.000884095903543287
0.000550544567595616
0.000242178288134815
4.39479813141492e-05
0.00116730474785091
0.000819702308739316
0.00048680198014456
0.000199128723797842
1.17345039170953e-06
9.55021037230336e-07
7.84760967230537e-07
2.6996021799035e-07
5.90591931671036e-07
3.05634490613769e-05
9.68663142284081e-07
1.28680705362437e-06
1.47680739851552e-06
1.49145901567016e-06
1.34573311177512e-06
1.27301631727248e-06
1.168375132033e-06
8.64025317336528e-07
6.88215703952584e-07
5.85003397683988e-07
8.00669595820364e-07
1.07609237521732e-06
1.22847444087686e-06
6.38784469359813e-05
0.000218782644701173
5.28619511265374e-05
0.000328005054394438
0.000161568866153375
4.27118155115116e-05
0.000350459858862444
0.000200121894584687
9.60410816064968e-05
3.3282295455478e-05
0.000311946835940943
0.000182192112798824
9.32715487855841e-05
5.01000504531638e-05
2.59847865451567e-05
0.000254641638906645
0.000143356429845412
7.3222026631075e-05
3.94075428090611e-05
3.36715970571038e-05
0.000198755662034129
9.046373730194e-05
3.86768440194212e-05
2.26682470437692e-05
2.45915218759065e-05
3.08812204455167e-05
0.000195141105584938
6.72782507680838e-05
2.39519517592746e-05
1.11938438855404e-05
1.56641473649579e-05
2.62265539919492e-05
3.71770122580082e-05
0.00034230889163475
0.000117957794573977
3.78967834149159e-05
1.55810855751181e-05
1.60863855640983e-05
2.91761014110645e-05
4.93017775863363e-05
6.25772414194766e-05
3.26728609430035e-05
2.27264110785077e-05
1.95879365023324e-05
2.12575135339819e-05
0.000713153527221092
0.000328486275619528
0.000135262700644647
5.75776201832376e-05
4.80855043024352e-05
6.43008948810092e-05
9.06232914824272e-05
0.000116693719116285
0.000116996603211062
4.76727867419155e-05
0.00136044782707582
0.000786143500001205
0.000407087969876316
0.000211923074336851
0.000137830888231862
0.00015062427899502
0.000188477866015461
0.000221745504267099
0.000235872378748675
0.000180500123904598
5.80176435001146e-05
0.00218692423466477
0.00159882257207077
0.00106248625652842
0.00062618884781369
0.000380995259750335
0.000327464865259713
0.000343427179407171
0.000389652267937353
0.00041565972737573
0.000374146105371425
0.000237312358963375
6.22144838091376e-05
0.00299038728221837
0.0024521388142492
0.00191840946270924
0.00140116346137584
0.000986494109583256
0.000760025277692511
0.000676899391934972
0.000668175725869545
0.0006657757940324
0.000615912639900363
0.000482411737010408
0.000269995320946705
6.44628756544008e-05
0.00370132871160469
0.00323069346052147
0.00274366374577412
0.00226915539294779
0.00183988958832706
0.00150346785002662
0.00127777233565437
0.00113674149711845
0.00103525344522307
0.000925667850247591
0.000768279119449226
0.000544229820073879
0.000277230133381303
6.18544111081189e-05
0.00302852327654048
0.00261418930818766
0.00224728860058117
0.00194233670088956
0.00169692347053499
0.00149214753926206
0.00129981178098335
0.00109080654990755
0.000843742899048745
0.000557609880991078
0.000263945805979728
5.48774814385772e-05
0.00327025200517137
0.00289261853827128
0.00254823095157883
0.00223993753694378
0.00196113859686293
0.00169793989907148
0.00143327947859414
0.00115224662749248
0.000848305604126669
0.000530382958058661
0.00023360108252713
4.2631173064329e-05
0.00112941944802342
0.000795747096768635
0.00047083322531411
0.000189176212495713
2.82096164519207e-05
0.00103757934594347
0.000693977764654491
0.00038142421045591
0.000134406198607526
1.27650128919493e-06
1.18212929269737e-06
1.17641478027549e-06
7.44086712622324e-08
2.47340341769704e-07
1.49775135493458e-05
5.427713641103e-07
8.69056519397053e-07
1.12485645317537e-06
1.25923948340873e-06
1.25809118256987e-06
1.18033649234467e-06
1.16855103411063e-06
1.06260691633468e-06
9.50923072873152e-07
8.6520949081496e-07
9.48543919537596e-07
1.25809735848432e-06
1.47594706397939e-06
1.50618524014596e-06
7.00681837312844e-05
0.000251939339413569
6.42740789942847e-05
0.000427765550232888
0.000221908837072317
5.78712534864801e-05
0.000520228845706527
0.000333885877434259
0.00017454598830299
5.11463020247046e-05
0.000525367275605744
0.000358005750445339
0.00021783703127451
0.000118715729457766
4.39864838504018e-05
0.000477505950695159
0.000321122269720611
0.000200580914099459
0.000121582571972075
8.35774891734743e-05
3.78443161078073e-05
0.000419438807994813
0.000267123197034638
0.000164879861557702
0.000101267281379693
7.77987323946052e-05
7.06980517253446e-05
0.000396282730624365
0.000215917869983282
0.000119179993899623
7.29770520332567e-05
6.39370820724188e-05
6.96189032160571e-05
7.16607721939316e-05
0.000483707311468044
0.000224075450790526
9.9180918577715e-05
5.29364136946138e-05
4.97624152790657e-05
6.47157120906353e-05
8.44183347057915e-05
8.93096059026883e-05
0.000762427417768378
0.000383825749999383
0.00017302694255761
8.2696670507889e-05
6.77819539167038e-05
8.37228849264805e-05
0.000108870201299647
0.000135696112707261
0.000126122574805522
4.76636724286429e-05
3.84861048404286e-05
3.30033515713444e-05
3.32906060048381e-05
0.00127447307814282
0.000759378504660815
0.000412381765022295
0.000221006408009873
0.000155233161551852
0.000161003506512502
0.0001830990120027
0.000211595714786603
0.000228054702875609
0.000175715258980793
5.6621473054517e-05
0.00199775436559936
0.00139966015305142
0.00089753058602863
0.000544685864822172