/*--------------------------------*- C++ -*----------------------------------*\
  =========                 |
  \\      /  F ield         | OpenFOAM: The Open Source CFD Toolbox
   \\    /   O peration     | Website:  https://openfoam.org
    \\  /    A nd           | Version:  12
     \\/     M anipulation  |
\*---------------------------------------------------------------------------*/
/*   Windows 32 and 64 bit porting by blueCAPE: http://www.bluecape.com.pt   *\
|  Based on Windows porting (2.0.x v4) by Symscape: http://www.symscape.com   |
\*---------------------------------------------------------------------------*/
FoamFile
{
    format      ascii;
    class       volScalarField;
    location    "400";
    object      p;
}
// * * * * * * * * * * * * * * * * * * * * * * * * * * * * * * * * * * * * * //

dimensions      [0 2 -2 0 0 0 0];

internalField   nonuniform List<scalar> 
10107
(
83333.3298779225
83333.3302081375
83333.3298819897
83333.3296807026
83333.331067163
83333.330755063
83333.3299862463
83333.3301688319
83333.3297958224
83333.329694309
83333.3323930892
83333.3314093328
83333.3308029659
83333.330884058
83333.3305729463
83333.330266564
83333.3301681929
83333.3302842256
83333.329762676
83333.3300922142
83333.3298505526
83333.3296684703
83333.32959401
83333.3297523397
83333.3296330694
83333.332025005
83333.3324691378
83333.3315236558
83333.3312417384
83333.3310900256
83333.3309913566
83333.3306204287
83333.3305077064
83333.3304823271
83333.3301939836
83333.3302737937
83333.3302499462
83333.3301655249
83333.3299676793
83333.3304052604
83333.3298097255
83333.3301727034
83333.3294516871
83333.3296882872
83333.3300751724
83333.3300963767
83333.3299241243
83333.3298954917
83333.3298292739
83333.329778138
83333.3297546758
83333.3319518482
83333.3324381055
83333.3323664483
83333.3316968859
83333.331420343
83333.3311049467
83333.3311253802
83333.3311297809
83333.3308360352
83333.3305406437
83333.3302207611
83333.3295752313
83333.3303482834
83333.3297826867
83333.3300299224
83333.329853599
83333.3304277471
83333.3298981501
83333.3302698782
83333.329463883
83333.3297487052
83333.3299952296
83333.3291952758
83333.3294086856
83333.3296095046
83333.330115537
83333.3298747438
83333.3298823064
83333.3298009618
83333.3320576345
83333.3321740007
83333.3325610378
83333.3322730917
83333.3318578971
83333.3316814582
83333.3312421153
83333.3309412448
83333.3312438186
83333.3309340199
83333.3307150867
83333.3293093337
83333.3297047162
83333.3295408648
83333.3308741629
83333.3299449058
83333.3305004924
83333.3298462875
83333.3302816835
83333.3294710248
83333.3298164287
83333.3301839814
83333.3291854963
83333.3294178841
83333.3296434886
83333.3296627732
83333.3290118539
83333.3291711996
83333.3293494983
83333.3294372496
83333.3319438678
83333.3322751566
83333.3325172958
83333.332616096
83333.3319538659
83333.3317823499
83333.3314097994
83333.3315897983
83333.3311475836
83333.3312196395
83333.3307154771
83333.3291362482
83333.3293601614
83333.3293056664
83333.3296007367
83333.3306983801
83333.3304093012
83333.3298896085
83333.3304390573
83333.3294062499
83333.3297888978
83333.3301459652
83333.3291582885
83333.3294297277
83333.3297076992
83333.3298151365
83333.328988612
83333.3291592575
83333.329354089
83333.3294754389
83333.3293504474
83333.328998349
83333.3291302041
83333.3292475583
83333.3292502488
83333.3321858601
83333.3324375842
83333.3327064665
83333.3325847792
83333.3318981854
83333.3320193956
83333.3315545902
83333.3314914638
83333.3311576726
83333.3311345478
83333.3310201123
83333.3289994846
83333.3291617645
83333.3291341742
83333.3293714364
83333.3296909961
83333.3310992357
83333.3304010876
83333.3298603216
83333.3303451285
83333.3294136126
83333.3298183112
83333.3302748717
83333.3290927999
83333.3293977287
83333.329692126
83333.329750152
83333.3289461947
83333.3291374183
83333.3293557144
83333.329516262
83333.3294121639
83333.3289785215
83333.3291231918
83333.3292534263
83333.3292584043
83333.329162059
83333.3289736364
83333.3290673729
83333.3291233661
83333.3290981447
83333.3323709233
83333.3326056018
83333.3327012412
83333.3325543847
83333.331965387
83333.3319223526
83333.3318363832
83333.3318073736
83333.3312212236
83333.3310043954
83333.330996289
83333.3288846345
83333.3290343334
83333.3289973198
83333.3291793709
83333.3294091111
83333.3295977652
83333.3310712512
83333.3304502771
83333.3298247865
83333.3302442788
83333.3293949064
83333.3297627067
83333.3302514157
83333.3290803164
83333.3293777873
83333.3297390463
83333.3298433173
83333.3288873306
83333.3291000186
83333.3293273919
83333.329455294
83333.329396291
83333.3288262876
83333.3289404612
83333.3291090443
83333.3292384777
83333.3292695455
83333.32918087
83333.3289617759
83333.3290629362
83333.3291181482
83333.3291111712
83333.3290352264
83333.3289356357
83333.3289931561
83333.3290195229
83333.3289747592
83333.3321438051
83333.3325130334
83333.3326012476
83333.3323225402
83333.3319423058
83333.3318204513
83333.3317784034
83333.3319285951
83333.3309409059
83333.3310804785
83333.3309529744
83333.3287864871
83333.3289264767
83333.3288811682
83333.3290573648
83333.3292130613
83333.3294150294
83333.3291369022
83333.3309211787
83333.330258812
83333.3297397542
83333.3302101863
83333.3293798441
83333.3297267272
83333.330177022
83333.3290422845
83333.3293170299
83333.329673518
83333.3299402506
83333.3288726005
83333.3290660788
83333.3293230086
83333.3295250941
83333.3294224956
83333.3287772509
83333.3288983803
83333.3290702284
83333.3291829322
83333.3292449999
83333.3291841985
83333.3287757732
83333.3288302229
83333.3289389021
83333.3290430712
83333.3290933578
83333.3291105637
83333.3290558597
83333.3289295661
83333.3289877952
83333.329027119
83333.3290051448
83333.3289265616
83333.3288898205
83333.3289279873
83333.3289269601
83333.3288673497
83333.332193034
83333.3325023072
83333.3325440155
83333.3323739588
83333.3315581372
83333.3317804297
83333.3317268964
83333.3316565805
83333.3307068753
83333.3308687605
83333.3306070204
83333.3287036931
83333.32883201
83333.3287818609
83333.3289530226
83333.3290857822
83333.3292246314
83333.3293696985
83333.3298387882
83333.3304236457
83333.3300912208
83333.3295821637
83333.3301412654
83333.3292368596
83333.3296152096
83333.3299929264
83333.3290271033
83333.3293068979
83333.3296169562
83333.329727244
83333.3288411383
83333.3290032581
83333.3292341535
83333.3295539547
83333.3294097921
83333.3287616605
83333.3288689099
83333.3290317839
83333.3291807194
83333.329269849
83333.3291856697
83333.3287444626
83333.3287917051
83333.3289057644
83333.3289834661
83333.3290550767
83333.3290962615
83333.3290661736
83333.3287493848
83333.3287797823
83333.3288373299
83333.3289083284
83333.3289602143
83333.3290136066
83333.3290180321
83333.3289555009
83333.328889835
83333.3289374124
83333.3289541552
83333.3289109915
83333.3288298505
83333.3288457653
83333.3288630771
83333.3288378156
83333.3287727486
83333.3323939287
83333.3324196999
83333.3325589466
83333.3322249733
83333.3313264136
83333.3315119048
83333.3314027827
83333.3313455818
83333.3303886786
83333.3305235758
83333.3305387583
83333.3286325129
83333.3287508963
83333.3286983598
83333.3288635611
83333.3289814305
83333.3290951116
83333.3291953114
83333.3294498152
83333.3296799963
83333.3304759695
83333.3298489036
83333.3294057479
83333.3300165376
83333.3290739546
83333.3294886752
83333.3299846963
83333.3288883507
83333.3291717575
83333.3294707424
83333.3295773522
83333.3288250418
83333.3289724654
83333.3291995839
83333.3293608719
83333.3293004413
83333.3287517676
83333.3288199157
83333.3289491035
83333.3291345011
83333.3292411503
83333.3291437891
83333.3287296354
83333.3287679395
83333.3288709197
83333.3289473123
83333.329041096
83333.3290939888
83333.3290650156
83333.3287446669
83333.3287551587
83333.3288190843
83333.3288636062
83333.3289077201
83333.3289842405
83333.329018113
83333.3289750436
83333.3287226638
83333.3287513267
83333.3287856462
83333.3288260737
83333.3288668228
83333.3289227537
83333.3289604904
83333.3289376779
83333.3288642179
83333.3288613538
83333.3288919502
83333.3288804017
83333.3288219676
83333.3287461966
83333.3287972374
83333.3287931922
83333.3287530284
83333.3286905118
83333.3322857094
83333.332232942
83333.3322750869
83333.3316239259
83333.3309103605
83333.3308824166
83333.3312287409
83333.3312468823
83333.3300047696
83333.3301977032
83333.3301581463
83333.3285711979
83333.328679404
83333.3286273991
83333.3287850722
83333.3288930113
83333.3289941432
83333.3290765998
83333.3291948737
83333.3293938989
83333.3292657367
83333.3297858902
83333.3294661573
83333.329228534
83333.3298197117
83333.3289456723
83333.329316066
83333.3297129599
83333.3287593107
83333.3290119008
83333.3293980506
83333.3295693226
83333.3286839516
83333.3288514278
83333.3290827593
83333.3292530282
83333.3292436384
83333.328774364
83333.3287780159
83333.3289171174
83333.3290539843
83333.3291376232
83333.329108902
83333.3287352034
83333.3287330896
83333.3287968748
83333.328895585
83333.3290066043
83333.3290496356
83333.3290453803
83333.328744385
83333.3287392472
83333.3288053182
83333.328835696
83333.3288668279
83333.328959241
83333.3290135078
83333.3289797568
83333.3287391226
83333.3287492884
83333.3287793054
83333.3288072631
83333.3288225228
83333.3288866032
83333.328950606
83333.3289523459
83333.3288897255
83333.3286874198
83333.3287218091
83333.3287520579
83333.3287811402
83333.328808257
83333.3288527726
83333.3288978565
83333.3289045126
83333.3288567969
83333.3287824054
83333.3288292862
83333.3288364117
83333.3288028013
83333.3287399807
83333.3286738411
83333.3287412724
83333.3287210763
83333.3286757128
83333.3286200619
83333.331919485
83333.3322561815
83333.331676322
83333.3319097751
83333.3306855105
83333.3306528675
83333.3306943468
83333.3301962121
83333.3295441096
83333.3295489654
83333.3297289055
83333.3295589165
83333.3285187555
83333.3286162639
83333.328566491
83333.328714763
83333.3288146488
83333.32890964
83333.3289891911
83333.3290686502
83333.3291894366
83333.3291810761
83333.3293645942
83333.3284385778
83333.3290571214
83333.3290689034
83333.3294062086
83333.3288630402
83333.3291755982
83333.3295115167
83333.3295430064
83333.3286968111
83333.3288827067
83333.3292128257
83333.3294815932
83333.3294214434
83333.3285961753
83333.3287318352
83333.3289598581
83333.3292299952
83333.3291990344
83333.3286298189
83333.3286616353
83333.3288098767
83333.328978856
83333.3290819209
83333.3290888765
83333.3288254528
83333.3287190934
83333.3287497734
83333.3288368932
83333.3289495463
83333.3290298249
83333.329033406
83333.3287638024
83333.3287166052
83333.3287396611
83333.3287919202
83333.3288414682
83333.3289183244
83333.3289898329
83333.3289709248
83333.3287575712
83333.3287484598
83333.3287846672
83333.3288073711
83333.3287856352
83333.3288459867
83333.3289342629
83333.3289544089
83333.3289025341
83333.3287148417
83333.3287391205
83333.328759004
83333.3287818412
83333.3287868569
83333.3288232886
83333.3288835627
83333.3289136261
83333.3288806227
83333.3288109413
83333.3286452082
83333.3286847958
83333.3287181979
83333.3287458774
83333.32876882
83333.32880086
83333.3288402576
83333.328861419
83333.3288387809
83333.3287784837
83333.328710466
83333.3287844958
83333.3287707467
83333.3287263785
83333.3286674157
83333.3286110468
83333.3286806966
83333.3286516001
83333.3286074437
83333.3285596633
83333.3311123246
83333.3317485608
83333.3314279469
83333.3318091507
83333.3299921032
83333.3299860449
83333.328710883
83333.3290781557
83333.3292599793
83333.3287383181
83333.3295214229
83333.329374068
83333.3291824785
83333.3294092754
83333.3290438141
83333.328474608
83333.3285614578
83333.328514555
83333.3286518502
83333.3287441731
83333.3288348743
83333.3289142212
83333.3289940829
83333.329055743
83333.3290502067
83333.3291508731
83333.328965243
83333.3289282271
83333.3289121374
83333.3290171735
83333.3288074934
83333.3290237639
83333.3291759915
83333.3293507447
83333.32925868
83333.3286704877
83333.3288218328
83333.3290364918
83333.3292731917
83333.329470554
83333.329300473
83333.3292631093
83333.328575155
83333.3286735174
83333.328855984
83333.329121034
83333.3294236005
83333.3292791079
83333.3291542111
83333.3291436955
83333.3285524141
83333.3285935944
83333.3287229347
83333.3289251952
83333.3290701003
83333.3290314365
83333.3287031689
83333.3286095079
83333.3286521408
83333.3287807261
83333.3289161981
83333.3290002824
83333.3290182454
83333.3288825956
83333.3287586087
83333.3286954872
83333.3287156795
83333.3287996344
83333.3289078968
83333.3289818256
83333.3289724254
83333.3287885851
83333.3287473095
83333.3287384422
83333.3287825035
83333.3287695474
83333.3288129426
83333.3289078994
83333.3289457059
83333.3289039788
83333.3287411874
83333.32875667
83333.3287717527
83333.3288024426
83333.3287745913
83333.328787084
83333.3288590056
83333.3289106449
83333.3288928775
83333.3288300235
83333.3286764352
83333.3287121469
83333.3287383967
83333.3287597016
83333.3287689164
83333.3287885115
83333.3288316029
83333.3288684403
83333.3288615422
83333.3288075592
83333.3287399347
83333.3286015571
83333.328642054
83333.3286787929
83333.3287087929
83333.3287321139
83333.3287572701
83333.3287881204
83333.3288115729
83333.3288074833
83333.3287672109
83333.3287062385
83333.3286472938
83333.3287287664
83333.3287018804
83333.3286558146
83333.3286044983
83333.3285567703
83333.3286200386
83333.3285879952
83333.3285482216
83333.3285081894
83333.3311969296
83333.3309501363
83333.3311063937
83333.3291736986
83333.3289509496
83333.328997419
83333.3290118872
83333.3287811838
83333.3290507084
83333.328970913
83333.328438419
83333.3285148222
83333.3284708077
83333.3285964837
83333.3286811391
83333.3287668293
83333.328846901
83333.3289234534
83333.3289764969
83333.3289877242
83333.3290325959
83333.3289854624
83333.3288910067
83333.3288847224
83333.3288687293
83333.3289093693
83333.328773656
83333.328883986
83333.3289550065
83333.3290097326
83333.3289571886
83333.3290718642
83333.3286711617
83333.3287898813
83333.3289484296
83333.329100164
83333.3291309397
83333.3285824112
83333.3286575043
83333.3288051053
83333.3290047834
83333.3290866088
83333.3292294498
83333.3290928562
83333.3291755723
83333.3285523783
83333.3285783415
83333.3286789681
83333.3288505924
83333.3290130894
83333.3290098236
83333.3290241569
83333.3290329471
83333.328994439
83333.3286116001
83333.3285560819
83333.3286104719
83333.3287419355
83333.328900724
83333.3289792667
83333.3289762396
83333.328813871
83333.3286720779
83333.3286049607
83333.3286571655
83333.3287805724
83333.3288961733
83333.3289675595
83333.3289652529
83333.3288904398
83333.3288211341
83333.3287252099
83333.328697925
83333.3287170318
83333.3288013798
83333.3289027149
83333.3289441538
83333.3289128362
83333.3287703181
83333.3287776277
83333.3287606919
83333.3288065151
83333.3287754062
83333.3287616439
83333.3288352504
83333.32890116
83333.3288949685
83333.3288409481
83333.3287052999
83333.3287380332
83333.3287594526
83333.3287865833
83333.3287798928
83333.3287716878
83333.3288108173
83333.3288614507
83333.3288719465
83333.328827073
83333.3287622965
83333.3286339204
83333.3286733459
83333.3287068547
83333.3287319763
83333.3287466688
83333.3287619324
83333.3287909738
83333.3288225938
83333.3288302036
83333.3287974964
83333.3287370918
83333.3286769795
83333.3285983407
83333.3286353623
83333.3286676224
83333.3286928823
83333.3287153381
83333.3287396912
83333.3287606783
83333.3287652555
83333.3287430743
83333.3286965796
83333.3286421738
83333.3285922882
83333.3286683845
83333.3286358936
83333.328593441
83333.3285504193
83333.3285106232
83333.3285626687
83333.3285315667
83333.3284974632
83333.3284648147
83333.3312543621
83333.3288854562
83333.3289114959
83333.3289321374
83333.3291214593
83333.3290663639
83333.3284099665
83333.3284763271
83333.328434837
83333.3285488762
83333.3286256091
83333.3287050659
83333.3287831199
83333.328858753
83333.3289122964
83333.328934785
83333.3289703751
83333.3289528984
83333.3289095092
83333.3289100416
83333.3288407187
83333.3288599625
83333.3288752894
83333.3287980483
83333.3288681503
83333.3288985383
83333.3286908154
83333.328778025
83333.3288871087
83333.3289521424
83333.3290529996
83333.3290402634
83333.3286065003
83333.3286745459
83333.3287973159
83333.3289431522
83333.3290738518
83333.3285721575
83333.3285912763
83333.328679353
83333.3288314088
83333.3289610254
83333.3290162109
83333.3290231708
83333.3290435112
83333.3286009442
83333.3285623071
83333.3286028083
83333.3287080363
83333.3288488692
83333.3289503357
83333.3289628939
83333.3289678898
83333.3289490826
83333.3289309436
83333.3287289304
83333.3286076646
83333.3285774188
83333.3286446268
83333.3287681302
83333.3288906749
83333.3289475544
83333.3289362322
83333.3288721568
83333.3287752231
83333.3286573283
83333.3286217753
83333.3286873234
83333.328799034
83333.3289017382
83333.3289399062
83333.3289092303
83333.3288311845
83333.3288466878
83333.3287809747
83333.3287464616
83333.3287139033
83333.3287413156
83333.3288291976
83333.3288998085
83333.328900683
83333.3288520168
83333.3287316229
83333.3287642941
83333.3287749746
83333.3288131771
83333.328801357
83333.3287619351
83333.3287929537
83333.3288517637
83333.3288748495
83333.3288384188
83333.3287782542
83333.3286632137
83333.3287020609
83333.328733112
83333.3287594419
83333.3287687912
83333.3287662132
83333.3287842162
83333.3288204984
83333.3288401184
83333.3288174571
83333.3287601878
83333.3287007394
83333.3286304161
83333.3286666084
83333.328696362
83333.3287163055
83333.3287319502
83333.3287532424
83333.3287777533
83333.328789867
83333.3287741285
83333.3287293228
83333.3286731157
83333.3286218447
83333.328591829
83333.3286240346
83333.3286509754
83333.3286730716
83333.3286936259
83333.3287114934
83333.3287191698
83333.328708405
83333.3286769562
83333.32863248
83333.3285867686
83333.3285450667
83333.3286088233
83333.3285761547
83333.3285396077
83333.3285045443
83333.328472449
83333.3285104524
83333.3284825047
83333.3284544944
83333.3284290361
83333.3288393255
83333.3288683941
83333.3288923612
83333.3289293566
83333.3283891685
83333.328445955
83333.3284065369
83333.3285092262
83333.3285778107
83333.3286500686
83333.3287234731
83333.3287959735
83333.3288534693
83333.3288878464
83333.3289190619
83333.3289212608
83333.3288993034
83333.3288895693
83333.3288740379
83333.3288014837
83333.3288323714
83333.3288351115
83333.3288204769
83333.3288565882
83333.3288630303
83333.3287367374
83333.3288061819
83333.3288726823
83333.3288847315
83333.3286424821
83333.3287060013
83333.3288025659
83333.3288988612
83333.3285911747
83333.3286219021
83333.3287049966
83333.3288347183
83333.328920554
83333.3286104585
83333.328585187
83333.3286242831
83333.3287232813
83333.3288488766
83333.328924531
83333.3286875767
83333.3286069702
83333.3285891512
83333.3286440767
83333.3287458166
83333.3288619766
83333.3289243364
83333.3289180764
83333.3289285905
83333.3289156664
83333.3289030438
83333.3288090016
83333.3287155738
83333.3286183463
83333.3286135081
83333.3286866797
83333.3288004692
83333.328896507
83333.3289238793
83333.3288908678
83333.3288394835
83333.3288358162
83333.3287460085
83333.3286750003
83333.3286630297
83333.3287317099
83333.3288317681
83333.32890283
83333.3289010819
83333.3288510506
83333.3287621217
83333.3288097569
83333.3288102758
83333.3287943346
83333.3287588187
83333.3287350188
83333.3287837718
83333.3288509656
83333.3288804167
83333.3288476465
83333.3287906475
83333.3286887768
83333.3287274335
83333.3287561894
83333.3287882491
83333.3287993619
83333.3287756231
83333.3287777633
83333.3288156236
83333.3288440874
83333.3288302427
83333.3287767118
83333.3287190536
83333.328619885
83333.3286596305
83333.3286952039
83333.3287243097
83333.3287417276
83333.3287486756
83333.3287612667
83333.32878518
83333.3288036496
83333.3287952188
83333.3287538975
83333.3286976173
83333.3286461308
83333.3286234255
83333.3286549972
83333.3286793211
83333.3286971235
83333.3287147773
83333.3287337647
83333.3287458626
83333.3287398761
83333.3287104891
83333.3286648897
83333.3286172026
83333.3285744627
83333.3285812133
83333.3286080147
83333.3286304247
83333.3286492977
83333.3286648356
83333.328673321
83333.328668985
83333.3286486633
83333.3286152676
83333.32857663
83333.3285394998
83333.3285057229
83333.3285534849
83333.3285238092
83333.3284938736
83333.3284664907
83333.32844225
83333.3284642349
83333.3284406302
83333.328418921
83333.3284006266
83333.328801423
83333.3288310325
83333.3288554431
83333.3283757584
83333.3284236699
83333.3283860658
83333.3284777201
83333.3285380023
83333.3286025359
83333.3286694874
83333.3287369736
83333.3287968149
83333.3288392065
83333.328873597
83333.3288879503
83333.3288788067
83333.328867445
83333.3288567975
83333.3288404055
83333.3287669152
83333.3287991589
83333.3287980317
83333.3288137411
83333.3288281633
83333.3288259451
83333.3287728609
83333.3288207931
83333.3288523482
83333.3288480828
83333.3286905698
83333.3287486614
83333.3288224678
83333.3288712877
83333.3288666762
83333.3286206058
83333.3286601502
83333.3287371686
83333.328833497
83333.3288887676
83333.3286111481
83333.3286090185
83333.3286576282
83333.3287509371
83333.328850947
83333.3288981805
83333.3286673688
83333.3286202261
83333.3286158179
83333.3286709519
83333.3287650266
83333.3288603959
83333.3289032467
83333.3287474446
83333.3286864838
83333.328626034
83333.3286301607
83333.3286909223
83333.3287912732
83333.3288780736
83333.32890405
83333.3288738812
83333.328889892
83333.3288876594
83333.3288786115
83333.328799339
83333.3287893991
83333.3287079937
83333.3286474928
83333.3286593511
83333.3287369139
83333.3288355289
83333.3288971895
83333.3288899137
83333.328839997
83333.3287712676
83333.3288169903
83333.3288011021
83333.3287490794
83333.3287069798
83333.3287138261
83333.3287826321
83333.3288569065
83333.3288847529
83333.3288496156
83333.3287936613
83333.3287115037
83333.3287537983
83333.3287850647
83333.3287997515
83333.3287876173
83333.3287590113
83333.3287686049
83333.3288152848
83333.3288505919
83333.3288400612
83333.3287886797
83333.3287325163
83333.3286451713
83333.3286850271
83333.3287194482
83333.3287496457
83333.3287692038
83333.3287681195
83333.3287688134
83333.3287892038
83333.3288121237
83333.3288098109
83333.3287719799
83333.3287164565
83333.3286655501
83333.3285768692
83333.3286161408
83333.3286523224
83333.328683661
83333.3287062751
83333.3287197284
83333.3287323471
83333.3287496855
83333.3287645956
83333.3287630635
83333.3287363795
83333.3286907064
83333.3286420434
83333.3285990836
83333.3286121377
83333.3286382477
83333.3286585669
83333.3286752989
83333.3286907189
83333.3287015207
83333.3287003974
83333.3286820787
83333.3286483162
83333.3286079888
83333.3285694048
83333.3285348571
83333.328566504
83333.3285882976
83333.3286064865
83333.3286207206
83333.3286292821
83333.3286286208
83333.3286157749
83333.3285914704
83333.3285606232
83333.3285290481
83333.328500095
83333.3284743747
83333.3285040442
83333.3284789794
83333.3284558611
83333.3284360499
83333.3284202215
83333.3284244015
83333.3284058597
83333.3283906299
83333.3283797316
83333.3287673748
83333.3287964236
83333.3288216769
83333.3283683355
83333.3284092066
83333.3283731222
83333.3284545249
83333.3285062605
83333.328562945
83333.3286226347
83333.3286839054
83333.3287424661
83333.3287901151
83333.3288285168
83333.328851725
83333.3288550561
83333.3288474945
83333.3288376013
83333.3288259009
83333.3288098177
83333.3287365502
83333.3287663206
83333.3287645762
83333.3287903877
83333.3287958983
83333.3287912792
83333.3287810374
83333.3288113131
83333.3288222076
83333.3288144187
83333.3287285704
83333.3287762479
83333.3288237723
83333.3288434731
83333.3288329182
83333.3286610862
83333.3287031251
83333.3287691248
83333.328834957
83333.3288614759
83333.3288459891
83333.3286254286
83333.3286376695
83333.3286917311
83333.3287726912
83333.3288456532
83333.3288733527
83333.3286469871
83333.3286261975
83333.328642034
83333.3287031035
83333.3287861052
83333.3288563094
83333.3288805873
83333.3287028151
83333.3286716515
83333.3286427527
83333.3286582212
83333.3287174823
83333.3288039003
83333.3288705894
83333.3288837618
83333.3287502496
83333.3287413796
83333.3286917689
83333.328658582
83333.3286761749
83333.3287451554
83333.3288310758
83333.3288838172
83333.3288739009
83333.3288280275
83333.3288520632
83333.3288594441
83333.328855002
83333.3287549495
83333.3287856116
83333.3287682588
83333.3287160128
83333.3286868405
83333.3287140649
83333.3287895247
83333.3288598277
83333.3288814212
83333.3288428206
83333.3287889446
83333.3287209776
83333.3287616543
83333.3287887756
83333.3287827897
83333.3287535981
83333.328735519
83333.3287631649
83333.3288199579
83333.3288580177
83333.3288449982
83333.3287934943
83333.3287391448
83333.3286665792
83333.3287066623
83333.3287408662
83333.3287671318
83333.3287769912
83333.3287680072
83333.3287670916
83333.3287916904
83333.3288204018
83333.3288216841
83333.3287852
83333.3287302596
83333.3286801785
83333.3286009731
83333.3286411868
83333.3286773076
83333.3287080906
83333.328730645
83333.3287414373
83333.3287485417
83333.3287623853
83333.3287785784
83333.3287804975
83333.3287562155
83333.3287109062
83333.3286618602
83333.3286192103
83333.3285355233
83333.3285734186
83333.3286090209
83333.3286405415
83333.3286661419
83333.3286842237
83333.3286980818
83333.3287120962
83333.3287240242
83333.3287254397
83333.328708955
83333.3286751791
83333.3286337408
83333.328594345
83333.3285597556
83333.3285965566
83333.3286178795
83333.3286350647
83333.3286488658
83333.3286583964
83333.3286596431
83333.3286483793
83333.3286243089
83333.3285923265
83333.3285593785
83333.3285294672
83333.3285031776
83333.3285483741
83333.3285655338
83333.3285790488
83333.3285875804
83333.3285890654
83333.3285812945
83333.328563887
83333.3285397307
83333.3285136649
83333.3284893973
83333.3284683591
83333.328451249
83333.3284612366
83333.3284416331
83333.3284254106
83333.3284133713
83333.3284060459
83333.3283912575
83333.3283783374
83333.3283699262
83333.3283667123
83333.3287370684
83333.3287642811
83333.3287892223
83333.3283655889
83333.3284011501
83333.3283660373
83333.3284393356
83333.3284827113
83333.32853136
83333.3285836627
83333.3286381761
83333.3286925543
83333.3287419911
83333.3287831805
83333.3288126216
83333.3288262609
83333.3288255013
83333.3288190234
83333.3288099779
83333.3287971123
83333.3287797674
83333.3287099779
83333.3287362018
83333.3287348282
83333.328761392
83333.3287638668
83333.3287595626
83333.3287693546
83333.3287876987
83333.3287905018
83333.3287820389
83333.3287453148
83333.3287808201
83333.3288086756
83333.3288137422
83333.3288011332
83333.328697105
83333.3287342709
83333.3287837865
83333.328824315
83333.3288322225
83333.328815305
83333.328653169
83333.328673386
83333.3287240837
83333.3287887982
83333.3288377013
83333.3288464191
83333.328824247
83333.3286461764
83333.3286397541
83333.3286670934
83333.3287285304
83333.3287984406
83333.3288486523
83333.3288558397
83333.3286723724
83333.3286565621
83333.3286529276
83333.3286831225
83333.3287439127
83333.3288145833
83333.3288615768
83333.32886052
83333.3287090359
83333.3287033372
83333.3286826493
83333.3286748746
83333.3287013
83333.328764957
83333.3288351844
83333.3288733482
83333.3288544458
83333.3287262272
83333.3287443801
83333.3287345521
83333.3287052337
83333.3286942786
83333.3287268005
83333.3287951775
83333.328856207
83333.3288695077
83333.3288311285
83333.32878167
83333.3288121594
83333.3288274625
83333.3288296958
83333.3287157738
83333.3287481313
83333.328766349
83333.3287546538
83333.3287281942
83333.3287258658
83333.3287662752
83333.3288262638
83333.3288605976
83333.3288429013
83333.3287912482
83333.3287398253
83333.3286791715
83333.3287162202
83333.3287471283
83333.3287657162
83333.328764406
83333.3287538146
83333.3287615205
83333.3287950465
83333.3288286232
83333.3288298938
83333.3287924379
83333.3287380606
83333.3286893818
83333.328621306
83333.3286620384
83333.3286975226
83333.3287260762
83333.3287448955
83333.3287515168
83333.3287558796
83333.3287701145
83333.3287895059
83333.3287944282
83333.3287713662
83333.3287260385
83333.3286769175
83333.3286349173
83333.3285579824
83333.3285971303
83333.3286336128
83333.3286652049
83333.328690093
83333.3287066484
83333.3287180907
83333.3287301714
83333.3287422352
83333.3287453709
83333.3287303026
83333.3286966339
83333.3286544785
83333.3286146875
83333.3285804722
83333.3284979482
83333.3285325446
83333.328566975
83333.3285979367
83333.3286241323
83333.3286448824
83333.3286605618
83333.3286732897
83333.3286831123
83333.3286857201
83333.3286756883
83333.3286516903
83333.3286187254
83333.3285847822
83333.3285544285
83333.3285282401
83333.3285775785
83333.3285947417
83333.328608183
83333.3286170987
83333.3286195653
83333.3286128201
83333.328595792
83333.3285711379
83333.3285440084
83333.3285188264
83333.3284971714
83333.3284795856
83333.3285274645
83333.3285400011
83333.3285484497
83333.3285512354
83333.3285468661
83333.3285346949
83333.3285161136
83333.3284947204
83333.3284744632
83333.3284574685
83333.3284444388
83333.3284360759
83333.3284254965
83333.328411916
83333.3284028561
83333.328399024
83333.3283982409
83333.3283652053
83333.3283585353
83333.3283574667
83333.3283600616
83333.3287104173
83333.3287350517
83333.3287588352
83333.3283979402
83333.3283629276
83333.3284308832
83333.328467053
83333.3285078243
83333.3285525611
83333.3286001877
83333.328648989
83333.3286964719
83333.3287392153
83333.3287719874
83333.3287934436
83333.3288001744
83333.3287985087
83333.3287924131
83333.3287827611
83333.3287687636
83333.3287513703
83333.3286869068
83333.3287095478
83333.328708605
83333.3287326739
83333.3287343319
83333.3287311106
83333.3287476156
83333.3287590797
83333.3287594032
83333.3287522799
83333.3287425803
83333.3287677076
83333.328783772
83333.328782769
83333.3287709097
83333.3287163598
83333.3287468697
83333.3287815386
83333.3288042425
83333.3288026346
83333.3287857508
83333.3286815756
83333.3287035783
83333.3287445648
83333.3287912509
83333.3288205094
83333.3288177471
83333.3287955299
83333.3286596284