/*--------------------------------*- C++ -*----------------------------------*\
  =========                 |
  \\      /  F ield         | OpenFOAM: The Open Source CFD Toolbox
   \\    /   O peration     | Website:  https://openfoam.org
    \\  /    A nd           | Version:  12
     \\/     M anipulation  |
\*---------------------------------------------------------------------------*/
/*   Windows 32 and 64 bit porting by blueCAPE: http://www.bluecape.com.pt   *\
|  Based on Windows porting (2.0.x v4) by Symscape: http://www.symscape.com   |
\*---------------------------------------------------------------------------*/
FoamFile
{
    format      ascii;
    class       surfaceScalarField;
    location    "400";
    object      phi;
}
// * * * * * * * * * * * * * * * * * * * * * * * * * * * * * * * * * * * * * //

dimensions      [0 3 -1 0 0 0 0];

internalField   nonuniform List<scalar> 
28758
(
-7.70751206870895e-05
1.57223040251777e-07
2.63994311605002e-05
-5.92143490494861e-05
-2.59885741915e-05
8.12780037462311e-06
-3.13269693436071e-05
1.66934353356253e-06
-7.49625784737612e-05
-5.88220510026466e-06
-5.04943694885348e-05
-1.82250663731322e-05
9.50508862246479e-06
4.80189921307762e-05
-4.00044011630403e-05
-1.59428475397027e-05
-1.80603158026042e-05
-7.18422311755722e-05
1.22743217267033e-05
-7.26686619187969e-06
-1.15741875232326e-05
3.15229401120864e-05
-3.25673330886761e-06
1.58372328118038e-06
-6.2311383301191e-07
-4.03764950406103e-07
1.11249905927569e-06
-3.51453588130063e-06
-2.71801141152317e-07
-5.1214271277566e-07
9.358587542627e-06
-6.36108040052588e-06
-3.37611411448294e-05
-1.2979740761772e-05
-1.14885898822413e-05
-2.36238187494929e-05
-2.66952332522456e-05
-1.20180927974113e-05
4.67675052541131e-05
-5.86023569799689e-05
-1.36205118659014e-05
9.51251400306667e-06
-1.06284451647429e-06
-4.1286403478618e-06
-5.70140235970849e-06
-7.16743017605436e-06
-7.44786673272924e-05
-5.37269996776437e-07
2.30114690474721e-05
4.78100006424988e-07
-6.14702597857292e-06
-2.66078797960612e-06
-1.1309357804065e-05
3.34327628326946e-05
1.30699049874041e-05
-1.27895179730181e-05
1.04606844569709e-05
1.74919375769263e-05
-1.22121872330269e-06
-2.53706069552633e-07
-1.52999857691604e-06
-2.51812460483188e-07
5.58303243799327e-08
3.40305915554431e-07
-1.01925027004346e-06
2.76845346519462e-06
1.27438016684896e-06
1.6556438422176e-06
-3.97379368478148e-07
1.16077676045681e-06
-1.37674784499973e-06
2.82547835601672e-06
-3.54905534540387e-06
-7.44162870010107e-06
-6.70730419976584e-06
-5.82922249232113e-06
-5.20394073511522e-05
-1.38467277921387e-05
-5.69596634620616e-06
-7.08404638632371e-06
-4.71207197742547e-05
4.59740179764261e-06
1.1423544037434e-05
-8.17858495842125e-05
3.90121538839897e-06
-8.6121279604372e-06
8.97632212620857e-05
-0.000101304706078373
-1.70609755936572e-05
1.49819439635766e-05
-1.75097978564049e-06
5.20049124650682e-05
-3.58452074597096e-05
-1.13357317727846e-05
6.43951725235712e-06
-1.82481700221387e-06
-8.90977236366609e-06
-5.27562489600842e-06
-4.00157698334164e-06
-1.61017832369835e-06
-2.87431143418989e-06
-2.6829408324411e-06
1.73938012627599e-05
-0.000122247929503858
0.000101203945092902
3.11291289405461e-06
2.24497775137569e-05
-6.81671943982688e-05
-1.42550509324076e-05
0.000100377737428453
2.11735188104431e-06
-2.12883862024736e-06
-2.1421279932867e-06
-8.71213644070085e-06
7.12114531263494e-05
1.59545458285726e-05
-8.85614535925188e-06
2.19197522938067e-05
7.57963533684805e-06
-6.38660195124348e-07
-1.18545217602277e-05
3.88845186466514e-05
3.86834669624857e-05
-8.21810922297286e-06
5.34720569425542e-06
4.60938247057659e-06
1.83421642097125e-06
-1.9938560851138e-05
1.06515581998638e-05
1.03966722827785e-05
-1.81259513345075e-06
2.73444962254399e-06
-2.7817341006658e-06
-1.30753844068251e-06
-1.82047970720162e-06
-1.91311271425281e-07
-9.98381541341924e-07
-6.08286229508941e-07
3.78091518081758e-07
1.62986498221747e-07
4.73407146370646e-07
2.61340476504299e-06
-1.6439387343046e-06
1.6117171893667e-06
-1.03470830394854e-05
3.80210922978851e-06
3.09470305703289e-06
-4.5330236525921e-07
-4.88805645383454e-06
-5.71365869574169e-06
-0.000100037786672138
-1.20291467511185e-05
-3.08449962691074e-06
-1.39193044020011e-05
-1.07971634437394e-05
-1.2227310491775e-05
-6.70635402171208e-06
-4.90921956798329e-05
2.95610765050706e-06
-0.00015877261444729
2.1206197703926e-05
3.11240423572432e-05
-5.74258225841039e-05
-6.81098540615735e-06
1.60517934585219e-05
4.07937513257332e-05
-3.86642904007213e-05
-1.53470009389682e-05
1.68637514151589e-05
9.72918415050541e-06
0.000126009897014128
-0.000115278513801505
-2.82761138622682e-05
-3.17830073359033e-06
-3.50621718199815e-06
6.81819738018214e-05
-8.27618732254543e-07
1.14469407147588e-05
-1.12722266570284e-05
3.88946411355372e-05
-1.47803148839904e-05
-6.98397857235504e-05
3.17927019455967e-05
1.01874207105989e-05
7.46797903332791e-05
-3.18978784941267e-06
-8.36262072175211e-07
-5.81355543329624e-06
1.01263805043152e-05
1.80990862096269e-05
4.30158612470119e-06
4.84178786098039e-05
9.6358449425339e-06
-8.2285769674136e-06
3.21978230013643e-05
2.09245393016312e-05
-5.40036254485957e-06
1.31540055483274e-05
5.94799360051736e-06
-5.577322638376e-06
2.00017507012697e-05
1.21011562620488e-05
-2.94897364379932e-05
4.26692819515514e-05
8.16740560383832e-05
-6.42601654564055e-06
3.40641420324974e-06
1.80008583365452e-06
-8.41914228685357e-06
8.03991077927622e-06
6.71536262187709e-06
-1.61176569331763e-05
1.46952352832772e-05
2.59477973710557e-05
-2.59224804348974e-06
1.79103805074373e-07
6.61829811855027e-06
-1.46882619972376e-07
5.21088035494185e-06
2.22153593278977e-05
6.76166742767322e-07
1.54286849534026e-06
-7.90071667675068e-06
-9.49369986980885e-06
-3.10282799163448e-06
-6.32860526422367e-05
-6.01999428740361e-06
-1.48919641655317e-07
-5.86339037748769e-05
-9.32852781860192e-06
1.54164852818169e-05
1.04194877107822e-05
-0.000126768341897885
-8.20086708650384e-06
2.7796359088293e-05
-7.44290748426977e-06
6.92713875559555e-05
-8.26846464440627e-05
9.32098777460291e-06
-2.7187122436596e-06
-8.82268476489833e-06
2.47019097568169e-05
-2.4525167048835e-05
9.35074608856978e-06
-1.31525097311796e-05
0.000128599326358137
-0.00010249804970863
-2.43611188279261e-05
5.69314867874332e-05
4.07108222654814e-07
-6.3074506771324e-06
-4.12229850766828e-06
4.47003676089294e-05
-2.51103817710724e-06
-1.66440988747471e-05
1.60842715957186e-05
5.93935319106544e-05
-0.000119444326999022
0.000100948149522507
-9.4366425473145e-06
1.18854646122658e-05
4.82232633600454e-05
3.34911023177262e-06
-2.5558063121181e-06
8.83587937710984e-06
8.14789849115763e-06
-1.68333861839924e-05
1.05821257202938e-05
7.29910234691366e-06
8.56811845734951e-06
2.82575755750359e-05
6.19181581963327e-06
1.60495989539879e-07
2.71825865497493e-05
8.9132668339559e-06
-1.62107654527611e-05
6.88134671203384e-05
6.74314532226205e-05
-3.89698509493078e-06
7.89183139447252e-06
2.73313759156468e-06
-4.57890259151173e-06
1.45985513711281e-05
7.51094359892071e-06
-6.12225796015261e-06
2.11900735760493e-05
2.35849705718417e-05
-1.42899916705762e-05
2.36780889810526e-05
5.15196143865776e-05
-5.52993055707248e-06
1.06153524773641e-06
-5.40112636371258e-06
5.09953107591461e-06
3.7289612518416e-06
-5.29236926323927e-06
8.77674376075283e-06
1.06911377573142e-05
-2.36153163706898e-06
1.25127786560644e-05
2.48522588534053e-05
-2.47211924218973e-05
1.6895814967093e-06
-3.29983068282155e-06
1.21760583367183e-05
-5.75560952633528e-06
-5.00470109185968e-06
-3.18150307354323e-06
-7.95503249959087e-05
9.66882679395033e-06
-1.88231382841795e-05
2.95429504670277e-05
-2.38401254919423e-05
9.52164052211087e-06
4.42092587718429e-06
-8.44244865797686e-05
-1.52788781114952e-05
-0.000116017796380551
-6.44851478766186e-06
9.67986653841347e-05
-9.04539191117652e-05
3.685149013235e-06
-7.08904428286539e-07
4.29952362555231e-05
-0.000122184161059749
1.1202767488903e-05
4.07422905308745e-05
6.83706737910351e-06
0.000127591420014962
-0.000129697988173308
-1.97408643100279e-05
4.75953665213022e-05
-2.03044173896493e-07
-6.62888422154679e-06
-6.92635914004053e-06
4.71384158791317e-05
4.89544231053287e-06
6.16335378159708e-07
6.15017599286712e-06
3.58852358093069e-05
4.67259584595019e-05
6.04881252116572e-05
-8.77696341921722e-06
-8.12730277061755e-05
8.69652083616332e-05
-8.2917508207853e-06
6.68179281170439e-06
9.44871877151786e-05
7.51515576604136e-06
6.94550844850633e-06
2.73201857706196e-05
1.14017683743677e-05
6.44305478356276e-06
-4.65121999976772e-06
2.77191424140245e-05
5.33791197944446e-06
1.3861417121491e-05
-1.79533601210427e-06
-5.38230303355636e-06
2.17185021601603e-05
2.55432746381303e-06
-1.81964227361428e-05
6.8936856206364e-05
6.79393479474153e-05
6.04652226129553e-06
1.55155176907434e-05
2.79854692890245e-06
4.14677620811796e-06
2.28860959524502e-05
1.76262276847789e-06
-4.13421559460295e-06
5.0820130055975e-05
2.49185782470319e-05
-9.90058254577056e-06
6.10806965165931e-05
4.86873385053244e-05
-4.32754094172059e-06
1.41788956099173e-06
-2.65898737225692e-06
9.97859881737505e-06
4.61094543426874e-06
-3.36554674956429e-06
1.54895593751894e-05
1.12846340050233e-05
-5.42493935967167e-06
2.11447789936375e-05
2.91817177103377e-05
4.90987841297495e-06
6.58404122682889e-06
3.37157072675262e-05
-5.09913832361316e-06
2.35754475331e-06
-4.27738315067979e-06
5.42797533658487e-06
5.56677623252365e-06
-1.83202576224609e-07
7.86963820973029e-06
1.12932011254945e-05
4.76243512882956e-06
7.01324527487838e-06
1.70511603121854e-05
-1.37539223762717e-05
-1.63570700017969e-06
-1.26430164381802e-05
7.00788192183569e-06
-1.45377031383644e-05
-1.89470670312575e-05
4.63014259263053e-06
-8.21536094916973e-05
2.9137883385411e-06
-1.54526912754828e-06
-0.000237800387008383
2.3792233506829e-05
4.91607309115718e-05
2.2461702871107e-05
-0.000150056151406366
-7.86077767092174e-06
-6.11186646635551e-05
-4.14117560531672e-06
0.000126333985393074
-0.00012924749309192
5.09366368729393e-07
6.08929290722162e-06
-1.97515436698787e-05
-1.18658253515604e-05
1.31674822365597e-05
2.89437531137321e-05
-2.06362010791013e-05
0.00015863698567981
-0.000115313956420453
-1.68539832563976e-06
3.9795254678409e-05
-3.96428197273306e-06
-4.09551999322488e-06
-4.75591354219233e-06
4.58100235026523e-05
5.88128305083885e-06
3.56749262464824e-06
4.37485954801138e-08
2.1739833779886e-05
1.23846256752629e-05
4.63456016541794e-05
6.6533738419263e-06
1.64220436334166e-05
5.70520821940025e-05
4.7141307449139e-06
-0.000150768765362077
0.000125487613864164
-3.64679674088592e-06
-7.61724225058628e-08
0.000111804035143719
2.12879192804463e-05
1.34018127277065e-05
6.03800799652785e-05
2.76508110120441e-05
2.08042178341662e-05
-4.22639877354843e-05
1.56664502427559e-05
6.8884335768507e-06
1.95687203169125e-05
6.20094350693236e-06
3.97138493643507e-06
-6.67962429336305e-06
4.07649448389898e-06
-6.92623706186921e-06
0.000108819387053261
6.62665735837351e-05
7.81348934397378e-06
1.4687508095217e-05
-2.59306312238265e-06
4.35434992154644e-06
1.93044907447793e-05
4.11092116677587e-07
-7.42598882957957e-06
5.32512739749548e-05
2.15317104166111e-05
-7.7329342785346e-06
4.2587813210089e-05
3.96059840694961e-05
3.65805720751258e-07
9.68469127355442e-06
1.13747806483702e-06
4.73268637700892e-06
1.72547234735783e-05
1.0382346872567e-06
3.40949174943916e-06
3.60394067936959e-05
9.76830670272627e-06
-2.05565062770838e-06
5.12649719483375e-05
3.13650381159953e-05
9.99692622339387e-06
2.4145464419769e-05
3.18394815662766e-05
-3.36005351477144e-06
3.02666318412295e-06
-2.37304111980591e-06
1.09388548108872e-05
7.25730553120181e-06
1.33306072758355e-06
1.56742742528993e-05
1.52388845354704e-05
8.40093580734224e-06
1.19044755039875e-05
2.02228086220848e-05
7.82194897888632e-06
1.38776998110978e-06
2.33175898944424e-05
-4.95850139350527e-06
3.62834704479731e-06
-2.29433388889285e-06
4.70449943940453e-06
6.37358013384688e-06
2.56893617041596e-06
4.6276071164882e-06
9.05762531723962e-06
4.09792706414889e-06
1.94846571691658e-06
1.06694136893439e-05
-2.06840400469695e-05
1.47294958795611e-06
-5.43858847492994e-06
3.64879198508781e-05
2.08789352339368e-05
-1.61757245210685e-06
2.14049967715823e-06
-0.000125898125593492
1.48549252236756e-06
-1.92107183471167e-06
-3.0837414208928e-05
6.131105522652e-06
3.50874440456309e-05
1.04962981889326e-05
-9.34912549626347e-05
8.98094584894013e-06
-0.000142682917244973
-1.73072928822826e-06
0.000121893347729023
-0.000123601267356632
-6.57961077280772e-08
2.28308223692153e-06
6.72638276944212e-05
-5.01129504340931e-05
1.34431768951322e-07
1.97147154152793e-06
-1.1692679787492e-05
0.000155517062059873
-0.000116562960479629
-3.06112262414832e-09
3.43352499261332e-05
-6.62264718104355e-06
-2.51217774852886e-06
-4.38458597180458e-06
4.22012717316932e-05
4.02905009977874e-06
1.8890866512207e-06
-2.15925852428222e-06
1.54982632679432e-05
4.99997652981635e-06
3.46064274108621e-05
1.26205092766517e-05
6.28627652847187e-06
4.39904904869849e-05
1.34287258863999e-05
8.23952760468963e-05
4.84989176067615e-05
-6.92444219019013e-07
-0.000140406332617419
0.000123964771327711
1.10208460940468e-06
2.94906770698073e-07
0.00010058039702329
2.09418761697283e-05
3.56819837560547e-06
0.000100873912472759
2.0763744389679e-05
-6.81848767093054e-07
0.000100432151393146
9.60567433039055e-06
9.23734469071958e-06
3.68504502183154e-05
2.11807150193593e-05
1.37052886296805e-05
-2.98438445311672e-05
5.49677295419844e-06
1.24380697354768e-05
7.86421589404353e-05
7.31770585954549e-05
9.25734830287799e-06
1.67789738658263e-05
1.34587855185285e-06
6.31236642783541e-06
3.34649822967784e-06
-5.78319347457456e-06
2.99894811783206e-06
8.12728979640105e-05
2.11980690197978e-05
-4.10014720927314e-06
0.000101140369731557
4.38887269062169e-05
3.78644322190548e-06
1.29459591514726e-05
-1.67909547295508e-06
6.78872211439841e-06
1.83014376749182e-05
-3.64605497778649e-06
2.80870758234156e-06
4.47498909784581e-05
9.51326558255526e-06
-3.8908288497524e-06
3.92200020368248e-05
2.67347321330037e-05
8.28569457245565e-06
1.92841149972528e-05
2.83194134002337e-05
-2.68562728310293e-06
6.94837783258643e-06
8.1092267259524e-07
1.53925814840844e-06
1.16967099029594e-05
1.7961756173495e-06
4.91143484243466e-06
2.29355070936107e-05
6.85765383385098e-06
7.19720340623881e-06
3.79603329806664e-05
1.72088233279295e-05
1.52410901242063e-05
2.62587129433189e-05
2.24116554988518e-05
1.31973860796885e-05
8.57932346910965e-06
2.28847040081179e-05
-3.32260361088362e-06
5.04060988584026e-06
1.15950864770376e-06
1.03215012921015e-05
9.15623934382675e-06
7.86609761349471e-06
9.84991041228052e-06
1.19962941928526e-05
8.06636133243311e-06
4.87153316586341e-06
1.27706193068824e-05
5.64949814047267e-06
-1.55546603873136e-06
1.67280656188803e-05
-4.36496000328132e-06
4.37145903297968e-06
-1.03015877451949e-06
2.7658080256219e-06
5.7570852783551e-06
1.69969549159671e-06
1.51250144996242e-06
6.47027042827529e-06
2.70981464389506e-06
-6.60886406703907e-07
6.67450281862709e-06
-1.00339983665975e-05
-2.48330679088479e-06
3.90524778740513e-06
1.50563376206968e-05
2.36850619341365e-06
-3.10448152760415e-06
2.28240503490693e-06
-0.000117245511550663
1.15613259451838e-06
-6.02639663671184e-06
-5.40875152876587e-05
1.87358346061275e-06
6.31101264745967e-06
5.20585548214426e-06
-7.64262287587273e-05
-1.27420964783607e-06
-0.000135170657280902
-1.76055777607478e-06
1.34496802700784e-05
-3.77388006501161e-05
2.560634613657e-05
-1.38302139414445e-06
-3.84038576845475e-05
7.87856966882803e-06
8.2187601077688e-06
2.47240448869734e-05
1.86358747331072e-05
2.75799193930379e-05
-6.36985045714515e-05
1.9451126020926e-05
3.00122277430387e-05
-9.02391464873845e-06
-1.33345328566907e-06
-3.28652742119842e-06
3.7777832969955e-05
1.08734101964179e-06
7.7904065050461e-07
-2.41406888989438e-06
1.23010284061411e-05
-2.20712975684183e-06
3.05555645017062e-05
1.02870528001817e-05
7.71107533859447e-06
3.25213758455255e-05
1.63785556877921e-05
2.06772659015435e-05
3.74763532568581e-05
3.77404938287092e-06
8.08691758383387e-05
4.80573924043846e-05
-5.65423789097111e-06
-6.61423429875605e-05
6.96121438045557e-05
1.62681602561194e-05
6.18691560001882e-06
2.19950534121305e-06
5.35816802786935e-06
2.64648030031017e-06
7.43793553651555e-05
2.71227616758239e-05
-1.58872228212726e-05
5.85055615261885e-06
-8.10715358025777e-06
4.59305841696812e-06
9.8425940257226e-05
7.09225683927211e-06
2.64433908885408e-05
7.03045618077732e-05
3.81532536546845e-05
5.84916101745693e-06
4.5821838942548e-06
3.91923312514646e-05
6.11770021551309e-06
2.88027238363301e-05
1.11873638388108e-05
6.3207172787086e-06
-9.51780084212406e-06
8.46321982447649e-07
1.42366987689628e-05
4.65965280748027e-05
2.6304676984013e-05
8.66434259302402e-06
0.000103691783417536
3.75899854987788e-05
5.62818425585116e-06
1.57722940282128e-05
-8.35065788152232e-07
8.10621884832344e-06
1.15007889258781e-05
-8.1259199348819e-06
9.09881540961062e-06
6.72451507285148e-05
1.95445322633105e-06
1.88100959269833e-06
8.73013202163619e-05
2.92653053057468e-05
8.91530139910679e-06
3.74196676723891e-05
2.65167307851083e-05
2.15096760185912e-09
1.07768641368849e-05
-5.18684227676739e-07
5.02045678221452e-06
1.61729104391632e-05
-3.03177550360388e-06
6.03431620841045e-06
3.51431520460862e-05
4.83780665315247e-06
5.58125521763339e-06
3.56220388683655e-05
1.47271958730504e-05
1.30731770036834e-05
2.67775664705424e-05
2.14092271763467e-05
1.53716659877081e-05
1.05440705166313e-05
2.33121639154324e-05
-4.08341142072654e-06
5.30548136892717e-06
8.63766494540249e-07
-2.20169039039907e-06
8.25250765213542e-06
2.03760907787339e-06
1.43013060623736e-06
1.42162960219008e-05
5.76265165429969e-06
1.08159161569366e-05
2.30130160649252e-05
1.21485674157957e-05
1.59859402870064e-05
2.07644474652588e-05
1.45832630702876e-05
1.38234760978091e-05
1.05346832267142e-05
1.46991923330294e-05
9.42061187710088e-06
3.54805785774271e-07
1.65516629247366e-05
-2.11660413413204e-06
6.4533678917108e-06
3.27538903324296e-06
6.55261698868186e-06
8.1479878999363e-06
5.81839111592078e-06
4.37505458174607e-06
8.37407732152969e-06
5.40828858389507e-06
7.64717226156524e-07
7.75196038876891e-06
3.60911485737586e-06
-2.14587463644355e-06
1.27573493576903e-05
-3.67602637075589e-06
4.28415797257673e-06
-1.23307326795275e-06
9.16181639575087e-07
4.63503442334775e-06
5.88992780204653e-07
-3.45943525275349e-07
4.40077287147337e-06
1.71219318855033e-06
-1.61312556571376e-06
4.40142682552673e-06
-6.92082625981077e-06
-3.41363535344408e-06
3.05127389798289e-07
1.98127945286888e-06
4.24349874432998e-07
-5.6713562993907e-06
2.16872262504827e-06
-7.10703716678618e-05
3.3707710096847e-05
7.79993030184644e-07
-3.71725491392817e-05
1.78218981046654e-05
2.30764035847252e-05
2.7282970485963e-06
-7.45042570040771e-05
1.31142499418088e-05
-7.41234867311391e-05
8.94887588250977e-06
8.42117583760775e-05
-0.000123217282788549
4.79818061108016e-05
1.66300645208921e-05
-4.15069930869931e-05
-3.12026805254985e-05
3.37147883408884e-05
4.58306259015755e-05
3.85374490239155e-05
-6.6650212736281e-05
5.1854586523158e-05
2.0433344302572e-05
2.65236726457872e-05
-1.06635180259508e-05
-3.48040023057619e-07
-2.02369895357056e-06
3.35924254075223e-05
-2.8148160049184e-06
-1.92614100806933e-07
-1.908231147526e-06
1.03812614890181e-05
-3.3810710726884e-06
2.98978724786859e-05
5.12610642996998e-06
1.22497183390749e-06
2.84106622966873e-05
1.31728174149004e-05
1.02176669753273e-05
3.09633999120446e-05
1.26738721527598e-05
9.64483073455489e-06
3.47579029679301e-05
7.42873360212959e-06
-4.06110442733504e-06
6.27232302591065e-05
5.29578153476638e-06
-4.65274598308029e-06
5.18022062881932e-05
7.65614400128671e-06
3.17489890636436e-05
4.55840603188126e-05
1.30656309319082e-05
-9.37480576897723e-07
2.37940610227653e-06
3.40406566746306e-06
-6.03652695513939e-06
-6.20652439041049e-05
1.60657296227151e-05
4.59431934424209e-06
6.44469910037847e-05
9.93110751600712e-06
7.32236687912131e-06
3.76944202696993e-05
1.43999310767797e-05
2.29109481189767e-06
-7.62948747436851e-05
5.0955792225711e-06
2.76918258936933e-06
9.581904498081e-05
5.95541092158467e-06
1.97802277362599e-05
4.1243331082096e-05
2.26939746021692e-05
1.1152542050601e-05
2.49650466562603e-05
2.08545602564876e-05
5.45540241176941e-06
2.02672259694904e-05
1.80729724237225e-05
3.32094509174249e-06
2.47354614580863e-05
6.37449830467282e-06
8.22223908810462e-06
3.1669203446124e-06
-1.61338572234738e-06
1.48031793890627e-05
3.4402636123224e-05
7.33586508812051e-06
1.61437672022038e-05
9.57364952284436e-05
1.99972210430928e-05
1.34653383793074e-05
3.44556093560264e-05
8.22919488326084e-06
2.02976506389627e-06
1.50849556014758e-05
-1.34028054094741e-06
7.82592067909263e-06
1.61793720081097e-05
-8.31912098967399e-06
1.05031750268414e-05
5.80481465906799e-05
-3.39778313784063e-06
7.32195778363177e-06
7.37196737535625e-05
1.37954139982721e-05
1.66726338226764e-05
3.92369816445895e-05
2.38485513308941e-05
1.65215956235556e-05
1.47550282660639e-05
2.08294546230005e-05
-2.35393186624948e-06
8.63493941099475e-06
4.12443754775951e-07
1.11423702671122e-06
1.28530713056422e-05
-5.14775823873894e-07
3.83819667616368e-06
2.51942192439112e-05
4.5090933363212e-06
9.27064144609399e-06
3.05902267195119e-05
1.1414895592148e-05
1.82717128253103e-05
2.4845462772719e-05
1.43735419615497e-05
1.68682918116999e-05
1.39037769731609e-05
1.50047235416112e-05
1.30016272306897e-05
3.00635256805681e-06
1.79497812628492e-05
-4.90681609095403e-06
4.30491056216392e-06
8.62969759473706e-07
-4.11425931217751e-06
6.23640942288814e-06
2.00212422989509e-06
-2.85843897975768e-06
9.56990148227075e-06
4.71471610971646e-06
4.09780389363305e-06
1.3481554597512e-05
9.07970593606815e-06
1.15659795551976e-05
1.36071156577625e-05
1.10153145340413e-05
1.18175691840234e-05
9.03360119700457e-06
1.00851634431126e-05
8.75357687111124e-06
2.98065606106942e-06
8.7280515736671e-06
5.70306224281334e-06
-1.6029338813645e-06
1.26795871704519e-05
-1.45554251548605e-06
6.28693474825089e-06
1.71421437207369e-06
3.13763393367525e-06
6.43811964967327e-06
3.01084801007098e-06
1.08812588355227e-06
5.62881260241461e-06
3.33037975738828e-06
-9.7170519045744e-07
4.95960803285357e-06
1.99616182763084e-06
-2.00593707065918e-06
1.0550827457073e-05
-3.42850068395639e-06
3.76668492467238e-06
-1.65600914915949e-06
-2.88370927282009e-07
3.52307681396765e-06
-1.42558361519766e-07
-1.18738560448709e-06
2.95656707756694e-06
1.08163537408401e-06
-1.68425805247606e-06
3.17312078798978e-06
-1.01474905392721e-06
-1.290110621509e-06
3.14595287013182e-06
6.23409660705158e-06
7.89481002799046e-06
6.84728506463511e-07
2.32570645010818e-05
-0.000142244348474439
4.29655450169817e-05
9.76923127141549e-06
-8.59908097041751e-05
4.6779711525826e-05
2.66103071696578e-05
-2.75046671429139e-06
8.5001337726285e-05
5.79436152293372e-06
-9.47015282044417e-06
1.10158058286716e-05
7.57711592054455e-05
-8.2125846643237e-05
4.70923879835852e-05
7.24410671383995e-06
3.66024424201285e-05
-6.01056394792458e-05
4.17986320544948e-05
3.20494226224695e-05
4.34048917548552e-06
0.000115707438130963
-9.33745245396786e-05
3.95905732157653e-05
2.34207221768505e-05
-1.11521351022058e-05
4.42119308582702e-07
-6.70848252222381e-07
2.96332146290306e-05
-6.03345403227999e-06
-1.19684290683683e-06
-1.25140804426306e-06
9.29039997656726e-06
-3.41482302861618e-06
3.02231731781098e-05
2.7471261579615e-07
-2.45954356883393e-06
2.77992263531205e-05
8.19708609391965e-06
3.52837163155817e-06
2.66014781992124e-05
1.40063815829172e-05
1.40120115829886e-05
2.16064067032184e-05
1.181336202546e-05
2.36476042420928e-05
4.14949878565675e-05
5.0093964296917e-06
-1.08242877993716e-05
5.56552507459837e-05
1.22670308682636e-05
-0.000106943088886499
8.95980936308994e-05
2.93416265802249e-05
5.99020382327079e-05
4.19826126574526e-05
5.63550624177104e-06
1.4534671334758e-05
2.20271347084807e-05
8.08478021844119e-06
1.01093305456175e-05
-6.32919996221318e-06
3.98514320912676e-05
8.27876223048095e-07
7.79905961137483e-06
-1.65320808469836e-06
-8.1574407411173e-06
-3.71674737311919e-05
-6.01389161326046e-06
3.4573249470185e-05
3.69207523768419e-05
6.25702782426467e-05
2.269227569078e-06
6.34419970002064e-05
1.5049450203779e-06
1.81263554401972e-05
3.12822336640942e-05
1.79971549295716e-05
5.51353244115087e-06
-5.04035858275395e-05
-5.85234301115456e-06
1.15182082809922e-05
-2.56575059020243e-05
1.38660199487881e-05
2.87929367862513e-06
8.89155253737786e-05
7.34516647764273e-06
7.54902864343465e-06
4.22672505171408e-05
5.60469753434e-06
1.7714410124302e-05
3.45604662464745e-05
1.01873322548798e-05
1.39900663007577e-05
3.65497860175674e-05
6.72572212190534e-06
4.50417257649215e-06
2.42916570896439e-05
2.639010293208e-05
1.03562639110431e-06
2.20785625346965e-05
3.65103326261875e-06
8.31221691400985e-06
1.11204148082389e-05
-2.06530580686248e-06
1.34693389619915e-05
3.07737250541808e-05
-9.50629489099794e-07
1.17069181592276e-05
9.39604153830739e-05
4.72699767249266e-06
1.95523205882059e-05
4.59129341825953e-05
5.66022574910475e-06
1.62646909544413e-05
1.62272959476046e-05
6.27082883505706e-06
-1.44888871979633e-07
1.31126882861125e-05
-2.36779310816802e-07
5.01075079772319e-06
1.69765445333786e-05
-6.03397378862565e-06
1.06119478173862e-05
4.65859947593629e-05
-3.63071976180136e-06
7.33929215940691e-06
6.42371851803372e-05
8.01606181696255e-06
1.97382884406174e-05
3.65658037818088e-05
1.50000276155156e-05
2.09637522671984e-05
1.88367967147885e-05
1.56713200554231e-05
1.44021221084047e-05
6.06046309665819e-06
1.68968729032214e-05
-4.15073866948951e-06
6.96282847842335e-06
9.16032972522637e-07
-2.05693018418849e-06
9.97449793247163e-06
1.23368269075522e-06
1.9278366960244e-07
1.70769464831621e-05
4.5512734388661e-06
5.4186060383303e-06
2.31670509886404e-05
1.06114596783019e-05
1.60167024695361e-05
1.98201318767705e-05
1.19895120640709e-05
1.63891200096587e-05
1.30997442826062e-05
1.06060287693414e-05
1.16998046533001e-05
5.5643318179931e-06
9.50050771220335e-06
8.18074407884342e-06
-5.11453678506549e-07
1.35240173887277e-05
-5.19894089792118e-06
3.6908561601853e-06
7.99487617646839e-07
-5.05775352640965e-06
5.01781485298237e-06
1.8678866108648e-06
-4.85199417727958e-06
7.11032955344195e-06
3.78792041596992e-06
-2.51977433072828e-06
9.08358879747288e-06
6.93118939568213e-06
3.49952638713628e-06
8.89294162323493e-06
8.8388123512873e-06
6.80271241662222e-06
6.55182527324256e-06
8.40859656354261e-06
6.22259323257773e-06
3.10720126270034e-06
6.74686854708742e-06
5.04438258944129e-06
-1.51419583361131e-07
5.56253913632112e-06
3.17087465601855e-06
-2.29628286841129e-06
1.03863393214465e-05
-1.8843784615358e-06
5.43895588803082e-06
4.41503738096244e-08
9.90925609226126e-07
4.83516041695643e-06
1.18954620127355e-06
-4.30725937304403e-07
3.75572711545965e-06
2.10684315074782e-06
-1.46055041650306e-06
3.38901183621034e-06
5.9252660700614e-07
-1.38651769229695e-06
9.47714307281905e-06
-3.33625164115325e-06
3.13082376721659e-06
-1.94776266932479e-06
-9.13649484732895e-07
2.61767877781243e-06
-5.54137141384718e-07
-1.41258268176122e-06
2.04103088217701e-06
6.38757771349663e-07
-1.39917005564821e-06
2.54305015937008e-06
1.83849599659681e-05
8.67168129148353e-06
-7.84601028484638e-07
5.3342475855785e-06
1.5326635395477e-05
1.39626277183711e-07
2.7360740223779e-05
-7.66614296540526e-05
3.15670332568489e-05
5.93409600082847e-06
-5.31738296622784e-05
3.86017913202289e-05
1.10153430682105e-05
2.22968347296109e-06
-8.69059522842527e-05
2.37063984319062e-05
-0.000121272070185948
2.75744604513484e-05
-2.66338763465615e-05
6.12287034493408e-05
1.24975641966233e-05
5.70470601697299e-05
-7.22386869564443e-05
4.31252404005831e-05
2.11091356962463e-05
2.98583536382232e-05
-9.37192707381175e-07
2.86201305494521e-05
1.40987069525912e-05
2.07018281599643e-05
-1.08325484636806e-05
7.47308706199023e-07
3.04387935543754e-07
2.60639499618928e-05
-7.88725524033232e-06
-2.02621114995333e-06
-5.64544320367516e-07
8.71738782038309e-06
-2.02554423770436e-06
2.95775359897205e-05
-3.36223791759291e-06
-3.33868482638475e-06
2.78670752718766e-05
3.5455690022421e-06
-7.88323312105456e-07
2.48487793480937e-05
1.07381070479044e-05
5.84293174614865e-06
1.7352801842602e-05
1.24170508727709e-05
2.00448589773163e-05
2.947418500627e-05
3.78931497004574e-06
1.51529030098504e-05
3.47678627507657e-05
1.07438990186333e-05
3.08380179621411e-05
5.68396555132968e-05
1.41874531435952e-05
-8.12532387031795e-05
0.000122416430683138
1.80367852717351e-05
-6.09811207184334e-06
3.26684385557592e-05
2.82324465816197e-05
5.0992654502585e-06
2.40724750226271e-05
2.10858483594386e-05
1.13589665140746e-05
3.0220280873274e-05
2.5929968845842e-05
1.66416549793292e-05
5.58100280079372e-06
1.27485985862435e-05
4.52541179207986e-06
2.8257849724739e-06
-8.29167397436668e-06
-9.35963798067868e-07
1.76361192799e-05
1.42520654104802e-05
4.1599321053649e-05
-1.18886806083102e-07
1.44845136702675e-05
-4.29734411203632e-06
6.40432211125821e-07
-1.14108926270244e-05
-9.92387264649061e-06
1.77798748888328e-05
5.92107344167314e-06
1.27194745951604e-05
3.32923905983378e-05
3.87008643804482e-05
3.29332756536202e-05
8.06652376452874e-07
6.32612873207592e-05
2.25334926876803e-06
6.03579120521437e-06
2.93260762347134e-05
4.97432797657532e-06
6.72445017881764e-06
-1.97584888742309e-05
-1.65798471186475e-06
1.22051422543328e-05
-2.34301482142922e-05
-6.29475572542938e-06
7.81302937593993e-06
-2.80422026131783e-06
2.85143173440631e-05
5.92109499464313e-06
7.33802265302029e-05
1.06498252523632e-05
6.16112394631209e-06
4.7573616022223e-05
4.18988740382697e-06
1.81955833800722e-05
3.16633851827931e-05
3.7755352377676e-06
1.82418191112482e-05
4.36201358807287e-05
-3.41790629045687e-06
1.1815111348635e-05
3.3625276850401e-05
5.12932103246339e-06
1.08940612117347e-05
2.61123289525241e-05
2.56932741701434e-05
-2.41726630967967e-07
1.97690843316924e-05
2.4063136388335e-06
6.00209546280903e-06
1.72063202121934e-05
-3.42622605590758e-06
1.35153383472299e-05
2.99027528916019e-05
-4.09772774644925e-06
1.00011363312272e-05
9.0990315747823e-05
-6.42373407895788e-07
1.75286946653277e-05
5.28702656960682e-05
-2.07367662721562e-08