/*--------------------------------*- C++ -*----------------------------------*\
  =========                 |
  \\      /  F ield         | OpenFOAM: The Open Source CFD Toolbox
   \\    /   O peration     | Website:  https://openfoam.org
    \\  /    A nd           | Version:  12
     \\/     M anipulation  |
\*---------------------------------------------------------------------------*/
/*   Windows 32 and 64 bit porting by blueCAPE: http://www.bluecape.com.pt   *\
|  Based on Windows porting (2.0.x v4) by Symscape: http://www.symscape.com   |
\*---------------------------------------------------------------------------*/
FoamFile
{
    format      ascii;
    class       volVectorField;
    location    "400";
    object      U;
}
// * * * * * * * * * * * * * * * * * * * * * * * * * * * * * * * * * * * * * //

dimensions      [0 1 -1 0 0 0 0];

internalField   nonuniform List<vector> 
10107
(
(0.00413796246344192 0.00445591448828499 -0.00652208117132736)
(0.00234759196015942 0.0131685568191419 0.00637328090302692)
(0.00210685080523043 0.00670086794454091 0.00195562238009331)
(0.00483400349351864 0.00295143960097378 -0.00929135156597103)
(-0.000536448918905891 0.0144695227439996 0.00239813551037172)
(0.00208162404906519 0.0135992320463658 0.012967840290863)
(-0.00942479299849221 0.00434161661580225 0.00369895341250352)
(0.00241007404868287 -0.000182005811275495 0.00373832050969858)
(0.00140574825084706 0.00921902437190172 -0.0051064498386527)
(-0.000624515049835862 0.0103675374586061 -0.0103920006589024)
(0.000804221360240367 0.0136363768481892 -0.0050246481816154)
(0.00220032854485721 0.0148825812303992 0.0164793483916387)
(-0.00965878117056358 0.00522765794918091 -0.00327412472051321)
(0.00561453247812228 -0.00394482544365148 0.0089057088507301)
(-0.00673276391651941 0.0236872854812394 -0.0056381820816094)
(-0.00672906333316291 -0.0169706933319055 0.00226364106355782)
(-0.0139837263322892 0.0250913902730061 -0.00213518199044954)
(0.00587140380381821 -0.00129054108824644 0.00806765046713536)
(0.00218977315250035 -0.000247202721005106 0.0031946412602189)
(-0.000461957428646585 0.0133831476693267 -0.0058959669487427)
(-0.00218071660417719 0.0100308524906597 -0.00604676808689175)
(-0.000727596181485604 0.00642728372016193 -0.00374565698594202)
(0.000721789627186341 0.00840550985946427 -0.00418436710746201)
(-0.00370121733787029 0.0104867065614675 -0.0104832206535035)
(-0.00186071157513721 0.0092259307958205 -0.00946392960167997)
(-0.00434736285544928 0.0182410034995408 -0.00973990933624079)
(-3.41919952997383e-05 0.0334121561544962 0.011669469581628)
(-0.000187440039339548 -0.0105453940151499 0.00988047997961672)
(-0.012404792176146 0.0077966597636659 -0.00215916795184323)
(-0.00155210765609326 -0.0385855529572368 0.000600623902104762)
(0.00168747737797958 -0.0271425586275984 0.00633354114837569)
(-0.00229280868449601 0.0121301569318103 -0.000928390629257312)
(-0.0180935630851267 0.0223167386210875 -0.00683312252109416)
(-0.0185453425636137 0.0204179727225201 -0.00448420588790161)
(-0.0120070104185404 0.0192328703396494 -0.00752949214632403)
(0.00179184579653644 0.000180685201631559 -0.0116269411257181)
(-0.0099268816057611 0.00108409738945969 -0.00939926520577201)
(-0.0186240057381857 0.0178458530249378 -0.00994853657036248)
(-0.0131739075274952 0.0183199596636197 -0.00826029004695484)
(0.00365936590044642 -0.0213547588246309 0.00443862518377206)
(0.003914826238053 -0.00397892061054644 0.00699102561664598)
(0.00366372329038945 0.00685090593022635 0.00450467495096801)
(0.000324492738042249 -0.00123375899500566 0.00331593826779168)
(0.00173291205721295 0.00201555860434004 0.00157209186905069)
(-0.00565897833263997 0.0143325363278113 -0.00611642959410925)
(-0.00782608775316398 0.0177869710818648 -0.00774737544643925)
(-0.000952042986971947 0.011334202194277 -0.00594755192270549)
(-0.00109107944041936 0.00793936450772444 -0.0048527894385337)
(-0.0040003087345679 0.00964095188540025 -0.00425929294854047)
(-0.00509208580031316 0.0113950320489073 -0.0110653100445941)
(-0.00580987382147154 0.0100190884723657 -0.00835211507674134)
(8.22961330852453e-06 -0.0406861805267585 -0.000131306250044467)
(-0.00647253810739579 0.0141466732880458 -0.00011830286678694)
(-0.00154620424170467 -0.001738749445106 0.00353793929655078)
(-0.00105912608910173 -0.0381007757288673 0.00677257756929192)
(-0.000871557262434866 0.0271359027808579 -0.00274127608885018)
(0.00171339345705496 -0.0185427502656905 -0.00659794310437555)
(0.00415640488610245 -0.0224475507781863 -0.0100590293003773)
(0.00722503032195244 0.0085574320317986 0.0045610547410905)
(0.00787258957207757 0.0241862137669145 0.00492529133529098)
(-0.0046786013430877 0.0127720443092874 0.00110538896544053)
(-0.018870423583151 0.0183551554941016 -0.00850453664533742)
(0.00249982445085743 0.000580555089580289 -0.0121882503566206)
(-0.00195544962007742 0.0222398912606669 0.0028289747725083)
(-0.000723677720772224 -0.00413286881844829 -0.00234200144841359)
(-0.0211720338552358 0.018569251087594 -0.0100527692041727)
(-0.00770918892540184 0.0135703265210025 -0.0102974632168921)
(0.00865611515173872 0.023798657262748 0.00171633852629869)
(0.00436820176550023 -0.0176969070032056 0.00304680077492091)
(0.00373443510098718 0.0200493135437654 0.00346198639204674)
(0.00154507205524591 -0.00515476085224488 0.00497478341638567)
(0.0022143493578444 0.00517047495096681 0.00553383843987401)
(0.000562505771773299 0.00309921496108471 0.00387577891214408)
(0.00011267222129735 -0.00155741148036915 0.00298410944228182)
(0.000806420369845201 -0.00179549448482724 0.00155833826897245)
(0.000800947301008363 0.00241489973094204 -0.00239181100300002)
(-0.0145712315348323 0.0173929370899116 -0.00880422569594204)
(-0.00792487054153776 0.0158385596804235 -0.0118815444002075)
(-0.0047119374741464 0.0115685403208353 -0.00538375705146157)
(-0.00866545536802428 0.0121764389583676 -0.00879513964362962)
(0.0016874764889919 -0.0395345644430379 -0.00571653814327493)
(0.00190876942849085 -0.0031151517498738 -0.00404387663521031)
(0.00250680543071445 0.0328381760929559 -0.00156785654845324)
(-0.00121777208491154 -0.0369062655789042 0.0025051829437468)
(0.00264739311241466 -0.015918413732871 0.00448387029808308)
(0.00602952764972623 0.0303019015597117 0.00473009193757999)
(0.00308918831679231 0.00806209404771489 -0.0062319535297515)
(0.00174373481002039 0.030659095529298 -0.00284578772788978)
(0.00212282532019364 -0.00808720615045492 0.00207621445202764)
(-0.000517229897603104 0.0370049120667887 0.00437029082556228)
(-0.00309960205491302 -0.010913002708506 0.00875567595169028)
(0.00621800625502218 0.00589665494034955 -0.0119160987032464)
(-0.00310313755077152 0.0142276846450775 -0.00853340958965508)
(0.00370738412543176 0.00658358632562018 -0.00781893615137329)
(0.00440875256263988 -0.036831084788285 0.0106524212455252)
(-0.0145477405508662 0.0163179074085543 -0.011033781948947)
(0.00314998349908944 0.00612890849923684 0.00147045523201354)
(0.00635676904179363 0.0205590476572826 -0.00306338531961199)
(-0.00201213863430959 0.0282149988811025 0.00359761219688013)
(0.00286027785437528 -0.0146089365504142 0.00238793603774056)
(0.000464246799534276 0.0124259509978482 0.00354188769659947)
(-0.00195534224141494 -0.000734268981398063 0.0071164283465559)
(0.000334451956005315 -0.00463506148100293 0.00368199444806816)
(0.00154307784881648 -0.00241901458462053 0.00368388300796218)
(-0.00332138220646469 0.00489630257124281 0.00137089153732077)
(-0.000455099609373653 0.00889741527635799 -0.00474667587283454)
(0.000116094973343189 -0.00121372685553324 0.00264752268275789)
(0.000500497145152561 -0.00217098004254596 0.00172093594487131)
(0.00101580177269468 -0.00169444382827734 -0.000524902263809562)
(0.0032062107169621 0.00091320071198307 -0.0047961288266258)
(0.00084738225356016 0.048210054591379 -0.00610670248547901)
(0.0162710421932355 0.00388732304856434 -0.00483610860565101)
(-0.000293027156750377 0.0195029633940167 0.0051041636290586)
(0.000117515513469955 -0.0146476873879623 0.00184058725074687)
(-4.3735783717047e-05 -0.0232651749393518 0.000606149456792332)
(0.00253231550847155 0.0428851858895392 0.00372244446040103)
(0.00362348239474957 0.011530814107026 0.00715554012101293)
(0.00228755206895827 -0.0392789667520019 0.00830981664755258)
(0.00150675564847337 -0.0144095533566608 -0.0026618973247114)
(0.00432746304754639 0.0182773420041728 0.00675189581309421)
(-0.00277601489373363 -0.00829449860179704 0.0118572698019593)
(0.00496731437686021 0.00242932120349352 -0.0118781025232159)
(0.00154184802820977 0.00821777390152004 -0.01281153204643)
(0.00602246005875608 0.00208455948202338 -0.00740286610568933)
(0.00475825598631133 -0.0201594979231826 0.0071619101643066)
(0.00527665248865031 -0.0119168458451208 0.008426315858005)
(0.00260541235857145 -0.00825938741291687 -0.00433057068619951)
(0.00369856973429018 0.0118804857997709 0.000223564589881561)
(-0.000356566383482242 0.0277534141079734 0.00543591722787199)
(0.0022162292481279 0.00517712341686351 -0.00519039532072857)
(-0.00171904806022001 0.0114822628763996 0.00107846986254059)
(-0.0042493578867407 -0.00369298799646483 0.00903611524003637)
(0.000742381833175744 -0.0100394609260411 0.00205632954302139)
(0.000268690166419494 -0.00173383140367333 0.00245856389422266)
(-0.00482193345512906 -0.00286561166823492 0.0050818850419167)
(0.00431020044992921 -0.00952166158527009 0.00681999774663017)
(0.000167059884640184 -0.00338013445832034 0.00302214889317979)
(0.00079976448003161 -0.00491852403753424 0.0024253356745103)
(-0.000420613197332058 -0.00187039191076836 0.000811821355529598)
(-0.00101298163922855 0.0018409499964661 -0.00394904832862077)
(0.00314156972774805 0.00521948426274045 -0.00821866201041683)
(0.000398099891077261 -0.00150408090758516 0.0018650665149768)
(0.000922605300477662 -0.00201483089054098 0.00067896660172906)
(0.00196452335073422 -0.0017701367477471 -0.00212352812718575)
(0.00332032589417266 -0.000119449352571562 -0.00517649117095065)
(0.00220924754542943 -0.0386842615838752 0.00217878276338232)
(0.0096445739607894 0.0154708218038258 0.00970832740612273)
(0.00171646039138905 0.0472141337849911 0.00254255579838409)
(-0.000244927705919495 -0.0173115696027202 -0.000158588663010008)
(0.000896826161614923 -0.0245416832867205 -0.00269838095541307)
(0.0053451923048398 0.00481416171687293 0.0058638018279402)
(0.00380084066994078 -0.00631523893592219 0.0113924311160027)
(0.00463135632304709 -0.0113242362710759 0.00535947624487955)
(-0.000683619004857487 -0.048036819900411 -0.000820960882650481)
(0.00226632109550641 0.0306551992697358 -0.00288294610877005)
(0.000258436341370723 -0.0340008137325367 0.00575173717500598)
(0.00347707988687742 0.000746183728674201 -0.0107639794801468)
(0.00421522246510046 0.00364585968796064 -0.0131965882152818)
(0.00239120441460932 0.000977310383753807 -0.00764437537170464)
(-0.00224261117658247 0.001302384369585 -0.00689411524039518)
(0.000210812749277554 -0.00454918068897977 0.00557259680905316)
(0.00422391855439735 -0.0586322332827702 0.00457835254741492)
(-0.000129029281046191 -0.0479196287589613 -0.000606800977295514)
(0.00372985395542871 -0.00805459950811536 -0.00507509496346426)
(-0.00207203023255915 0.0407073086279167 -0.00440883422008872)
(0.00127476141267853 0.00371666272411832 -0.00300094447178374)
(-0.0036737762336938 0.0186902649746927 0.0038874964386089)
(0.00137142022924745 -0.0319498280769673 0.00620915323818744)
(-0.000507218254174572 -0.00511474825680884 -0.00333469052736111)
(-0.00175930770686291 0.00267768079025502 -0.00144119015426404)
(-0.0070141130392586 -0.00209114229904149 0.00468578963799351)
(-0.000401097135280753 0.00667551605382318 0.00589419656640521)
(5.98253739628994e-05 -0.00670488615385351 0.00251826287868)
(0.000324910430961313 -0.00816890664103121 0.00178501663720636)
(-0.00332851579014489 -0.00984902831644895 0.00209053076792892)
(0.00164081794210777 -0.0132011430525193 0.00365687491740522)
(-4.80079518382429e-06 0.000259304436648059 -0.00677070650343044)
(0.000534648490765383 -0.00375584489820762 0.00217722640303159)
(0.00110470989809403 -0.0046419410766745 0.00103826693218913)
(0.00142975270954235 -0.00366332787496142 -0.00289258331598476)
(0.0035783027556005 -0.000522083152012461 -0.00619887239219905)
(0.00302451935799903 0.00154110499772909 -0.00865699372651531)
(0.000753881298814151 -0.00132256367312644 0.00132934031405988)
(0.00141851667306538 -0.00153814051043249 -0.000282247432500814)
(0.00201686321612193 -0.000926287256950139 -0.00276501165151512)
(0.00139515655769004 0.000209363306892716 -0.00483664949512587)
(0.00282939142869114 -0.00233094513218731 0.0012462043197265)
(0.00953545599088708 -0.00564509726166942 0.00859448642388114)
(0.00688551083787432 0.00181964325892236 0.00135671023255463)
(0.000465208769916968 -0.0220180948208374 -0.00284613721485916)
(-0.00141777167496701 -0.047685357626414 -0.000782112793323787)
(0.00278458885542612 0.0187735671279427 -0.000859901043832317)
(0.0049761209775665 -0.0239818994344294 0.00194813053336762)
(0.00156300315683107 -0.0570732387625435 0.000998516345998461)
(-0.000850383313985101 -0.0452226385199259 -0.00336109127997429)
(-0.00173034976254198 0.0110986442612554 -0.00288746548239014)
(0.003872576305912 -0.023143068121979 0.00180642395740432)
(0.00274182929848102 0.000137706036872006 -0.00925373829594133)
(0.00209562382820246 0.000821141479185202 -0.011693903109243)
(0.000333386966135849 0.000614498083973673 -0.00705550172527083)
(0.000854371557612791 0.00230366946508012 -0.0122042741189425)
(-0.00128526350174029 0.00271305832256333 -0.00149190881064967)
(0.00481992571872848 -0.0438790909416992 -0.00189463992031776)
(0.00750913930509037 -0.0548780765653824 0.00260608171925327)
(0.00101418786272824 -0.0366507411823034 -0.00214419873950386)
(4.73380806735134e-05 -0.0501482625998337 -0.000535698123480238)
(0.000217006731545043 0.0121422848766132 -0.00552330007108565)
(0.00178660418349864 -0.00460136509879837 -0.00343307067895077)
(-0.00307693490672252 0.0339846858386083 -0.00458492354656935)
(0.00382236618668236 -0.00917603599338828 -0.000489025177630223)
(-0.000753204714423416 -0.0029532161370467 -0.00278854129773649)
(-0.00419674740771361 0.00732883016366199 0.00140417470420149)
(-0.00293367154991577 -0.0281644782820386 0.00497479307620721)
(0.0053946939930165 -0.0308851187333555 0.00167329042138112)
(-0.00062614922409838 -0.00824937220848013 0.000254333725883889)
(-0.00184753420728756 -0.00419021748850455 -0.00131378274339985)
(-0.00359141995085508 -0.00995664851747182 0.00139391573603835)
(0.000243190151692694 -0.0017286401329105 0.00193438453007077)
(-0.0015551835468395 0.00271486155285889 -0.00388240099005716)
(9.47349345300586e-05 -0.00474617905501443 0.00262752912950519)
(0.000173745056180623 -0.00729154188037087 0.00202921005608443)
(-7.70047337454471e-05 -0.0102459764460183 0.000981255155409777)
(0.00119370156995459 -0.0147000642730297 -0.000619992134609186)
(0.00279540116488977 -0.00543179090211981 -0.00705523623803856)
(0.00279081880615241 5.20548177532112e-05 -0.00979410024873002)
(0.00112273058385505 -0.00352840556601705 0.00156355110898364)
(0.00224679448739286 -0.00424333101236261 -0.000836204563174298)
(0.00319047072743129 -0.00299026178536784 -0.00425145794794263)
(0.00213172541192788 -0.000885318231195155 -0.00595568257589237)
(2.25234937271199e-05 0.0002648789843964 -0.00776733546456245)
(0.0010764574225578 -0.000887463901637715 0.000809077008701426)
(0.00139791320559647 -0.000607880941391829 -0.000860158496839435)
(0.000992327448409578 4.31946280388059e-05 -0.0026063035806944)
(-0.000142964399301001 0.000553792362220999 -0.00428002686534352)
(0.00119476771313327 -0.056178161660246 -0.000672056727707348)
(0.00264008802200752 -0.0247293498270311 -0.000331864793102098)
(0.000914212561559977 0.0126531404974093 -5.01455760090529e-05)
(-0.00144407508308574 -0.0458298047818148 -0.000607401629880869)
(-0.00119907742897286 -0.0439203940644354 -0.0022465767524553)
(-0.00355019329915417 -0.00965122139046835 -0.00174764787241753)
(0.00853492759873689 0.00112611770637064 0.0020831664517253)
(0.00233981011075514 -0.0479742524090612 0.00288975959250171)
(-0.00248281055506166 0.0167406525510368 0.0128728046984149)
(0.000282780584743239 0.0304572062696128 -0.00535687587904288)
(0.000141044519567192 0.00878849922464054 -0.00219689835446365)
(0.00261531314434049 -7.73127459428049e-05 -0.00772109631760618)
(0.00124074959459236 3.14169355580101e-05 -0.00965852236413046)
(-0.000519657375690384 0.00047321242486111 -0.00620965703520853)
(-0.00224488226047517 0.000617625933859034 -0.0114542678156963)
(0.000545447994790012 0.00105544666430227 -0.0091222176419543)
(-0.00117135833343483 -0.0114323468415751 -0.00423642713547938)
(0.00683100683583141 -0.0394864062218992 0.00362411271562267)
(0.00746751258192569 0.0055624681155935 -0.00519748272459399)
(4.5504943339803e-05 0.020685377892724 0.0135433364728882)
(0.000262258898972264 -0.0318711063858169 -0.000846874158995955)
(-0.000785197192049083 0.0407186934154446 0.00310297760162201)
(0.000607074282178224 -0.0520795994795053 4.01107409310009e-06)
(0.00388663691045648 -0.0076047248596705 -0.00772451086612881)
(0.0001468797581836 0.020338211930691 -0.00387764090211971)
(0.000750292213364001 -0.00983647539780907 -0.00134460250466952)
(-0.0020007403679012 0.0186509066920586 -0.00396999253886006)
(-0.00195303347046758 -0.00396933365371707 -0.00300191456206307)
(0.00808704882519778 -0.0283440759838321 0.00196538528224856)
(-0.000983900285586989 -0.00836974910949729 -0.000767238188044376)
(-0.00406325632610679 0.000812019693099781 0.000168655840240077)
(-0.00441342270013081 -0.0261930176757066 0.0036568812989)
(0.00230519004748415 -0.0298052593636916 0.0023923571530841)
(0.00123456790894646 -0.00996045233325651 -0.00341319558135358)
(-0.000218132681855443 -0.00760409196500289 0.00181448529549738)
(-0.00153108229805958 -0.0094220269922013 0.000562310886735119)
(-0.00120417089788372 -0.0132816684701185 0.000192464084026731)
(0.00128551144144145 -0.00794316469884948 -0.00230442105956328)
(0.00145270470299802 -0.00360665444243509 -0.00638200638656117)
(0.00227571989368178 -0.000281371474121677 -0.00855172221968415)
(0.000141728160075989 -0.0034036795569933 0.00272203945197949)
(0.000280714001530012 -0.00503430838978806 0.00227473932264384)
(0.00111554510000408 -0.00770728192707845 0.00155256212634327)
(0.00305722448321993 -0.0106637514067016 -0.00171428025926255)
(0.00442459462490718 -0.00770305111775681 -0.00576734747546111)
(0.00286035803941389 -0.00298893426056068 -0.00724849969152198)
(-0.00065115542898002 -0.000446829564974134 -0.00810399319083241)
(0.00187699702887328 -0.00273486666870336 0.00069528679267688)
(0.00252849187258659 -0.00234700475151642 -0.00176569966755612)
(0.0017203074048641 -0.00121704617761676 -0.00368022678955087)
(-0.000148153772162013 -0.000190578847649745 -0.00495501230795102)
(-0.0014336464396415 0.000182715902450234 -0.00662242415271402)
(0.00108956889350643 -0.000260783831731393 0.000399582666069036)
(0.000840320218861402 0.000155725992025732 -0.000921565589258121)
(7.20041490712059e-05 0.000563050921761489 -0.00221689486378899)
(-0.00088747919801988 0.00065446131995468 -0.00365764246040144)
(0.00197998978201224 -0.0479985170648253 0.0026711217444264)
(0.00722776401412422 0.00129325117235428 0.000883387137378735)
(-0.00389579716536163 -0.0106235152440575 -0.000172092169205061)
(-0.00140704213849672 -0.0424033653269895 0.000139440995689733)
(-0.00358738533629235 -0.00399263478813531 0.00773711583036141)
(-0.00634789442433289 0.000780078749797517 -0.00358443128909418)
(0.00352311095236009 -0.0184750178384877 0.00161450266126582)
(0.00338752963764685 -0.0164924198492389 0.000870128099371876)
(0.00430404905971978 -0.0427646820890461 -0.0163352397571863)
(-0.00152103355753349 0.034279862338096 -0.00045271721069951)
(-0.00461139428151873 0.0427883225024625 -0.00411332556397406)
(0.00261947170443984 -0.000197701356182978 -0.00646694617954105)
(0.00136089813017169 -0.000159919227693736 -0.00778145546147682)
(-0.000693970581995771 0.000288255730646607 -0.00533435877985047)
(-0.00206695908764824 -4.00749817248359e-05 -0.00956511148945317)
(-0.0027657848405661 -0.000174841938724814 -0.00954074882082507)
(0.0023063287877305 -0.00144784638668249 -0.00796429481261455)
(-0.0179022949575385 0.00615789177190093 -0.00128327975802645)
(-0.00105551824266135 0.00639592145917114 0.00562696690816991)
(-0.00170037560702443 0.0331978185890461 -0.0041071279950548)
(0.00312725874627702 -0.0127399957734017 -0.00464891128805009)
(-0.00194163733681917 0.0198993810503046 0.0107838538410003)
(-0.00284674954572239 0.0511507961720559 0.00926035335462784)
(-6.80168330717896e-05 -0.0304109563486309 0.000563061359803509)
(0.00111546923583663 0.0187644989479637 0.00379729279032854)
(-0.00809112761555392 0.0497535334507568 -6.18536992960881e-05)
(0.00115152632575225 -0.0549873724113658 0.000650026331655256)
(0.000868365460356707 -0.00391294957770089 -0.0047816637553493)
(-0.00300243079311434 0.015292667104557 -0.0058849609174825)
(-0.00428848151071968 0.0149939435240312 0.000698650651895884)
(0.000760973312906049 -0.0141664864945859 0.000722967441456735)
(-0.000891780106009671 0.00669339462304925 -0.00303926168296314)
(-0.0038646682877344 -0.00661483270057506 -0.00413508912721723)
(0.00463476568725058 -0.0319773860108458 0.00120421714579955)
(-0.00798498722586025 -0.00104850632769917 -0.00383287651485361)
(-0.000545802167619672 -0.0105567625050516 0.000651752896194162)
(-0.00323491994674005 -0.00672791637228516 0.000205603440149513)
(-0.00362028337631631 -0.0255747565970716 0.002290375522895)
(0.00113366733374371 -0.0269962651133325 0.00146961956367478)
(0.00363661163278253 -0.0098081327628123 -0.00405368927356246)
(0.00338382267237593 -0.00327392904210319 -0.00772599880267165)
(4.91473094769711e-05 -0.00591860695351175 0.00235727457147055)
(-0.000619674238902267 -0.00848917358993944 0.00184628596608545)
(9.35305541361734e-05 -0.0138015561239245 0.000958710028675728)
(0.00336365311103506 -0.0109788989601713 -0.00360482439800977)
(0.00422943089086654 -0.0071983163879343 -0.00711249748084374)
(0.00318986258771203 -0.0036776006804801 -0.0076853292930042)
(-0.000387771767826432 -0.00154630136336757 -0.00803483857203559)
(0.000149931007066018 -0.00258691967157173 0.00287560179904504)
(0.000389696636313252 -0.00349492682298927 0.00240475346008832)
(0.00106795289360597 -0.00505187019180537 0.00211507248516593)
(0.00303791556278527 -0.00640375787086662 9.33232930561918e-05)
(0.00432017699645511 -0.00570391885888455 -0.00334798800051072)
(0.0025293575634559 -0.0032950584678558 -0.00504727099764493)
(-0.000130894392071699 -0.0012868242841696 -0.00554269681992691)
(-0.00240165024405978 -0.000254481241331323 -0.00660962903016121)
(0.00198359567610447 -0.0014074933352059 8.23936419228864e-05)
(0.00155832993979846 -0.000747977277681661 -0.00159538943398869)
(0.000282645871904411 -4.08083400423126e-05 -0.00284046104272107)
(-0.00127340134343108 0.000253105243891187 -0.00403247989194045)
(-0.00173335883702958 8.38802152859332e-05 -0.00556761023626736)
(0.000796975519328868 0.000232881500871711 0.000244425922263239)
(0.000294109221539659 0.000563377243924707 -0.000757311664148053)
(-0.000455265607949017 0.000726028635653851 -0.00179262564377752)
(-0.00112173255781113 0.000584809697435414 -0.0030819205658362)
(0.000930841520752499 -0.0187811480808723 0.00285400103265094)
(0.000716226680659977 -0.0146437813848935 0.000814635451702868)
(-0.00481313060735911 -0.0112158151037695 -0.00116127071536747)
(-0.000932227335598087 -0.0294705901789932 7.22752943406691e-05)
(0.00216456190367325 -0.0560640870526944 -0.0193496389798014)
(-0.00339374537369922 -0.0126204581623902 -0.0123576736063007)
(-0.00411744946602213 0.0584170251635695 -0.00208372149749465)
(0.00580580579829769 0.0442566841590966 -0.00343783970243057)
(0.00959411543105197 -0.028918247150195 -0.0325195432018188)
(0.0165443595264054 -0.00707260549487178 -0.0159422713086922)
(0.00177956848439513 -0.00136877973040131 -0.0155106668864142)
(0.00269875957598816 -0.000246125970835349 -0.0055736470215304)
(0.00160085839373823 -0.000332175003698572 -0.00634777024720853)
(-0.000560008396375555 9.46884641175395e-05 -0.00456894026699997)
(-0.00118335613200865 -0.000293342697526075 -0.00770270587211141)
(-0.00324319692893676 -0.000584003107702782 -0.00824680939280228)
(-0.00209388924735323 -0.00110099630895811 -0.0088015350444424)
(-0.00111196206107169 -0.00157382832248996 -0.00558580701850618)
(0.00644189221183983 -0.00625743108304079 0.00150974999934233)
(-0.00345533671262381 0.00567606232428858 -0.00845667503262674)
(0.00406918541343688 -0.0276383895335351 -0.0165304408529084)
(0.00666717820130142 -0.0121338116370534 -0.0178686647778364)
(-0.0005009075458877 0.00182036203056775 0.00245462463856125)
(0.00814112692540835 0.0220813119999134 0.000275853614553799)
(-0.00314874489124107 0.00785511733629201 0.00827502597583423)
(-0.00539995292152095 0.0429731135218961 0.0101320263533997)
(0.00117690870991187 0.0238219951250989 -0.00226787954876353)
(0.000305978683941088 -0.0338828229242182 0.000253956891561595)
(7.88162359557434e-05 0.0014518632506034 0.000325565482817922)
(-0.00492278170780102 0.0388836172201163 0.0018571404726076)
(-0.00893937718450729 0.0254754962430202 -0.00408576422140729)
(0.0017600578594003 -0.0560843699407071 0.000924728947924614)
(0.0017717704824303 -0.0148394053947513 -0.00320285119500548)
(-0.000583492121998192 -0.000359338212640592 -0.0068704206709417)
(-0.00379971542778747 -0.000871271605963687 -0.00580038353637569)
(-0.00246372590219744 -0.000307167759016765 -0.00167496688451017)
(0.000632371450140999 -0.01538372500836 0.00128702588121588)
(0.000223636044386614 -0.0024411267077503 -0.00171682064355925)
(-0.00359920230387212 -0.0100360741912549 -0.00418940968935131)
(0.00307503233625596 -0.0367374766924318 0.000673153475688505)
(-0.0035521992084807 -0.0105552621700601 -0.00435641530608028)
(-0.000723983215376766 -0.00257712322879091 -0.00689751075884141)
(-0.000112248361540968 -0.00932053067038704 0.00140261256080134)
(-0.00202413353269339 -0.0112381897593007 0.000831259325071951)
(-0.00264164553681137 -0.024703176228025 0.00154979986108445)
(0.00209196293673539 -0.0262061286606352 0.000898510531737668)
(0.00481340660905777 -0.0102608566466072 -0.00511086358833612)
(0.00493743525925303 -0.00480728511520402 -0.00752276518177)
(-4.22856423075175e-06 -0.00267457651925881 -0.00814277773065365)
(0.000166400253757581 -0.00446621274998139 0.00279871487277398)
(7.25479959183732e-05 -0.00619546355425248 0.00223021114669751)
(0.000610413741648176 -0.0101594618457593 0.0020367158540033)
(0.00426960563322867 -0.0111526013562964 -0.000913431377009936)
(0.00568478780808261 -0.00731920922348608 -0.00510447670760438)
(0.00323970526156825 -0.00444777493304101 -0.006216226553465)
(8.65605438276269e-05 -0.00238477687487917 -0.00596403241713029)
(-0.00276674485460515 -0.00116531170872222 -0.00642145573176212)
(0.000137718294037271 -0.00213824539489783 0.00291795660176496)
(0.000418873436015218 -0.00259182202374704 0.00255220189962767)
(0.000924713847133044 -0.00340544968048494 0.00228774078836384)
(0.00223749286261496 -0.00405353895164282 0.00152290901219954)
(0.00340700236859366 -0.0034646939512114 -0.000653612205047711)
(0.002533978893345 -0.00224926419873724 -0.00264992476616399)
(0.000525246909128801 -0.000979873634019443 -0.00352390796261819)
(-0.00160784890863209 -0.000318349858722142 -0.00422757424780667)
(-0.00276382468863347 -0.000231567661717814 -0.00545993230901706)
(0.0014466086824904 -0.000396517283673397 -3.44363901264586e-05)
(0.000637113869837002 0.000136718452327611 -0.00117779636899413)
(-0.000523114722702536 0.000434739642665546 -0.00214152172912842)
(-0.00162536285446923 0.000366386244114762 -0.00327983524781566)
(-0.0014800435876353 -8.49835253814457e-05 -0.00468636813532913)
(0.000471779033956651 0.000510200741701125 0.000245713612083793)
(-5.90508693149386e-05 0.000705999110374106 -0.000534385593200325)
(-0.000673586136233162 0.000702629421931141 -0.00141581253414436)
(-0.00108098757107267 0.000452820277613399 -0.00261080733237093)
(0.00111963432081053 0.0383921583143577 -0.00384819834521191)
(-0.000886590865778511 0.0612245643619634 -0.000247370025509426)
(-0.00212716066463622 -0.0248004185406906 -0.00522996165492147)
(0.000624853826250245 -0.0593098335663208 -0.0176545847038033)
(0.00541822973238789 -0.0285476860219512 -0.0292827566712856)
(0.0122225472017896 -0.0141379396935211 -0.0188445377850115)
(0.00197440207115529 0.00361041495004499 -0.0143746393391587)
(0.00172026660199567 -0.0299291022716124 -0.0158885989962505)
(0.0156927021219998 0.00634377165476166 -0.0197044485333725)
(0.0239822165529605 -0.0069635271924973 -0.0340457974064585)
(0.00615994470613986 0.0302156251755676 -0.00747670421338986)
(0.00275551542686466 -0.000246416897864486 -0.00499042121679485)
(0.00190510120503899 -0.000396392983053682 -0.00543023923016524)
(-0.000282006985483441 -2.63778689431956e-05 -0.0039778381442364)
(2.09840175099769e-05 -0.000461487484483314 -0.00619843288522742)
(-0.00256404405842568 -0.000763093161154634 -0.0069038875638435)
(-0.00400967207255178 -0.00135150783524109 -0.00770555197708924)
(-0.00439257173539672 -0.00188718432371485 -0.00619772853736588)
(0.00323859950372165 -0.00462506670191759 -0.000106038346947906)
(0.00324758920648643 -0.00478268657479052 -0.00695088562017395)
(0.000742612041306323 -0.0126200365737672 -0.0124427273988276)
(-0.00016249871157448 -0.00360407145956011 -0.0247184544488615)
(0.0102235456774592 0.000982253998063102 -0.0147824928660348)
(0.00222858790236276 -0.00107347793044909 -0.00605762936471611)
(0.00994225044379566 0.0024343677810214 -0.0114512803271273)
(-0.00182350556267079 0.00113134370476534 0.00366407445526848)
(-0.000813594804934986 0.0199636842497748 0.00319190722870945)
(0.00289728470981731 0.0212777297688307 -0.00372701196241557)
(-0.00246293045994975 -0.00315333420539131 0.00595432838679669)
(-0.0054445689456011 0.0191976845044654 0.00655401920850234)