/*--------------------------------*- C++ -*----------------------------------*\
  =========                 |
  \\      /  F ield         | OpenFOAM: The Open Source CFD Toolbox
   \\    /   O peration     | Website:  https://openfoam.org
    \\  /    A nd           | Version:  12
     \\/     M anipulation  |
\*---------------------------------------------------------------------------*/
/*   Windows 32 and 64 bit porting by blueCAPE: http://www.bluecape.com.pt   *\
|  Based on Windows porting (2.0.x v4) by Symscape: http://www.symscape.com   |
\*---------------------------------------------------------------------------*/
FoamFile
{
    format      ascii;
    class       volScalarField;
    location    "500";
    object      k;
}
// * * * * * * * * * * * * * * * * * * * * * * * * * * * * * * * * * * * * * //

dimensions      [0 2 -2 0 0 0 0];

internalField   nonuniform List<scalar> 
10228
(
2.44925490352685e-09
2.57616476149389e-09
3.57377676200704e-08
3.53106539363054e-08
3.75823174957319e-08
2.75808667938535e-09
3.82904555016215e-08
1.59136663653103e-07
8.26267108241059e-07
1.72333948883034e-07
8.48206362990089e-07
3.89418622542213e-08
1.76694167913069e-07
2.61246648082341e-09
3.94744598083464e-08
1.61448405329089e-07
3.48389711142627e-07
3.58205252847168e-06
3.78493992194173e-06
4.39034076889256e-07
3.80866289348038e-06
3.57171390654758e-06
8.5857600856072e-07
3.8515344012747e-08
1.81173807149465e-07
4.63026615815911e-07
2.56731724876704e-09
3.90471862322039e-08
1.62570527907123e-07
3.59879909219496e-07
6.24404383247413e-07
7.56053039639428e-06
1.27719639572327e-05
8.54930100846819e-06
8.65918775119429e-07
1.27190402638304e-05
3.81320149681198e-06
8.59658564692135e-06
3.54865990288406e-06
7.50260214696492e-06
8.42716137249071e-07
3.59195317577856e-08
1.78805430207319e-07
4.79457990560539e-07
8.86279063652637e-07
2.04218807690369e-09
3.64369094012398e-08
1.59076921423644e-07
3.6170465412393e-07
6.18101552438167e-07
9.12082371756377e-07
1.19543909005433e-05
2.20675781898185e-05
2.27956267493048e-05
1.40191963734243e-05
1.35356458878291e-06
1.25649028296003e-05
2.19473088207879e-05
2.27357576044431e-05
8.60299349293215e-06
3.70756384368153e-06
1.4050549928632e-05
3.43695667550139e-06
7.40027553741426e-06
1.17873916200735e-05
7.75566947120399e-07
2.99454861028484e-08
1.6343287394173e-07
4.73558468008522e-07
9.12472070155618e-07
1.40391813811869e-06
1.50880309262966e-09
3.02427832969225e-08
1.46041297047047e-07
3.49937809140867e-07
6.08705673049049e-07
9.13160400588967e-07
1.27701297852437e-06
1.62994178352276e-05
3.07363481962027e-05
3.54511216838713e-05
3.25095004249349e-05
1.95807857575103e-05
1.96908275702778e-06
2.16171291160531e-05
2.2476891748368e-05
1.21490327477505e-05
3.53193990002182e-05
3.0535148812804e-05
3.24349333065352e-05
1.4052227621681e-05
8.37946843423347e-06
3.39415322307255e-06
1.96281256448045e-05
3.1530819111697e-06
7.12721134110498e-06
1.15719943783638e-05
1.60827180443847e-05
6.45192577944873e-07
2.29836691141818e-08
1.3587662505962e-07
4.34083473230232e-07
9.03816223942561e-07
1.45226843669666e-06
2.01917176689132e-06
3.65055442202922e-10
1.93846445184958e-08
1.21735197289575e-07
3.18739344554646e-07
5.80563770668327e-07
8.97306212017036e-07
1.25905388863354e-06
1.65413291788431e-06
2.06283188939003e-05
3.88277759487191e-05
4.69021399064739e-05
4.78929146819441e-05
4.18909953629405e-05
2.51521374927226e-05
2.62246355813096e-06
3.00335564720831e-05
2.08918924443191e-05
3.48421105017033e-05
3.21032503228238e-05
2.18110371497825e-05
1.12733836445572e-05
4.66998303835139e-05
4.77549502649149e-05
3.856057568533e-05
4.17983671248169e-05
1.96403326570254e-05
1.37452323739246e-05
7.75566152820748e-06
2.8334270389959e-06
2.51805454458587e-05
2.64346062419761e-06
6.55111191589369e-06
1.11149387753842e-05
1.57675349823196e-05
2.03407623765441e-05
4.34457338556787e-07
5.74558121553207e-09
1.07359673346823e-07
3.6557458316292e-07
8.38845483114993e-07
1.44530291054173e-06
2.0857775090788e-06
2.70101145132227e-06
3.54674804497365e-11
4.67047505372465e-09
7.72731142661237e-08
2.64305384002603e-07
5.23573593391817e-07
8.51657963172653e-07
1.23199700068328e-06
1.63723958648913e-06
2.07155683378267e-06
2.47961901517148e-05
4.64319185778898e-05
5.75296518849263e-05
6.15596153313248e-05
5.9776970136232e-05
5.09189042715323e-05
3.05804586068848e-05
3.34337762260682e-06
4.60325530964891e-05
3.79022358694448e-05
2.90189033291775e-05
3.38087727845328e-05
1.9540171675443e-05
4.71905361240018e-05
4.14220766525045e-05
3.12799129652694e-05
2.04880109513468e-05
9.75068160488378e-06
6.13588572595044e-05
5.72497847031487e-05
5.96266203514378e-05
4.61055196729155e-05
5.08209297479905e-05
1.92999748923335e-05
2.520578889481e-05
1.29153443664024e-05
6.65068100705548e-06
2.03081706578596e-06
3.06366178683903e-05
1.78631456169919e-06
5.55355201165417e-06
1.02293896671807e-05
1.51287059033319e-05
1.99339284075564e-05
2.44988661737298e-05
1.08653982303997e-07
5.14013681606554e-10
2.32288253806314e-08
2.95683859972585e-07
7.30960731264112e-07
1.35922979507557e-06
2.08561166508681e-06
2.79884770484821e-06
3.44120593933299e-06
3.48067405153576e-10
2.34206681213341e-08
1.71671658990899e-07
4.30900186337872e-07
7.64136792583672e-07
1.16685081400802e-06
1.6072301228263e-06
2.04691024161496e-06
2.49947170951432e-06
2.88349293444803e-05
5.35991017181605e-05
6.74819249686022e-05
7.42017821733177e-05
7.54403568860255e-05
7.11984236559776e-05
5.95939506676071e-05
3.58617260624029e-05
4.09294041922512e-06
6.06028880521779e-05
5.64002494383426e-05
4.46777101693345e-05
4.53130775711587e-05
3.66222915632282e-05
2.72368577998145e-05
4.59773043813447e-05
3.19740371071526e-05
1.73059006772111e-05
5.90028483487245e-05
5.04216004222502e-05
4.0521689266614e-05
2.97126661900246e-05
1.82357389957268e-05
7.21909353904719e-06
7.5222437247961e-05
7.3916168751131e-05
6.71304357689307e-05
7.10311313289518e-05
5.32332008025598e-05
5.95005487781157e-05
1.8390908144315e-05
2.48629769042392e-05
3.06939859650057e-05
1.14912034758196e-05
5.09083131292265e-06
3.59445508261797e-05
5.98762316829105e-07
3.85583954668109e-06
8.72379515452282e-06
1.3944357252845e-05
1.91343669101364e-05
2.40336731365839e-05
2.85252014224664e-05
6.0770199409029e-09
1.73875420468774e-09
9.48904855690381e-08
6.24760332822036e-07
1.21717092206807e-06
1.98107442864809e-06
2.81105602562497e-06
3.57195851130228e-06
4.21806344873869e-06
1.76423545281492e-09
5.28821063315443e-08
2.80972976730494e-07
6.26582342255529e-07
1.04561573595749e-06
1.52272527173059e-06
2.00976399836038e-06
2.47331410602775e-06
2.93754685347424e-06
3.27039102531397e-05
6.03751650868434e-05
7.68353044712944e-05
8.6039677856484e-05
8.98365249227811e-05
8.87519796469658e-05
8.21749168879801e-05
6.79298557837173e-05
4.09667275947628e-05
4.86857369646795e-06
7.29673237182069e-05
5.90654047878355e-05
7.43980268955988e-05
5.47487449873204e-05
6.61164376336553e-05
4.24024649052275e-05
5.23320640687285e-05
4.38001154791982e-05
3.44430076360182e-05
2.43822015842291e-05
5.76940194816341e-05
4.38975818496079e-05
2.90934568820743e-05
1.36793102541138e-05
7.03592088900474e-05
5.90922196478497e-05
4.94870108402008e-05
3.88861695062334e-05
2.71712529303646e-05
1.447405299894e-05
3.55958004104957e-06
8.95266459551005e-05
8.85072058302931e-05
8.56732772665057e-05
7.64300039368702e-05
8.1997334480858e-05
5.99809179340238e-05
6.78449604325059e-05
2.39282299944631e-05
1.69184764985945e-05
3.03607844657153e-05
3.60416790360865e-05
9.53579279103523e-06
4.10790917951836e-05
3.35201431784136e-08
1.31504396436276e-06
6.15126097976533e-06
1.19644795825071e-05
1.76764921836519e-05
2.31003745686136e-05
2.80175144159501e-05
3.23897762381182e-05
2.44036405049374e-08
3.05348262829699e-09
4.76334916331646e-08
4.75431405023064e-07
1.04401543552895e-06
1.80241183654887e-06
2.69038769492848e-06
3.60068728379519e-06
4.3858390108838e-06
5.01988147996352e-06
3.41036831560426e-09
8.82054272125618e-08
4.08222610184123e-07
8.57410367909166e-07
1.36563184849849e-06
1.90791271929956e-06
2.4319345746213e-06
2.90908282270402e-06
3.37681212589972e-06
3.63969721059998e-05
6.67850726946925e-05
8.56494884955376e-05
9.71729326659366e-05
0.000103295967511451
0.000104768903646686
0.000101549264102485
9.27198672330357e-05
7.59364767183201e-05
4.589022043534e-05
5.65836240795784e-06
8.45452493917493e-05
8.84989297384059e-05
7.11263923051252e-05
7.27542557998188e-05
5.65650848165392e-05
8.76157145844458e-05
5.20600381387052e-05
6.41970830611518e-05
7.5279039561702e-05
3.89815718407138e-05
5.89917984193268e-05
5.06171581496982e-05
4.12611959647475e-05
3.10071364806224e-05
1.97113158874467e-05
5.55365891176351e-05
6.89878576019602e-05
4.08051257765488e-05
2.4894138265923e-05
6.91869175280947e-06
8.12858153741371e-05
6.74321936369052e-05
5.81341787007244e-05
4.78387184697661e-05
3.64544995519557e-05
2.3288412554976e-05
1.04291025088902e-05
1.75632555166522e-07
0.000102897248496935
0.000104422226319231
0.000101281898862807
9.67450465050274e-05
8.52045644085981e-05
9.2538780849317e-05
6.63661823002469e-05
7.5861395433484e-05
2.94015692763377e-05
2.24517576293034e-05
1.50653124952499e-05
3.57237235555309e-05
4.12145183870991e-05
7.69590396826701e-06
4.60280752444069e-05
6.43340565259909e-08
2.16502569446405e-06
8.57864869525397e-06
1.5256876516264e-05
2.13967595364478e-05
2.69672874560258e-05
3.18473360618074e-05
3.60762087495097e-05
2.82136760625313e-08
4.17193104096322e-09
5.14195404800077e-08
3.29675336619e-07
8.61025355674871e-07
1.59270391431477e-06
2.47620442484371e-06
3.46602781622441e-06
4.43271299555342e-06
5.22495984338733e-06
5.8366394027944e-06
5.80591370375377e-09
1.27989338581612e-07
5.60234893555142e-07
1.12163216811988e-06
1.71391264523433e-06
2.31200853915856e-06
2.86414281159927e-06
3.34717311927737e-06
3.81434758928653e-06
3.9903132667296e-05
7.28438627775296e-05
9.39703344996787e-05
0.000107672904282387
0.000115961904041559
0.000119698511125944
0.000119110678103401
0.000113857116662063
0.000102849143700877
8.36212007703995e-05
5.0626990470435e-05
6.45822175031689e-06
8.2426332072102e-05
0.000101679311536311
9.54664735754481e-05
0.000103311301993583
8.65440966142291e-05
6.8229592920344e-05
8.58859538116191e-05
7.01701151109902e-05
5.30213024546658e-05
0.000100326786219884
4.80861042744898e-05
6.11263406522025e-05
7.31252266323818e-05
8.39397419977713e-05
3.39643393951311e-05
6.52990526465358e-05
5.70995782911331e-05
4.77539715233431e-05
3.72976418810118e-05
2.54158054611631e-05
1.06888058319765e-05
5.25103623046336e-05
6.67966644357511e-05
7.98553762345204e-05
3.67636300403114e-05
1.81766151846771e-05
3.21996356604121e-07
9.17927575658004e-05
7.54437492257732e-05
6.64460340854082e-05
5.64550125408781e-05
4.54965338071219e-05
3.33994778260074e-05
1.93669110577748e-05
4.86848347510618e-06
2.39922618609081e-07
0.000115495681939495
0.000119255083079042
0.000118730332879459
0.000113574492285322
0.000107200469553489
9.34930188403943e-05
0.000102667168880394
7.2401791422698e-05
8.35540849694049e-05
2.78840250311913e-05
3.47341358456671e-05
2.06279679037016e-05
1.30919785525739e-05
4.0907208995271e-05
4.61962436596213e-05
5.61566610315411e-06
5.0786562297707e-05
1.07942701697613e-07
3.12447496623714e-06
1.11136585251992e-05
1.85740501115772e-05
2.50401169794432e-05
3.06935160411612e-05
3.55009667967139e-05
3.95749586303491e-05
5.48890381965933e-08
3.12178385678685e-09
4.01648351226604e-08
2.36420087826939e-07
9.8734539404229e-07
6.92387088141915e-07
1.37892710014394e-06
2.22677884162683e-06
3.21572821415911e-06
4.28421462534676e-06
5.2899251625248e-06
6.0788623489516e-06
6.66218623685802e-06
8.22858114040535e-09
1.7586987119381e-07
7.35601767796372e-07
1.41034461999145e-06
2.07977530008503e-06
2.72634477783246e-06
3.29905947976894e-06
3.78260637350875e-06
4.24531869430439e-06
4.32187896741597e-05
7.85587607651153e-05
0.000101827109771514
0.000117593724387891
0.000127923688038959
0.000133740926598925
0.000135419813987115
0.000132910914040721
0.000125695616494781
0.000112575300948163
9.09889126390034e-05
5.51780995051057e-05
7.26163552754035e-06
9.31029301946131e-05
7.91570774117574e-05
9.94400966727945e-05
0.00011411853757214
0.000117941609721709
0.000105797512450547
0.000117536181032392
0.000101252670554784
8.35680871063713e-05
6.42024599566781e-05
9.85069390864436e-05
8.32402562860909e-05
6.66767733456598e-05
4.84282077300243e-05
0.000112560384594393
4.22856513849487e-05
5.66335426819922e-05
6.97069809145728e-05
8.15791286161392e-05
9.2128648834559e-05
2.56854148320774e-05
7.12622087518943e-05
6.32471562668832e-05
5.39409676436976e-05
4.33065164366124e-05
3.08971632723833e-05
1.45405011452419e-05
5.56554778524445e-07
4.88056514691699e-05
6.38287267171308e-05
7.76025759573923e-05
9.02964466805042e-05
3.20943062589502e-05
9.64695299589984e-06
4.41828896742152e-07
0.000101887599159024
8.31278327328398e-05
7.44223868375444e-05
6.47074445605962e-05
5.40892308576746e-05
4.26295090227356e-05
3.01078872162215e-05
1.54098573353061e-05
3.80731237383051e-06
2.15626029695803e-07
0.000133224974317382
0.000127409274326341
0.000134935007395917
0.000132504560782289
0.000125401584398804
0.000117086147110457
0.000101320426263871
0.000112391831558575
7.8093915178646e-05
9.09268710845316e-05
2.60076496624137e-05
3.31474924046215e-05
3.98771136482849e-05
1.86340788177505e-05
1.10644234748936e-05
4.58918832711597e-05
5.09807256671041e-05
4.22459416158143e-06
5.53547312575844e-05
1.57409254102568e-07
4.21133304115028e-06
1.37139156803756e-05
2.18456437409018e-05
2.85614461647104e-05
3.42509451894135e-05
3.89671659597046e-05
4.28813600488206e-05
4.37359263391721e-08
2.39723570834993e-09
3.19379819294745e-08
1.78138585607739e-07
8.44390573820218e-07
5.61452576971913e-07
1.17492238089187e-06
1.97227211756445e-06
2.92107833174582e-06
3.99610969497043e-06
5.12658112021174e-06
6.16084051623628e-06
6.94006913497498e-06
7.4901644637558e-06
1.15458651654429e-08
2.31016065365873e-07
9.28010000333805e-07
1.71521874792469e-06
2.45592680670847e-06
3.14363610703691e-06
3.73097833054191e-06
4.21070680682249e-06
4.66500376801866e-06
4.63392260290501e-05
8.39326801989342e-05
0.000109234766118249
0.000126969808024341
0.000139242860542194
0.000147012401742813
0.00015073783302093
0.000150540990514097
0.000146199688295652
0.000137078983384633
0.000121905779267595
9.80431850748254e-05
5.95424548811434e-05
8.06316978505824e-06
8.94923218599914e-05
0.000103218407967504
0.000111630311884807
7.46616041823903e-05
9.60995934922726e-05
0.000115586861550285
0.000125901907201634
0.000131744128524731
0.000133524362405479
0.000115575719813486
0.000131231082373028
0.000115362727443625
9.81981512125007e-05
7.9622126389334e-05
5.90091174625874e-05
9.57644032836713e-05
0.00011064145774693
7.97537748130083e-05
6.24486709301884e-05
4.2976120304855e-05
0.00012433065502589
5.01154627010178e-05
3.27537720092928e-05
6.47332518354447e-05
7.78429857338536e-05
8.95804807739691e-05
9.98646595937032e-05
1.49719435492134e-05
7.68854230296301e-05
6.90612379924452e-05
5.98176245081857e-05
4.90458311557043e-05
3.61736586068199e-05
1.84454369531611e-05
8.15959731906701e-07
7.30405861330921e-07
6.02491566800491e-05
4.4717803784054e-05
7.45800925572701e-05
8.79475280788468e-05
0.000100317946364474
2.69218654448263e-05
8.06983298253711e-06
4.38192702359661e-07
0.000111576761248061
9.04872885769683e-05
8.20636807335071e-05
7.26054847058054e-05
6.2250894986481e-05
5.11905332508312e-05
3.94284576001184e-05
2.67030112972721e-05
1.30350386593713e-05
3.33719963209762e-06
1.69589795551199e-07
0.000146445348024432
0.000150176134483879
0.000138691196541042
0.000150022668497348
0.000145771856538087
0.000136773986246948
0.000126431210310236
0.000108699991125001
0.000121718873460551
8.34452152679099e-05
9.79833838346389e-05
2.39320682300775e-05
3.11757698328637e-05
3.82018065586649e-05
4.48114222407046e-05
1.65720760745687e-05
9.34995573717091e-06
5.06712393961078e-05
5.55680364989325e-05
3.56401140224579e-06
5.97322999453725e-05
2.20069504312023e-07
5.40441439401676e-06
1.63347697172227e-05
2.50234696164518e-05
3.19286259818327e-05
3.76262700827823e-05
4.22406693764097e-05
4.59918230486205e-05
3.429736803506e-08
1.80986929382137e-09
2.43911799920604e-08
1.41287698943915e-07
6.90192731376676e-07
4.54753924365577e-07
9.90288818807587e-07
1.72092802655822e-06
2.61677326512351e-06
3.65255826788244e-06
4.79888898306551e-06
5.98101822630871e-06
7.03741075487874e-06
7.8021560424429e-06
8.31508926595792e-06
1.51324839718425e-08
2.93652387246727e-07
1.13383015243354e-06
2.02966541194566e-06
2.83536948084448e-06
3.55804138467763e-06
4.15510618171083e-06
4.6274611817117e-06
5.0691172586294e-06
4.92608777306821e-05
8.89655146588658e-05
0.000116198617389132
0.000135817902345305
0.000149956095586316
0.000159586340040423
0.000165213937804623
0.000167067644155211
0.000165108355446784
0.000158994672277244
0.000148014149184587
0.000130843789110496
0.000104786048615869
6.37189272542463e-05
8.85704564128194e-06
8.45567205021062e-05
0.000107956826634958
9.92940838829266e-05
0.00011280144918868
0.000123195594339406
0.000129133438626122
6.8893951919388e-05
9.17196385150081e-05
0.00011216087973616
0.000131037700755784
0.000137072383812907
0.000144829108276029
0.000148589305560682
0.000148517937748118
0.000124822906507717
0.000144421758252912
0.000128931256122485
0.000112182871551419
9.4244552219089e-05
7.4874091892139e-05
5.28434349866131e-05
0.000107765035868652
9.21808137009189e-05
0.000122305475184768
7.55872539980804e-05
5.77150400762372e-05
3.69114460382245e-05
0.00013564582934544
5.7554650829333e-05
3.9488824234961e-05
2.02834734391514e-05
7.24217633123862e-05
8.55495854726172e-05
9.71420648847997e-05
0.000107157987182903
1.26564293260584e-05
7.45439741252897e-05
8.21706376982638e-05
6.53780732416464e-05
5.45072467580925e-05
4.12321356134977e-05
2.23205443545074e-05
1.14583363260004e-06
1.03395241414271e-06
7.21935909597429e-07
7.09243265320349e-05
5.62309737049528e-05
4.04063605143921e-05
8.47970841988144e-05
9.78510287163044e-05
0.00010992730250048
2.31416909970854e-05
7.00655549078162e-06
3.69481412359453e-07
0.000120865321585719
9.75261401337138e-05
8.93735436050311e-05
8.01555202769426e-05
7.00254451430479e-05
5.92259452412645e-05
4.79018828463414e-05
3.60204639919307e-05
2.35849163667871e-05
1.16496812485205e-05
2.772259530808e-06
1.33231076854532e-07
0.000158980174156856
0.000164598877924651
0.000166468271076716
0.000149371992498947
0.000164561226424609
0.000158546416950037
0.000147697096006812
0.00013525004374454
0.000115636690481485
0.000130651522013363
8.84559317007616e-05
0.000104726227340835
2.89705445768859e-05
2.17413500441881e-05
3.61045941925259e-05
4.30345535688414e-05
4.95320648053127e-05
1.45824420731574e-05
7.95652560591838e-06
5.52462191178999e-05
5.99587836746813e-05
2.95100699079257e-06
6.39189287359003e-05
2.90992499853037e-07
6.67711350271806e-06
1.89088515697323e-05
2.80708177901618e-05
3.5126242480376e-05
4.08134241917124e-05
4.53183339881753e-05
4.8902533116746e-05
2.58163693699472e-08
1.27466173088271e-09
1.08032938956133e-07
1.76060703274374e-08
5.33984541654244e-07
3.61625413375738e-07
8.20479527710486e-07
1.47583983433275e-06
2.30915056113296e-06
3.29359323519283e-06
4.40409353905985e-06
5.61187658382678e-06
6.83944627577153e-06
7.91341190985201e-06
8.65966124721524e-06
9.13148090866357e-06
1.93332195478137e-08
3.61613927587481e-07
1.34741076875199e-06
2.3476487741155e-06
3.21270751946923e-06
3.96495439976502e-06
4.56762605356354e-06
5.02862377219072e-06
5.45341579243219e-06
5.19784247827512e-05
9.36553269020071e-05
0.000122718571183232
0.000144142650045295
0.000160079400360483
0.000171503297898087
0.000178938269330266
0.000182675467377471
0.000182796705507904
0.000179146971134493
0.000171302772085517
0.000158502400513933
0.00013939024035568
0.000111218488858879
6.77057691595559e-05
9.63736936835906e-06
7.82481160677199e-05
9.39446987724884e-05
0.000103167913139922
0.000125372684160104
0.000119216628312912
0.000108584888906088
0.000121867266422434
0.000134169430755165
0.000141996406935456
0.000145835789662397
6.20686322301083e-05
8.64733086283428e-05
0.000107773841674356
0.000127467662895302
0.000145884890693204
0.000157248899489037
0.000147652199827642
0.000162871145750268
0.000164777809490176
0.00016296495631226
0.000133549715791797
0.000157120182875115
0.000141988178930481
0.000125585182813354
0.000108099124359316
8.95506458591092e-05
6.95417196168039e-05
4.5990988400033e-05
0.000119272880081353
0.000104011265553235
8.78893904602232e-05
0.000133509323710255
7.08921282494876e-05
5.26364388123369e-05
3.21406755846435e-05
0.000146510171135
6.46262784154691e-05
4.59354958052664e-05
2.55877295354746e-05
1.72447668526495e-05
7.97090748155537e-05
9.28347453697991e-05
0.000104271107595418
0.000114012723432426
1.10153153354806e-05
7.96964454488633e-05
7.06226646828757e-05
8.71182599930715e-05
5.96799095309308e-05
4.60568924819767e-05
2.61195637913068e-05
1.50006546740312e-06
1.42706049615832e-06
1.05421603643213e-06
6.10742679065833e-07
8.09697030982994e-05
6.67599014502773e-05
5.18891882238927e-05
3.62128314210287e-05
9.45360710412257e-05
0.000107329367649885
0.00011913091088844
2.03238226935591e-05
5.82213711125835e-06
2.89104237562866e-07
0.000129756869475531
9.63575122367927e-05
0.000104248034424447
8.73651494289751e-05
7.74338164356521e-05
6.68326526598104e-05
5.57628656230493e-05
4.43234104404745e-05
3.25617144570418e-05
2.08227001730547e-05
1.00231844885789e-05
2.17210027978731e-06
1.00103605314605e-07
0.000178282749720897
0.000170863173507108
0.000182020704024699
0.000182164301469089
0.000159464825227809
0.000178572238253401
0.000170833524810743
0.00015817203141097
0.000143546670429183
0.000122130622184373
0.000139191148783042
9.31245605711696e-05
0.000111156985365255
3.37382222533971e-05
2.65963712210235e-05
1.94919534780438e-05
4.07959626703617e-05
4.76453094819795e-05
5.40420888613918e-05
1.26803078170397e-05
6.66905756385629e-06
5.9619100988596e-05
6.41541978399898e-05
2.33127571340339e-06
6.79158241762234e-05
3.71980380071461e-07
7.98794221245477e-06
2.13959834552436e-05
3.09703970901244e-05
3.81472401189101e-05
4.38092411863199e-05
4.81969706065269e-05
5.16088546707744e-05
1.84270797849873e-08
8.43688063323511e-10
2.77834389222739e-07
7.8286488936372e-08
1.18747750154363e-08
3.90272150787969e-07
6.61156151840907e-07
1.2373914509122e-06
1.99907794045199e-06
2.9252000768923e-06
3.98796566216838e-06
5.16408752407752e-06
6.42731885207322e-06
7.69602650054215e-06
8.78369757726971e-06
9.50727493758634e-06
9.93355843111681e-06
2.37689557695114e-08
4.33317263454451e-07
1.56455963330082e-06
2.6647404830469e-06
3.58375023422656e-06
4.36090978257248e-06
4.96460228881394e-06
5.41023912099632e-06
5.81412381955819e-06
5.44855741352828e-05
9.79987889493123e-05
0.000128791755861377
0.000151941987598668
0.000169615000664466
0.000182778853745844
0.000191958389518467
0.000197474598376835
0.000199484470307821
0.000197960870671778
0.00019266608389822
0.000183123480019497
0.000168542134739671
0.000147545100176272
0.000117340670810404
7.15013282824812e-05
1.03968551521283e-05
8.71237197268657e-05
9.7446886526479e-05
7.0804735831297e-05
0.000102844431270763
0.000114041973812696
0.000120582140952
0.000137931040204229
0.000141919280449172
0.000129905953077226
0.000117375576526654
0.000130423056896226
0.000144566719748854
0.000154217169729489
0.00015988856635179
0.000161864168694623
5.44916309862017e-05
8.05802371690874e-05
0.000102587387896831
0.000122929823835919
0.000142124367099361
0.000160177159460065
0.000176436104137327
0.000169027921030476
0.000157650158983842
0.00018018324854015
0.000180372249292419
0.000176885116778194
0.00014175895153064
0.000169330542900745
0.000154548622898995
0.000138453029954922
0.000121294097311835
0.000103243782331646
8.42528614224564e-05
6.37707616352002e-05
4.03667536171486e-05
0.000130308765079641
0.000115312540147035
9.95002719011472e-05
8.29988865684433e-05
0.000144258876021264
6.57642639035729e-05
4.75058705464963e-05
2.83360742457318e-05
0.000156924988258795
7.13335623166094e-05
5.20885537862159e-05
3.07926670727465e-05
2.18559476156012e-05
1.50674800986132e-05
8.65995256836894e-05
9.97033646241e-05
0.000110970669178426
0.000120429054158439
9.20521515987274e-06
8.45190963074382e-05
7.55517227921453e-05
6.45606096228757e-05
9.17273434873382e-05
5.06348989565521e-05
2.97817744042243e-05
1.895832590826e-06
1.84708388942075e-06
1.45550827615404e-06
8.99403791008057e-07
4.7882649542008e-07
9.04944157095365e-05
7.65731351806061e-05
6.21771004941333e-05
4.73464988597788e-05
3.22972782706193e-05
0.000103831274447989
0.000116394073560325
0.000127934048771979
1.76250281585458e-05
4.61235838459939e-06
2.16510903036582e-07
0.000138253720273469
0.000103021048813513
9.42431683106456e-05
0.000110655712254433
8.44911800862614e-05
7.40521705950953e-05
6.31529850829936e-05
5.19436448812292e-05
4.05399655573607e-05
2.9119916653868e-05
1.81418935399348e-05
8.27153264970376e-06
1.60855969271216e-06
7.15930496244575e-08
0.000191267786773448
0.000196778295242133
0.000182106759548697
0.000198794530288882
0.000197296522708343
0.000168971105820008
0.000192063334690883
0.000182632400541504
0.000168197547409201
0.00015131911216703
0.000128179206873188
0.000147338235342326
9.74480656388124e-05
0.000117275881479205
3.11581159695131e-05
3.82530355818827e-05
2.40807946036088e-05
1.71960930915941e-05
4.52575207866911e-05
5.20404339505341e-05
5.83461328977911e-05
1.08060424053712e-05
5.4022167785184e-06
6.37933425127109e-05
6.81574059817709e-05
1.74156880889981e-06
7.17225169386654e-05
4.58651646549565e-07
9.30270502936818e-06
2.37754816284707e-05
3.37140628675627e-05
4.09879771232233e-05
4.66109118553505e-05
5.08726860213222e-05
5.41056085942603e-05
1.23260701191027e-08
5.10899815119993e-10
5.12858706399143e-07
2.02977913959385e-07
5.2948368139708e-08
7.18011119979872e-09
2.66036045291762e-07
1.00676836164439e-06
1.68908181442305e-06
2.54751186130494e-06
3.55669971159563e-06
4.689368604772e-06
5.92521252510514e-06
7.23986883576136e-06
8.54603264599415e-06
9.64282516759607e-06
1.03392803864831e-05
1.0713492465094e-05
2.84242707959616e-08
5.07248173212461e-07
1.7820578309559e-06
2.97726361861737e-06
3.94497756511435e-06
4.74187975365612e-06
5.34233271347356e-06
5.76814483252987e-06
6.14774233759833e-06
5.67772300150618e-05
0.000101991829500951
0.000134413921013243
0.000159210710129955
0.000178557702097221
0.000193412653607218
0.000204291215179769
0.00021152241256973
0.000215303212983852
0.000215689546653519
0.000212574269911522
0.000205664695845344
0.000194452539376144
0.000178130936472033
0.00015530822849615
0.000123151997206201
7.51013114006878e-05
1.1135182932906e-05
9.55365315561697e-05
0.000107867459304926
7.90956852558446e-05
0.000114930093013163
9.1020245543073e-05
6.25493157101892e-05
0.000124365601567761
0.000111264433314949
0.000132762330038828
0.000136965044444952
0.000149869403883981
0.000155660032782826
0.000157739808234018
0.000140035054623511
0.00012567118595543
0.000138470446063064
0.000154392375324354
0.000165811843282856
0.000173249510753838
0.000177030987962028
0.000177288738254594
4.80860694896488e-05
7.41681683919269e-05
9.67302722897274e-05
0.000117557891432056
0.000137350628308881
0.000156201660198632
0.000173938451260343
0.000189313883084745
0.000194817621807233
0.000180173726776741
0.000167066187196807
0.000196848840676799
0.000195403362149139
0.000190285147903871
0.000149448631496207
0.000181052190582696
0.000166618754784829
0.000150813608168707
0.000133918129991214
0.00011617754604559
9.77129979212296e-05
7.84253414657358e-05
5.78214163607671e-05
3.57433087596749e-05
0.000126124972099451
0.000140884289098648
0.00011054083829528
9.43251882040495e-05
7.75833064880936e-05
0.00015455709109653
6.03024144061621e-05
4.25708750879455e-05
2.46964951438088e-05
0.000166889848314458
5.79297538569736e-05
7.767706147313e-05
3.58419308362074e-05
2.64148816746685e-05
1.91598024388628e-05
1.26817663413925e-05
9.30961099403324e-05
0.000106157715312767
0.000117240947522276
0.00012640480855959
7.36983656234685e-06
8.90113397018252e-05
8.01654651460638e-05
6.9149253564659e-05
5.49597083573464e-05
9.59953648365597e-05
3.327656736544e-05
2.30404344729261e-06
2.31790184592589e-06
1.90860495025224e-06
1.24263998572729e-06
7.0711039463242e-07
3.57730113042578e-07
8.58274197959751e-05
9.95548496749799e-05
7.16840559828871e-05
5.72567497449079e-05
4.27230784771762e-05
2.84574078407325e-05
0.000112703008089818
0.000125054079999419
0.000136340818937652
1.48533209014288e-05
3.46869883398776e-06
1.54965451143712e-07
0.000146357359241715
0.000109368666788
0.000100797840996587
9.1211359275093e-05
0.00011675037859518
8.09099474772909e-05
7.01361001053147e-05
5.90583509832616e-05
4.78234329650559e-05
3.6598619448919e-05
2.56475795765214e-05
1.539997839542e-05
6.49789359190981e-06
1.10958221846831e-06
4.80351527551299e-08
0.000203567469516726
0.000210790207369716
0.000214570584795053
0.000192709672608534
0.000214965308310275
0.000211877521997617
0.00017788568322225
0.000205033302431471
0.000193939121859727
0.00017777167132469
0.000158562414742475
0.000133778426731135
0.00015509302727948
0.000101422589613535
0.000123084081765665
2.8379836540073e-05
3.54578714260858e-05
4.25324154286138e-05
2.14346678724541e-05
1.48435700352178e-05
4.95000585085851e-05
5.62275337406627e-05
6.24496980492772e-05
8.92944895229507e-06
4.16492237619945e-06
6.77728062694928e-05
7.19688347192258e-05
1.20971688541395e-06
7.53299231293967e-05
5.49447180667438e-07
1.05977173586156e-05
2.60366391821321e-05
3.62970372915271e-05
4.3645334215081e-05
4.92148658946948e-05
5.33410390635929e-05
5.63875567460787e-05
7.40353484781755e-09
2.45657579362795e-10
7.87681424880764e-07
3.7813083566695e-07
1.37964890141139e-07
3.19823152986927e-08
3.55658109363528e-09
1.61878883637159e-07
1.38389538066514e-06
2.16450037990352e-06
3.11004907990824e-06
4.19426173588329e-06
5.39093785330969e-06
6.68262491714584e-06
8.04529348766222e-06
9.3844035602468e-06
1.04851431586784e-05
1.11473545760861e-05
1.14716683381946e-05
3.31722766920217e-08
5.82297007602574e-07
1.99727871784825e-06
3.2817365738298e-06