/*--------------------------------*- C++ -*----------------------------------*\
  =========                 |
  \\      /  F ield         | OpenFOAM: The Open Source CFD Toolbox
   \\    /   O peration     | Website:  https://openfoam.org
    \\  /    A nd           | Version:  12
     \\/     M anipulation  |
\*---------------------------------------------------------------------------*/
/*   Windows 32 and 64 bit porting by blueCAPE: http://www.bluecape.com.pt   *\
|  Based on Windows porting (2.0.x v4) by Symscape: http://www.symscape.com   |
\*---------------------------------------------------------------------------*/
FoamFile
{
    format      ascii;
    class       volScalarField;
    location    "500";
    object      omega;
}
// * * * * * * * * * * * * * * * * * * * * * * * * * * * * * * * * * * * * * //

dimensions      [0 0 -1 0 0 0 0];

internalField   nonuniform List<scalar> 
10228
(
2.93334415774853
2.96064319258036
2.96350813983652
2.47469008983647
2.44248103211299
2.94198163215907
2.99299455672107
2.95665653589876
0.690119620401797
2.45215098310825
0.692282120891077
2.4044775775588
2.42539279675091
3.02238242449047
3.00033405126374
3.03463607644713
3.04377591124882
0.532048707229736
0.509638491295281
2.50624199840298
0.507191595757865
0.537227929507353
0.687953078588407
2.3786467035682
2.36519228612206
2.41877600948943
2.97390843456781
2.99901588693287
3.04482624752959
3.07872551391626
3.01839252174946
0.532292863074378
0.273652894727301
0.486559150923281
2.47352033303656
0.272832993968617
0.499012770498394
0.477112332235953
0.534694455221755
0.533689335365404
0.684158165513372
2.35771550848452
2.31066630402846
2.33138962150574
2.40498329726222
3.05610419993074
2.9847058675185
3.02105751304886
3.07319465690437
3.08920022828655
3.05712723308697
0.54305596448679
0.244926358884035
0.230856098489238
0.4794308404039
2.49502197077574
0.270098797664628
0.244069486879511
0.228406747584356
0.464775211737118
0.492784724901421
0.469446382141383
0.529428411643754
0.529314729812186
0.54620803880449
0.681758035666026
2.37667448793753
2.29353925530468
2.2653554747599
2.31570880181079
2.40609950606438
3.07772629892005
2.99655492036684
3.0025463543276
3.04315669480242
3.09233607255872
3.10441322146061
3.04133952911207
0.55920803922762
0.24683608807281
0.185080562198832
0.224327302017517
0.484242366159431
2.47713641790772
0.241743641471908
0.224968248887871
0.267207293228352
0.184079597213185
0.246104995213707
0.221524911407211
0.455558133766389
0.456200452709097
0.492474902497948
0.472300945079044
0.525365109506032
0.522445324223754
0.542027693004691
0.560553158694469
0.686122833117398
2.29336258109869
2.31908787530369
2.2440395238172
2.24625407100867
2.31166815378968
2.39992200036377
3.41256773533604
3.07763158978861
3.00140512122358
3.02299098617712
3.06385963023852
3.10290312143972
3.10114243681814
3.04746487985544
0.570377444774498
0.254613137999126
0.176540089958373
0.169064463673228
0.227537650343994
0.490211237869215
2.47744822927689
0.243892234420428
0.238917406880049
0.182371048549413
0.217631857317421
0.221910102083056
0.265375185801901
0.175893492111184
0.168109889135727
0.253560965635751
0.224500225043737
0.457347343842151
0.44534009296826
0.455279647907459
0.502877212505301
0.478683161030499
0.523249978785838
0.517103143907495
0.534886597349103
0.555944569918259
0.572355090541656
0.703464626495384
2.34880711927163
2.19723128411419
2.26653116136666
2.22078910154788
2.2423138119467
2.30858631091537
2.39534328787845
3.96112726185701
3.38727566003355
3.08930598533613
3.03247251255776
3.04876269410822
3.07801138174501
3.10403926920519
3.09813218289182
3.0417106255399
0.581852389545169
0.262837856756303
0.177402250070248
0.153323778787044
0.16598152166113
0.23359592983912
0.498780799083833
2.47083288357145
0.174698340758304
0.251253628821292
0.241145989945037
0.18056675218551
0.2366221196993
0.166554074465063
0.220281167764802
0.214159712985479
0.220368210538249
0.266884235536015
0.152908532776067
0.176810398542043
0.165013088598786
0.261674147812257
0.230410389001142
0.446165767623373
0.463683180485819
0.442518151415702
0.46565933351826
0.535032857783638
0.486616694291808
0.528561338284176
0.515054823013074
0.529543251381626
0.548896775559943
0.567918416501062
0.582865028245729
0.869686893272458
2.47411472882944
2.42132770044612
2.14804542246507
2.22757321367142
2.21502793569627
2.23979254345338
2.30304245191035
2.38957271152932
3.98454539997751
3.38429181846274
3.13374544459249
3.07185547127727
3.06829439164568
3.08139288514158
3.09874572852234
3.09206023384252
3.04080916631707
0.591495683056373
0.270760968865241
0.181056337168408
0.149262223494352
0.145257733022516
0.167550068558796
0.24053566725455
0.507445583086943
2.46866898858589
0.152129289340444
0.175771898554716
0.173449164138216
0.25929534361809
0.248568213211209
0.23913845589782
0.164970709631549
0.179528762559686
0.237435152063039
0.163438338538626
0.225991968410073
0.216464249141193
0.212212947813032
0.222609601724212
0.287839667649475
0.144930888869031
0.149008210718745
0.180457354902722
0.166540231012218
0.269463105175394
0.237240357169114
0.441514603053098
0.451986485702651
0.471306939252024
0.447914087891686
0.490405196343218
0.495012440896954
0.695563454331425
0.530155395993417
0.528850990690333
0.543753586239513
0.560924785203073
0.57807747200585
0.592187100325069
2.42304838411072
3.34281394003908
2.40073356072367
2.16214924801986
2.21574796645809
2.21278557213407
2.23431072380504
2.29713054762819
2.38573609883853
3.93584024790839
3.43956732638239
3.18913254764056
3.09753974814673
3.07484171849469
3.07704669536246
3.09204638526071
3.08790638573115
3.03970469229328
0.600607737314751
0.278038502737886
0.185576149871813
0.149524090752246
0.137673324828633
0.143253088364105
0.170961519440597
0.247506485114499
0.5163460470789
2.46721285846169
0.148522088317272
0.151371920351645
0.144273664428047
0.174806293947519
0.17946384090928
0.173112545319295
0.266988228174327
0.256625175906089
0.246850306715135
0.240958042835077
0.161800051449424
0.16411378693152
0.181626259708359
0.259792192428525
0.164883781522986
0.232630836866801
0.221906195360826
0.213983888495076
0.213114631144936
0.237400878610888
0.518406536187134
0.137556454986306
0.142926808915941
0.149311119793413
0.184952160941322
0.169896187967003
0.276663690033101
0.244125378507086
0.446178606825166
0.44265948658903
0.459302590459866
0.479402570435278
0.456611574330034
0.503558606239005
2.34197553591902
0.68882440029239
0.545458304979425
0.543269460847505
0.555805348113837
0.570965450723721
0.587143576735013
0.600847078375335
3.32881084425849
4.55077481046686
2.34602068617911
2.14776741119003
2.23452782965404
2.2141192693024
2.20748216348818
2.22788253146304
2.29251742283539
2.383440882473
4.03451152542943
3.49230021699271
3.21861890817565
3.10691491441224
3.07209389150517
3.07038533288376
3.08646882946308
3.08522954838644
3.03975435627424
0.609001532304663
0.284779408679439
0.190264991186131
0.151572494676441
0.135419396394881
0.133064168041169
0.143964869809332
0.175093442779911
0.254294836503061
0.525044965994211
2.46689522727588
0.148939983781646
0.137260431091832
0.148178908784472
0.143584011555897
0.151391478769068
0.142251070204428
0.174987197861479
0.17864824754261
0.183963403806057
0.176410455702303
0.274116853846389
0.264305539519443
0.255091742365542
0.249424130852871
0.265253040575087
0.160688975255304
0.163099840808762
0.165446666783563
0.196569638485314
0.489202420185104
0.168134356083267
0.239356970099895
0.228315405050298
0.218983623302986
0.213252667747269
0.220592833821785
0.293326132849304
3.01866887263268
0.135367425566897
0.132972318927929
0.143606268542075
0.151368749701094
0.189623811191124
0.173976070259451
0.283334533826036
0.250829362574894
0.452916544557743
0.444874807688886
0.447372035128503
0.467048719488514
0.487638660632536
0.468187476398742
0.511984317966224
2.4284526135421
0.696095911630721
0.559298959936369
0.555185544112997
0.565726917916207
0.579867894970606
0.595535826289097
0.608956029216119
5.01509193282196
3.10207749963617
2.27411150516158
2.15460844671457
2.26153344129887
2.22442034427398
2.2083047198382
2.20057994928845
2.22270272182021
2.28965627624323
2.38236377475462
4.01735566160841
3.52454771597719
3.22905710121138
3.10562995456102
3.06613140204756
3.06461728700934
3.08284735444034
3.08396029740266
3.03982562786664
0.616824783075462
0.291016113915726
0.194875276161844
0.15437839084373
0.13560867311805
0.128890246500396
0.131781187529644
0.14597170035622
0.179474038463759
0.260795413696173
0.533429692061819
2.46679053956172
0.148819035809829
0.135220273816354
0.151049716378367
0.132689846395442
0.137037564574261
0.148788288351156
0.141458562001964
0.143380991404921
0.153873301660631
0.142859747249868
0.179250186617024
0.179171827887353
0.183234076529039
0.188634608632266
0.19372305514549
0.280722874388846
0.271413477503271
0.262896609183009
0.258122156122091
0.275241201220999
0.488755663657711
0.160814809684532
0.161652461482493
0.166185718934577
0.17278019153031
0.271146495336152
3.30360537831067
0.172114507541861
0.245918977966235
0.23485146032516
0.225074731389882
0.21717589381871
0.214727643580599
0.238080341990426
0.648499594982841
4.65865405731481
0.135578791663147
0.128875332951191
0.131670276430103
0.145576739629391
0.154180026295323
0.194222457373996
0.178311559640822
0.289522459783426
0.257256005223041
0.45028761436017
0.460255954398995
0.445231340012326
0.452753701597019
0.474972795440428
0.495795685659598
0.48992398078633
0.520134615509787
2.4111239428683
0.705809288695948
0.570492978651672
0.564853324618896
0.574471897433275
0.58809739778529
0.603442560816442
0.616555613770891
3.1831489081328
2.94984523647159
2.3626617732365
2.19628630523527
0.722761351892055
2.26525913964641
2.23190618249149
2.21528543092499
2.20096011937425
2.19480755322473
2.21938749352354
2.28813596957624
2.3819044064877
4.06598075623168
3.52954906525851
3.22834343679974
3.10042318490173
3.06063609466772
3.06073442993323
3.08085084801398
3.08341502819609
3.03994263642391
0.624038657593075
0.296792468433651
0.199301514569897
0.157483783337225
0.136990805654168
0.127629058708657
0.12610308441809
0.132210764870804
0.148614449397442
0.183883812812345
0.266971696108673
0.541363472017397
2.46680339160775
0.151062819792811
0.149812642004068
0.135244328862984
0.135502362784212
0.128756676854038
0.153893812784949
0.131332882461389
0.132378495243163
0.137409817374487
0.152171787681759
0.141918508962259
0.140893332421947
0.144518188070378
0.16305406770926
0.144753334780528
0.198253599819145
0.184105518408342
0.183992837100917
0.18796349161956
0.193232933408363
0.272281943441887
0.286861240474023
0.277995168342257
0.270078417204186
0.266278241535475
0.284770539977649
0.49823889158989
3.2413170644985
0.163322681552281
0.16083618387642
0.164442903697016
0.170017761013064
0.194543387731209
0.622414975117507
5.05110430682481
0.176364139805529
0.252222731904347
0.241250220759633
0.231390605391705
0.222665667561474
0.216120022208936
0.218567253842226
0.278676980203541
0.558858475581995
3.14514132987044
0.127641113900376
0.136974004372631
0.126074964989707
0.132071759662353
0.148188283719546
0.157291495696671
0.198641429992327
0.182683412347654
0.295259751023241
0.263366438026717
0.448609200836186
0.457041747077332
0.467866583796336
0.445231200362919
0.458151604584718
0.482869050527231
0.503711247497774
0.500317903776275
0.52788955277703
2.41955515316451
0.713080077143011
0.579774285053014
0.573358957177409
0.582548679810931
0.595859627018241
0.610886293699626
0.6236158787093
2.97338144938118
2.90893689857734
2.35450589973612
2.2845954383097
0.683098695277089
2.24531975468491
2.23049528918166
2.2181144041383
2.2075219229548
2.19469790967696
2.19103912828657
2.21756813268145
2.28743081047476
2.38173913908047
4.0453313293927
3.52946218240698
3.2236314044868
3.0952787907415
3.05682712421073
3.05851324799081
3.07990059101268
3.08322727295677
3.04001425419102
0.630675825458709
0.302125125740987
0.20349663314341
0.160665311934411
0.138967836637452
0.12788668978395
0.123682277708319
0.125326971419739
0.133570754735692
0.151563044164943
0.188213608910473
0.272804191452757
0.548826845554708
2.46682449539986
0.152318485772445
0.153999812815159
0.135673247518087
0.153819950817541
0.135984038133269
0.12869523762936
0.136941829623903
0.127599176786969
0.125907490676483
0.157031040869795
0.131666832027802
0.130874273133178
0.132350297087545
0.139298471743898
0.162715958169982
0.141024317959099
0.14367326332555
0.140953123689626
0.148387473411549
0.187804801763334
0.147298757870976
0.204280179146274
0.279586148281637
0.189407874427526
0.188892420936426
0.192604908568399
0.197652620716326
0.619757142073963
0.292556895950905
0.284108090344294
0.276714030612548
0.273731330979285
0.293525091042883
0.505229263446761
3.25604549847162
4.9713936525135
0.160864207326018
0.169496684619662
0.163016454895839
0.168048915967343
0.174145231215438
0.242088362828371
0.543978011427597
3.26181748758348
0.180664682263946
0.258226122769864
0.247415749917263
0.23762092543113
0.228669481488892
0.220489325101483
0.21542098195983
0.224247581496264
0.276152646130318
0.524723505046724
2.99384101504179
0.127913735935273
0.123682424491913
0.138962712346854
0.125273811835074
0.133407044378736
0.151112009404654
0.160479173054687
0.202830835208999
0.186981053745969
0.300562434695657
0.269141695019988
0.446194988626995
0.45443605429317
0.464309074293454
0.475528754809561
0.444272497887116
0.457793498248624
0.490569633974374
0.511270904059946
0.493502134460984
0.535212018338528
2.40950399993545
0.719619476134038
0.587835822006679
0.58123314075317
0.590169490471345
0.603179450880412
0.617834747064043
0.630122914747728
2.9119638633319
2.89675869102122
2.34949397922304
2.27707425850259
0.672428898989713
2.23193093840036
2.22179422334675
2.21626834930114
2.21036760293226
2.20107612067863
2.19051555136757
2.18894273129998
2.21669174889646
2.28713934575008
2.38168748337086
4.05121084068223
3.52439149501707
3.21878733967125
3.09161062282575
3.05460271735625
3.0574052461084
3.07950062709683
3.08317329389817
3.04004769562796
0.636700063143753
0.307029705719208
0.20743521569934
0.163804566315485
0.141229591163867
0.128970367838066
0.123027813308841
0.121962433360049
0.125701154993109
0.135452183058883
0.154639463638196
0.192404349823045
0.278291198910702
0.555804760327299
2.46683820679242
0.156767801235236
0.136660827308519
0.155445874080535
0.157207664466143
0.137213173948733
0.12768293150862
0.165295331914781
0.138391677256345
0.12900406204553
0.125695095873193
0.138964662423255
0.127918305316029
0.123592494978379
0.125041486690192
0.160240076758341
0.132943578313059
0.131068770280694
0.130483510724115
0.133033577100342
0.144162291036142
0.189379960473592
0.142527442431798
0.140367058982446
0.146107159336537
0.142029005581344
0.156464317030186
0.238403663713747
0.150170039993148
0.210442065263396
0.287280814375665
0.628624997434204
0.194670156189242
0.193664569087251
0.197058092218401
0.201842098082294
0.552224157424023
0.289779786607755
0.297825188068888
0.282864825202252
0.280588011827318
0.301531138412281
0.512428160224577
3.22613162856628
5.00221093169546
3.26659509009907
0.161834071440451
0.161731705834202
0.17838089403332
0.166247474366267
0.172011050353206
0.178348292096429
0.241992031958458
0.515276266248492
3.01153699434461
0.184902967459269
0.263908307494985
0.253301745835896
0.243654594858797
0.234709440841512
0.226010904230012
0.218091374725841
0.214368157773152
0.222385201696606
0.265124833759937
0.515047405806498
2.94835620943578
0.12901022829234
0.123042475639792
0.121937430399346
0.141235171777295
0.125625472038196
0.135269573052762
0.154168801569536
0.163623623108466
0.206764276070592
0.191144191012085
0.305441944811618
0.274578413397745
0.450918727048159
0.4426709774409
0.461292858846333
0.471751377599281
0.483053419679474
0.440986060472638
0.452112586137179
0.497954446306644
0.518431659347176
0.487543973331514
0.54208002877127
2.40534948758315
0.725257386462494
0.595345444337676
0.588678189414023
0.597362622612853
0.610024283873495
0.624258223490544
0.63607083134408
2.91093425878155
2.91778076839671
2.27198643331627
2.34871472552772
0.669857314801864
2.22726843844899
2.21335306371686
2.21229123002479
2.20970719829482
2.20421379160452
2.19664403212877
2.18815874680418
2.18791904485415
2.21631500544867
2.28703080904378
2.3816757628641
4.04343377968761
3.52029816492115
3.21532818855446
3.08944124347738
3.05346982091834
3.05691325263735
3.07934949066984
3.08316282186678
3.04006141987784
0.642141066124773
0.31151432337944
0.211103424630344
0.166833341496407
0.143602550517243
0.130507350120283
0.123381237751691
0.120555952457007
0.12155765339062
0.126763080476058
0.137625049091139
0.157740431262301
0.196423274713781
0.2834382515696
0.562295689007233
2.46684132153064
0.168906914785591
0.160224025420987
0.139435444238891
0.128216824263045
0.138379711842774
0.158800078711027
0.160472847659482
0.13931207343322
0.128099655445496
0.123519891561181
0.193189832465947
0.143937483164861
0.130119516456133
0.12561566924144
0.124685582505846
0.129050118407614
0.141265265904597
0.122997890684599
0.12178180907084
0.125336630746237
0.163401760452895
0.134761260865426
0.132235221071301
0.13040347745802
0.130364164275115
0.134863184256023
0.153476933673155
0.241861358311757
0.144782996255809
0.141421960825409
0.140026061686779
0.148894325200821
0.144196820469348
0.167437879572021
0.241055027527125
0.15318606070699
0.216372583891625
0.294762542794083
0.634549750405996
0.564403326908672
0.199731553888802
0.198222150402123
0.201273668246356
0.205774446454418
0.525924657871957
0.295025863897543
0.288564569578782
0.302675829770595
0.2869227747378
0.308925446184274
0.518650669466002
3.21860275019408
4.9571536637421
3.27286443279374
3.03146650644804
0.164459950650251
0.160700378173598
0.162556623147315
0.178540782076956
0.169978395091326
0.17609430477164
0.182508682880477
0.23448141373598
0.506337300949108
2.97893409739132
0.189016020469331
0.258883369483929
0.26926341534873
0.249434910582362
0.240615188739407
0.231813497896213
0.222956931690025
0.215102608011326
0.211065239418918
0.216888895941459
0.258247944847028
0.512682653384393
2.95214327410365
0.123408015841746
0.130558997942012
0.120544207392563
0.121509808917948
0.143617339871681
0.126670620324391
0.137428635764415
0.157254091502432
0.166656327132056
0.210427415949753
0.195139050508705
0.309906952775333
0.279681461696266
0.457325682969199
0.446355374647969
0.43792758541057
0.468511969018668
0.479125242253207
0.490302783389747
0.436003790102581
0.44728013164076
0.504967846479722
0.525161499814656
0.484200152346946
0.548461065415592
2.3976017814397
0.730795012956226
0.60251881011015
0.5957227598119
0.604096020817446
0.616360702662112
0.630144537950344
0.641469664393089
2.92377496751797
2.93308967880842
2.22375396954262
2.26884822549948
2.34633921772024
0.668724666060926
2.20906938710183
2.20879835928053
2.20800776287713
2.2043221231567
2.19978735570407
2.1940929274813
2.18699738872036
2.18747340168471
2.21616850097634
2.28699705868687
2.3816780667407
4.04239437736319
3.51740055558508
3.21329374947673
3.08832762465776
3.0529558229327
3.05671497276931
3.07929855820425
3.08314657264292
3.04005943055333
0.647045701236964
0.3155917173219
0.214493702757681
0.169710120386871
0.145982838482427
0.132282200133503
0.124324664606732
0.120301671839558
0.119524196939455
0.121969136621338
0.128245430202649
0.139950765594483
0.160802591555389
0.200252802101879
0.288258264298585
0.568314463218942
2.46684125135358
0.172864058108169
0.145465886228285
0.197675417279275
0.163836272994363
0.14142587916834
0.129639929539875
0.128795214166825
0.123646706581259
0.14061543750267
0.162182398874088
0.163679835907615
0.141673289383553
0.129304915959424
0.123017669522927
0.12156066702468
0.246859186951215
0.154065308539369
0.13247851537835
0.125871416828899
0.124314129280089
0.124868219784002
0.12339740074526
0.130628152207313
0.143670608325172
0.120431902881615
0.12129686138479
0.126339404830574
0.166447915544426
0.13688761624305
0.133972723421888
0.131378822218705
0.129783100914704
0.130633517680001
0.137913764112014
0.165756423656044
0.246218935599078
0.147447891619909
0.143403581089583
0.140351278791605
0.139876647834531
0.151848037170307
0.146432588460937
0.169280641023463
0.234929741594333
0.156239394547449
0.222004228476946
0.301734944544725
0.640961616196543
0.574243003459017
0.537870292733037
0.204529332300991
0.202523179738965
0.205226115622672
0.20943529941025
0.516573271485151
0.299855221252911
0.293830690071069
0.292777886262277
0.30711593206785
0.315745058094788
0.525413789549538
3.20080415886425
4.94180733080082
3.26037498497836
3.03632537510818
2.99925132074685
0.167874911101531
0.162491869097776
0.159179421991948
0.160925096693046
0.1745865664566
0.173915655886995
0.180166392937033
0.186558340674728
0.227779412236736
0.502866989518808
2.98634313211537
0.192967842722359
0.264150666593828
0.254929362018114
0.274293980043059
0.246302515842795
0.237584259497965
0.228482812509909
0.219297890852536
0.211067875383224
0.206167677413013
0.210999430289253
0.253117904399077
0.511495170395987
2.96197195455537
0.124362808850507
0.120300783317938
0.132344219019766
0.119488407986829
0.121904467320096
0.146005187105058
0.128141439427471
0.13974437848164
0.160303473705162
0.169535866994995
0.213812836177998
0.19894739780355
0.313969010088137
0.284467170871492
0.452321292713233
0.464313543608385
0.441001850134853
0.4325214455125
0.475740598597971
0.486266804633907
0.49720703393759
0.431125088390467
0.443397831814568
0.511560158323837
0.531412860243238
0.481722059700231
0.554349072081846
2.39307377959013
0.73631872999384
0.609362395271472
0.602332269200451
0.61033550762725
0.622173326447092
0.635497322053553
0.646338625218466
2.93200931974705
2.92380103322977
2.20706772240039
2.22026898787758
2.26504132159882
2.34583502975879
0.666311433305756
2.20706254197263
2.20681936426209
2.20366074763948
2.20012191983731
2.19714736291666
2.19281959555475
2.18648900293336
2.18729866678326
2.21611916311142
2.2869819859467
2.3816812502769
4.04128860432204
3.51588389296065
3.21226386870012
3.08782020683262
3.05274408740355
3.05664209534203
3.07925000122194
3.08318578792908
3.04005787862063
0.651435419445397
0.319277117768795
0.217603476005421
0.17240888285369
0.148304962239665
0.13416236950406
0.125611038750344
0.120748537496155
0.118758844216431
0.119408619917596
0.122903139916786
0.12998293665065
0.142340912907793
0.163785874274957
0.2038856620028
0.29277416220469
0.573964110947441
2.46683974593466
0.176882291620408
0.147818456102972
0.202293732412207
0.132381712974041
0.156166496545643
0.252228567334269
0.143872231686427
0.167429876955362
0.130446642177554
0.124172327203344
0.130123740247123
0.123292295637131
0.121382618201068
0.143085574526769
0.165485501861334
0.16676268498532
0.144127886011245
0.130941561040803
0.123486389796647
0.120298537824682
0.120959870289418
0.252515410995644
0.167193401107847
0.13613718524142
0.126581836027471
0.124034135726613
0.124295397800198
0.125790899859459
0.124380530959384
0.120220535246131
0.132437819382001
0.146077270360771
0.119317042494653
0.121649020875931
0.127780679999016
0.169337714065291
0.139179821948655
0.136043070451348
0.132989291693397
0.13045439803407
0.129240725797014
0.131179193251595
0.14108551320008
0.168758818557553
0.240766856330319
0.145901681678458
0.150318157561807
0.141947787516813
0.139204337690519
0.139438432132979
0.154854807429989
0.146090623733503
0.166498195583163
0.228548810604836
0.159263184959696
0.308434827837239
0.227300299709385
0.646511122321585
0.582827374998868
0.547479268208125
0.527622671839507
0.209034770446819
0.206546306042496
0.208902156422166
0.212817511635366
0.511752227266267
0.304274791340222
0.298673774992859
0.298175974471269
0.322038027505355
0.311156466093745
0.531949741156352
3.19250435030447
4.91093010801365
3.24611735337975
3.02802348486956
3.00410436515963
3.00760912225152
0.165528943778716
0.171638250053737
0.160128159707522
0.15663486007311
0.157432518441807
0.1694135953228
0.177891575897213
0.184148756084185
0.190457184687168
0.221744566042453
0.5000129178257
2.99479239867607
0.196738567867734
0.269102093824144
0.260122279597878
0.25172478061093
0.279014333259074
0.243182986016213
0.234113186461043
0.224567299101464
0.214933421404079
0.206151359757422
0.200619430915067
0.205290399763731
0.248431879938097
0.509750228968931
2.96529566700496
0.125659432969261
0.120758117133336
0.118732743912855
0.134233146641669
0.119355173400685
0.122827246087434
0.148333385868331
0.129871369154681
0.142127272169845
0.163276118782593
0.172236494116154
0.216918038103311
0.202561851185711
0.317641099090565
0.288950218494723
0.446585838706655
0.459064578761553
0.471387006259019
0.435205557192718
0.427119002656361
0.482776995732024
0.493087206560161
0.503703565419902
0.426533996352797
0.44040347645146
0.517683747249735
0.53717570068025
0.478198669985592
0.559877943334576
2.39028609475708
0.741808915127304
0.615821330080289
0.608468206155793
0.616063819375473
0.627463453754746
0.640327362464614
0.650701883182964
2.93583886583162
2.95713776434728
2.20611034491874
2.20380049189387
2.2154500971396
2.26804300318133
2.36559470856337
0.664083765312996
2.20655810498079
2.20340444925853
2.1997846613087
2.19749063663045
2.19580409067606
2.19225848831062
2.18628974953034
2.18723808442888
2.21609551002829
2.28699823391728
2.38168029020506
4.0415613632379
3.51515610646832
3.21179707473268
3.0876110363668
3.05266369820651
3.05660239668989
3.07930793832664
3.08316840323303
3.04005788247027
0.655334704323425
0.322584963366905
0.220433510385619
0.174913343169706
0.150526170605184
0.136062228776061
0.127085192938874
0.121625589851897
0.118785407437009
0.118210593912657
0.119896660806366
0.124174644554987
0.131867507035444
0.144736786479428
0.16666506623087
0.207322344492739
0.297012854177692
0.579262329905101
0.206873080426913
0.150550374850968
0.180819918632415
0.133476172039356
0.158948576794784
0.257464014698069
0.125209807926405
0.136479880425646
0.169895341599619
0.258736353796105
0.146512208729131
0.131951650579909
0.170910870836736
0.124020000665996
0.121349998832351
0.123873859862715
0.131858231222844
0.120259063450836
0.12057274027312
0.145629109879504
0.168648356466388
0.146574849973934
0.169682255294977
0.132799070635435
0.124524946758935
0.12015277359157
0.119064671909228
0.121230495742932
0.24751339354973
0.171014857485153
0.139954626529907
0.127629129735694
0.123882870888464
0.123691597983488
0.125086453637027
0.127178281722144
0.12070483665684
0.12570114418348
0.118591835207812
0.134346945962197
0.148420610795179
0.119140282109963
0.122542912442134
0.129490801143268
0.172046077745345
0.141545648332675
0.138296663507395
0.134977177172646
0.131883245115795
0.129482189647452
0.12868985270097
0.131495500445934
0.141642964352195
0.166778571737149
0.234534441426616
0.144237816544306
0.148669154722485
0.153267027658199
0.140340221201619
0.137768641634108
0.137991837129307
0.157842902870906
0.143700895127447
0.162083244340652
0.222345673734866
0.162214789879567
0.314744031146478
0.652574915065336
0.232248668364278
0.590633924356637
0.555716916819055
0.536412071587914
0.521537700755906
0.213233898305465
0.210281227230438
0.212295724498572
0.215918984922881
0.507174979395623
0.308296594642353
0.303103849707472
0.303132077905687
0.327828774493653
0.53818911883054
0.314808973990108
3.1868734284807
4.89532847186856
3.23124748330002
3.01425699106073
2.99546181130858
3.01213344477139
3.01563607774666
0.162820850139763
0.169106868367878
0.175511851211799
0.157177233675754
0.15314789612385
0.152993073959458
0.163912475104609
0.18180692918963
0.187994102876938
0.194182314035322
0.21570268905171
0.496680556481332
2.9947625174394
0.200319724260373
0.273747764303203
0.265007304909695
0.256858069892438
0.248539677199397
0.28343647185754
0.239624580605625
0.230071282586439
0.220053518732223
0.209934691868974
0.200686562625647
0.194833378821008
0.199762629557729
0.243917243976499
0.508636384920588
2.96780581388503
0.127142421927327
0.121644874554461
0.118768937991652
0.11816599775513
0.136140253891414
0.11983155471278
0.124091765375344
0.150559460031005
0.131751124641512
0.144517777870755
0.166146329431451
0.174742174916443
0.219743665627692
0.205983121196105
0.320936096789992
0.293148191687547
0.440377031553996
0.453059931419269
0.465959404309783
0.478303719143686
0.429264972939591
0.421943534937414
0.489513137544619
0.499514052062119
0.509751898054127
0.422723879968128
0.43809989186086
0.523331790250532
0.542588766480232
0.476578187462533
0.565114232420172
2.38919053843879
0.747132272353572
0.621843765409909
0.614109844298181
0.62128064833976
0.632240991317517
0.644658590473778
0.654569356445358
2.9510659589547
2.91143612923146
2.20623425346863
2.20312084357587
2.19825999168993
2.21803832303274
2.29446168428478
2.39560718893061
0.666068983959608
2.20370316187432
2.19980729744495
2.19720843720386
2.19611674667654
2.19520613584776
2.19203835150045
2.18621991745766
2.18721997174059
2.21611171255147
2.28699767400933
4.04174786257808
3.51485085449415
3.21161791127631
3.08753132328139
3.05263844675118
3.05662068956516
3.07929230522201
3.08316912669374
3.04005785227368
0.65875483316384
0.325522474928012
0.222985993917954
0.177213491630519
0.152617976438405
0.137924497649624
0.128644966588612
0.122759980059652
0.11931462104971
0.117879095353952
0.118330662582655
0.120788767703372
0.125660435662537
0.13382545088211
0.147098574713213
0.169425231877647
0.210568346366281
0.300974358147328
0.211305812659633
0.262575395186796
0.162025025807523
0.135206024988542
0.153425158833422
0.184600225567723
0.125307344737524
0.137906689503661
0.17312670618705
0.264651065993308
0.126632346759735
0.121495463756934
0.140767949078694
0.174302115520982
0.253997693360733
0.149196494279697
0.133827167390244
0.124758476103029
0.174225785432967
0.120413661466272
0.120203726522599
0.120219536875409
0.125002145843003
0.133795327507611
0.118810668176597
0.120708038456111
0.148149802934699
0.171635123675409
0.148951290887703