/*--------------------------------*- C++ -*----------------------------------*\
  =========                 |
  \\      /  F ield         | OpenFOAM: The Open Source CFD Toolbox
   \\    /   O peration     | Website:  https://openfoam.org
    \\  /    A nd           | Version:  12
     \\/     M anipulation  |
\*---------------------------------------------------------------------------*/
/*   Windows 32 and 64 bit porting by blueCAPE: http://www.bluecape.com.pt   *\
|  Based on Windows porting (2.0.x v4) by Symscape: http://www.symscape.com   |
\*---------------------------------------------------------------------------*/
FoamFile
{
    format      ascii;
    class       volScalarField;
    location    "200";
    object      k;
}
// * * * * * * * * * * * * * * * * * * * * * * * * * * * * * * * * * * * * * //

dimensions      [0 2 -2 0 0 0 0];

internalField   nonuniform List<scalar> 
10068
(
0.00023889878734315
0.000238910390768057
0.0006759415030633
0.000239590037406201
0.00023886284502285
0.000675894541483559
0.000239614304040892
0.000992327643639325
0.000676114743069648
0.000240532574869904
0.000238710066710743
0.000675736901863676
0.000239578023107993
0.000992081849049264
0.000676091282944896
0.000240570371354569
0.00124716577769798
0.000991592772809548
0.000674878395568629
0.00023898923529291
0.000238446429323898
0.000675319149553646
0.000239428599946673
0.000991608759780371
0.000675971019292883
0.000240549102102048
0.00124674417966828
0.000991372701181554
0.000674873082839181
0.000239043845681932
0.0014672587514641
0.00124567696860168
0.000986724684723415
0.000668888913050255
0.000234154119919488
0.000238070923145355
0.00067461102691115
0.000239163321559763
0.000990845041264308
0.00067556999553792
0.000240405312180072
0.00124601305370993
0.000990913678936023
0.000674796964322654
0.000239038400667312
0.00146668807444473
0.00124528556689567
0.000986524450424239
0.000668905649823216
0.000234224652308325
0.00166368904818566
0.00146474503102615
0.00123788733162061
0.000975542029191137
0.000656141342812589
0.000226891122749545
0.000237575997519245
0.000673603420573367
0.000238784162813748
0.000989738690545781
0.000674864551593226
0.000240138840008785
0.00124494944091003
0.000990158497068455
0.000674421506714818
0.000238900958897197
0.00146574295395488
0.00124456619066698
0.000986086024559919
0.000668871287042013
0.00023423355164413
0.00166298541410712
0.00146420983905911
0.00123752057133371
0.000975359147516237
0.000656184926620349
0.000226975629434859
0.00184196762468294
0.00165993667174018
0.00145428208512121
0.00122212976347229
0.000956545418331456
0.000637281843621867
0.00021825065930173
0.000236946474415226
0.000672274330212391
0.000238284535898921
0.000988243853323408
0.000673855378038781
0.000239754135510348
0.00124349365893484
0.000989056700809311
0.000673723173052183
0.000238634941019966
0.00146441772099976
0.00124350864949258
0.000985344885716541
0.000668521113228323
0.000234105331464938
0.00166185316376027
0.00146327808801587
0.00123681832060469
0.000974945232929377
0.00065618655864327
0.000226998616081622
0.00184114163292534
0.0016592736506221
0.00145377625621776
0.00122178133539767
0.000956382895077858
0.000637354870961445
0.00021834702389279
0.00200537709464877
0.00183715748131167
0.00164687654643075
0.00143440574666741
0.00119758386254836
0.000930104674227135
0.000613947950165138
0.00020865688310529
0.000236161772497531
0.000670580270593915
0.000237649439075882
0.000986302610008268
0.000672522566397127
0.000239246681295274
0.00124157760772748
0.000987563181023112
0.00067271118477688
0.000238248264538033
0.00146264897929305
0.00124205691415864
0.000984250605660934
0.000667831910228238
0.000233845190144944
0.00166029466891139
0.0014619596963073
0.00123577209595581
0.000974223905958105
0.000655864176484148
0.000226881866255302
0.00183984037649197
0.00165815704343663
0.00145286359056834
0.00122110007472615
0.000955997315144505
0.000637393588736581
0.000218384348748913
0.00200443725995391
0.0018363768838709
0.00164624744529378
0.00143392072217785
0.00119725421006134
0.000929966978320205
0.000614048964678908
0.00020876361202144
0.00215615246494902
0.00199986154215219
0.00182188175097665
0.00162326821005284
0.00140481349777992
0.0011647726656975
0.000897442621949668
0.000587171985760595
0.000198147010254035
0.000235197037920246
0.000668468376426103
0.000236859674481109
0.000983846297776662
0.000670826251981878
0.000238602049514421
0.00123912249412333
0.000985622919625529
0.00067137114532625
0.000237737735344962
0.00146035691970486
0.00124014417196938
0.000982760048784778
0.000666822560432416
0.000233463131977085
0.0016582437938611
0.00146019643320738
0.0012343283655408
0.00097314356367038
0.000655195077010282
0.000226631451476542
0.00183807087146954
0.00165660722394618
0.00145155786958535
0.00122007254629721
0.000955303240302624
0.000637101527363532
0.000218281132058442
0.00200298100662729
0.00183509347957167
0.00164515291636096
0.00143303057971177
0.0011965990443333
0.000929615089820632
0.000614123935292802
0.000208815817858457
0.0021551061543226
0.00199897122665818
0.00182113933221129
0.0016226628728801
0.00140434830521843
0.0011644661286472
0.00089733288481777
0.000587295969481325
0.000198259842198725
0.00229580691518009
0.00215020390882194
0.00198291473868157
0.00179512388803225
0.00158917673900579
0.00136630042065155
0.00112470444925077
0.000859435197405529
0.000557271878359912
0.000187162886296221
0.000234024344643211
0.00066586815839861
0.000235888270833553
0.000980788225939758
0.0006687103514129
0.000237801765101861
0.0012360360799065
0.000983167044464114
0.000669664914455434
0.000237090098229282
0.00145744724595419
0.00123769242267096
0.000980820763311409
0.000665482567036332
0.000232957618860639
0.00165561144153047
0.00145790973385432
0.00123242188169814
0.000971663814153769
0.000654200931844737
0.000226260217889657
0.00183576288325998
0.00165456355578019
0.00144980476548403
0.0012186455135143
0.000954248060510782
0.000636457946420028
0.000218043802560308
0.00200101799218951
0.00183333412417399
0.00164361819583218
0.00143174549838624
0.0011955995207447
0.000928956421920625
0.000613867119977152
0.000208728977102296
0.00215350627176278
0.00199753455977289
0.00181988090165929
0.00162159368735384
0.00140348560280938
0.00116384377855167
0.000897019290201742
0.00058740730149182
0.000198327302626606
0.00229466082694272
0.00214921062916504
0.00198206631881341
0.00179440820145612
0.00158859332313579
0.0013658592438483
0.00112442591261626
0.000859354826519364
0.000557410153800515
0.000187278350402447
0.00242528692426504
0.00228956774721504
0.00213202856302803
0.00195364700849004
0.00175718714252372
0.00154560920866322
0.0013198304894312
0.00107806934695417
0.000816440168285353
0.00052436368767659
0.00018031321190567
0.000232611415177291
0.000662701658501053
0.000234708198549365
0.000977031172984083
0.000666104777052222
0.000236817262544779
0.00123220939580812
0.000980110587823988
0.000667537161119511
0.000236285065633473
0.00145380868111379
0.00123460949077395
0.000978365055402623
0.000663775902720574
0.000232316248683823
0.00165229082069097
0.00145500572986285
0.00122997597203366
0.000969734542518508
0.000652876001256175
0.000225767839221865
0.00183282010479615
0.00165193878868877
0.00144752757953024
0.00121675517406294
0.000952793208458318
0.000635491951923026
0.000217688001584527
0.00199847427799329
0.00183103496613035
0.00164158725467897
0.00143001233450049
0.00119420180410405
0.000927938009395118
0.00061325748145232
0.000208509239330111
0.00215136475212128
0.00199558285463625
0.00181813884874817
0.00162008243652167
0.00140223108864816
0.00116288251961926
0.000896404365557625
0.00058719123469144
0.000198260106129057
0.00229292738763488
0.00214763178828324
0.00198065700925913
0.00179317795539564
0.00158755415583543
0.00136503102987135
0.00112384349077855
0.000859084656733121
0.000557555216585703
0.000187363937945381
0.00242404723839538
0.00228847767588825
0.00213108033737503
0.00195282800256382
0.00175649568054278
0.00154505184115232
0.00131941893880546
0.00107782318025684
0.000816389387370124
0.000524502994777974
0.000180481412566871
0.00254514007153614
0.00241881525058056
0.00227043651259362
0.00210075890084602
0.00191249917285944
0.00170922195238008
0.00149353889823062
0.00126599463686076
0.00102519294997288
0.000768542558194642
0.000488594467776695
0.000173507026394397
0.000230921982205577
0.000658881278095376
0.00023328713853181
0.000972461201739585
0.000662932529912772
0.000235623207038871
0.00122751761022492
0.000976354621910852
0.000664919753993917
0.000235296505063798
0.00144931275743144
0.00123078690739306
0.000975309190550567
0.000661648369955226
0.000231519255360202
0.00164815618365154
0.00145137383092907
0.00122689943470654
0.000967289805679652
0.000651187309517564
0.000225142672892462
0.00182912493247445
0.00164862672984325
0.00144463359842039
0.00121432649126669
0.000950891066560444
0.000634199924758904
0.000217215297912432
0.0019952460682607
0.00182810142122113
0.00163897515456466
0.00142775596574572
0.00119234326884982
0.000926523948200468
0.000612329120452448
0.000208174676158801
0.00214860290090169
0.00199304878073881
0.00181585458412574
0.00161807477206895
0.00140053144716103
0.00116152804410787
0.000895434914534439
0.000586626325643612
0.00019806316132653
0.00229061963817504
0.00214550210943068
0.00197872423067384
0.00179146198480497
0.00158607660789431
0.00136381811343655
0.00112293085529449
0.000858522191618628
0.000557386425905334
0.000187322123107452
0.00242218923526482
0.00228676638683087
0.00212953076263942
0.00195144932056525
0.00175529815871595
0.00154404986058926
0.00131863320603134
0.00107728803429668
0.000816167503712338
0.000524679037373699
0.000180620466060972
0.00254381267461338
0.00241763419214451
0.00226939417965891
0.00209984239718251
0.00191170655521855
0.00170855878095472
0.00149301353375937
0.00126561824429445
0.00102498320240235
0.000768521414440252
0.000488747928917295
0.000173752841101327
0.00265568193077305
0.00253845730486667
0.00239887897647154
0.00223750728913009
0.0020569076018607
0.00186073342022194
0.00165224574621203
0.0014335151471016
0.00120508906890903
0.00096622785728157
0.000715667786873777
0.000449604641902311
0.000149484799730288
0.000228915780586451
0.000654309235654201
0.000231588158122341
0.00096695083668962
0.000659105818273117
0.000234186431291172
0.00122181882638036
0.000971785802341714
0.000661735052180863
0.00023409827867033
0.0014438124153389
0.0012260997863917
0.000971554585962526
0.00065903270117029
0.000230542271229807
0.00164306163638637
0.00144688569273353
0.00122308473568662
0.000964247433665187
0.000649082652017872
0.000224365991556143
0.00182453876576944
0.00164450200700729
0.00144101333418441
0.00121126982876332
0.000948478037929716
0.000632550948460697
0.000216615306677907
0.00199120674554816
0.00182441686415656
0.00163567705052137
0.0014248852696045
0.00118995078109247
0.000924669190011285
0.000611084690366739
0.000207728851592834
0.00214511073904983
0.00198983085464836
0.00181293610437358
0.00161548764702004
0.00139831280024447
0.00115971915686326
0.000894077280492466
0.000585750417130306
0.000197756381968712
0.00228765534167219
0.00214275048244753
0.0019762063954659
0.00178920374702302
0.0015841064707305
0.00136216696202064
0.00112163358150481
0.000857614212183941
0.000556878864500399
0.000187153846112647
0.00241972683404581
0.00228447111665538
0.00212742106428657
0.00194954466515102
0.00175361882878872
0.00154261746845031
0.00131747314016044
0.00107643449148066
0.000815666220303692
0.000524565015478806
0.00018062295139863
0.00254183857072699
0.0024157993224564
0.00226771369553571
0.0020983254622696
0.00191036304970331
0.0017074012611076
0.00149205720738016
0.00126488341755037
0.00102450286940254
0.000768352789269712
0.000488969508915858
0.000173971222597949
0.00265427252149937
0.0025371908282971
0.00239774797183236
0.00223649864895573
0.00205601940261171
0.00185997124862807
0.00165161706188927
0.00143302778570935
0.00120475314490301
0.000966058997363207
0.0007156848303793
0.000449839394332515
0.000149794024474556
0.00275712408593001
0.00264879931608735
0.00251780479840348
0.00236451359739103
0.00219132615979621
0.0020018351083814
0.00179944152994549
0.00158681158731738
0.00136581737283734
0.00113730465439238
0.000901264532383046
0.000657956227482819
0.000403627253691819
0.000122040244650928
0.000226547924492351
0.000648878380523596
0.000229571179365136
0.00096035996668707
0.000654525839928441
0.000232469499745243
0.00121495519049511
0.000966276895235423
0.000657895490554122
0.000232657259782738
0.00143714195932804
0.0012204064986499
0.000966988418272324
0.000655852154305283
0.000229356991219104
0.00163684089638051
0.00144139448529168
0.0012184077094923
0.000960510011425567
0.000646495593183741
0.000223413020370383
0.00181890104182667
0.00163941921819183
0.00143653942171124
0.00120747929168778
0.000945474110910883
0.000630495088109807
0.000215868414849545
0.00198620642693048
0.0018198432084211
0.00163156872788548
0.00142129245393796
0.00118693686874329
0.000922312645659372
0.000609496973396208
0.000207163035458201
0.00214075325871009
0.00198580334766612
0.00180926840423946
0.00161221800320143
0.00139548589878452
0.00115738485570822
0.000892289615397539
0.000584570266210762
0.00019734529124939
0.00228391796448008
0.00213926912639134
0.00197300497111118
0.00178631341260737
0.00158156215515419
0.00136000502338175
0.00111989205369586
0.000856329194008164
0.000556071564600896
0.000186878843680109
0.00241657380777215
0.00228151725518135
0.00212468645139183
0.00194705478582459
0.00175140149009635
0.00154070052325448
0.00131588538086516
0.0010752082971197
0.000814832728960839
0.000524131589991118
0.000180490139324878
0.00253923216338553
0.00241334981849614
0.00226543922441627
0.00209624540909475
0.00190849751030693
0.00170577043934778
0.00149068184219522
0.00126378767572643
0.00102371911320117
0.000767922229156718
0.000488924359990803
0.000174029636905488
0.00265219044145179
0.0025352407408398
0.00239594521425425
0.00223485247727445
0.00205453976801619
0.00185867039455487
0.00165050833444782
0.00143212600896072
0.00120407781034319
0.000965641646261613
0.000715577911003377
0.000450143676387723
0.000150102531689726
0.00275563823617598
0.00264745282887905
0.00251659039208415
0.00236341798306083
0.00219034750451572
0.00200097933904093
0.00179871623161345
0.00158622372700361
0.00136537374245961
0.00113701479160006
0.000901143606200366
0.00065803250730901
0.000403938066646826
0.000122389451696918
0.00284965330419439
0.00275005288240764
0.0026274958111445
0.00248215974677162
0.00231627868552711
0.00213333939675962
0.00193672017875385
0.0017292135762926
0.0015131984869816
0.00129065101564701
0.0010628094289804
0.000830446955148003
0.000594679272636822
0.000352337117092222
9.39878840702328e-05
0.0002237667164043
0.000642469972836831
0.000227191275717131
0.000952535194692883
0.000649087327159881
0.000230432159040485
0.00120675271944269
0.000959687475879014
0.000653303602058907
0.000230936316465732
0.00142911748577557
0.00121354917235549
0.000961484057039736
0.000652018511125328
0.000227931771074648
0.00162930788430141
0.00143473477562585
0.00121272758040565
0.000955965978960839
0.000643349719024222
0.000222255645868541
0.00181202892551764
0.00163321257024992
0.00143106604344538
0.00120283231291322
0.000941783642836222
0.000627966516872706
0.000214949457050723
0.00198007139971106
0.00181422034271666
0.00162650600252551
0.0014168519528387
0.00118319794336322
0.000919376743535657
0.000607515423572139
0.000206456036011651
0.00213537044214363
0.00198081696763904
0.00180471471845406
0.00160814348947174
0.00139194521337152
0.00115444030722227
0.000890014028452494
0.000583062219359821
0.000196823071439685
0.00227926504978226
0.00213492403793563
0.0019689959833752
0.00178267799846742
0.00157834264550937
0.00135724522019491
0.00111763773898064
0.000854628295907604
0.000554974037058523
0.000186502323470506
0.00241260830659736
0.00227779100469005
0.00212122229973224
0.00194388359515103
0.00174855799252043
0.0015382189142782
0.00131379896731676
0.00107355156178623
0.000813637111047977
0.000523413007908624
0.000180243407417617
0.00253590362918075
0.00241020759353986
0.00226250279933887
0.00209354005007797
0.00190605116897149
0.00170361035290443
0.00148883376786605
0.00126227817656617
0.00102257803809795
0.000767177331018814
0.000488580061759625
0.000173915991702316
0.00264945026916216
0.00253264765677252
0.00239351715304723
0.00223260884866559
0.00205250086919107
0.00185685634758645
0.00164893839952456
0.00143081968732602
0.00120305803129887
0.000964939120660159
0.00071523222348071
0.000450192187079767
0.000150260775221609
0.00275345601409235
0.00264539555695255
0.00251467355998036
0.00236165096606934
0.00218874047045146
0.00199954475423532
0.00179746715194512
0.0015851730455265
0.0013645355096198
0.00113640800520579
0.000900799227779485
0.000658010455900326
0.000404363294598665
0.000122788775595151
0.00284809602851675
0.00274863161499896
0.00262620314226404
0.00248098220998052
0.00231521454093424
0.00213239497857008
0.00193590353735559
0.00172853175351247
0.00151265747248585
0.00129025694757489
0.00106257212552177
0.000830384544863276
0.000594827020071692
0.000352720204979541
9.43775356379447e-05
0.00293347156988562
0.00284240676437266
0.00272815762593405
0.00259069611745578
0.00243208641633389
0.00225569187668745
0.00206480946957653
0.0018622035564655
0.00165034287351233
0.00143161879910068
0.00120821213371541
0.000981765644387346
0.000753688845936884
0.000525734311928744
0.000296724915726841
6.64360815750818e-05
0.000220515869435692
0.000634952794310364
0.000224394653493436
0.000943311376824175
0.000642672884133356
0.000228028701254687
0.0011970245573331
0.000951864635966804
0.00064785423494274
0.000228894299653848
0.00141953790743426
0.00120535439328636
0.000954901805847168
0.000647435314781602
0.000226230592874501
0.00162025581807018
0.001426722912949
0.00120588740950184
0.000950489853922632
0.00063955895794923
0.000220863399430288
0.00180371739747025
0.00162569601720512
0.00142442887660275
0.0011971898464756
0.000937297008856884
0.000624889262693108
0.000213830202490396
0.00197260390283334
0.00180736586974645
0.00162032436385155
0.00141141988647705
0.00117861383991129
0.000915767960185872
0.000605072630007317
0.000205579692579584
0.00212877671173123
0.00197469851103831
0.00179911627364893
0.00160312196636836
0.00138756773952769
0.00115078477621922
0.000887175117125206
0.000581177496426111
0.000196167489204576
0.00227352729978264
0.00212955582862072
0.00196403158506354
0.00177816279869281
0.00157432804949295
0.0013537847898357
0.00111478888783604
0.000852456930959328
0.000553568166000109
0.000186018393641161
0.00240768057905021
0.00227315078530379
0.00211689648039558
0.00193990932666464
0.0017449776019882
0.00153507396362477
0.00131112936621866
0.00107139841812999
0.000812042955384441
0.000522414944789493
0.000179889285346609
0.00253172594018814
0.00240625341149845
0.00225879406804996
0.0020901074172079
0.00190292981531825
0.00170083452192192
0.00148643465257284
0.00126028572814385
0.00102102357135132
0.000766088832740558
0.000487969545420861
0.000173652371904622
0.00264595881105816
0.00252933021053097
0.00239039270771833
0.00222970258930692
0.00204984110183011
0.00185447068541451
0.00164685196451653
0.00142905596571648
0.00120164163762511
0.000963897719344153
0.000714592784024718
0.000449944621644885
0.000150247537907786
0.00275059192918329
0.00264266911654112
0.00251210248891823
0.00235925473947931
0.00218653970948549
0.00199755996409747
0.0017957175134822
0.00158367648448225
0.00136331035732687
0.00113547628766844
0.000900190864868291
0.000657770286551922
0.000404546014186426
0.000123059436032274
0.00284582114370462
0.002746474900988
0.00262418012997945
0.00247910236575477
0.0023134882728867
0.00213083514974429
0.00193452350223232
0.0017273440497227
0.00151167415029827
0.00128949149275488
0.00106204388666383
0.000830126548990486
0.000594915338903272
0.000353302583577883
9.48802958779197e-05
0.00293184777383454
0.0028409156240667
0.00272679167236784
0.00258944161404152
0.00243094167780803
0.00225466362230401
0.00206390629218233
0.00186143294257239
0.00164971077968181
0.00143113047199208
0.00120787375547893
0.000981588703284931
0.000753695576863664
0.000525971237287915
0.000297206806472486
6.68773817260043e-05
0.00300881265167006
0.00292606459570156
0.00281997829882622
0.00269031535244143
0.00253896533813213
0.00236915980390299
0.00218408782330813
0.0019864266205993
0.0017785993006481
0.00156304761609364
0.00134227650792704
0.00111867234525963
0.000894222879807247
0.000670820340968005
0.000451229935041489
0.000237317908815137
4.05987743982869e-05
0.000216737184656373
0.000626184824302327
0.000221122509061157
0.000932512803224402
0.000635149441636024
0.000225201132448019
0.00118557086519952
0.000942643112430986
0.000641426676620917
0.000226485563208843
0.001408186935941
0.00119563494196783
0.000947089379703213
0.00064199790351867
0.000224212336987414
0.00160945984864415
0.00141715817170082
0.00119771496412416
0.000943943328342918
0.000635027597844918
0.000219201679657103
0.00179374013780206
0.00161666345709732
0.00141644555722735
0.0011903968210604
0.000931891049385423
0.000621180159969267
0.000212482543401832
0.0019635823761247
0.00179907527457891
0.00161283905660544
0.00140483407329453
0.00117304816544744
0.000911379195011603
0.000602093258164647
0.00020450589797931
0.0021207608027816
0.00196725071113699
0.00179229211616341
0.00159699117448477
0.00138221242791786
0.00114630115252912
0.000883681265004932
0.000578845370066001
0.000195341033269351
0.00226650833466675
0.00212297946445945
0.00195794002284877
0.00177261128898291
0.00156937905883034
0.00134950393440466
0.00111124802533536
0.00084974226835972
0.000551807456870784
0.000185405295216988
0.00240161284741164
0.00226742798853893
0.00211155113988434
0.00193498635859148
0.00174052828348027
0.001531148760776
0.00130777703352347
0.00106867054685703
0.00080999897345065
0.000521121549804552
0.000179419045989942
0.00252654275093456
0.00240133860778803
0.00225417339766416
0.00208581774285495
0.00189901411918184
0.00169733475089606
0.00148338853998131
0.00125772867713321
0.00101899256641625
0.000764621292773022
0.000487096881728011
0.000173248269048094
0.00264158437578674
0.00252516407396508
0.00238645619992973
0.00222602619396779
0.00204646053401898
0.0018514210372538
0.00164416453972708
0.00142675862812446
0.00119976142843077
0.000962463246028702
0.000713629650999855
0.000449431429949404
0.000150080202046356
0.00274694988150424
0.00263918906461664
0.00250880310665125
0.00235616118008405
0.00218368069557211
0.00199496377309953
0.00179340969824868
0.00158167982346336
0.00136164636691993
0.00113416806544111
0.000899264571638388
0.000657252838218162
0.000404436368410386
0.000123166620082501
0.00284284286983155
0.00274362498304589
0.00262147622162811
0.00247656399263155
0.00231113639603023
0.0021286908045908
0.0019326063159767
0.00172567179714534
0.00151026345528541
0.00128835983878306
0.00106121312191809
0.000829628166970039
0.000594807568419265
0.000353663952906726
9.52804063503913e-05
0.00292948728613221
0.00283866685910605
0.00272467009018723
0.00258745668770777
0.00242910401652636
0.00225298650703141
0.00206240357689528
0.00186011744153317
0.00164859405238343
0.00143022387501166
0.00120719088435693
0.000981150542443307
0.00075354348801909
0.000526202671550299
0.000298000613405084
6.74948870217151e-05
0.00300712675898324
0.00292450819852214
0.00281854379260863
0.00268898870394866
0.00253774483536695
0.0023680524800009
0.00218310278775812
0.00198557190820689
0.00177788121450155
0.00156247120415452
0.00134184667184655
0.00111839640890015
0.000894115545417175
0.000670914501383768
0.000451587774145516
0.000237950704470599
4.11074272252175e-05
0.00307594434168592
0.00300126076101906
0.00290316101359499
0.0027811997976235
0.00263708926774419
0.00247392408513146
0.00229477318683522
0.00210219832755829
0.00189852441730844
0.00168613002412229
0.00146752855533715
0.00124533580673202
0.00102209889157912
0.000800056167611272
0.000581702315956092
0.000371480071793845
0.000174966367576893
1.88736124002757e-05
0.00021244337226196
0.000616008637033907
0.000217310170824283
0.000919957821215556
0.000626371030567896
0.000221886227775337
0.00117218402836218
0.000931846562794877
0.000633886302507039
0.000223647469898702
0.00139483661145368
0.00118419138202029
0.000937881399781734
0.000635589761823154
0.000221830099611078
0.00159667848051174
0.00140582469518704
0.00118802397029478
0.000936175618478159
0.000629651968114324
0.000217231614637045
0.00178185041254053
0.00160589034127133
0.00140691682261041
0.00118228318055806
0.00092542957664313
0.000616747049723082
0.000210874861129225
0.00195276212310395
0.00178912263423874
0.00160384561787137
0.00139691455072654
0.00116634878229666
0.000906090661548526
0.000598498719287787
0.000203212425566795
0.00211108611627963
0.00195825253018026
0.00178403933076672
0.00158956885272513
0.0013757202560046
0.00114085650278606
0.000879428329793061
0.000575988600894816
0.000194322512522899
0.00225798460322959
0.00211498421999655
0.00195052560937375
0.00176584502113916
0.00156333661014483
0.00134426521556619
0.00110690157019058
0.00084639419085297
0.000549606246681868
0.000184659143608401
0.00239419885503219
0.002260426798722
0.00210500278655901
0.00192894535593371
0.0017350565897283
0.00152630751641945
0.00130362594603867
0.00106527416717281
0.000807434958201027
0.000519486649913817
0.000178891381972419
0.00252016845607821
0.00239528609691056
0.00224847378612698
0.00208051553076819
0.00189416131846319
0.00169298220998184
0.00147958200343812
0.00125451121577375
0.00101641036160367
0.000762725250955198
0.000485939878687159
0.000172691103153473
0.00263616431092338
0.00251999405110561
0.00238156104475028
0.00222144251652214
0.00204223199351596
0.00184759079994854
0.00164077086591276
0.00142383485776919
0.00119733896900021
0.000960575254086339
0.000712308831066934
0.000448659791441693
0.000149767611550615
0.00274239340032377
0.00263482636214158
0.00250465476792578
0.00235225759068163
0.00218005808944337
0.00199165822720623
0.00179045350844364
0.00157910096196319
0.00135946976412589
0.00113241836683654
0.000897968167140534
0.000656428406709782
0.000404063346978882
0.00012312501066
0.00283906191604804
0.00273999455642416
0.00261801449880658
0.00247329610769235
0.00230809147879352
0.00212589786040415
0.00193009167609084
0.00172345863484092
0.00150837247788293
0.00128681095480067
0.00106002865435027
0.000828835104037439
0.000594438486088258
0.000353733758843936
9.55268857325407e-05
0.00292640371939353
0.0028357030066471
0.00272184317012864
0.00258478624573861
0.00242661130686673
0.0022506931063097
0.00206032973992628
0.001858281366633
0.00164701207556693
0.00142891154983427
0.00120616549587314
0.000980434989273786
0.000753177394910815
0.000526262633808464
0.000298596768354103
6.8034792495497e-05
0.00300468684411733
0.00292217431159322
0.00281633090859551
0.00268690617491274
0.00253580338141035
0.00236626574541029
0.00218148515540418
0.00198413670512658
0.00177664017451889
0.00156143495363267
0.00134102638552718
0.00111780673176103
0.000893781547183747
0.000670894512061162
0.00045200940471618
0.000239031987385797
4.18234334072683e-05
0.00307419998024061
0.0029996432566595
0.00290166236792173
0.00277980561484718
0.00263579772116585
0.00247274241582473
0.00229371094043308
0.00210126407554703
0.00189772494720766
0.00168547056999142
0.00146701364151073
0.00124497077079091
0.00102189328430827
0.000800032142560518
0.000581910700508561
0.000372012646300101
0.000175848282491819
1.94081671176175e-05
0.0031351636373478
0.00306826309533509
0.00297793857416532
0.00286354864875811
0.00272662945356538
0.00257013618585095
0.00239701213053827
0.00220969051055272
0.0020103714606459
0.00180132661590225
0.00158498606299143
0.00136392744490413
0.00114083527537768
0.000918344500289233
0.000698990643519324
0.000486402387185266
0.000287397509276089
0.000111364686681202
4.70024243344693e-06
0.000207844461440583
0.000604293282798841
0.000212943140167274
0.000905471527800015
0.000616179248922272
0.000218010301710944
0.00115665432637072
0.00091929293437647
0.000625080777595954
0.000220314405019837
0.00137925028772562
0.00117081595343616
0.000927101343800129
0.000628065123021251
0.00021902092394076
0.00158165727568408
0.00139249446164605
0.00117661607047841
0.000927022684462607
0.000623320106154835
0.000214905690666006
0.00176778444363949
0.00159313576381901
0.00139562837215352
0.00117266475015629
0.00091776422769674
0.000611487884223493
0.000208972857811794
0.00193987768007563
0.00177726202327551
0.00159312126672807
0.00138746472376294
0.00115834860173032
0.00089976973654414
0.000594202164711987
0.000201678139213437
0.00209949176832771
0.00194746002231399
0.00177413380030117
0.00158065337950582
0.00136791476675776
0.00113430259154414
0.000874301121071158
0.000572537212639419
0.000193139172600908
0.00224770582910689
0.00210533408611352
0.00194156908205991
0.00175766389409518
0.00155602202943738
0.00133791366941073
0.0011016207517082
0.000842311766388909
0.000546895588342355
0.000183906470000084
0.00238520380790936
0.00225192422024184
0.00209704237515413
0.00192159333770739
0.00172838757075362
0.00152039519040837
0.00129854295281805
0.00106109965472702
0.000804261564557286
0.000517438708003026
0.000178464211187921
0.00251238773784496
0.00238789019098886
0.00224150102823324
0.00207401984549991
0.00188820536534463
0.00168762724804653
0.0014748834005961
0.00125052166805335
0.00101318730881759
0.000760333687664257
0.000484453707956175
0.000171961609812446
0.0026295059763004
0.00251363525477986
0.00237553182573229
0.00221578702215303
0.00203700300459508
0.00184284062333007
0.00163654584982156
0.00142017524227605
0.00119428260219525
0.000958162836160197
0.0007105831076522
0.00044760641352627
0.000149301944726607
0.00273675469014879
0.0026294197597834
0.00249950446087365
0.00234739999330241
0.0021755374735758
0.00198751904223434
0.00178673547957863
0.00157583803446579
0.0013566913005523
0.00113015231087753
0.000896244412722579