/*--------------------------------*- C++ -*----------------------------------*\
  =========                 |
  \\      /  F ield         | OpenFOAM: The Open Source CFD Toolbox
   \\    /   O peration     | Website:  https://openfoam.org
    \\  /    A nd           | Version:  12
     \\/     M anipulation  |
\*---------------------------------------------------------------------------*/
/*   Windows 32 and 64 bit porting by blueCAPE: http://www.bluecape.com.pt   *\
|  Based on Windows porting (2.0.x v4) by Symscape: http://www.symscape.com   |
\*---------------------------------------------------------------------------*/
FoamFile
{
    format      ascii;
    class       volScalarField;
    location    "200";
    object      nut;
}
// * * * * * * * * * * * * * * * * * * * * * * * * * * * * * * * * * * * * * //

dimensions      [0 2 -1 0 0 0 0];

internalField   nonuniform List<scalar> 
10068
(
7.63548806661686e-05
7.63524677610581e-05
0.0006274825503225
7.78212191231699e-05
7.63392034947365e-05
0.00062772464234103
7.78204153928174e-05
0.00150348567358377
0.000636678462445018
7.95750124174696e-05
7.63075189614044e-05
0.000628074341718851
7.78082579601199e-05
0.00150386263282389
0.000636946526971588
7.95763214547597e-05
0.00248092466279006
0.00151569196124791
0.000648173443075885
8.05833180983685e-05
7.62573420073831e-05
0.000628120584186018
7.7775890696556e-05
0.00150413485583098
0.000637419127839927
7.95658269741469e-05
0.00248128472438626
0.00151610093689198
0.000648463456036909
8.05880297613521e-05
0.00344636007767577
0.00249004027724061
0.00152965860469018
0.000654897530236715
8.02963484602709e-05
7.61884123775915e-05
0.00062789021221491
7.77239746319755e-05
0.0015039896634605
0.000637519069396311
7.95330055431379e-05
0.00248129612287442
0.00151642911635789
0.000649088130271801
8.0579734970218e-05
0.00344664697717482
0.00249042951495836
0.00153009474741878
0.000655223855664682
8.03041593007387e-05
0.00434665407134147
0.00344904510289881
0.00249698011604714
0.00153606166266326
0.000652917761766384
7.90677395495228e-05
7.60990777399264e-05
0.000627452710087923
7.76527463017934e-05
0.00150339719242494
0.000637291357848657
7.94792564802302e-05
0.00248080845730068
0.00151631665642336
0.000649274966412512
8.05464229064082e-05
0.00344637087078571
0.00249046603712772
0.00153051499692259
0.000655975776357244
8.02979102577944e-05
0.00434685012672224
0.00344936069790242
0.00249739917512824
0.00153653390904554
0.000653289139690651
7.90782335718099e-05
0.0051619890930045
0.00434232542109893
0.00344433978465267
0.00249376201396056
0.0015288358713937
0.000643662863285967
7.74550506842775e-05
7.59865971401471e-05
0.000626834624248308
7.75606860251538e-05
0.00150239156221185
0.000636840338289483
7.94052268885065e-05
0.00247974437333372
0.00151573013640678
0.00064906836327497
8.04907818684336e-05
0.00344548048490649
0.00248999264720068
0.00153046302075071
0.000656228164351538
8.02650146386038e-05
0.00434628869579372
0.00344910211092179
0.00249747926521515
0.00153704920206139
0.000654120580415995
7.90741096929404e-05
0.00516208523828335
0.00434255072867414
0.00344468537034276
0.00249420923434048
0.00152935478325651
0.000644081429071581
7.74678384745234e-05
0.00588981194352199
0.00515240031080519
0.00432530777689887
0.00342611992158717
0.00247476441017417
0.00150872174233375
0.000630450096901708
7.56944553146154e-05
7.58471645875855e-05
0.000626024769511911
7.74448201144809e-05
0.00150096709843793
0.000636203346739432
7.93096828595045e-05
0.00247806523729385
0.0015147116570143
0.000648606697291241
8.04143139457503e-05
0.00344387628285123
0.00248893124611534
0.00152989347765768
0.000656028065413051
8.02088484865202e-05
0.00434497513248365
0.00344822065677062
0.00249703381450105
0.00153705674974538
0.000654419514410927
7.90423386256531e-05
0.00516124812271925
0.00434200593346384
0.00344445334433267
0.00249434014267973
0.00152994840056261
0.000644978703362183
7.74660057446146e-05
0.00588980234892759
0.00515252716662409
0.00432556386721071
0.00342648656949213
0.00247524274930383
0.00150929148831989
0.000630905504003339
7.57092567758133e-05
0.00653541306650108
0.00587711559825712
0.00512535622227029
0.00429103131775162
0.00339026415942968
0.00243973882406441
0.0014794939247272
0.000615171047226105
7.37738801303606e-05
7.56762376643772e-05
0.000625009316799812
7.73019195659328e-05
0.00149909468670676
0.000635380526296664
7.91894900812831e-05
0.00247572102258583
0.00151326922823885
0.000647946833600651
8.03158686832458e-05
0.0034414693397897
0.00248724625163155
0.0015288624705861
0.000655553704201896
8.01314029993306e-05
0.00434280406504591
0.00344662075381114
0.002495978929354
0.00153650077723248
0.000654236647170584
7.89866399147256e-05
0.00515951805128414
0.00434070233346899
0.00344358700617972
0.00249392911118376
0.00153000687408469
0.000645304712284623
7.74357353245236e-05
0.00588870278152941
0.00515170794563832
0.00432504114310013
0.00342628436602927
0.0024754240547883
0.00150995491909312
0.000631851189101558
7.5709732017164e-05
0.00653529413105298
0.00587713799897982
0.00512551576082173
0.00429130416170753
0.0033906484145327
0.0024402508536422
0.00148010819325611
0.000615640937990216
7.37899467844507e-05
0.00710640955002674
0.00652092819157934
0.00584303596016535
0.00507705815473192
0.00423665419541087
0.00333612094930754
0.00239110839452014
0.00144373083684909
0.000598238929550133
7.16961243329918e-05
7.54687009964782e-05
0.000623749737107199
7.71264009661823e-05
0.0014967111590337
0.00063434673086545
7.90416864805511e-05
0.00247263815306115
0.00151137455078566
0.000647091554454166
8.019251713923e-05
0.00343816058545726
0.00248489137296847
0.00152739264381602
0.000654873028358022
8.00318057796443e-05
0.00433964877476306
0.00344421398959908
0.00249428320395124
0.00153545786820591
0.000653756773598666
7.89096307619393e-05
0.00515678192986972
0.00433853815404794
0.0034419910051689
0.0024928840002879
0.00152946934064309
0.000645121056623767
7.73810345360266e-05
0.00588657342433645
0.00514998921646777
0.00432375000241011
0.00342543912257062
0.00247505007315111
0.00151005575499907
0.000632200851135628
7.56814531618262e-05
0.00653394535044225
0.00587605753720701
0.00512471830934676
0.00429080313153044
0.00339047771530698
0.00244048232288321
0.0014808300317943
0.000616625664546315
7.37899536638407e-05
0.00710618041426675
0.00652084212368748
0.00584309325755024
0.00507723274595323
0.00423693594785753
0.00333652346151072
0.00239165311476194
0.00144437639146657
0.000598665888396568
7.17114786587232e-05
0.00761031099077734
0.00709064943701854
0.00648191041865446
0.00578357627986989
0.00500522036356924
0.00416140075580038
0.00326457490460013
0.00233059126004119
0.00140233244651823
0.000579512065253892
6.95134584926694e-05
7.52187192595239e-05
0.000622204466951563
7.6913518116839e-05
0.00149374697510988
0.00063305923622182
7.88597335669426e-05
0.00246871174425357
0.0015089680541019
0.000646017617538162
8.00402038819715e-05
0.003433823706494
0.00248179306990199
0.00152546047202971
0.000653992421661101
7.99071052175044e-05
0.00433536515733124
0.00344090176477854
0.00249190615167282
0.00153396187699913
0.000653062013239308
7.88106148422066e-05
0.00515288795584134
0.00433538891114459
0.00343957861019825
0.00249117941934856
0.00152842272300085
0.000644639846889594
7.73052926246761e-05
0.00588329491279504
0.00514726353913373
0.00432159153623212
0.00342385149871643
0.00247402179935568
0.00150953315521483
0.000632015733353281
7.56285216559594e-05
0.00653144079270711
0.00587394134301171
0.00512301235787645
0.00428952876522216
0.00338965984396814
0.00244014827416776
0.00148097159508964
0.000616998815567134
7.37655958871815e-05
0.0071045969602895
0.00651951391085337
0.00584203534233181
0.00507645442162168
0.00423645693614531
0.00333638733338066
0.00239193420470602
0.00144515202705572
0.000599662863411729
7.17093789019465e-05
0.00760997284337855
0.00709045338522297
0.00648186130712217
0.00578364857542895
0.00500539914515975
0.0041616903631354
0.00326499692017955
0.00233116657330672
0.00140294275125899
0.000579799166468336
6.95215272137648e-05
0.00805388227805733
0.00759339352408912
0.00704776174397128
0.00641350808747503
0.00569633496345737
0.00490899284127957
0.00406501280230287
0.00317594114714129
0.00225852245574443
0.0013551623236624
0.000558114860895218
7.90417959748285e-05
7.49196669233257e-05
0.000620330730663598
7.66571913163206e-05
0.0014901076787668
0.000631482069062251
7.86397159295008e-05
0.0024638148006791
0.0015059720706166
0.000644689163742708
7.9853451033035e-05
0.00342830485928326
0.00247784779635241
0.00152300906181437
0.000652889617440216
7.97531441053953e-05
0.00432978070037982
0.00343655989090366
0.00248877710944155
0.00153199453425011
0.000652165209658334
7.86867083413773e-05
0.00514765242299082
0.00433111092379887
0.0034362533623233
0.00248878103716597
0.00152691140044117
0.000643943165932522
7.72080475274817e-05
0.00587869031310425
0.00514338005639681
0.00431844330676085
0.00342143652569071
0.00247231852675777
0.00150849124190508
0.000631523690865082
7.55549848998494e-05
0.0065276485938831
0.00587067487568205
0.00512029537037951
0.00428738095325254
0.0033880901358951
0.00243914508817189
0.00148047000940477
0.000616821865778055
7.37165810994986e-05
0.00710173953835434
0.00651702282859024
0.00583993280588097
0.00507476482205727
0.00423520617361696
0.00333560476171603
0.00239164579163552
0.00144533923567896
0.000600061002073779
7.1688586481371e-05
0.00760816896707555
0.00708889139127889
0.00648055671260071
0.00578260954856407
0.00500463902896106
0.0041612370823624
0.00326489975101396
0.00233149923440593
0.00140374815068211
0.000580777503834404
6.95252765883408e-05
0.00805343809751227
0.00759308829132897
0.00704760432659686
0.00641347468712392
0.0056964094046313
0.00490917341053812
0.00406531195371853
0.00317638445168614
0.00225910013245065
0.00135564725084957
0.000558279981085474
7.91539268818345e-05
0.00844318748961389
0.00803581895172551
0.00754711186491476
0.00697180334365941
0.00631278861037217
0.00558038218882661
0.00478750574884905
0.00394654302371262
0.00306940829413377
0.00217398165719876
0.00130097556024603
0.000547300307962518
6.81069094972866e-05
7.45638130544415e-05
0.00061807914346565
7.63505652727515e-05
0.0014856862427379
0.000629570371930073
7.83750108989635e-05
0.00245779327021752
0.00150229455884207
0.000643065688889092
7.96278290230128e-05
0.00342141830960058
0.00247292675608629
0.00151996071163427
0.000651529225991518
7.95651975971421e-05
0.00432268754317764
0.00343103404390328
0.00248479401854906
0.00152950109699061
0.000651046617576706
7.85339453156636e-05
0.00514085811849424
0.00432553201678888
0.00343189322465575
0.00248562205603257
0.00152492343176391
0.000643044675331448
7.70866663250372e-05
0.00587254411361992
0.00513815681314083
0.00431416314087765
0.00341810080785816
0.0024699121325807
0.00150698197897007
0.000630825976903406
7.54606604167146e-05
0.00652237228542242
0.00586608421245896
0.0051164188238076
0.00428423853411455
0.00338568505796464
0.00243745833436816
0.00147944138229921
0.000616334013607309
7.36466548117759e-05
0.00709746737392844
0.00651324441879078
0.00583667714494299
0.00507206218313538
0.00423308019828273
0.00333406637901702
0.00239068036286423
0.00144487256260681
0.00059990718891231
7.16475564038549e-05
0.00760498353650819
0.00708604887909916
0.0064780798727242
0.0057805243654984
0.00500297308704427
0.0041600198529627
0.00326416262700754
0.00233126572578332
0.00140398277885792
0.000581199412519873
6.95107843853592e-05
0.00805142846132237
0.00759130677972739
0.00704606698925627
0.00641218978673249
0.00569538797901609
0.00490843538977671
0.00406489079601661
0.00317633225492847
0.00225947570797462
0.0013564562414753
0.000559278267833877
7.92534827011355e-05
0.00844264159975897
0.00803540721930782
0.00754684657564487
0.00697166265101515
0.00631275688687184
0.00558045548811247
0.00478768973978472
0.00394685467964925
0.0030698671845287
0.00217452019624367
0.00130138780121969
0.000547825182085712
6.82478687066458e-05
0.00878373649294882
0.00842400263268122
0.00798640105863806
0.00746445882367747
0.00685913135033862
0.00617870948551889
0.00543464540665706
0.00463897056159288
0.00380402248283657
0.00294292473000761
0.00207438157237955
0.00123856381741327
0.000506097048941625
5.56770838363152e-05
7.41423211913118e-05
0.000615394642583083
7.59857715567679e-05
0.00148036228592573
0.000627270795975306
7.80585681829002e-05
0.00245046960397649
0.0014978277445492
0.000641102458940616
7.93565389960422e-05
0.00341294536238487
0.00246687606110697
0.00151622181392412
0.000649872109110585
7.93376615655944e-05
0.0043138405731017
0.00342413823180908
0.00247982759210595
0.00152640367323057
0.000649669320446571
7.83472300734786e-05
0.00513224787275188
0.00431844534927937
0.00342634486818733
0.00248160228483478
0.0015224066817651
0.000641927545043984
7.6936617525643e-05
0.00586459907872434
0.00513137727438313
0.00430858037580667
0.00341372518180838
0.00246674036864317
0.00150499706328207
0.000629943778432467
7.53430949099468e-05
0.00651536719476112
0.00585995496187832
0.0051112027330324
0.00427996151077441
0.0033823547472083
0.00243506604635327
0.00147795080798148
0.000615644771831695
7.35566140904754e-05
0.00709156245403157
0.00650798432236016
0.00583209781776459
0.00506819974751649
0.00422995854543297
0.00333169056561
0.00238902904853697
0.00144387675767555
0.000599441035135449
7.15853533132469e-05
0.0076002641405382
0.00708179127224173
0.00647431390629944
0.00577728674136947
0.00500029791976652
0.00415793189336083
0.00326267244375721
0.00233035528978381
0.00140356913354432
0.000581098024805441
6.94753048535557e-05
0.00804793905340243
0.00758813716470269
0.00704323966914485
0.00640973188628342
0.00569332870906976
0.00490680460108404
0.00406371978854049
0.00317565307726604
0.00225930465789993
0.00135673883209667
0.000559750479887255
7.92802870355929e-05
0.00844044111061734
0.00803342080986216
0.00754509079485735
0.00697014634332676
0.0063114907868598
0.00557945611729409
0.0047869814151966
0.00394647408645065
0.00306986312022106
0.00217493000912642
0.00130222876709157
0.000549030380668115
6.83884861311268e-05
0.00878309430693157
0.00842348851064138
0.00798603028105034
0.00746421138019965
0.00685899278245219
0.00617867574506821
0.00543471910632348
0.0046391614126899
0.0038043487362419
0.00294338829580925
0.002074906447252
0.0012391940318156
0.000506786289467984
5.58364068420633e-05
0.00908056825284517
0.0087634913465363
0.00837167491840118
0.00789768318697108
0.00734105857346782
0.00670854681630781
0.00601019899209711
0.00525690413063821
0.00446052290756498
0.00363433319092197
0.00279279656362122
0.00195462283670185
0.0011512948097241
0.000453881119959873
4.29916084587491e-05
7.3644995546059e-05
0.000612206983354264
7.55540176181441e-05
0.00147399678682422
0.000624536760081653
7.76822724891452e-05
0.00244163735302394
0.00149244860336877
0.000638752040221462
7.903232402852e-05
0.00340263343378351
0.00245951662546429
0.00151168354429123
0.000647866691309675
7.90643109743537e-05
0.00430295787703304
0.00341565364773155
0.00247372320655875
0.00152260822099997
0.000647990831777829
7.81208984730681e-05
0.00512152106470456
0.00430960671391256
0.00341942252268646
0.00247659257166921
0.00151928198017977
0.000640551619686085
7.67526899771569e-05
0.00585455177662166
0.00512278499316218
0.00430148971061866
0.00340815824511894
0.00246270535030148
0.00150248554879013
0.000628850207153163
7.51970298358899e-05
0.00650634016796515
0.00585203075645579
0.00510443225064129
0.00427438169856218
0.00337798359605225
0.00243191022760833
0.0014759961181866
0.000614780596413035
7.34440334902066e-05
0.00708375476440228
0.00650099932661893
0.00582598258351465
0.00506299984926772
0.00422570381329615
0.00332839142414235
0.00238667722497846
0.00144242626187401
0.000598775652982761
7.15001937400232e-05
0.00759377574281934
0.00707590455340168
0.00646906831318455
0.00577272877305735
0.00499646789623147
0.00415485361421156
0.00326034984775604
0.00232876356642155
0.00140263076478272
0.000580691343064875
6.94191335385846e-05
0.00804280675750699
0.0075834339822004
0.00703899587221735
0.00640598754980451
0.00569012507682478
0.00490417583193783
0.00406168970453074
0.00317423125436411
0.00225846879864333
0.00135640134869101
0.000559715652754249
7.92283216823487e-05
0.00843667165917903
0.00802994834314557
0.00754193744734745
0.00696734006225897
0.00630906238744446
0.00557743630259038
0.00478540063459423
0.00394536446711382
0.00306925503549277
0.00217483059682548
0.00130259345651976
0.000549629811405942
6.84606831323718e-05
0.00878071784174817
0.00842131204510328
0.00798407071007165
0.0074624782902149
0.00685749752986214
0.00617743394664055
0.0054337505866391
0.00463849295880882
0.00380401800461839
0.00294343699695156
0.00207537258102714
0.00124019128414591
0.000508248931533589
5.60186183415489e-05
0.00907983459099507
0.00876287986809341
0.00837120249350392
0.00789733142014362
0.00734081426779009
0.0067084066785548
0.00601016487004552
0.00525698186113884
0.00446072513859345
0.00363467589064291
0.00279327656642307
0.00195524525237246
0.00115208916097837
0.000454632704590398
4.31698138908129e-05
0.00933827572649375
0.00905935074077368
0.00870850570039226
0.00827745453566475
0.00776461506413487
0.00717552548768125
0.00651904324378882
0.00580487024071731
0.00504371772841996
0.00424821431668962
0.00343292285617736
0.00261322445573848
0.0018062876107414
0.00104275248547958
0.000393238008202934
3.03747305044808e-05
7.30608471709443e-05
0.000608435822471867
7.50443063141414e-05
0.00146642627560595
0.000621307169878876
7.72369469326809e-05
0.00243106747816574
0.00148602048602501
0.000635968233119344
7.86469264084347e-05
0.00339019390012226
0.00245064263390191
0.00150622351717196
0.000645465971745542
7.87377360150405e-05
0.00428971180706303
0.0034053271670299
0.00246630081286038
0.00151800337924418
0.000645963654207867
7.7849044839939e-05
0.00510833052050292
0.0042987328062515
0.00341090730925956
0.00247043791115151
0.00151545388693332
0.000638869409977951
7.65290930931374e-05
0.00584204880295436
0.0051120799655946
0.00429264808620472
0.00340121520455896
0.0024576780904098
0.00149936485847287
0.00062749345224884
7.50166514142884e-05
0.00649494530753085
0.00584200905888241
0.0050958526679367
0.00426729616278097
0.00337242286463545
0.00242789477768867
0.00147352234770128
0.000613719792691733
7.33030468356236e-05
0.00707371844653226
0.00649199722791535
0.00581807700378595
0.00505625028901616
0.00422015110082507
0.00332405731599739
0.00238357175818681
0.00144052534624103
0.000597950848414501
7.13911862039338e-05
0.00758522350587296
0.00706811953443815
0.00646210232596474
0.00576664095314996
0.00499130802058842
0.00415065069147222
0.00325711350554834
0.00232648231961831
0.00140124457684271
0.000580067056122205
6.93398767141635e-05
0.0080357798474283
0.00757696549172659
0.00703312633029488
0.00640076971421204
0.0056856111583847
0.00490040470111025
0.00405868241053696
0.0031719898176256
0.00225696383873222
0.00135555191906695
0.000559400582931364
7.91081395397363e-05
0.00843115997711893
0.00802483374312536
0.00753724981331924
0.0069631215839794
0.00630535914365793
0.00557428906442421
0.00478284115220493
0.00394341521986934
0.00306792406735644
0.00217409087664022
0.00130235633076617
0.000549631773447531
6.84545574397967e-05
0.00877669159165939
0.00841756071782187
0.0079806158181716
0.00745934846772511
0.00685472521983758
0.00617505116041673
0.00543178746054805
0.00463697984131825
0.00380298723180053
0.00294291618350089
0.00207536969604485
0.00124069918484689
0.000509066458305538
5.61421198511387e-05
0.00907729662257141
0.00876052813540923
0.00836905396412443
0.00789539640510934
0.00733910512346033
0.0067069393893846
0.00600895754413745
0.00525605585209679
0.00446010902540301
0.00363440725381221
0.00279339787740048
0.00195582704748969
0.00115332799418217
0.000456402596653764
4.33997879857601e-05
0.00933745626396043
0.00905864714059627
0.00870793640948469
0.00827700229532129
0.00776426782654498
0.00717528093830576
0.00651890347692322
0.00580483959141456
0.00504380468271052
0.00424843427042202
0.00343329287291409
0.00261376480271005
0.00180702292634928
0.00104368530188274
0.000394071108692437
3.05764655225135e-05
0.00956101334086251
0.00931618671447595
0.00900198293636105
0.00860933789990105
0.0081357020652186
0.00758561962260438
0.00696692308397033
0.00628820476498751
0.00555896678765336
0.0047905838200149
0.00399686197681899
0.00319356487170802
0.00239678800398365
0.00162510307430002
0.000911541070741561
0.000322622333192095
1.83198734849425e-05
7.23779165910057e-05
0.000603974566352898
7.44448417855405e-05
0.0014574552035812
0.000617496359503357
7.67104435969024e-05
0.00241849349665122
0.00147837988144285
0.000632673771375593
7.81909394096629e-05
0.00337530154291968
0.00244002189432753
0.00149970402894382
0.000642625564941852
7.83496691401865e-05
0.00427373327850395
0.00339286994514341
0.00245735418524208
0.0015124660275108
0.000643534377890892
7.75245471425652e-05
0.00509228016781984
0.0042854973218742
0.00340054596936763
0.00246295752468719
0.00151081206374058
0.00063683683454935
7.62605623835041e-05
0.00582668333637093
0.00509891565222415
0.00428177257757905
0.00339267776761205
0.00245150347636779
0.00149553709040434
0.000625821188989351
7.47964035441741e-05
0.00648078014881983
0.00582953730007072
0.00508516564592169
0.00425846384607802
0.00336548937415759
0.00242288993981696
0.00147043739510384
0.000612398636540168
7.31263935659044e-05
0.00706106877426824
0.00648063315090862
0.00580808057029991
0.00504769920035657
0.00421310074489347
0.00331854246153594
0.00237961668115506
0.00143811776773248
0.000596954301572198
7.12526845855109e-05
0.00757425195542052
0.00705811152159144
0.00645312591033819
0.00575877186475003
0.00498460963412697
0.00414516219658067
0.00325285619305146
0.00232346340784441
0.00139942120458727
0.000579262983277303
6.92324480993799e-05
0.00802654128262062
0.00756843841782977
0.00702536448519192
0.00639384086642023
0.00567958065912051
0.00489531943137614
0.00405456726726051
0.00316885203187221
0.00225478422027637
0.00135425116500059
0.00055888054402919
7.89238673608726e-05
0.00842363946397631
0.00801782867337676
0.00753080113131368
0.00695728585678818
0.00630019688458336
0.00556985062142944
0.00477916050770142
0.00394051033960824
0.00306579436413669
0.002172700410336
0.00130161654373717
0.000549274577806217
6.83782524621554e-05
0.00877083367434241
0.00841206838071322
0.007975518684987
0.00745469013056179
0.00685055538424241
0.00617141550411365
0.00542872304033873
0.00463451574149184
0.00380114477868693
0.002941701225114
0.0020747495683952
0.00124057661514264
0.000509238861854976
5.61910092509226e-05
0.00907303679796494
0.00875652137795102
0.00836532167994424
0.0078919678154893
0.00733601430644521
0.00670422003920029
0.00600664025477179
0.00525416955118875
0.00445868420303559
0.00363347681628422
0.00279299078189032
0.00195596688318429
0.00115408002742143
0.000457528379452479
4.35827793133501e-05
0.00933477070468331
0.00905613452147303
0.00870561364757503
0.00827488028691556
0.00776236002375639
0.00717360427552283
0.0065174758636671
0.00580367981805177
0.00504293549225077
0.00424788672323348
0.00343310807474352
0.00261399997471711
0.00180779738905741
0.00104525071959964
0.000396257167197703
3.08587755685841e-05
0.00956011363331159
0.00931539650371229
0.00900132199606706
0.0086087899593559
0.00813525600988182
0.00758527407706293
0.00696668072390608
0.00628806952719188
0.00555894499413825
0.00479068756433099
0.00399711158566415
0.003193988901366
0.00239742707437442
0.00162600432493779
0.00091269722901547
0.000323591667385023
1.85493883053371e-05
0.00975250361186436
0.00953815588369486
0.00925671975013181
0.00889842142885257
0.0084598426511434
0.00794466503387897
0.00735982133780722
0.00671286992303093
0.00601213480544264
0.00526767826805063
0.00449193568325011
0.00369992570083456
0.00290859559113722
0.00213593398268201
0.00140468037046531
0.000751997624703043
0.000240074726377285
8.25254914553088e-06
7.16035057792911e-05
0.000598628284458862
7.37418089451809e-05
0.00144684683889838
0.00061298827354571
7.60897667937871e-05
0.00240361606354644
0.00146932544051911
0.00062878584566717
7.76508319772927e-05
0.00335759568485617
0.00242738749671601
0.00149195504338356
0.000639287670532268
7.78901518898695e-05
0.00425460707487727
0.00337795651381508
0.00244664884352226
0.0015058586385477
0.000640657220929132
7.71392338143623e-05
0.00507292005363106
0.0042695304975804
0.00338804947769447
0.00245394467578164
0.00150523166047935
0.000634404792293079
7.59405636983627e-05
0.00580799056324559
0.00508289595608057
0.00426853797612511
0.00338229317498195
0.00244400140938267
0.0014908949811742
0.000623793871384157
7.45324893655336e-05
0.00646338180651965
0.00581420934866384
0.00507202619776069
0.00424760353666793
0.00335696615397525
0.00241674042600749
0.00146663938547115
0.000610744170678557
7.29117989833155e-05
0.00704535808318939
0.0064665056773064
0.00579564285342219
0.00503705113240963
0.00420431466718141
0.00331166543932642
0.00237467865128965
0.00143509555841484
0.000595662705059921
7.10924186796961e-05
0.00756044095172953
0.00704549692742095
0.00644179653851216
0.00574882436476185
0.00497612485474083
0.00413819250073079
0.00324743486632296
0.00231961034520881
0.00139710337146401
0.000578260723113699
6.91242285972841e-05
0.00801470850718657
0.00755749846381794
0.00701538807496458
0.0063849144564138
0.00567178626346514
0.00488871579115537
0.00404918797182229
0.00316471524293241
0.00225188543453527
0.00135249997573374
0.000558157040911742
7.86702632056348e-05
0.00841377193351133
0.00800861786327293
0.00752230122666246
0.00694957011310678
0.00629334204267229
0.00556391859325817
0.00477419090730789
0.00393652340605477
0.00306279264868565
0.00217064898197482
0.00130042606286674
0.000548657251787715
6.82357382893649e-05
0.00876286222603565
0.00840457143693427
0.00796853623501103
0.00744828130423042
0.0068447867262695
0.00616634597066581
0.00542439645797289
0.00463096098616224
0.00379837695624368
0.00293971497536584
0.00207349710555222
0.00123992113618448
0.000509019307514089
5.61719939807899e-05
0.00906686365531328
0.00875068410513503
0.00835984888930971
0.00788690417484887
0.00733141248199918
0.00670012974189363
0.0060031025730127
0.00525121747001465
0.00445634491026168
0.00363177076162552
0.00279192194059126
0.00195550870048685
0.00115418231348674
0.000457957764954285
4.36955518398775e-05
0.00933029824717814
0.00905189501763588
0.00870162746251006
0.0082711772455165
0.00775897579250473
0.00717057445068193
0.00651483217191294
0.00580145066709791
0.00504114922489072
0.00424657511365515
0.00343230751860405
0.00261374942907712
0.00180817011502647
0.00104636042332674
0.000397819610041244
3.11055876196832e-05
0.00955729254328154
0.00931273665762039
0.00899883929357932
0.00860649569772933
0.00813316467633397
0.00758340376617088
0.00696504990759423
0.00628669608534649
0.00555784838865065
0.0047898931925325
0.00399665630043114
0.00319392461624567
0.00239783564798826
0.00162707095792789
0.000914736450953085
0.000326332419144164
1.88724644146284e-05
0.00975152848379287
0.00953728444170812
0.00925597253450519
0.00889778302999055
0.0084593027396595
0.00794422303966447
0.00735948055877374
0.00671263432030117
0.00601200957579654
0.00526767286783571
0.00449206842422424
0.0037002274677714
0.00290911351634843
0.00213674237017698
0.00140587919563625
0.0007535928772686
0.000241392775907016
8.48632399093521e-06
0.00991605187323891
0.00972897731314312
0.00947686496934714
0.0091493041412462
0.00874208624347356
0.00825811771495348
0.00770352328342864
0.00708490152903665
0.00640943713657923
0.00568590020403775
0.00492528248163238
0.00414113474933137
0.00334966807454997
0.00256941731399505
0.00182181802518368
0.00113643378720344
0.000557845824076852
0.000146263541949127
1.97349035287167e-06
7.07827200588152e-05
0.000592134699347068
7.29384303719772e-05
0.00143433493596218
0.00060759448167323
7.53587388727131e-05
0.00238611031410045
0.00145861493573381
0.00062416632086436
7.70128254858303e-05
0.00333667707957045
0.00241243565629598
0.00148276623044668
0.000635320861679423
7.73454636092301e-05
0.00423187488919897
0.00336022334574538
0.00243391439826391
0.00149801203505902
0.000637295691209146
7.6682855723094e-05
0.00504974955587357
0.00425041764251124
0.00337309152410291
0.00244316345190615
0.00149857516041181
0.000631519168041326
7.55618505804464e-05
0.00578544787447215
0.00506357259193428
0.00425257525740335
0.00336977269191018
0.00243496542925543
0.00148531737124955
0.000621366013021392
7.42211177970676e-05
0.00644222278762334
0.00579556193421634
0.0050560398822014
0.00423439190775368
0.00334660202836091
0.00240926882174492
0.00146202737218164
0.000608721249921073
7.26717090144786e-05
0.0070260715202794
0.00644915292052275
0.00578035998332683
0.00502396404244779
0.00419351454950481
0.00330321119739749
0.00236860180028727
0.00143134646119098
0.000594001715222667
7.09662559836145e-05
0.00754330130613692
0.00702982925463057
0.00642771534578163
0.00573645170125433
0.00496556243572024
0.00412950730449332
0.00324066914645236
0.00231478240886965
0.00139415179820708
0.000576957367464469
6.90969221148902e-05
0.00799982910766293
0.00754372670399123
0.00700281615899318
0.006373651879151
0.00566193561297465
0.00488035099100773
0.0040423534748217
0.00315943877017311
0.00224816994945829
0.00135023769519864
0.00055716215272674
7.83380482675389e-05
0.00840115080710209
0.0079968200483671
0.00751139851349566
0.00693965608375276
0.00628451289478327
0.00555625089415834
0.00476773347719383
0.00393130325513184
0.00305882023455561
0.00216788971667894
0.00129876652379529
0.000547773486944398
6.80236811726062e-05
0.00875242204606058
0.00839473440989218
0.00795935669100434
0.00743983618094959
0.00683716121045095
0.00615961384877112
0.00541861021715886
0.00462615262105773
0.0037945616660392
0.00293688531910083
0.00207159837871985
0.0012387936670359
0.000508518729197373
5.60895360485455e-05
0.00905848304222151
0.00874273846590397
0.00835237745020527
0.00787996769001258
0.00732508218585066
0.00669447136111356
0.00599816755996342