/*--------------------------------*- C++ -*----------------------------------*\
  =========                 |
  \\      /  F ield         | OpenFOAM: The Open Source CFD Toolbox
   \\    /   O peration     | Website:  https://openfoam.org
    \\  /    A nd           | Version:  12
     \\/     M anipulation  |
\*---------------------------------------------------------------------------*/
/*   Windows 32 and 64 bit porting by blueCAPE: http://www.bluecape.com.pt   *\
|  Based on Windows porting (2.0.x v4) by Symscape: http://www.symscape.com   |
\*---------------------------------------------------------------------------*/
FoamFile
{
    format      ascii;
    class       volScalarField;
    location    "200";
    object      omega;
}
// * * * * * * * * * * * * * * * * * * * * * * * * * * * * * * * * * * * * * //

dimensions      [0 0 -1 0 0 0 0];

internalField   nonuniform List<scalar> 
10068
(
3.12879524214883
3.12904609076575
1.07722757025816
3.07872377361495
3.12896695391012
1.07673730787895
3.07906739936276
0.660018024165121
1.0619406544289
3.02271488954363
3.12826402902027
1.07588681303934
3.07908221298037
0.659689141412057
1.06145689522702
3.02314013712404
0.502701995108312
0.654217874186744
1.0412003188005
2.96574081252368
3.12686520467514
1.07514252287846
3.07844240422533
0.659255222985004
1.06048122776547
3.02327156330832
0.502459136355929
0.65389623939807
1.04072646894194
2.96624506629359
0.425741570350832
0.500263782874269
0.645062029983655
1.02136423206312
2.91612413776628
3.12476550850633
1.07440921006147
3.07708557999261
0.658811071204101
1.05968594190859
3.02271126984732
0.502162173318717
0.653452026373619
1.03960761698121
2.96648283536375
0.425540556998664
0.500028432612151
0.644747295609291
1.02088109894084
2.91671881441601
0.382751656993999
0.42468132115613
0.495753780202404
0.635093012802439
1.00493719306622
2.86957897167954
3.12193004928622
1.07355249207383
3.07502534277057
0.658334800365936
1.05895763889127
3.02140269855843
0.501832149614905
0.653002453593044
1.03873018613555
2.96600333418643
0.42530041278486
0.499732247745225
0.644283804172217
1.01965851659398
2.91705663188655
0.382572521625241
0.424487308604607
0.495523736717085
0.634778797769656
1.00443262677085
2.87026681278542
0.356832916826416
0.382269063408909
0.422223757249855
0.49007473713633
0.625669135732313
0.990086394558289
2.81777182215481
3.11826668561311
1.07249074031061
3.07223347433573
0.65778048691148
1.05812295095615
3.01937473016718
0.501460421609149
0.652528228510379
1.03798491988242
2.96474870141065
0.425025690151168
0.499402538754708
0.643821426821027
1.01873273587538
2.91665469095105
0.382361430654293
0.424248990304553
0.495226662271465
0.634296697608536
1.00315840578806
2.87070720066404
0.356666259454795
0.382096549768736
0.422034554660388
0.489847170227775
0.62535057630081
0.989556354512764
2.81855061651935
0.340482364102374
0.356563421025135
0.380753609078777
0.418667699758424
0.483918330821672
0.616485232583984
0.973824816876596
2.75656760112788
3.11365327605385
1.07117210572473
3.06862923465485
0.657111412391867
1.05708743885714
3.0166137685747
0.501027006489681
0.651980973705405
1.03716348842265
2.96275940000883
0.424710082233878
0.499032231644491
0.643345840762625
1.01799289609318
2.91545377545525
0.382118336305033
0.423975099573958
0.494896019741222
0.633824291861372
1.00220754736283
2.87038402709492
0.356471987539834
0.381887327849374
0.421798017081232
0.489548339391392
0.624855919842102
0.98823974406277
2.81909912160528
0.340323348935279
0.356403144415458
0.380585629025829
0.418481349071912
0.483691634041982
0.616161281977032
0.973281990381332
2.75743840201234
0.329918314727637
0.340279429376079
0.355464414953318
0.378293256294245
0.414366973108149
0.477416948981891
0.606587568188321
0.954485729470264
2.68586944192041
3.10793777781793
1.06953345887516
3.06408528806436
0.656293632751107
1.05578661009932
3.01305197532539
0.500509743553053
0.651320268219953
1.03615159533295
2.96003441465055
0.424341110008002
0.498601282907104
0.64280474384856
1.0171898292364
2.91350361080081
0.381837119295312
0.423660314698898
0.494526757026855
0.633350518327228
1.00146495896224
2.86923778149336
0.356248559109522
0.38164497278998
0.421524958417034
0.489217011352055
0.624378397563819
0.987287889325884
2.81886820269289
0.340139599660195
0.356210697294156
0.380378558707013
0.418246247719511
0.483391539327846
0.615657512728236
0.971943941683543
2.75811064568446
0.329764217356712
0.340126644466265
0.355308503025522
0.378128142805528
0.41418281506252
0.477191157175163
0.606261683373102
0.953958603530454
2.68681373057316
0.32306144178975
0.329738933730102
0.339363774619908
0.353575600933221
0.375101829346182
0.409547627742676
0.470369495514438
0.595287691770319
0.931520586229607
2.61050214411793
3.10094571064807
1.06752455157215
3.05846335208852
0.655295592619867
1.05417166807271
3.00856137679166
0.499885548710908
0.650511842979647
1.03488433722537
2.95651148869223
0.423903191758671
0.498087134164101
0.642153651376071
1.01620090951816
2.91081297730621
0.381508165167322
0.423292437187977
0.494098617088001
0.63281698200492
1.00067939371951
2.86733337496225
0.355990016298083
0.381364297611732
0.42121108489442
0.48884966704169
0.623907936663543
0.986571341743087
2.81779384144564
0.33992916556801
0.355987953977003
0.380137194545477
0.417974293851056
0.483060740352024
0.615180213608203
0.971000147934722
2.75799378027243
0.329587432441108
0.339944690317371
0.355118231247966
0.377923115474061
0.41394921915371
0.476890886542745
0.605754388378279
0.952615720145233
2.68772770247438
0.322910578281384
0.329590962087223
0.339215246351281
0.353422482529748
0.374939187820171
0.409365994156644
0.470145902713061
0.5949659878107
0.931087213426257
2.61155332319543
0.318684338551231
0.322899583113187
0.328919782182149
0.337792209171657
0.351070884973117
0.371415612040938
0.404288621949343
0.462573324391132
0.582201581595323
0.904836532517851
2.5939323954754
3.09246710748586
1.06508662939677
3.05158578486581
0.654080770883042
1.05219976100123
3.00301880101775
0.499130527764668
0.649523749134189
1.03331107851726
2.95207975709185
0.423378951681289
0.49746673312401
0.641357198918993
1.01495962450853
2.90732905480015
0.381119181598093
0.422855934091596
0.493588400673909
0.632176429583495
0.999715169494839
2.86468821076822
0.355687940530215
0.381035893790816
0.420844453224112
0.488425347693792
0.623383304971834
0.985809293343085
2.81595210616977
0.339686231544672
0.355729787722994
0.379857106095277
0.417661903571632
0.482696556843216
0.614718534793001
0.970319960546812
2.75701857929522
0.329385938018984
0.339734896571689
0.354896440168224
0.377683080168775
0.413678998246214
0.476562236782877
0.605281268411747
0.951689403409478
2.68770425758209
0.322738559337143
0.329415937698663
0.339035437685073
0.353234325862973
0.374736290198177
0.409134459963379
0.469847159076297
0.59445971126192
0.929781133041225
2.6128233268005
0.318535596418659
0.322754773433474
0.328775985230266
0.337646379633117
0.350920202286229
0.371255837492985
0.404110316506181
0.462353566921631
0.581912117680853
0.904628749249191
2.59605074571977
0.316014064232144
0.318542064612766
0.322150009474393
0.327552233846653
0.335742049076877
0.348181797701412
0.367413085977125
0.398620307558375
0.453921964497346
0.567122140849972
0.875437122374754
2.19513011128507
3.08226119640798
1.06214515181368
3.04325184011983
0.652611361981829
1.04980420251239
2.99623675205164
0.498218295420004
0.648321865299333
1.03138037893139
2.94660408560748
0.422749089395287
0.496716105486737
0.640383051554977
1.01341536498827
2.90294831579611
0.380655810929861
0.422333344101106
0.492972805821829
0.631392465217329
0.998500533106816
2.861254176699
0.355331864347538
0.380647542593349
0.420409511783978
0.48792017985217
0.622754579136487
0.984869408219423
2.81337638845375
0.339403159886323
0.355428026157144
0.379529158574045
0.417297224433379
0.482277366749127
0.614205719239283
0.969605937686453
2.75527387682948
0.329154192355742
0.339492276943246
0.354638639526601
0.37740401184584
0.413369004656371
0.476202932634246
0.604831512186089
0.95104657955607
2.68681968659392
0.322543459360076
0.329215067349211
0.338826540723415
0.353013794258692
0.37449808648625
0.408866820520702
0.469522225750066
0.593993555578896
0.928882936866479
2.61299786063058
0.318366908745965
0.322584486150283
0.328603059440679
0.337468629720959
0.350734218503736
0.371055489035649
0.403881682928187
0.462058069073812
0.58142018090335
0.903407989995597
2.59791078761795
0.315866670087049
0.318399325726972
0.322009306211257
0.327411036859361
0.335598518193634
0.348033902670274
0.367256818358974
0.398446177893428
0.45371304603947
0.566903679374283
0.875453079952847
2.19512597727103
0.314535468274257
0.315892794513694
0.317853904832592
0.320936661411285
0.325831851629108
0.333441932337111
0.345116190536009
0.36323312288461
0.392612827433936
0.444450786455385
0.550100869487845
0.821495320505287
2.19485513046577
3.07006537365937
1.0586172378919
3.03322126424376
0.650844578669363
1.04691365359602
2.98802422615381
0.497120258723885
0.646867684251442
1.02903181372345
2.93990532634858
0.421992368278244
0.495809179699344
0.639197170378112
1.01151671311038
2.8975265341148
0.380101874117541
0.421705431720957
0.492227817097215
0.630432652557363
0.996983371841875
2.85693009124035
0.354909379662834
0.380184911503236
0.419888743575046
0.487310540966432
0.621984040754488
0.983681185346349
2.81002301700978
0.33907054711263
0.355072242927779
0.379141213975654
0.4168646127489
0.481778588556162
0.61359007799366
0.96870565376275
2.75280988061459
0.328885050588753
0.339209391236179
0.354336923306136
0.377076961088003
0.413007346018502
0.475790351166714
0.60433437322334
0.950378210837332
2.68520522044257
0.322319951772596
0.328983582477831
0.338584154372514
0.352756666306681
0.374220755697739
0.408560240609919
0.469169195065875
0.593556992069009
0.928275031192866
2.61214555675451
0.318176472365754
0.32238997438948
0.328403030849314
0.337260868025582
0.350515343232587
0.370819737158631
0.403617494195823
0.461738222106351
0.580965972365559
0.902555997440671
2.59848817698961
0.315700323605623
0.318232340301119
0.321841063815244
0.327240074305233
0.335422811710422
0.347850409656766
0.367059604366813
0.39822138115046
0.453425042715284
0.566441264949353
0.874286624455604
2.19512400803879
0.31438886634429
0.315751368791943
0.317715213605953
0.320798460985496
0.325692789926292
0.333300973834519
0.344971615049461
0.363080959909245
0.392444712583867
0.444263060436047
0.549939710291231
0.821136758664252
2.19485278168063
0.313889662803899
0.31443476831444
0.315261502636439
0.316769594855387
0.319475753979844
0.323989194357354
0.331105600328828
0.342061146163539
0.359045557432899
0.386453871142481
0.434473842413281
0.531225132070269
0.797529356347571
2.19192953800729
3.05558176291489
1.05441018758299
3.02123903806947
0.648733067450795
1.04345020384818
2.97814199205577
0.495805044275408
0.645118838766232
1.02619399033542
2.93179695997505
0.421085545396427
0.494717394964002
0.637761842886082
1.00920188004819
2.89089679092039
0.379439357723785
0.420951021165448
0.491327588002837
0.629263430290813
0.995114857416003
2.85157522685682
0.354406312189942
0.379631808577919
0.419262939655932
0.486572445176554
0.621039123274659
0.982190424725592
2.80579549494226
0.338677273632576
0.35465005029081
0.378678958166126
0.416346477306368
0.481176245312014
0.612833518523954
0.967541857327113
2.74959550979172
0.328569855653174
0.338876895912115
0.353980951009167
0.376689836846154
0.412578219341516
0.475299163832335
0.60373431279231
0.949525266772787
2.68290341649839
0.322061319953781
0.328714548226742
0.338301076690003
0.352455211238014
0.373895426673102
0.408202681671534
0.468764519368936
0.593076375428842
0.927650147399812
2.61057374212229
0.31795918708702
0.322166690244619
0.328171676897614
0.337018893641248
0.350259428177857
0.370544915782433
0.403315197448943
0.461392433090944
0.580543351579131
0.901967598610586
2.59790352421376
0.315513344042039
0.318042461030117
0.32164732862077
0.327041044194162
0.335216462605891
0.347633659382101
0.36682692699405
0.397961504288259
0.453112469636007
0.566005933485362
0.873468407011071
2.1951186532329
0.314224150929217
0.315586697229583
0.317550216345613
0.320632073875193
0.325523689631876
0.333127522733574
0.344791047069489
0.362887473118754
0.392225243663792
0.443987458083524
0.549502460002913
0.819888465625423
2.19485091981598
0.313743441648036
0.314294110514251
0.315124073352895
0.316633313645201
0.319339526077273
0.32385245991232
0.330967653787403
0.341920357128483
0.358898155012043
0.386294527711116
0.43430565623517
0.531016523978007
0.797058000663108
2.19192921999986
0.31381882992857
0.313807907563527
0.313855451478317
0.314289607218794
0.315523798420386
0.318003206234423
0.322238944384449
0.328941432698843
0.339242397884615
0.355127322632625
0.380553830101513
0.424863016820813
0.516530837813238
0.776276213303104
2.18619138570763
3.03845108204742
1.04943261071077
3.00700456281985
0.64622609981746
1.03931004329516
2.96634163312722
0.494239129307284
0.643028827735036
1.02278123735213
2.92204891232093
0.420003363155838
0.493409623578537
0.636035273831427
1.00640844771208
2.88286545807733
0.378648346291701
0.420046914469417
0.490243846680284
0.627847640500069
0.992837687624571
2.84502162945761
0.353806789550355
0.378970212056121
0.418511030430095
0.485680336230079
0.619887325146044
0.980352710965673
2.80054623642111
0.338210588147477
0.354147274409966
0.378126210208133
0.415723640434793
0.480446409562709
0.611903884384098
0.966073345705636
2.74553445079175
0.328198401408124
0.338483690546886
0.35355836454237
0.376228330289895
0.412063935123382
0.474705149111367
0.602992120023974
0.948406997165695
2.67990552923445
0.321759451814476
0.328399363032386
0.337968051766361
0.352099160880926
0.3735100033616
0.407778126800288
0.468281897226688
0.592493577312761
0.926848034474944
2.60841703658363
0.317708658815572
0.321908101995952
0.327902287785244
0.336735653374809
0.349958816675127
0.370222168361543
0.402962574160865
0.460996374756879
0.580079327701054
0.901361823556836
2.59645141375084
0.315300827887453
0.317825354476221
0.321424083834015
0.326809884315473
0.334975267368834
0.347379541697889
0.366555270385447
0.39766421391974
0.452774923750205
0.565597587881475
0.872907626140916
2.19512401637889
0.314039751242372
0.315400242759271
0.31736104545511
0.320439196122965
0.325325815968425
0.332922914193399
0.34457687567561
0.362658430989703
0.391970695620516
0.443684727476543
0.549083230766147
0.81908254926745
2.19484773371416
0.3135798306832
0.314131045469425
0.31496133379783
0.31647006185144
0.319174809895333
0.323685331402487
0.330796771637782
0.341743117776248
0.358709003996076
0.386081987276348
0.434042174409794
0.530571746723316
0.795600874906986
2.1919279559253
0.313672677621391
0.313667613430035
0.313718745222325
0.314154500804198
0.315389336451802
0.317869067984033
0.322104897155829
0.328806870400351
0.339105734042787
0.354985419992062
0.380403479660608
0.424695850229378
0.516302939233068
0.775835529248438
2.18619278453803
0.314134178064911
0.313753915231448
0.313275057718704
0.312982222529081
0.31322691417992
0.314359119838674
0.316735047208626
0.32080020383632
0.327207619929463
0.336993073413549
0.351948524430513
0.37569128140962
0.417258492753283
0.504179389883642
0.754568250111046
2.18721550682668
3.01824955464504
1.04358220022412
2.9901622723262
0.643272282088904
1.03438832720801
2.95232670775342
0.492386397368232
0.64054610613947
1.01868961561979
2.91040362423241
0.418718795813735
0.49185237235802
0.633970851577235
1.00305104083293
2.87321688842167
0.377707382440568
0.418967941395591
0.488945794127712
0.626144754958244
0.990085051663641
2.83707269478248
0.353093322804937
0.378180289512511
0.417609963406472
0.48460632872881
0.618492596138047
0.978117363162957
2.79410344285879
0.337656183535437
0.353548043440324
0.377464989282206
0.414975178455394
0.47956396100466
0.610770590634355
0.964269233151085
2.74045413523253
0.327758989635052
0.338017023105418
0.3530550019566
0.375676284282931
0.41144535997495
0.473984616958876
0.602077816131675
0.946975318943367
2.67611644635272
0.321404833535209
0.328027840101919
0.337574010069908
0.351676182359002
0.373050161446862
0.407268786648311
0.467696801662082
0.591768088762732
0.925775366767895
2.60562127529001
0.317417222733916
0.321606160482752
0.327586344755001
0.336401961284755
0.349603269281403
0.369839352364361
0.402543345199735
0.460522914399695
0.579515502721261
0.90061129877273
2.59431216020412
0.315056657630854
0.317574814630722
0.321165007134921
0.326540011675017
0.334692219061087
0.347080420018488
0.366235763782312
0.397317078743725
0.452388094939459
0.565149015662838
0.872307895826295
2.19512648022011
0.313830934087237
0.315187864508442
0.31714388761458
0.320215949472572
0.325095058842428
0.332682906103663
0.344325038634685
0.36239043723218
0.391679067422466
0.443356682878747
0.548692218207538
0.81862920482678
2.19485076709353
0.313397354852621
0.313947140404464
0.314775519352562
0.316281609538322
0.318982838751529
0.323488812028346
0.330594215352642
0.341531889004724
0.358484074289518
0.385833716241852
0.433749643055806
0.530160972607633
0.794682123691639
2.19192713703308
0.313509766402065
0.313505631000374
0.313557558743019
0.31399340052774
0.315227569842454
0.317706039377196
0.321939951817385
0.328638830775288
0.338932107194773
0.354801045315521
0.380197856974159
0.424437605592967
0.515824936101658
0.774102921780495
2.18619261248582
0.313987845399665
0.313613675416846
0.313138675358012
0.312847758361169
0.313093485711166
0.31422652878542
0.316603290643666
0.320669143954551
0.327076658090428
0.336860683465374
0.351812035905261
0.375545918388365
0.417092426373556
0.503955777032692
0.75419587966914
2.18721754078353
0.31469599972325
0.314083936419489
0.313261902267742
0.312488066297451
0.312076980914358
0.312322515730045
0.313493890629183
0.315897254437331
0.319951416978857
0.326274974996425
0.335832589594531
0.350289532293525
0.37309218767825
0.412786334341867
0.495018764951976
0.735590454842547
2.21610560966242
2.99452091003275
1.03677349873116
2.9702865068632
0.639822617486335
1.02858815580203
2.9357297636213
0.490210483030503
0.637619007308863
1.01383478443605
2.89657043282503
0.417203298145296
0.490009923577898
0.63151752707513
0.999023285942198
2.86168837019903
0.376593424006927
0.417687148229586
0.487400217403406
0.624108780741642
0.986781156783179
2.82751319080907
0.352246946100377
0.377240571087395
0.416534747651346
0.48332007723584
0.616814673215
0.975414935615083
2.78627034420866
0.33699829950733
0.352834876527943
0.376675553729982
0.414078250137894
0.47850153049159
0.609399259208744
0.962085127122298
2.73416753064244
0.327238504328494
0.337462582341333
0.352455011490301
0.375015787900975
0.410701765553439
0.473113175176136
0.600964901972265
0.945210089519907
2.67127946209055
0.320986582502397
0.327588279574473
0.337106209039325
0.351172131821502
0.372499770087985
0.406655617653318
0.466986147027664
0.590871128516498
0.924371355424511
2.60208153974159
0.317075912122638
0.321251368953671
0.327213689802882
0.336006774367241
0.34918045970216
0.369382110557468
0.40203960947215
0.459947225012892
0.578809990012649
0.899628605398185
2.59154559625559
0.314773532206846
0.317283232711643
0.320862127853367
0.326222967764094
0.334358156553746
0.346726046111953
0.365856191845492
0.396903567753566
0.451924648599567
0.564608185345506
0.871558129786263
2.19513152157042
0.313591813500979
0.31494363085481
0.316892739340393
0.31995612079039
0.324824854129033
0.332400483081296
0.344027897175157
0.362074580488552
0.391337867426936
0.44298019250609
0.548264121590604
0.818227254835672
2.19485284636983
0.313191423244061
0.313738422605746
0.314563002826862
0.316064268107478
0.318759658610307
0.323258703253696
0.330355718080026
0.341282652101689
0.358220074792913
0.385548354047125
0.433432827429849
0.529796249740362
0.794197769858271
2.19192752941128
0.313328704945757
0.313323620719337
0.313374227785294
0.31380817186949
0.315039788567442
0.317515056508306
0.321744974562344
0.328438543966459
0.338724024064584
0.354580448403851
0.379955826850188
0.424152460914581
0.515395426908346
0.772988012962067
2.18619390161759
0.31382530742426
0.313452373347069
0.312978521731917
0.312688111246651
0.312933696593844
0.314066182144847
0.316442073593634
0.320506557882029
0.326911588481896
0.336690681319058
0.351632065776756
0.375344511068516
0.416829614081913
0.503422443709822
0.752038418667653
2.18721857164121
0.314549269425533
0.313943501745384
0.313125537986547
0.312353851893705
0.311944065716479
0.312190760141633
0.313363404220152
0.315768122413494
0.319823494633653
0.326147590126287
0.335704081081737
0.350156635930024
0.372947963662454
0.412615447015761
0.494783768142525
0.735342496280891
2.21610688980994
0.315400482184277
0.314658388646133
0.31362740711186
0.312549795473345
0.311718477102853
0.311394385361968
0.31179740397325
0.313159401517068
0.315782077206545
0.320089788768793
0.326702931390889
0.336584003957464
0.351406326370554
0.374569707724146
0.414117209998028
0.493991017512242
0.728799612591988
2.2870039387159
2.96694093326646
1.02903363076263
2.94690588599243
0.635836355640798
1.02183199516163
2.91611128703649
0.487675234884504
0.634200250739317
1.00811159614202
2.88016836656821
0.415427211127545
0.487846041731028
0.628625777928763
0.994215579496418
2.84798648132987
0.375282241676288
0.416176078477485
0.485571917457706
0.621688911902804
0.982821932766406
2.81609764442072
0.351247485413284
0.376128087662428
0.415258641254495
0.481788848879195
0.614808737379616
0.972166442018553
2.7768408721171
0.336219920097928
0.351988836619495
0.375736523100425
0.413008121548777
0.477229177454226
0.607749488052407
0.959449502060285
2.72649454347579
0.326622529733608
0.336804613103634
0.351740953458478
0.374227217536429
0.40981058280123
0.472064144956927
0.599621378305307
0.943093079799474
2.66517237583681
0.320492525229806
0.327067557895896
0.336550346304036
0.350571192294888
0.371841009510569
0.405918182314821
0.466126888195771
0.589782461446589
0.922680305503733
2.59745197923811
0.316674499585172
0.320832841459976
0.326772628407974
0.335537360952862
0.348676257203491
0.368834344016116
0.401432515108379
0.459247032318662
0.577935015184255
0.898360599552037
2.58796930689289
0.314442933740939
0.316941658457247
0.320505973739498
0.325848614726274
0.333962041317467
0.346304077043049
0.365402153156217
0.396405717252249
0.451359712184218
0.563937349086765
0.870614975837952
2.19512552922416
0.313315399057081
0.31466029396435
0.316600063330213
0.319651788580784
0.324506753274892
0.332066468799037
0.343675168791684
0.361698562640116
0.390930469783525
0.442529060231759
0.547750349986584
0.817741476996438
2.19485588205261
0.312956352568884
0.313499192899083
0.314318049646456
0.315812130960415
0.318499052874294
0.322988401345113
0.33007423449147
0.340987748910365
0.357908069627273
0.385213660618787
0.433069409518845
0.529411417834012
0.793807505951427
2.1919287875397
0.313125025805844
0.313117754395487
0.313165289644698
0.313595303411905
0.314822209834814
0.317292043930379
0.321515691697104
0.3282017255393
0.338477498545856
0.354320533773095
0.379677038580019
0.42384628809429
0.515029973291205
0.77241568090727
2.18619245461413
0.313645249258629
0.313271751508637
0.312797023528689
0.312505241879531
0.312748920960788
0.313879051363264
0.31625215900555
0.320313223927245
0.326713612728382
0.336485641155742
0.351415334825155
0.375106725368071
0.41654122510469
0.502945851234792
0.750583331784842
2.18722093687263
0.314386823518291
0.313782555979619
0.312966018918125
0.312195145304219
0.311785569618315
0.312032145244074
0.313204526076063
0.315608815535294
0.31966330318525
0.325985338476225
0.335537080179378
0.349979059015791
0.372745124518277
0.412332669815189
0.494141677906484
0.732480052128071
2.21610874385065
0.315253140607646
0.314517541653845
0.313490814401692
0.312415531540572
0.311585694741543
0.311262964732819
0.311667504535845
0.313031214763499
0.315655676073376
0.319964928020277
0.32657864995992
0.336457902016695
0.351273086651829
0.374416754086387
0.413912306487479
0.493652020237323
0.728473674620469
2.28699341886412
0.316170556328862
0.315373650958163
0.314232458075264
0.312979938643517
0.311896883378491
0.311225423827157
0.311157900397936
0.31188725792399
0.313658035457205
0.316805879678133
0.321806123588291
0.32936079781619
0.340581588977573
0.357413525349585
0.383677531925204
0.428007678636707
0.515191647713214
0.761397441885664
2.38169009876714
2.93637290666252
1.02053347568582
2.91949167374853
0.631283185745319
1.01412910667885
2.8929664292708
0.484744699159801
0.630250597231124
1.00146508502786
2.86074953918387
0.413360434598359
0.485325256398265
0.625251185765704
0.988579410663467
2.83172294431271
0.373748590659177
0.414405329160393
0.483425411886993
0.618835271524427
0.97807048557351
2.8025259184666
0.350073686641213
0.374818640851902
0.413753484653725
0.479978017533532
0.612424556299556
0.968280798380261
2.76558681671397
0.335302939749088
0.350989739162917
0.374625061356549
0.411738372470589
0.475714598578313
0.605776081233868
0.956283659324524
2.7172608712908
0.325895554615281
0.336026091070895
0.350893948947395
0.373289344477411
0.408747366781385
0.470807815759893
0.598005986554495
0.940557295664731
2.65769410435124
0.319909329505019
0.326451258337176
0.335890686334463
0.349855986078836
0.371054401044374
0.405034249842951
0.465093267924812
0.588475110133748
0.92069698508757
2.59146361113578
0.316201582186417
0.320338394955822
0.326250037897272
0.334979432893546
0.348074884391806
0.368178351144705
0.400702106304064
0.458401468173061
0.576882349247472
0.896840455087682
2.58280985209706
0.314055175933494
0.316539859500143
0.320085659446401
0.325405259782745
0.33349114055937
0.345800384266635
0.364857603320094
0.395805001780374
0.450672027291231
0.563110991766825
0.869502182776179
2.19512246750347
0.3129935453697
0.314329350864052
0.316256928914661
0.31929349169632
0.324130611027306
0.331669800092645
0.343254474615638
0.361247950135156
0.390438963592365
0.441979510668115
0.547121514631989
0.817137784493949
2.19485247127043
0.3126854116205
0.313222507276102
0.314033477567174
0.315517699074228
0.318193093099864
0.322669422309788
0.32974054378753
0.340636845246468
0.357535710302062
0.384813224924813
0.432634250890086
0.528954957700536
0.793355611071239
2.19192962612906
0.312893220062785
0.312882532582099
0.31292523840065
0.313349147932191
0.314568906171936
0.317030718373849
0.321245435382107
0.327921284929551
0.338184842533336
0.354012419483599
0.379349638862502
0.423498433721199
0.514658304991622
0.771978937985359
2.18619251269182
0.313443313796225
0.313068107153009
0.31259086107505
0.312295796968125
0.312535540248623
0.313661209496841
0.316029360445834
0.320084802687675
0.326478425059571
0.336241635952219
0.351159149694365
0.374833432436358
0.416237109995281
0.502556098645031
0.749810181411127
2.18721956662607
0.314207420672376
0.313602915215605
0.312785852271219
0.312013994336023
0.311602953985069
0.31184771264055
0.313018031681184
0.315419974087588
0.319471545018341
0.325789414020819
0.335334377252062
0.349764326704853
0.372505951170356
0.41202585483004
0.493566891965167
0.730395552062267
2.21611060402013
0.315090524538567
0.314356673548319
0.313331610193512
0.312257375285974
0.311427993511388
0.311105419951441
0.311510046640165
0.312873838855076
0.315498251087182
0.319806910353359
0.326418536741098
0.336292087591829
0.351093220937152
0.37419956793334
0.413573386598211
0.492766543137852
0.724442189023695
2.2869949506994
0.31602237653961
0.315232180394057
0.314095422318803
0.312845385199622
0.311763946185462
0.311093975957107
0.311028113286407
0.311759367643837
0.31353222012821
0.31668211463275
0.321683871708634
0.329238284201255
0.340454431952591
0.357270770522212
0.383487769419351
0.427667199528692
0.514321831907276
0.759546378727339
2.38167839879971
0.316949308669602
0.31615285626194
0.314973951956937
0.313640496077879
0.312427076584318
0.311565778255441
0.311234392285682
0.311606821476318
0.31290226547788
0.315420529078005
0.319583712201095
0.326009172743728
0.335653975123777
0.3501209543681
0.372352408533447
0.408334767958203
0.47191350364684
0.603333069530273
1.01394084030185
3.68517097144455
1.01106850241399
2.88848190412443
0.626114637125592
1.00571616894551
2.86568607943032
0.481378259014154
0.625739250963348
0.993881177092386
2.83777524082573
0.410971607407229
0.482412321997871
0.621359182413989
0.982040250360486
2.81242946576655
0.37196648590651
0.412344997284164
0.480926543180321
0.615511156720778
0.972508973676253
2.78639728662865
0.348703596117868
0.373287088510754
0.411990306948002
0.47785298861681
0.609611202452229
0.963619369818794
2.75223763065353
0.334228518805397
0.349816377809456
0.373317141189499
0.410241266894205
0.473923800481187
0.603429130417294
0.952482860013186
2.70631140039276
0.325041212314934
0.335108934132477
0.349893883242249
0.372179535885056
0.407486027385391
0.46931196540642
0.596070900554261
0.93752625990707
2.64883107380888
0.319222730646597
0.325723865573423
0.33511023304564
0.349007723824745
0.370118899643408
0.403979622244216
0.463855429437818
0.58690550392555
0.918160311454891
2.58433154881468
0.315644729013876
0.319754693271655
0.325631509141441
0.334317283414924
0.347359035216198
0.367394821684232
0.399826575136332
0.457386247423543
0.57563023913243
0.894458355778987
2.57569430511492
0.313599499528579
0.316066421064562
0.319588996141178
0.324879779145853
0.332931173370068
0.345199227995906
0.364205012013118
0.395082226543152
0.449843938032646
0.56212219565152
0.867712725442776
2.19511687630462
0.312617020561265
0.313941108500427
0.315853099237125
0.318870336176543
0.323684717078282
0.33119772124994
0.342751678992473
0.360706798759369
0.389845290859691
0.441311585653784
0.546363210110992
0.816434546656279
2.19484997655282
0.312370775566002
0.312900236035387
0.313700798247844
0.315172042976896
0.317832295566223
0.322291578134862
0.329343530353008
0.340217514167968
0.357088568661691
0.384329471573729
0.432105517969257