/*--------------------------------*- C++ -*----------------------------------*\
  =========                 |
  \\      /  F ield         | OpenFOAM: The Open Source CFD Toolbox
   \\    /   O peration     | Website:  https://openfoam.org
    \\  /    A nd           | Version:  12
     \\/     M anipulation  |
\*---------------------------------------------------------------------------*/
/*   Windows 32 and 64 bit porting by blueCAPE: http://www.bluecape.com.pt   *\
|  Based on Windows porting (2.0.x v4) by Symscape: http://www.symscape.com   |
\*---------------------------------------------------------------------------*/
FoamFile
{
    format      ascii;
    class       volScalarField;
    location    "200";
    object      p;
}
// * * * * * * * * * * * * * * * * * * * * * * * * * * * * * * * * * * * * * //

dimensions      [0 2 -2 0 0 0 0];

internalField   nonuniform List<scalar> 
10068
(
83333.3294083197
83333.3295013429
83333.329408439
83333.3294082447
83333.3295958742
83333.3295014051
83333.3295010816
83333.3294072713
83333.3294081991
83333.3294078364
83333.3296919691
83333.3295960276
83333.3295954968
83333.3295003563
83333.3295010048
83333.3295004743
83333.3294036508
83333.329406863
83333.3294076859
83333.3294070326
83333.329789307
83333.3296921494
83333.3296916205
83333.329595154
83333.3295955936
83333.3295947967
83333.3294969724
83333.3294998434
83333.3295003237
83333.3294995182
83333.3293969872
83333.3294031399
83333.3294061868
83333.3294068119
83333.3294057921
83333.3298877196
83333.3297894784
83333.329789
83333.3296913618
83333.3296917533
83333.3296909484
83333.3295919701
83333.3295946672
83333.3295948624
83333.3295937566
83333.3294905809
83333.3294963367
83333.3294990615
83333.3294993179
83333.3294981624
83333.329387285
83333.3293964952
83333.3294023433
83333.3294051891
83333.3294055201
83333.3294040912
83333.3299871176
83333.3298878803
83333.3298874384
83333.3297887379
83333.3297891167
83333.3297883675
83333.3296883341
83333.3296909297
83333.3296910478
83333.3296899134
83333.3295858329
83333.3295913809
83333.3295938911
83333.3295937942
83333.3295923211
83333.3294812225
83333.3294899615
83333.3294954424
83333.3294979507
83333.329497919
83333.3294963725
83333.3293747338
83333.3293868379
83333.3293955995
83333.3294012213
83333.3294038157
83333.3294037717
83333.3294019391
83333.3300874425
83333.3299872678
83333.3299868504
83333.3298871805
83333.3298875373
83333.3298868319
83333.3297858533
83333.3297883377
83333.3297884401
83333.3297873564
83333.3296824498
83333.3296878167
83333.3296901959
83333.3296899855
83333.3296884676
83333.3295768098
83333.3295852616
83333.3295905155
83333.3295927446
83333.3295923357
83333.3295904589
83333.3294690899
83333.329480648
83333.3294889625
83333.3294942116
83333.3294964643
83333.3294960857
83333.3294941495
83333.3293595556
83333.3293743154
83333.3293859277
83333.3293943897
83333.3293997282
83333.329402004
83333.3294015746
83333.3293993663
83333.3301886505
83333.3300875827
83333.3300871819
83333.3299866105
83333.3299869347
83333.329986257
83333.32988443
83333.329886793
83333.3298868804
83333.3298858409
83333.329780222
83333.3297853742
83333.3297876299
83333.3297873981
83333.3297859221
83333.3296737649
83333.3296819492
83333.3296870076
83333.3296890701
83333.3296885175
83333.3296865848
83333.3295650948
83333.3295762812
83333.329584297
83333.3295892726
83333.3295912038
83333.3295904431
83333.3295881669
83333.3294544006
83333.3294685403
83333.3294796256
83333.3294876454
83333.3294926168
83333.3294945517
83333.3294938175
83333.3294915216
83333.3293419391
83333.3293591353
83333.3293734382
83333.3293846855
83333.3293928056
83333.3293978088
83333.3293997457
83333.3293989592
83333.3293964078
83333.3302907024
83333.33018878
83333.3301883904
83333.3300869714
83333.3300872516
83333.3300865903
83333.3299839934
83333.3299862264
83333.3299862882
83333.329985276
83333.3298790431
83333.3298839631
83333.3298860992
83333.3298858532
83333.3298844167
83333.3297718787
83333.329779758
83333.3297846005
83333.3297865301
83333.3297859327
83333.3297840361
83333.3296624689
83333.3296733041
83333.3296810456
83333.3296857977
83333.3296875258
83333.329686607
83333.3296842649
83333.3295509003
83333.3295645889
83333.3295752916
83333.3295829773
83333.3295876389
83333.3295892302
83333.3295881134
83333.3295854721
83333.3294373244
83333.3294538558
83333.3294675567
83333.3294782775
83333.3294859657
83333.3294906087
83333.3294922047
83333.3294911409
83333.3294885381
83333.3293221129
83333.3293415449
83333.3293583221
83333.3293722099
83333.3293830467
83333.3293907869
83333.329395443
83333.3293970708
83333.3293959585
83333.3293930741
83333.3303935611
83333.3302908215
83333.3302904371
83333.3301882181
83333.3301884453
83333.3301877902
83333.3300844939
83333.3300865853
83333.3300866084
83333.3300856077
83333.32997885
83333.3299835259
83333.3299855377
83333.3299852667
83333.3299838537
83333.3298710412
83333.3298785898
83333.3298832071
83333.3298850122
83333.3298843911
83333.3298825294
83333.3297610051
83333.3297714526
83333.3297788946
83333.3297834198
83333.3297849931
83333.3297840189
83333.3297817048
83333.3296487707
83333.3296620285
83333.3296723741
83333.3296797628
83333.3296841669
83333.3296855324
83333.3296842467
83333.3296815377
83333.3295343925
83333.3295503991
83333.3295636364
83333.3295739422
83333.3295812657
83333.3295855791
83333.3295868201
83333.3295853726
83333.3295824295
83333.3294181226
83333.3294368414
83333.3294529373
83333.3294662183
83333.3294765443
83333.3294838649
83333.3294881619
83333.3294894451
83333.3294880966
83333.3294852166
83333.3293002743
83333.3293217493
83333.3293407872
83333.3293571236
83333.3293705464
83333.3293809436
83333.3293883018
83333.3293926392
83333.329393995
83333.3293925586
83333.3293893123
83333.3304971925
83333.3303936752
83333.3303932864
83333.3302903145
83333.3302904822
83333.3302898199
83333.3301858859
83333.3301878285
83333.3301877992
83333.330186794
83333.3300796027
83333.3300840206
83333.3300858958
83333.3300855831
83333.3300841766
83333.3299711937
83333.3299783935
83333.3299827766
83333.3299844527
83333.3299838022
83333.32998196
83333.3298605935
83333.3298706242
83333.3298777476
83333.3298820416
83333.3298834778
83333.3298824696
83333.3298801872
83333.3297478038
83333.3297605977
83333.3297705618
83333.3297776418
83333.3297817972
83333.3297829949
83333.329781645
83333.3297789602
83333.3296328352
83333.3296483318
83333.3296611321
83333.3296710607
83333.3296780555
83333.3296820866
83333.3296830877
83333.3296814652
83333.3296784619
83333.3295158194
83333.3295339485
83333.3295495086
83333.3295622937
83333.329572178
83333.3295791167
83333.3295830706
83333.3295839875
83333.3295822652
83333.3295790461
83333.3293969745
83333.32941768
83333.3294359716
83333.3294516248
83333.3294644577
83333.3294743618
83333.3294813074
83333.3294852753
83333.3294862969
83333.3294846851
83333.3294814318
83333.3292765899
83333.3292999315
83333.3293210333
83333.32933962
83333.3293554562
83333.329368385
83333.3293783466
83333.3293853478
83333.329389402
83333.3293904868
83333.3293887594
83333.3293857314
83333.3306015618
83333.3304973092
83333.3304969048
83333.3303932321
83333.3303933283
83333.3303926447
83333.3302881447
83333.3302899222
83333.3302898232
83333.3302887981
83333.3301812701
83333.3301854157
83333.3301871332
83333.3301867588
83333.3301853405
83333.330072302
83333.3300791356
83333.3300832715
83333.3300848045
83333.3300841071
83333.3300822664
83333.329961178
83333.3299707711
83333.3299775607
83333.3299816154
83333.329982913
83333.3299818673
83333.3299796027
83333.3298478911
83333.3298601938
83333.3298697535
83333.3298765096
83333.3298804203
83333.3298814722
83333.3298800868
83333.3298774266
83333.3297324345
83333.3297473956
83333.329759737
83333.3297692762
83333.3297759419
83333.3297797058
83333.3297805289
83333.3297788373
83333.329775862
83333.3296148867
83333.3296324394
83333.3296474928
83333.3296598216
83333.3296692994
83333.3296758842
83333.3296795377
83333.3296802048
83333.3296783156
83333.3296750394
83333.3294953553
83333.3295154149
83333.329533105
83333.3295481875
83333.3295604995
83333.3295699486
83333.3295765013
83333.3295801114
83333.3295807627
83333.3295787974
83333.3295751681
83333.3293740336
83333.3293965528
83333.3294168493
83333.3294346846
83333.3294498557
83333.3294622153
83333.3294716959
83333.3294782803
83333.32948196
83333.3294827428
83333.329480844
83333.3294775684
83333.3292512098
83333.32927626
83333.329299248
83333.3293198987
83333.3293379645
83333.3293532661
83333.3293657061
83333.3293752542
83333.3293819298
83333.3293857146
83333.3293865726
83333.3293849882
83333.329382098
83333.3307066314
83333.3306016905
83333.3306012561
83333.3304969426
83333.33049695
83333.33049623
83333.3303912471
83333.3303928349
83333.3303926473
83333.3303915844
83333.3302838265
83333.3302876769
83333.3302892149
83333.330288756
83333.3302873064
83333.3301743419
83333.3301807889
83333.3301846591
83333.330186028
83333.3301852584
83333.330183398
83333.3300627284
83333.3300718653
83333.3300783048
83333.330082105
83333.3300832507
83333.3300821518
83333.3300798868
83333.3299489797
83333.3299607714
83333.3299699079
83333.3299763248
83333.3299799865
83333.3299808918
83333.3299794703
83333.3299768262
83333.3298330842
83333.3298474898
83333.3298593491
83333.3298684795
83333.3298748084
83333.3298783147
83333.329878988
83333.3298772587
83333.3298743091
83333.3297151059
83333.3297320617
83333.3297465874
83333.3297584497
83333.3297675193
83333.3297737547
83333.3297771269
83333.3297776083
83333.3297756514
83333.3297724122
83333.3295950974
83333.3296145265
83333.3296316454
83333.3296461991
83333.3296580265
83333.3296670456
83333.3296732265
83333.329676523
83333.3296769237
83333.3296748001
83333.3296711018
83333.3294731464
83333.3294949706
83333.3295146077
83333.3295318049
83333.3295463801
83333.3295582079
83333.3295672264
83333.3295734065
83333.3295767216
83333.3295771391
83333.3295748724
83333.3295711199
83333.329349442
83333.3293736231
83333.3293957518
83333.3294155898
83333.3294329212
83333.3294475802
83333.3294594674
83333.3294685386
83333.329474792
83333.3294782116
83333.3294787661
83333.329476852
83333.3294737268
83333.3292242733
83333.3292508905
83333.3292756051
83333.3292981501
83333.3293182714
83333.329335776
83333.3293505443
83333.3293625142
83333.3293716764
83333.3293780471
83333.3293816145
83333.3293825046
83333.329381117
83333.3293783931
83333.3308123576
83333.3307067806
83333.3307062997
83333.3306014143
83333.3306013158
83333.3306005379
83333.3304951635
83333.3304965362
83333.330496239
83333.330495117
83333.3303872484
83333.3303907744
83333.330392109
83333.3303915403
83333.3303900365
83333.330277293
83333.3302833277
83333.330286908
83333.3302880866
83333.3302872164
83333.330285312
83333.3301652256
83333.3301738854
83333.3301799541
83333.3301834779
83333.3301844491
83333.33018327
83333.3301809782
83333.3300510404
83333.3300623071
83333.3300710015
83333.3300770608
83333.3300804589
83333.3300812044
83333.3300797284
83333.3300770881
83333.3299347373
83333.3299485723
83333.3299599298
83333.3299686316
83333.3299746116
83333.3299778594
83333.3299783847
83333.3299766256
83333.329973706
83333.3298163734
83333.3298327174
83333.3298466924
83333.3298580682
83333.3298667167
83333.3298726015
83333.3298757075
83333.3298760357
83333.3298740425
83333.3298708406
83333.3296959842
83333.3297147651
83333.3297312944
83333.3297453114
83333.3297566539
83333.3297652455
83333.3297710614
83333.3297740667
83333.3297742771
83333.3297720886
83333.3297684157
83333.3295736078
83333.3295947552
83333.329613765
83333.329630368
83333.3296443852
83333.3296557064
83333.3296642799
83333.3296700753
83333.3296730709
83333.3296732395
83333.3296708047
83333.3296669405
83333.3294493283
83333.3294727718
83333.3294941901
83333.3295133299
83333.329529997
83333.3295440501
83333.3295554023
83333.3295640056
83333.3295698469
83333.3295729071
83333.3295730896
83333.3295707216
83333.3295670363
83333.3293233329
83333.3293490399
83333.3293728469
83333.3293945235
83333.3294138475
83333.3294306405
83333.3294447855
83333.3294562136
83333.3294648995
83333.3294708491
83333.3294740498
83333.3294745563
83333.3294727776
83333.3294698517
83333.3291959102
83333.3292239657
83333.3292502643
83333.3292745504
83333.3292965682
83333.3293161148
83333.3293330547
83333.3293473043
83333.3293588261
83333.3293676266
83333.3293737396
83333.3293772275
83333.3293782533
83333.3293771385
83333.3293748846
83333.3309186918
83333.3308125413
83333.33081199
83333.3307066156
83333.3307063821
83333.3307055247
83333.3305998677
83333.3306009961
83333.3306005647
83333.3305993561
83333.3304915125
83333.3304946846
83333.3304957854
83333.3304950794
83333.3304934937
83333.3303811362
83333.3303867283
83333.3303899897
83333.3303909455
83333.3303899437
83333.330387969
83333.3302686553
83333.330276812
83333.330282484
83333.330285703
83333.3302864706
83333.330285178
83333.3302828293
83333.3301540577
83333.3301647844
83333.3301730147
83333.3301786931
83333.3301818037
83333.3301823658
83333.330180805
83333.3301781326
83333.3300373736
83333.3300506249
83333.3300614596
83333.3300697116
83333.3300753248
83333.3300783005
83333.3300786641
83333.3300768652
83333.330073972
83333.3299186467
83333.3299343674
83333.3299477723
83333.3299586403
83333.3299668505
83333.3299723766
83333.3299752202
83333.3299754043
83333.3299734005
83333.3299702514
83333.3297979155
83333.329816036
83333.3298319555
83333.3298454164
83333.3298562602
83333.3298644171
83333.3298698719
83333.3298726063
83333.3298726613
83333.3298704465
83333.3298667755
83333.3296752035
83333.3296956591
83333.3297140258
83333.329730029
83333.3297434903
83333.3297543082
83333.3297624404
83333.3297678615
83333.3297705571
83333.3297705356
83333.3297680329
83333.3297641498
83333.329550547
83333.3295732743
83333.3295940168
83333.3296125045
83333.3296285471
83333.3296420206
83333.3296528536
83333.3296610024
83333.3296664515
83333.3296691922
83333.3296691141
83333.3296665449
83333.3296626649
83333.3294240282
83333.3294489609
83333.3294720129
83333.3294929381
83333.329511536
83333.3295276545
83333.329541193
83333.3295520861
83333.3295603
83333.3295658378
83333.3295686743
83333.3295687608
83333.3295664448
83333.329562888
83333.3292958303
83333.32932294
83333.3293482883
83333.3293716559
83333.329392819
83333.3294115901
83333.3294278391
83333.3294414808
83333.3294524688
83333.3294607958
83333.3294664844
83333.3294695723
83333.3294701405
83333.3294686045
83333.3294661332
83333.3291662398
83333.3291956163
83333.3292233708
83333.3292492605
83333.329273031
83333.3292944723
83333.3293134364
83333.3293298224
83333.3293435721
83333.329354671
83333.329363152
83333.3293690885
83333.3293725943
83333.3293738915
83333.3293733016
83333.3293718453
83333.3310255574
83333.3309189371
83333.330918272
83333.3308125161
83333.3308121082
83333.3308111423
83333.3307053374
83333.3307061823
83333.3307055783
83333.3307042546
83333.3305965903
83333.3305993829
83333.3306002128
83333.330599337
83333.3305976358
83333.3304858534
83333.3304909704
83333.3304938784
83333.3304945736
83333.330493406
83333.3304913291
83333.3303730035
83333.3303806271
83333.3303858712
83333.3303887497
83333.3303892767
83333.3303878326
83333.3303854002
83333.330258032
83333.3302681892
83333.3302759289
83333.3302811966
83333.3302839885
83333.3302843363
83333.330282652
83333.3302799115
83333.3301409846
83333.3301536365
83333.330163924
83333.3301717014
83333.3301769223
83333.3301796018
83333.3301797785
83333.3301779041
83333.3301749837
83333.3300219109
83333.3300369956
83333.3300498114
83333.3300601491
83333.3300678999
83333.3300730508
83333.3300756208
83333.3300756528
83333.330073646
83333.3300705543
83333.3299008528
83333.329918304
83333.3299335963
83333.3299464802
83333.3299568062
83333.3299645149
83333.3299696055
83333.3299720797
83333.3299720078
83333.3299698132
83333.3299660991
83333.329777837
83333.3297975913
83333.3298152972
83333.3298306832
83333.3298435755
83333.3298538812
83333.3298615693
83333.329866626
83333.3298690444
83333.3298688784
83333.3298663365
83333.3298624044
83333.3296528866
83333.3296748852
83333.3296949387
83333.3297127711
83333.3297281934
83333.3297410924
83333.3297514097
83333.3297591099
83333.3297641781
83333.3297666139
83333.3297663434
83333.3297636931
83333.329759755
83333.3295260364
83333.3295502194
83333.3295725541
83333.3295927763
83333.32961069
83333.3296261619
83333.3296391096
83333.3296494782
83333.3296572329
83333.3296623773
83333.329664886
83333.3296646902
83333.3296621078
83333.3296583231
83333.3293973644
83333.3294236685
83333.3294482233
83333.3294707923
83333.3294911739
83333.3295092078
83333.3295247825
83333.3295378218
83333.3295482775
83333.3295561335
83333.3295614067
83333.3295641055
83333.3295641961
83333.3295620424
83333.3295587882
83333.3292670487
83333.3292954487
83333.3293222153
83333.3293471415
83333.3293700052
83333.3293906124
83333.3294088219
83333.3294245347
83333.3294376897
83333.3294482621
83333.3294562694
83333.3294617681
83333.3294648271
83333.3294655879
83333.3294644938
83333.3294627905
83333.3291353717
83333.3291659615
83333.3291950563
83333.3292224257
83333.3292478191
83333.329271022
83333.3292918756
83333.3293102648
83333.3293261139
83333.3293393898
83333.3293501075
83333.329358328
83333.3293641764
83333.3293678219
83333.3293696436
83333.3293698348
83333.3293695242
83333.3311329025
83333.3310259262
83333.3310250608
83333.3309190875
83333.3309184652
83333.330917336
83333.330811552
83333.3308120664
83333.33081124
83333.3308097643
83333.3307024751
83333.3307048473
83333.3307053581
83333.3307042676
83333.3307024096
83333.3305914297
83333.3305960416
83333.3305985499
83333.3305989385
83333.3305975642
83333.3305953475
83333.3304782517
83333.3304853159
83333.3304900955
83333.3304925909
83333.3304928316
83333.3304911968
83333.3304886462
83333.3303629505
83333.3303725099
83333.3303797268
83333.3303845474
83333.3303869804
83333.3303870723
83333.3303852216
83333.3303823866
83333.3302455672
83333.3302575938
83333.3302673102
83333.3302745824
83333.3302793784
83333.3302817285
83333.3302816861
83333.3302796833
83333.3302766937
83333.3301261628
83333.3301405949
83333.3301528004
83333.3301625816
83333.3301698461
83333.3301745961
83333.3301768677
83333.3301767191
83333.3301746581
83333.3301715371
83333.330004786
83333.3300215572
83333.330036205
83333.3300484896
83333.3300582749
83333.3300655156
83333.3300702284
83333.3300724373
83333.3300722484
83333.3300701158
83333.3300662597
83333.329881474
83333.3299005207
83333.3299175508
83333.3299323
83333.329944604
83333.3299543817
83333.3299616161
83333.3299663108
83333.3299684786
83333.3299682247
83333.3299656436
83333.3299616893
83333.3297562542
83333.3297775174
83333.3297968667
83333.3298140285
83333.3298288189
83333.329841135
83333.3298509312
83333.3298581844
83333.3298628864
83333.3298650454
83333.3298646353
83333.3298619237
83333.3298579532
83333.3296291487
83333.3296525725
83333.3296741791
83333.3296936976
83333.3297109335
83333.3297257655
83333.3297381269
83333.3297479747
83333.3297552784
83333.3297600388
83333.3297622389
83333.3297618494
83333.3297591428
83333.3297552758
83333.3295001888
83333.3295257154
83333.3295495171
83333.3295713389
83333.3295909832
83333.3296083094
83333.3296232267
83333.3296356727
83333.3296456041
83333.3296530015
83333.3296578781
83333.3296602367
83333.3296600153
83333.3296575324
83333.3296539589
83333.3293694461
83333.3293970144
83333.3294229543
83333.3294470407
83333.3294690733
83333.3294888863
83333.3295063585
83333.3295214032
83333.3295339632
83333.3295440084
83333.3295515452
83333.3295566178
83333.3295592523
83333.3295594555
83333.3295576161
83333.329554934
83333.3292370931
83333.3292666801
83333.3292947539
83333.3293211199
83333.3293455595
83333.3293678746
83333.3293879143
83333.3294055675
83333.3294207596
83333.3294334531
83333.3294436497
83333.3294513922
83333.3294567778
83333.3294599127
83333.329461054
83333.3294606433
83333.3294600204
83333.3291034068
83333.3291351104
83333.3291654395
83333.3291941765
83333.3292210755
83333.3292459194
83333.3292685408
83333.329288812
83333.3293066424
83333.3293219817
83333.3293348251
83333.3293452176
83333.3293532607
83333.329359131
83333.3293631272
83333.3293657304
83333.3293669972
83333.3293678901
83333.3312411017
83333.3311334247
83333.3311323448
83333.3310263018
83333.331025405
83333.3310240296
83333.330918486
83333.3309186303
83333.3309175292
83333.330915825
83333.3308091545
83333.3308110606
83333.330811196
83333.3308098177
83333.3308077561
83333.3306978487
83333.3307019247
83333.3307039833
83333.3307040054
83333.3307023688
83333.3306999603
83333.3305844011
83333.3305908691
83333.3305951415
83333.3305972031
83333.3305971011
83333.3305952302
83333.3305925227
83333.3304688073
83333.3304777408
83333.3304843942
83333.3304887243
83333.3304907483
83333.3304905316
83333.3304884721
83333.3304855085
83333.33035112
83333.3303624938
83333.3303716066
83333.3303783369
83333.3303826665
83333.3303846433
83333.3303843391
83333.3303821556
83333.330379073
83333.3302314039
83333.330245162
83333.3302567309
83333.330265925
83333.3302726695
83333.3302769839
83333.3302789228
83333.3302785549
83333.3302763749
83333.3302732261
83333.3301097172
83333.3301257937
83333.3301397765
83333.3301514364
83333.3301606528
83333.3301673979
83333.3301717074
83333.3301736256
83333.3301732828
83333.3301711612
83333.3301670491
83333.3299861093
83333.3300044401
83333.3300207788
83333.3300348701
83333.3300465624
83333.3300557901
83333.3300625532
83333.3300668764
83333.3300688061
83333.3300685105
83333.3300658681
83333.3300618859
83333.3298606199
83333.329881144
83333.3298997765
83333.3299162501
83333.3299303901
83333.3299421067
83333.329951369
83333.3299581703
83333.3299625192
83333.3299644487
83333.3299639346
83333.3299611787
83333.3299571329
83333.3297332761
83333.3297559367
83333.3297768026
83333.3297956044
83333.3298121525
83333.3298263373
83333.3298381068
83333.3298474312
83333.3298542901
83333.3298586862
83333.3298606112
83333.329860081
83333.3298572888
83333.3298533682
83333.3296040972
83333.3296288396
83333.3296518803
83333.3296729565
83333.329691872
83333.3297084992
83333.3297227646
83333.3297346208
83333.3297440325
83333.3297509806
83333.3297554717
83333.3297575232
83333.3297570773
83333.3297544329
83333.3297507564
83333.3294731083
83333.329499876
83333.329525033
83333.3295483337
83333.3295695819
83333.3295886321
83333.3296053852
83333.3296197712
83333.3296317421
83333.3296412677
83333.329648347
83333.3296530195
83333.3296552966
83333.3296551401
83333.3296528853
83333.3296497667
83333.3293403743
83333.3293691078
83333.3293963267
83333.3294218167
83333.329445381
83333.3294668501
83333.3294860946
83333.3295030174
83333.3295175517
83333.3295296602
83333.3295393349
83333.3295466057
83333.3295515423
83333.3295541983
83333.329554653
83333.3295533556
83333.3295515204
83333.3292060607
83333.3292367389
83333.3292660185
83333.3292937165
83333.3293196193
83333.3293435263
83333.3293652788
83333.3293847548
83333.329401867
83333.3294165651
83333.3294288371
83333.3294387112
83333.3294462651
83333.3294516367
83333.3294550119
83333.3294567557
83333.3294573234
83333.3294577821
83333.3290704393
83333.3291031636
83333.3291346291
83333.3291646307
83333.3291929283
83333.3292193034
83333.3292435816
83333.329265625
83333.3292853295
83333.3293026298
83333.3293175036
83333.3293299768
83333.329340127
83333.329348108
83333.3293541853
83333.3293588107
83333.3293624741
83333.3293650265
83333.3293662781
83333.3313498677
83333.3312415937
83333.3312406425
83333.3311340261
83333.3311328687
83333.3311312538
83333.3310260914
83333.3310258478
83333.3310244019
83333.3310223762
83333.3309166058
83333.3309180075
83333.3309177208
83333.3309159881
83333.3309136132
83333.3308051112
83333.330808611
83333.3308101661
83333.3308097469
83333.3308077561
83333.3308050804
83333.3306914445
83333.3306972844
83333.3307009981
83333.3307025651
83333.3307020458
83333.3306998709
83333.3306969512
83333.3305756034
83333.3305838725
83333.330589922
83333.3305937112
83333.3305952653
83333.3305946766
83333.3305923626
83333.3305892377
83333.3304576442
83333.3304683339
83333.3304768055
83333.33048295
83333.330486763
83333.3304883102
83333.3304876875
83333.3304852772
83333.3304820768
83333.3303376383
83333.3303506962
83333.3303615972
83333.3303701676
83333.3303763505
83333.3303801843
83333.3303817439
83333.3303811076
83333.3303787493
83333.3303756246
83333.3302156529
83333.3302310153
83333.3302443084
83333.3302553131
83333.3302639261
83333.3302701398
83333.3302740101
83333.3302755982
83333.3302750448
83333.3302728623
83333.3302688218
83333.3300917498
83333.3301093524
83333.330124981
83333.3301383898
83333.3301494419
83333.3301580904
83333.330164355
83333.330168281
83333.330169946
83333.33016957
83333.330166816
83333.3301628289
83333.329965983
83333.3299857627
83333.330003665
83333.3300194306
83333.3300328974
83333.3300439914
83333.3300526994
83333.3300590345
83333.330063031
83333.3300647704
83333.33006418
83333.3300613609
83333.3300571844
83333.3298383931
83333.3298602895
83333.3298804045
83333.329898474
83333.3299143174
83333.3299278388
83333.3299390022
83333.3299477939
83333.3299542095
83333.3299582672
83333.329959962
83333.3299593121
83333.3299564246
83333.3299524356
83333.3297090045
83333.3297329615
83333.3297552313
83333.3297755513
83333.32979373
83333.3298096521
83333.3298232605
83333.3298345227
83333.3298434154
83333.329849925
83333.3298540542
83333.3298558362
83333.3298552161
83333.3298524667
83333.3298487384
83333.3295778311
83333.3296037947
83333.3296281634
83333.3296506826
83333.3296711572
83333.3296894552
83333.3297054962
83333.3297192273
83333.3297306118
83333.3297396239
83333.3297462576
83333.3297505471
83333.3297525061
83333.3297520936
83333.3297496362
83333.3297463812
83333.329444891
83333.3294728058
83333.3294992168
83333.329523888
83333.3295466265
83333.3295672833
83333.3295857523
83333.329601955
83333.3296158367
83333.3296273647
83333.3296365261
83333.3296433427
83333.329647871
83333.3296501421
83333.3296501621
83333.3296483645
83333.3296459984
83333.3293102417
83333.3293400489
83333.3293684497
83333.3293952404
83333.3294202287
83333.329443243
83333.3294641471
83333.3294828344
83333.3294992279
83333.3295132816
83333.3295249797
83333.3295343368
83333.3295414104
83333.3295462926
83333.3295491058
83333.3295500013
83333.3295495203
83333.3295486322
83333.3291740418
83333.3292057218
83333.329236113
83333.3292650443
83333.3292923075
83333.3293177009
83333.3293410597
83333.3293622523
83333.3293811801
83333.3293977803
83333.3294120284
83333.3294239391
83333.3294335693
83333.329441038
83333.3294465577
83333.329450386
83333.3294530166
83333.3294548598
83333.3294556601
83333.329036558
83333.3290702146
83333.3291027246
83333.3291338952
83333.3291634926
83333.3291912978
83333.329217131
83333.3292408456
83333.3292623265
83333.3292814949
83333.3292983132
83333.3293127889
83333.3293249828
83333.3293350183
83333.3293431337
83333.3293497115
83333.3293553584
83333.3293602528
83333.3293638252
83333.3293647992
83333.3313500691
83333.3313493238
83333.3312422364
83333.3312411055
83333.3312396035
83333.3311341898
83333.33113359
83333.3311318098
83333.331129489
83333.3310247572
83333.3310256491
83333.3310249179
83333.3310227241
83333.3310199361
83333.3309131871
83333.3309160871
83333.3309170946
83333.3309161684
83333.3309137248
83333.3309106455
83333.3307993757
83333.3308045517
83333.3308076616
83333.3308086656
83333.3308076301
83333.330805043
83333.3308017847
83333.3306833391
83333.3306909057
83333.3306963072
83333.3306994981
83333.330700507
83333.3306994591
83333.3306968147
83333.3306934734
83333.3305651446
83333.3305751127
83333.3305829022
83333.3305884123
83333.3305916495
83333.3305926985
83333.3305916902
83333.3305890124
83333.3305856962
83333.330444873
83333.3304571995
83333.3304673964
83333.3304753004
83333.330480872
83333.330484169
83333.330485289
83333.330484324
83333.3304817336
83333.3304786396
83333.3303226025
83333.3303372268
83333.3303498
83333.3303601132
83333.3303680813
83333.3303737183
83333.330377102
83333.3303783072
83333.330377476
83333.3303751718
83333.3303715087
83333.3301984074
83333.3302152649
83333.3302301601
83333.3302428566
83333.3302532341
83333.3302612664
83333.3302669952
83333.3302704847
83333.3302718304
83333.3302712797
83333.3302685482
83333.3302645417
83333.3300723557
83333.3300913812
83333.3301085366
83333.330123571
83333.3301363364
83333.3301467778
83333.3301549023
83333.3301607441
83333.3301643635
83333.3301658889
83333.330165204
83333.3301623216
83333.3301580432
83333.3299445036
83333.3299656334
83333.3299849866
83333.3300023058
83333.3300174226
83333.3300302574
83333.3300407926
83333.3300490334
83333.3300549971
83333.330058732
83333.3300602377
83333.3300594701
83333.3300564568
83333.3300523743
83333.3298148896
83333.3298380632
83333.3298595544
83333.3298791047
83333.3298965313
83333.329911733
83333.3299246699
83333.3299353264
83333.3299436947
83333.3299497749
83333.3299535732
83333.3299551212
83333.3299543414
83333.3299514991
83333.3299477167
83333.3296835332
83333.3297086945
83333.3297322676
83333.3297539972
83333.3297736923
83333.3297912335
83333.329806558
83333.3298196297
83333.3298304254
83333.3298389282
83333.3298451316
83333.3298490659
83333.329850746
83333.3298501383
83333.3298475686
83333.3298442438
83333.3295504418
83333.3295775371
83333.3296031376
83333.3296269972
83333.3296489229
83333.3296687799
83333.3296864818
83333.329701969
83333.3297152004
83333.3297261512
83333.3297348076
83333.3297411861
83333.3297453319
83333.3297472719
83333.3297470033
83333.3297449487
83333.3297424162
83333.3294156257
83333.3294446001
83333.3294721726
83333.3294981165
83333.3295222426
83333.3295444003
83333.3295644774
83333.3295823877
83333.3295980681
83333.3296114806
83333.3296226097
83333.3296314621
83333.3296380813
83333.3296425427
83333.3296449244
83333.3296453095
83333.3296442513
83333.3296428192
83333.3292791351
83333.3293099303
83333.3293394229
83333.3293674199
83333.3293937339
83333.3294181927
83333.3294406543
83333.3294610042
83333.3294791555
83333.3294950526
83333.3295086715
83333.3295200186
83333.3295291336