/*--------------------------------*- C++ -*----------------------------------*\
  =========                 |
  \\      /  F ield         | OpenFOAM: The Open Source CFD Toolbox
   \\    /   O peration     | Website:  https://openfoam.org
    \\  /    A nd           | Version:  12
     \\/     M anipulation  |
\*---------------------------------------------------------------------------*/
/*   Windows 32 and 64 bit porting by blueCAPE: http://www.bluecape.com.pt   *\
|  Based on Windows porting (2.0.x v4) by Symscape: http://www.symscape.com   |
\*---------------------------------------------------------------------------*/
FoamFile
{
    format      ascii;
    class       surfaceScalarField;
    location    "200";
    object      phi;
}
// * * * * * * * * * * * * * * * * * * * * * * * * * * * * * * * * * * * * * //

dimensions      [0 3 -1 0 0 0 0];

internalField   nonuniform List<scalar> 
28770
(
-1.58903400504548e-05
1.30712922824518e-07
4.622901577338e-08
-1.60919627671699e-05
1.20401983428563e-07
8.1217039172684e-08
-4.11130764619509e-06
1.72816311376481e-07
1.44433920975217e-08
-1.84915713421174e-05
1.61647519674083e-07
1.25996288823184e-07
-1.62977238970236e-05
1.0115860025496e-07
1.04598327771416e-07
-4.17580481182898e-06
1.58925824200307e-07
2.59679676127059e-08
-1.87297741624687e-05
1.50952646314434e-07
1.68450637200229e-07
-2.46150595933873e-06
2.04883805722602e-07
1.06766592230203e-08
-5.49753359872425e-06
2.13557608480758e-07
3.23687265704531e-08
-2.06358983854351e-05
1.96107201509782e-07
2.18630199756227e-07
-1.64920765788978e-05
9.13830898998305e-08
1.02965084875653e-07
-4.24949212294073e-06
1.43992141599557e-07
3.08481018242874e-08
-1.89405368397428e-05
1.20263151846439e-07
1.95082833911404e-07
-2.50974330018859e-06
1.91302349643898e-07
1.58599261256124e-08
-5.56642677493965e-06
1.97206967218234e-07
4.85987904665366e-08
-2.09072631776325e-05
1.84795165507732e-07
2.55005342421389e-07
-2.02687516776731e-06
2.37640230866951e-07
7.95377637276569e-09
-3.2654557533948e-06
2.53038592890172e-07
2.109347999682e-08
-6.38791787301622e-06
2.54321567360183e-07
5.21986676813867e-08
-2.30045580536687e-05
2.30659956841547e-07
3.17798877351774e-07
-1.66759961078944e-05
8.69660909195445e-08
9.69454901712742e-08
-4.32349348818696e-06
1.34041064856848e-07
3.13378291648914e-08
-1.91396648993404e-05
1.05370214771045e-07
1.96705553503185e-07
-2.56177597372283e-06
1.78353522581271e-07
1.76702698435593e-08
-5.65032240396593e-06
1.77065563766582e-07
5.79339096045068e-08
-2.11350748926313e-05
1.41603158883483e-07
2.81273092467632e-07
-2.07100829397682e-06
2.24692336987964e-07
1.07425672856098e-08
-3.31862449458825e-06
2.37192734197624e-07
2.90403255012485e-08
-6.45904137412158e-06
2.36126333126041e-07
6.83833275230464e-08
-2.33150657620976e-05
2.17948693864502e-07
3.47554897794556e-07
-1.86666401293198e-06
2.70738774601396e-07
7.51509975221253e-09
-2.6271939027926e-06
2.92844189160103e-07
1.62682404544212e-08
-3.85734628413949e-06
3.01905820542321e-07
2.89290547626815e-08
-7.36163454628056e-06
2.95614778380394e-07
7.55441972851432e-08
-2.47869535386387e-05
2.57248853627822e-07
4.2122264319556e-07
-1.68537966071734e-05
8.42647270092677e-08
9.35307814745316e-08
-4.39553496459361e-06
1.27528305900801e-07
3.14741310774218e-08
-1.93346218047036e-05
9.97401596200029e-08
1.92149538034452e-07
-2.6143560194899e-06
1.68074699795896e-07
1.85452150910995e-08
-5.73890422203631e-06
1.63695120275147e-07
6.15880251938506e-08
-2.13470087296786e-05
1.20000739318008e-07
2.88624364103124e-07
-2.11700252206549e-06
2.12218512793943e-07
1.21283841023202e-08
-3.37876731488846e-06
2.21039450372441e-07
3.38361707712283e-08
-6.54994698510033e-06
2.09558137530538e-07
8.08781812490639e-08
-2.3570189096635e-05
1.63994119142452e-07
3.72384659476001e-07
-1.90925083148963e-06
2.57613708174707e-07
9.66515560579652e-09
-2.67794699580825e-06
2.77039257103524e-07
2.16470966877973e-08
-3.91379444440234e-06
2.83021152424351e-07
3.85907796178003e-08
-7.44092636395558e-06
2.75045174080458e-07
9.0571160647083e-08
-2.51281758920994e-05
2.42538016789339e-07
4.4622398009273e-07
-1.79783479113851e-06
3.04365331973463e-07
6.89032532020386e-09
-2.34285582822105e-06
3.33177551481016e-07
1.44287806232285e-08
-3.09939317020777e-06
3.49306336072563e-07
2.32881467629247e-08
-4.42611503408335e-06
3.48457434202023e-07
3.79547482304838e-08
-8.0409838371709e-06
3.24577889241104e-07
1.0301211542691e-07
-2.57602265793915e-05
2.74381140969936e-07
5.26181708758078e-07
-1.70290840610536e-05
8.2207722965862e-08
9.3075481720934e-08
-4.46644004684401e-06
1.22815050071452e-07
3.23498282343294e-08
-1.95282102472567e-05
9.69473633564825e-08
1.90158717798319e-07
-2.66661899591179e-06
1.5992818911627e-07
1.98620355735332e-08
-5.82698555080836e-06
1.55306182760109e-07
6.39829647049374e-08
-2.15564910705369e-05
1.12152252126072e-07
2.8947059775102e-07
-2.16352599708902e-06
2.01271868493546e-07
1.33255067853861e-08
-3.44178377552837e-06
2.08027359114303e-07
3.72269714809287e-08
-6.64848043080939e-06
1.9177979415035e-07
8.83348234780607e-08
-2.3803093837998e-05
1.37289297636546e-07
3.84225548569463e-07
-1.95275361036914e-06
2.4494816580742e-07
1.07725048959492e-08
-2.73157199973205e-06
2.61798550047298e-07
2.49927561256239e-08
-3.9802771997152e-06
2.62986654004014e-07
4.68873705152669e-08
-7.54270874788461e-06
2.42081845270779e-07
1.04565463983281e-07
-2.54064538197658e-05
1.82338200863166e-07
4.68306654400122e-07
-1.83947051754094e-06
2.90582435431753e-07
8.66668172702832e-09
-2.39174289780241e-06
3.1693137436942e-07
1.86587097284295e-08
-3.15541593099226e-06
3.30329359340602e-07
3.03602017492445e-08
-4.48792836366251e-06
3.26751141000887e-07
4.86941091731058e-08
-8.12656142554161e-06
3.01579784251994e-07
1.17098183778097e-07
-2.61192664556102e-05
2.57323372076033e-07
5.47927293109095e-07
-1.77079873583233e-06
3.37959121267432e-07
6.64163138755069e-09
-2.20251464437269e-06
3.72344889791516e-07
1.42070183179439e-08
-2.73203419448423e-06
3.95427608043792e-07
2.187557749934e-08
-3.51871464959799e-06
4.00832260701301e-07
3.14659183732469e-08
-4.74640202715153e-06
3.77594164054012e-07
4.96747720125044e-08
-8.41397687325741e-06
3.40763528123534e-07
1.33748594698134e-07
-2.61300755296486e-05
2.84142632868535e-07
6.29537037884018e-07
-1.72044310089574e-05
8.05127891047036e-08
9.48336047792378e-08
-4.53730066943124e-06
1.18976322957825e-07
3.40884649800487e-08
-1.97221447253593e-05
9.48859139049337e-08
1.92115924268745e-07
-2.71876448831975e-06
1.53271701632651e-07
2.168785438882e-08
-5.91426864428101e-06
1.49411026204246e-07
6.71635420932142e-08
-2.17668817882116e-05
1.08856037521753e-07
2.91684274845981e-07
-2.21029172759191e-06
1.91808440441242e-07
1.48849156202746e-08
-3.50523781906038e-06
1.97760429700218e-07
4.08587036788542e-08
-6.74747492082721e-06
1.80972857775299e-07
9.41480962395503e-08
-2.40328193005535e-05
1.28721304506479e-07
3.90462588672336e-07
-1.99666879247538e-06
2.33312176509953e-07
1.18744449432541e-08
-2.78664958395471e-06
2.48401647735638e-07
2.80267002992383e-08
-4.05186244001487e-06
2.46950422256638e-07
5.3638792721799e-08
-7.65293486026619e-06
2.20230972841257e-07
1.15609436729183e-07
-2.56571825656765e-05
1.52142496247547e-07
4.82795603592683e-07
-1.88150804786311e-06
2.77345693495358e-07
9.63945069676618e-09
-2.44200963857292e-06
3.01467486527953e-07
2.13688878660325e-08
-3.21588998063092e-06
3.11860297377912e-07
3.65910150168107e-08
-4.56129415073355e-06
3.02775134916088e-07
5.95575094290086e-08
-8.2362236960613e-06
2.64319563639015e-07
1.3223651757661e-07
-2.64101880541881e-05
1.92047803597253e-07
5.67163718250929e-07
-1.81167136511205e-06
3.23278280942244e-07
8.17654466855137e-09
-2.24996020898122e-06
3.55301853573196e-07
1.77407381701446e-08
-2.78642409999299e-06
3.7590416168057e-07
2.74727657668774e-08
-3.58038580458102e-06
3.78984870005973e-07
3.97958628740576e-08
-4.81110065232893e-06
3.53728685330861e-07
6.12400303487387e-08
-8.5020253574006e-06
3.15326543098593e-07
1.4713575074745e-07
-2.64956684836441e-05
2.65273874155327e-07
6.48232298161811e-07
-1.77131453024115e-06
3.71051412376131e-07
6.78302040794765e-09
-2.13779387811598e-06
4.10043331807703e-07
1.49338097462759e-08
-2.54580932713688e-06
4.39684986228412e-07
2.27044333216707e-08
-3.06469204938551e-06
4.50922458599652e-07
3.099509515845e-08
-3.72238353643013e-06
4.30656020950815e-07
4.14405657719354e-08
-4.85957454254978e-06
3.90974165141552e-07
6.36152692186491e-08
-8.60451356577255e-06
3.49222087143156e-07
1.65459667096365e-07
-2.61978518975248e-05
2.9018400253243e-07
7.26633604423077e-07
-1.73815434956742e-05
7.86217549161722e-08
9.84903369958852e-08
-4.60907761929065e-06
1.15559648682283e-07
3.67283001151612e-08
-1.99175136078264e-05
9.23806622286471e-08
1.97814452387171e-07
-2.77130578654098e-06
1.47541093807298e-07
2.39760682558154e-08
-6.00152666299391e-06
1.44576295526727e-07
7.16503118384733e-08
-2.19791734484745e-05
1.06665906712528e-07
2.97728804363748e-07
-2.25740320528886e-06
1.83592616157783e-07
1.67899159424172e-08
-3.56868742570891e-06
1.89419421067288e-07
4.51272108500443e-08
-6.84603904969691e-06
1.738651875738e-07
1.00713131964989e-07
-2.42640954192594e-05
1.25321605972941e-07
3.97627441268213e-07
-2.04101799876815e-06
2.22801412130105e-07
1.33558095944279e-08
-2.84239135684817e-06
2.36747129505971e-07
3.1638252583629e-08
-4.12476426201235e-06
2.3447559279183e-07
6.02561351851078e-08
-7.76346199115808e-06
2.07663278243059e-07
1.25728856845638e-07
-2.59025282470381e-05
1.41739124564096e-07
4.94058764327205e-07
-1.92382736640771e-06
2.64957670693562e-07
1.06733955394139e-08
-2.49317160131284e-06
2.87345244151037e-07
2.40909861664427e-08
-3.27913287684936e-06
2.95762995795367e-07
4.24558045541165e-08
-4.64082888773859e-06
2.83769359384752e-07
6.96316312816304e-08
-8.35432636655246e-06
2.39785553493712e-07
1.46062562340847e-07
-2.66705249315476e-05
1.60449899766673e-07
5.82662810141051e-07
-1.85266036603024e-06
3.09278309843696e-07
9.05616374286659e-09
-2.298120385536e-06
3.39195155448717e-07
2.00707652723342e-08
-2.84305043746726e-06
3.57362812264595e-07
3.24913496964761e-08
-3.64698512163874e-06
3.57446994999317e-07
4.85158941672453e-08
-4.88833461623929e-06
3.26986853160938e-07
7.41210261641258e-08
-8.61568071231713e-06
2.74857669829611e-07
1.63070549354983e-07
-2.6790258752514e-05
1.97104323644871e-07
6.64635620443091e-07
-1.81158713833839e-06
3.554404239169e-07
8.11015751970228e-09
-2.18422637654357e-06
3.91979351796962e-07
1.79308925525562e-08
-2.59872741377831e-06
4.19205417641417e-07
2.73564423229728e-08
-3.12447202891507e-06
4.2852091659231e-07
3.77149608116836e-08
-3.78665952432782e-06
4.06935256741565e-07
5.08631310276741e-08
-4.92437529322379e-06
3.65546226567565e-07
7.58169552534772e-08
-8.69204287794003e-06
3.21623334757213e-07
1.78306609752379e-07
-2.65620414741102e-05
2.71208753808931e-07
7.41200682915565e-07
-1.79369477010568e-06
4.03194991564078e-07
7.43278132974162e-09
-2.11879619435254e-06
4.4640282528789e-07
1.59338833977455e-08
-2.46333755301876e-06
4.82211099016241e-07
2.44365318894598e-08
-2.83424975587391e-06
4.98780557622513e-07
3.29034766457155e-08
-3.21335592072645e-06
4.8177766099599e-07
4.14250600091076e-08
-3.76119754008501e-06
4.42285883486025e-07
5.2629701774812e-08
-4.87625227294353e-06
3.96487443717058e-07
7.82138535264577e-08
-8.72572463603455e-06
3.54992474293386e-07
1.95452519071066e-07
-2.61758012014526e-05
2.96354751083392e-07
8.06261099952579e-07
-1.756214120101e-05
7.63787108773633e-08
1.04218537033566e-07
-4.68279687418491e-06
1.12325666855802e-07
4.00124911554182e-08
-2.01156236446313e-05
8.947616510417e-08
2.07116716803991e-07
-2.82484166265936e-06
1.4238674864386e-07
2.67080950099421e-08
-6.08989270602374e-06
1.40078417622332e-07
7.73935399661558e-08
-2.21940979890382e-05
1.04545876755059e-07
3.08179921543352e-07
-2.30516844961554e-06
1.76314141799426e-07
1.89917994627656e-08
-3.63254587069441e-06
1.82247564530845e-07
5.01613961635453e-08
-6.94484603370723e-06
1.68255922892468e-07
1.08862065245387e-07
-2.44981339497808e-05
1.23162616093279e-07
4.08594010552532e-07
-2.0859499635765e-06
2.13360303147291e-07
1.51638226695483e-08
-2.89863181399589e-06
2.26568613699927e-07
3.58796572591842e-08
-4.19788681700341e-06
2.24519470862842e-07
6.75929924797295e-08
-7.87350153496999e-06
1.99584093115851e-07
1.36482907501962e-07
-2.61495750651093e-05
1.38239282605583e-07
5.06423470944028e-07
-1.96662146632535e-06
2.53531199056888e-07
1.20638606723493e-08
-2.54503665859409e-06
2.74532877017363e-07
2.7433929335661e-08
-3.34363692686343e-06
2.81859360064185e-07
4.87570016166164e-08
-4.72200693486023e-06
2.69326538052928e-07
7.97677637447347e-08
-8.4723577023148e-06
2.25829878625475e-07
1.59661159263455e-07
-2.6924270443802e-05
1.50643762775803e-07
5.97148259509944e-07
-1.89382747270439e-06
2.96100417813737e-07
1.00239868645003e-08
-2.34688943933841e-06
3.24261043466362e-07
2.25254159671727e-08
-2.90137408404031e-06
3.40601263325441e-07
3.75749742224135e-08
-3.71692241538746e-06
3.3883576495041e-07
5.73246565116506e-08
-4.97207649605119e-06
3.0604806439332e-07
8.71077591170661e-08
-8.7375129935063e-06
2.48916588982624e-07
1.79419530742755e-07
-2.70522206102917e-05
1.64426928034372e-07
6.80180060116345e-07
-1.8518161955133e-06
3.4059170624574e-07
8.91536407642297e-09
-2.23102138587866e-06
3.7505614899432e-07
1.99895208410836e-08
-2.65293817790574e-06
4.00035342415716e-07
3.16080234466375e-08
-3.1866117486283e-06
4.07204832864046e-07
4.4871250488047e-08
-3.85618231333049e-06
3.83381474264027e-07
6.16417645251431e-08
-5.00264713357398e-06
3.37013386964764e-07
9.02336775700323e-08
-8.80659635742504e-06
2.79591130403304e-07
1.95128623410587e-07
-2.68536782903798e-05
2.00780364111614e-07
7.55470166589792e-07
-1.83360043345018e-06
3.86513482645214e-07
8.83250675381093e-09
-2.16449207837725e-06
4.27209397458156e-07
1.85752669475049e-08
-2.5152785121223e-06
4.60597712721105e-07
2.84785912902798e-08
-2.89232357029335e-06
4.75395985116927e-07
3.85539016716296e-08
-3.27556281810057e-06
4.57647463464733e-07
4.92080270670523e-08
-3.82535272956095e-06
4.174948132202e-07
6.30670260919109e-08
-4.93965176036845e-06
3.69841553871479e-07
9.09943555347477e-08
-8.81091620904028e-06
3.26325837421468e-07
2.08371636772336e-07
-2.65301161024774e-05
2.77714280911293e-07
8.17783845581249e-07
-1.83333591766916e-06
4.34457437523065e-07
8.08756823369883e-09
-2.13085188345727e-06
4.8190091341589e-07
1.69931542932591e-08
-2.44068546304469e-06
5.23454031269552e-07
2.62436178214792e-08
-2.73469546900587e-06
5.45036679566288e-07
3.55343924267292e-08
-2.95933953586759e-06
5.30999195132047e-07
4.40741774145376e-08
-3.22511730897471e-06
4.92617354325677e-07
5.24463398735085e-08
-3.73064560161056e-06
4.45524872786824e-07
6.41313367764116e-08
-4.86901825449216e-06
3.99848536178012e-07
9.22362122552557e-08
-8.84030314137406e-06
3.6107763198425e-07
2.21666665761761e-07
-2.59333874184286e-05
3.01710378104179e-07
8.3746658861159e-07
-1.77482820299523e-05
7.41429076240115e-08
1.11997043947362e-07
-4.75938573196817e-06
1.09124973939622e-07
4.38414198703998e-08
-2.03184517347992e-05
8.69274133513364e-08
2.20112926182011e-07
-2.87998184339013e-06
1.37647745013316e-07
2.98176440380989e-08
-6.18049096839918e-06
1.35646738093604e-07
8.44352985209043e-08
-2.24127831597165e-05
1.0227634483222e-07
3.23520898034101e-07
-2.3539753175184e-06
1.69728492125425e-07
2.14647788262846e-08
-3.69751133661123e-06
1.75746040962986e-07
5.6004387881095e-08
-7.04493170294636e-06
1.63154886663035e-07
1.18868060513513e-07
-2.4735571515063e-05
1.21022047530428e-07
4.24591002841672e-07
-2.13171918281689e-06
2.04841990289359e-07
1.72409617224852e-08
-2.95563461237901e-06
2.17502269347453e-07
4.07390039634548e-08
-4.27150052848647e-06
2.1605689657695e-07
7.59719433407093e-08
-7.98378096552251e-06
1.93373829993355e-07
1.48923946583528e-07
-2.63998314337686e-05
1.36443414716196e-07
5.22400041676688e-07
-2.01009758494464e-06
2.43081235352787e-07
1.3754805065732e-08
-2.59763051295733e-06
2.62954845888172e-07
3.13701949292475e-08
-3.40882856713091e-06
2.69800682558115e-07
5.57882191702381e-08
-4.80349502856701e-06
2.5796573301795e-07
9.06977547477827e-08
-8.58938005332523e-06
2.17200565423663e-07
1.74536981270238e-07
-2.7178919547942e-05
1.47135656952987e-07
6.13928292124495e-07
-1.93545337361102e-06
2.83835098538638e-07
1.13216583577719e-08
-2.39632977226758e-06
3.1045786687756e-07
2.55783574563341e-08
-2.96082738092191e-06
3.25479903303086e-07
4.32657216166986e-08
-3.78843327259515e-06
3.22937543780911e-07
6.66556051766199e-08
-5.05741142163048e-06
2.90441073888419e-07
1.00488999643918e-07
-8.85842803080857e-06
2.34969771813018e-07
1.96240791822201e-07
-2.73072523031215e-05
1.55339148570404e-07
6.96824648113621e-07
-1.8921470221741e-06
3.26600605676746e-07
9.83041723903973e-09
-2.27825698088636e-06
3.59295498899831e-07
2.22246000779745e-08
-2.70834568897082e-06
3.82452389294233e-07
3.60809057256684e-08
-3.25074848665674e-06
3.88084755706035e-07
5.24606807657884e-08
-3.92919119844122e-06
3.6322353395087e-07
7.31558229293355e-08
-5.08748163498918e-06
3.15042844750523e-07
1.05812141640968e-07
-8.92954316536085e-06
2.53005782055904e-07
2.13780051898029e-07
-2.71120362280148e-05
1.67459413376888e-07
7.71060314973036e-07
-1.87331929385548e-06
3.70819956292991e-07
9.49055482455265e-09
-2.2103717769579e-06
4.09408536754555e-07
2.04419266963017e-08
-2.56804506483277e-06
4.40569722658183e-07
3.22208585616828e-08
-2.95170429610784e-06
4.5354461157226e-07
4.46477006136554e-08
-3.34017970840034e-06
4.34635976836982e-07
5.82316395741125e-08
-3.89513598426952e-06
3.92796022690463e-07
7.56395818834947e-08
-5.01717404436472e-06
3.40152434488853e-07
1.07190184656702e-07
-8.9246098190609e-06
2.82652412852841e-07
2.26934732110109e-07
-2.68134963708129e-05
2.05222225868886e-07
8.3360984145354e-07
-1.87292418595634e-06
4.16787846811494e-07
9.31377196866391e-09
-2.17594970782702e-06
4.6166879226559e-07
1.94704622693647e-08
-2.49200667380518e-06
5.00617172346281e-07
2.98761106020905e-08
-2.79175601933148e-06
5.20445026388827e-07
4.04888730972842e-08
-3.01978652453814e-06
5.05954148284435e-07
5.06928559347504e-08
-3.28728304135306e-06
4.6763338662308e-07
6.1233677452489e-08
-3.79331680482442e-06
4.19971291390435e-07
7.56044241240867e-08
-4.92997222498642e-06
3.72210560563408e-07
1.06058858717646e-07
-8.92184910048294e-06
3.31611164721489e-07
2.36008754433988e-07
-2.62654941031314e-05
2.86175548641741e-07
8.63695875131826e-07
-1.8852533512582e-06
4.6508013712653e-07
8.47987238598342e-09
-2.16505692410407e-06
5.16777487338576e-07
1.78682743190535e-08
-2.45485721120816e-06
5.63845472027389e-07
2.77798425553243e-08
-2.70710230270166e-06
5.90223199481674e-07
3.79824462974431e-08
-2.85247326117968e-06
5.78959936535346e-07
4.73740630374449e-08
-2.96185080535865e-06
5.41542583976138e-07
5.54516549429669e-08
-3.17996493855893e-06
4.94310645099688e-07
6.35051274899612e-08
-3.68595468706992e-06
4.46549664162432e-07
7.54179485214382e-08
-4.86700661173274e-06
4.03336858252055e-07
1.05173309628961e-07
-8.94546547283254e-06
3.67510269898075e-07
2.38161840845704e-07
-2.42943569261346e-05
3.00039946117991e-07
7.78413966612064e-07
-1.79418362833464e-05
7.17088417448596e-08
1.21844176378296e-07
-4.83960204754422e-06
1.05940611976119e-07
4.84175527388522e-08
-2.05277442000351e-05
8.42688393379484e-08
2.37013279844867e-07
-2.93732205748801e-06
1.33147075625502e-07
3.33173543112583e-08
-6.27408074579997e-06
1.31273728306833e-07
9.30815525226219e-08
-2.26366351938467e-05
9.97550313772571e-08
3.44200900031292e-07
-2.40439689343513e-06
1.6363633489627e-07
2.44326881639681e-08
-3.76433897424567e-06
1.69590405045298e-07
6.26998408445984e-08
-7.14734985615896e-06
1.5819024271384e-07
1.30935632801369e-07
-2.49773222305276e-05
1.18600212540761e-07
4.4666188682284e-07
-2.17866009642046e-06
1.9710164491697e-07
1.95674544024022e-08
-3.01389384277517e-06
2.09250103015932e-07
4.6218716349066e-08
-4.34632833725074e-06
2.08435712028476e-07
8.55505117881052e-08
-8.09533415266458e-06
1.87811215764281e-07
1.63629106064482e-07
-2.66537140236863e-05
1.34662401453628e-07
5.43805975274206e-07
-2.05449980975089e-06
2.33551727096676e-07
1.56922979152944e-08
-2.65118158584169e-06
2.52445992922492e-07
3.58473457444174e-08
-3.47481932542663e-06
2.59123331605881e-07
6.36616848627922e-08
-4.88544448419437e-06
2.48421946796172e-07
1.02871574707489e-07
-8.70631334158804e-06
2.10926972515364e-07
1.91368228166283e-07
-2.74365783966432e-05
1.45467990015683e-07
6.3458221995067e-07
-1.97779298690273e-06
2.72524566681864e-07
1.28959746868093e-08
-2.44658643862455e-06
2.97777833857517e-07
2.91878854974362e-08
-3.02122718046186e-06
3.1187915179926e-07
4.96905906169688e-08
-3.86080867850979e-06
3.09282576097582e-07
7.68453530836729e-08
-5.14290403846217e-06
2.78415493048148e-07
1.14972587921003e-07
-8.97784967928358e-06
2.26533063300401e-07
2.14552661028608e-07
-2.75634921661415e-05
1.53528387351046e-07
7.16630222075451e-07
-1.93291357646373e-06
3.1355523143028e-07
1.10462276175326e-08
-2.32611841973238e-06
3.44615040430199e-07
2.50251710416245e-08
-2.76476104037606e-06
3.66276569861834e-07
4.11963019274653e-08
-3.31625168815902e-06
3.7095314957386e-07
6.07517362090289e-08
-4.00377520278811e-06
3.46218732996394e-07
8.54592177528483e-08
-5.173493644759e-06
2.99070447874628e-07
1.22397417962959e-07
-9.05091471010332e-06
2.3910348743046e-07
2.33838721562945e-07
-2.73639029698429e-05
1.58813139635641e-07
7.89866150526248e-07
-1.91307485812073e-06
3.56085426752272e-07
1.02705198230834e-08
-2.25659418634608e-06
3.9284091558485e-07
2.25067757300901e-08
-2.62172469084842e-06
4.22112548380876e-07
3.62430319847699e-08
-3.01247407069208e-06
4.33646571436779e-07
5.12878117449399e-08
-3.4068220268612e-06
4.14137845808702e-07
6.81874136901329e-08
-3.96841697065906e-06
3.71866467641968e-07
8.96110086198804e-08
-5.10133165441709e-06
3.17576346411306e-07
1.25395108741745e-07
-9.04699724068953e-06
2.5534113541418e-07
2.48275947659097e-07
-2.70664061022985e-05
1.72050822181864e-07
8.51900315155286e-07
-1.91229538806469e-06
4.00259859427226e-07
9.9311371008167e-09
-2.22119470422661e-06
4.42952210278488e-07
2.11911954499156e-08
-2.54389653285271e-06
4.79627225282876e-07
3.32737367297219e-08
-2.84960216142044e-06
4.9773672768683e-07
4.58739491826504e-08
-3.08149193257606e-06
4.82546044049081e-07
5.84417595891319e-08
-3.35195336852589e-06
4.43770230706187e-07
7.19259681574403e-08
-3.86199170367182e-06
3.9448913868278e-07
8.99751592298381e-08
-5.00589311977008e-06
3.41371043189608e-07
1.2438820667987e-07
-9.03376762957173e-06
2.86184891831142e-07
2.57881007660812e-07
-2.65340865917599e-05
2.12246738146279e-07
8.89941544446122e-07
-1.92456901359374e-06
4.4646770970204e-07
9.63564097157299e-09
-2.20974220834704e-06
4.95479924018062e-07
2.0187467712414e-08
-2.50572540557704e-06
5.39799037322281e-07
3.11563325840328e-08
-2.76358093630646e-06
5.64323698803794e-07
4.24755405004143e-08
-2.91196751237406e-06
5.52714114164269e-07
5.32219370023136e-08
-3.02232520706972e-06
5.15778671130811e-07
6.30208274700058e-08
-3.24094341008548e-06
4.68847350695786e-07
7.33338810459994e-08
-3.74650382462059e-06
4.20287321814848e-07
8.80739968776415e-08
-4.92480223677025e-06
3.74734191137329e-07
1.20726771777082e-07
-9.02095957417325e-06
3.38098411647269e-07
2.59566935289112e-07
-2.45753345048546e-05
2.86395155114175e-07
8.58263600233131e-07
-1.94501356740679e-06
4.95207828691364e-07
8.68655996932421e-09
-2.214772127216e-06
5.51128452501501e-07
1.84298224956387e-08
-2.49370667961046e-06
6.03630677608433e-07
2.89094925744016e-08
-2.72108888826247e-06
6.34660719570869e-07
3.99177516741457e-08
-2.8231501098644e-06
6.26074210092948e-07
5.03437905390572e-08
-2.85276193124098e-06
5.89569911553427e-07
5.92501751184949e-08
-2.91262899501756e-06
5.42111415944153e-07
6.67169751925435e-08
-3.12319414218193e-06
4.93443308403844e-07
7.43867673954927e-08
-3.64668269302679e-06
4.47448740192148e-07
8.62904965296269e-08
-4.87966119258172e-06
4.07307004471468e-07
1.15477493554385e-07
-8.87290437601842e-06
3.71529704618139e-07
2.28732034110595e-07
-2.50485711308425e-05
3.33826471162383e-07
7.98806655884686e-07
-1.81447866674188e-05
6.89044354908511e-08
1.34048397493431e-07
-4.92434702169066e-06
1.02739978983349e-07
5.37139242235458e-08
-2.07453932803893e-05
8.14372260011159e-08
2.58055172954935e-07
-2.99751163283398e-06
1.28838894734555e-07
3.72907468986815e-08
-6.37166501078591e-06
1.26890606525323e-07
1.03379189217467e-07
-2.2867336884866e-05
9.71018809119162e-08
3.70612003069622e-07
-2.45693828621409e-06
1.57953899460624e-07
2.77340811615292e-08
-3.83375993514755e-06
1.63674839441404e-07
7.03363613805631e-08
-7.25295597797821e-06
1.53175325200354e-07
1.45264224769115e-07
-2.52245471991663e-05
1.15861896464405e-07
4.75561696138879e-07
-2.22717924261851e-06
1.9002323875838e-07
2.21320107203375e-08
-3.07389812031973e-06
2.016301162562e-07
5.23964463813695e-08
-4.42316990181084e-06
2.0128697656313e-07
9.64442010487306e-08
-8.20920929813732e-06
1.8242283713274e-07
1.80983931782271e-07
-2.69117463918798e-05
1.32409946565967e-07
5.72277611980272e-07
-2.10012341438661e-06
2.24868129699983e-07
1.78569618666551e-08
-2.70605337949537e-06
2.4283324412548e-07
4.0855549128273e-08
-3.54211059099283e-06
2.49460004853443e-07
7.24844551336584e-08
-4.96858455103387e-06
2.39925647070335e-07
1.1657420986363e-07
-8.82426459834435e-06
2.05454823304739e-07
2.10784140533625e-07
-2.76976317033072e-05
1.44081671259242e-07
6.60773651462266e-07
-2.02109283656172e-06
2.62154793073317e-07
1.46964818914341e-08
-2.49789634474217e-06
2.86154455317224e-07
3.32929074134808e-08
-3.08273367183195e-06
2.99593789441986e-07
5.68823286734762e-08
-3.93414258108239e-06
2.973153081625e-07
8.81004516335762e-08
-5.22863183260386e-06
2.6851289178277e-07
1.3101138595389e-07
-9.09670050990408e-06
2.20482386132285e-07
2.3519977291833e-07
-2.78225333880932e-05
1.52941043713772e-07
7.40670290064882e-07
-1.97439706205361e-06
3.014952099761e-07
1.25126514474545e-08
-2.37482081560399e-06
3.31026638966063e-07
2.83491228665668e-08
-2.82219004857105e-06
3.51469718446099e-07
4.70251770043728e-08
-3.38283756034165e-06
3.55644421322988e-07
6.99131315011068e-08
-4.07914643905035e-06
3.318011577916e-07
9.88298868399907e-08
-5.25933479182156e-06
2.87005007695515e-07
1.40340490953589e-07
-9.16987948879279e-06
2.31132658998988e-07
2.5590380505636e-07
-2.76178223904313e-05
1.57776461016239e-07
8.12754505999039e-07
-1.95324993530137e-06
3.4233205173177e-07
1.1398103650749e-08
-2.30340396902353e-06
3.77362942188381e-07
2.51075515169154e-08
-2.67631328066117e-06
4.04987235746413e-07
4.09027354400281e-08
-3.07443885177306e-06
4.15430476045461e-07
5.86827785824326e-08
-3.47484375945662e-06
3.9591971990557e-07
7.90710847049374e-08
-4.04308837001816e-06
3.5444942279204e-07
1.04749854980771e-07
-5.18637790661567e-06
3.01448545342935e-07
1.45094892058922e-07
-9.167437388024e-06
2.41351085236555e-07
2.71732810075037e-07
-2.73147132053098e-05
1.63913689554142e-07
8.74242923544128e-07
-1.95168732168794e-06
3.84791578643597e-07
1.06856770081464e-08
-2.26674896570717e-06
4.25557149958919e-07
2.31081559568565e-08
-2.5965293343308e-06
4.6028033388983e-07
3.69709992032745e-08
-2.90849713487505e-06
4.76949353164628e-07
5.1834244877751e-08
-3.14457378809266e-06
4.61345448551325e-07
6.71605248507712e-08
-3.41860517938739e-06
4.22646557037379e-07
8.40569142101833e-08
-3.93419900179432e-06
3.7308088314031e-07
1.06310408738883e-07
-5.08866787157356e-06
3.18131673789379e-07
1.45373979496681e-07
-9.15471661233577e-06
2.58154587116238e-07
2.83113575745954e-07
-2.67795272876046e-05
1.79191037787372e-07
9.18132153538235e-07
-1.96367353510029e-06
4.29129150222503e-07
1.02350924039458e-08
-2.25453947860907e-06
4.75856998126804e-07
2.18231616403788e-08
-2.55703403154013e-06
5.17804743682078e-07
3.43216890348035e-08
-2.82055814456243e-06
5.40605526136217e-07
4.738151184492e-08
-2.97215220025719e-06
5.28501400032617e-07
6.01021868994862e-08
-3.08407943946338e-06
4.9168576598756e-07
7.22790515296677e-08
-3.30466136301563e-06
4.44484096224822e-07
8.5647268945851e-08
-3.81352174642678e-06
3.94011885045223e-07
1.04349570627448e-07
-4.99865719298361e-06
3.42605135046642e-07
1.41816975389311e-07
-9.12975035815238e-06
2.91085647001606e-07
2.87817519496534e-07
-2.48111199282961e-05
2.11986268183173e-07
9.13721143429231e-07
-1.98404086752645e-06
4.75684744983744e-07
9.81017307460922e-09
-2.25909772402397e-06
5.28787234163949e-07
2.06537518874177e-08
-2.54421381788347e-06
5.78379644122845e-07
3.21136649551225e-08
-2.77715414967497e-06
6.07435521202163e-07
4.41090894857858e-08
-2.8821343559234e-06
5.98499788167876e-07
5.56731456547068e-08
-2.91240789321011e-06
5.62675053284001e-07
6.59705002011095e-08
-2.97198940820361e-06
5.16016105665422e-07
7.52108935403351e-08
-3.18235162189201e-06
4.67513270226275e-07
8.52635699673102e-08
-3.70467333591734e-06
4.20412364273948e-07
1.00382647066154e-07
-4.93341384324657e-06
3.77869898157121e-07
1.34702550841883e-07
-8.93608086125087e-06
3.41646858914882e-07
2.67481716101276e-07
-2.53721395093731e-05
3.079311249709e-07
8.73885648077334e-07
-2.00919529158308e-06
5.24907925872873e-07
8.73763621551228e-09
-2.27469898572448e-06
5.85029496409427e-07
1.86868347969033e-08
-2.54940401044177e-06
6.42920833751035e-07
2.95937269809691e-08
-2.76201314343951e-06
6.78525704345517e-07
4.12637118402369e-08
-2.83694876337315e-06
6.72545260048956e-07
5.26271003814237e-08
-2.82283901724891e-06
6.36954572820486e-07
6.26734298089523e-08
-2.80191838450711e-06
5.89328192014149e-07
7.09219471553734e-08
-2.85192762378325e-06
5.39755711226432e-07
7.7770230857691e-08
-3.07049549736326e-06
4.92185421396284e-07
8.49937005328846e-08
-3.62106523997945e-06
4.48839100418456e-07
9.60545093945879e-08
-4.90012661338716e-06
4.12184049168355e-07
1.17134778786944e-07
-9.13699981749293e-06
3.91982302841993e-07
2.36525766800003e-07
-2.55101118173766e-05
3.71832543069374e-07
7.99586828495367e-07
-1.83592677047474e-05
6.55830121289978e-08
1.48898282832406e-07
-5.01468648026636e-06
9.94696929254481e-08