/*--------------------------------*- C++ -*----------------------------------*\
  =========                 |
  \\      /  F ield         | OpenFOAM: The Open Source CFD Toolbox
   \\    /   O peration     | Website:  https://openfoam.org
    \\  /    A nd           | Version:  12
     \\/     M anipulation  |
\*---------------------------------------------------------------------------*/
/*   Windows 32 and 64 bit porting by blueCAPE: http://www.bluecape.com.pt   *\
|  Based on Windows porting (2.0.x v4) by Symscape: http://www.symscape.com   |
\*---------------------------------------------------------------------------*/
FoamFile
{
    format      ascii;
    class       volVectorField;
    location    "200";
    object      U;
}
// * * * * * * * * * * * * * * * * * * * * * * * * * * * * * * * * * * * * * //

dimensions      [0 1 -1 0 0 0 0];

internalField   nonuniform List<vector> 
10068
(
(-1.21192708558844e-05 0.000206755705733088 3.56588572217853e-05)
(-6.52260497170147e-06 0.000214949575967142 3.05635785246283e-05)
(-4.76607446562603e-06 0.000339894274994608 5.7643625808224e-05)
(-3.17474842520515e-05 -0.000421350051323226 3.51981352740666e-05)
(-1.31182422524183e-06 0.00022393946731898 2.47291853677511e-05)
(-2.83982996159134e-06 0.000343020752443652 5.03787067600273e-05)
(-2.01055575823024e-05 -0.000403911751727625 2.99032108121858e-05)
(-1.72050711108706e-06 0.000536179161787742 7.87572124375584e-05)
(-1.41152676091263e-05 -3.9892354147019e-05 5.50665667937801e-05)
(-3.8686138902486e-05 -0.000573183868796385 3.86942946163241e-05)
(1.04405892650956e-08 0.000244691274700716 2.2782055655606e-05)
(-1.11849597119231e-06 0.000358466481513402 4.43884295150265e-05)
(-8.63416308032276e-06 -0.000428285143329277 2.19090422439174e-05)
(-9.57194810551862e-07 0.000547478649004049 7.14895940723141e-05)
(-9.70500691962343e-06 -5.59730634773468e-05 4.76866959128148e-05)
(-2.74670288116634e-05 -0.000554726965518233 3.24685627491035e-05)
(-6.67633579841256e-07 0.000615849539105187 9.80516068297508e-05)
(-5.28701476017563e-06 0.000345302266320134 7.56602552656354e-05)
(-2.04394832643866e-05 -0.00018634443548678 5.58587428137186e-05)
(-4.37737143900681e-05 -0.000638537747902013 4.24756373232881e-05)
(-1.71213352248859e-07 0.000267417883502535 2.25947410951194e-05)
(-3.04275330693102e-07 0.000379159029172658 4.14726612858426e-05)
(-5.01336390633307e-06 -0.000428667729732381 1.87924840324649e-05)
(-1.59350551558536e-07 0.000565938710667615 6.51370303445843e-05)
(-5.50032265624975e-06 -5.44464521593801e-05 4.09358770181447e-05)
(-1.6806259961309e-05 -0.000591246977940432 2.08773981266073e-05)
(-2.20832789686605e-07 0.000630951089100995 9.13448238839664e-05)
(-3.40871228636634e-06 0.000345362383932504 6.81078338346449e-05)
(-1.53409630127794e-05 -0.000213489141066156 4.924711917783e-05)
(-3.44015778200718e-05 -0.000616637221463647 3.53984449938028e-05)
(-1.24787533253101e-07 0.000667343279789182 0.000117433259617088)
(-1.78127428164557e-06 0.00050543199201852 9.42691788474145e-05)
(-8.88000936551269e-06 0.000251917218726188 7.54981503654658e-05)
(-2.55861968599306e-05 -0.000246723914642631 5.81941204589298e-05)
(-5.00387057173489e-05 -0.000704264706921778 4.54306484411719e-05)
(-3.55166783479616e-07 0.000290190481954182 2.28469951984771e-05)
(1.23084912781092e-07 0.000400021363469348 4.0200454484266e-05)
(-4.58472087824436e-06 -0.000419905731906683 1.87413781766452e-05)
(4.15524688087799e-07 0.000587031259694242 6.09258321110859e-05)
(-3.14138156121199e-06 -4.09425816895847e-05 3.78386544261615e-05)
(-1.2149267136684e-05 -0.000598837514949954 1.52858184179687e-05)
(2.52194591385693e-07 0.000650062519603923 8.51178501249986e-05)
(-1.31003822353593e-06 0.000357263380150466 6.14744682598713e-05)
(-1.01593910068318e-05 -0.00021951218618878 4.11122519765365e-05)
(-2.51381568760785e-05 -0.000657682678318081 2.11901469500229e-05)
(1.81260723714424e-07 0.000684438998566315 0.000110881921641968)
(-6.44945789861119e-07 0.00051389165278129 8.74180581718273e-05)
(-6.27059822375619e-06 0.000244399701790476 6.7573934685807e-05)
(-2.0666603909971e-05 -0.000278739569874582 5.11570339612271e-05)
(-4.17959618762258e-05 -0.000678768096009274 3.75876335687295e-05)
(2.80530968390504e-07 0.000712060611722157 0.000136774779330436)
(-2.80640809980605e-09 0.00058932032755578 0.000113157118980375)
(-3.35059294226306e-06 0.000443128054842379 9.3303225383619e-05)
(-1.20736354236006e-05 0.000201578490352964 7.66160333428912e-05)
(-3.08006548716013e-05 -0.000298975028261649 6.04412736544503e-05)
(-5.72286486774646e-05 -0.00077551268427115 4.72732779358221e-05)
(-2.36584414222579e-07 0.000313424500650075 2.34048560891105e-05)
(5.12911505127176e-07 0.000420739838575093 3.96796495813404e-05)
(-4.22601875414525e-06 -0.000407428609116016 1.96103931514303e-05)
(8.87178487431331e-07 0.000608494167987248 5.81416113444698e-05)
(-1.65345654790855e-06 -2.52373083089612e-05 3.677260688126e-05)
(-1.01621932878339e-05 -0.000595261201839863 1.46188737519359e-05)
(6.77093618730555e-07 0.000670902411772547 8.017660151675e-05)
(3.87128571102803e-07 0.00037521031682629 5.72833429852271e-05)
(-6.59082265383147e-06 -0.000209674812142818 3.70867892959225e-05)
(-1.96538197577651e-05 -0.000668246780522607 1.46712070851458e-05)
(5.20744415681941e-07 0.000703904907927259 0.000104613672955746)
(6.86554581366595e-07 0.000529373726470578 8.11238782478371e-05)
(-3.13265097680198e-06 0.000251823838102466 6.03928625191212e-05)
(-1.51448938424414e-05 -0.000288603990643795 4.15782298596046e-05)
(-3.36864064804004e-05 -0.000722802933234248 2.33794358218906e-05)
(5.1762532279944e-07 0.000730375062443369 0.00012996413884692)
(8.20020311094891e-07 0.000601874852606995 0.000106487995565207)
(-1.64292458523931e-06 0.000446660460100894 8.61842710038945e-05)
(-8.85801541054913e-06 0.000189940672512048 6.82193590599002e-05)
(-2.59856187816293e-05 -0.000333816929557293 5.23315266796402e-05)
(-4.96274207587301e-05 -0.000746976606685536 3.88696913896197e-05)
(5.98405727850416e-07 0.000755775209522803 0.000155877510110342)
(1.10495267330314e-06 0.000649856734038828 0.000131958585179748)
(-2.27883955898847e-07 0.000541904449582707 0.00011165575316498)
(-4.77561666756646e-06 0.000404592364089508 9.36265821623054e-05)
(-1.51238671072808e-05 0.000155944719461295 7.7457519095995e-05)
(-3.62033366748437e-05 -0.00035146037593496 6.20072237325636e-05)
(-6.4357672666738e-05 -0.000852156142061313 4.77238291229991e-05)
(1.51461162934516e-07 0.000337463618948353 2.40752843467545e-05)
(9.68108822726681e-07 0.000441627487182244 3.95220432844832e-05)
(-3.25303882818276e-06 -0.00039261866451811 2.0697503496318e-05)
(1.34796175186277e-06 0.000630055747268722 5.62476074796928e-05)
(-2.90346355519753e-07 -9.02390803762007e-06 3.66183116440151e-05)
(-8.28246730210087e-06 -0.000586760645628139 1.55441845318973e-05)
(1.09397029036128e-06 0.000692304228544492 7.63158472311366e-05)
(1.87344004715721e-06 0.000394352738068871 5.46889319427013e-05)
(-3.89090116854981e-06 -0.000196654641819757 3.55479111520433e-05)
(-1.60514496065192e-05 -0.000666946896875022 1.45307516800496e-05)
(8.6704722121904e-07 0.000724594708529309 9.91270006150495e-05)
(1.9833375970367e-06 0.000548532682113303 7.62872288712929e-05)
(-3.05671334531773e-07 0.000267778137595235 5.59713457897648e-05)
(-1.05455296001275e-05 -0.000280542467631232 3.69907236134365e-05)
(-2.7726254700321e-05 -0.000734942144228952 1.65233615988947e-05)
(7.87616131045411e-07 0.000750205994943483 0.000123436296192833)
(1.81053818486042e-06 0.00061887949662711 0.000100227394692746)
(5.48203850726271e-07 0.000459375379465951 7.96297848733347e-05)
(-4.93967241743896e-06 0.000194576694068943 6.03674834197098e-05)
(-2.02880816829912e-05 -0.000346259539219746 4.17468342973937e-05)
(-4.26013513241488e-05 -0.000793750811903009 2.42883297523048e-05)
(7.98885072038351e-07 0.000774898740596675 0.000148591828063024)
(1.77230246694055e-06 0.000664646011660968 0.000125046408262086)
(1.07597509505235e-06 0.00055094639700116 0.000104784037022884)
(-2.4232761245471e-06 0.000405173323259737 8.61951872875759e-05)
(-1.13940370734284e-05 0.000141621871008266 6.84813789456832e-05)
(-3.1431031943492e-05 -0.000388618686774639 5.23585032077961e-05)
(-5.78590931170047e-05 -0.000821419106810438 3.92713289027661e-05)
(8.44024468683009e-07 0.000800252786658656 0.000174625211381932)
(1.90632738836183e-06 0.000702263702741604 0.000150522822366405)
(1.7933409870785e-06 0.000610252346741768 0.000129956004862199)
(-4.31235864135796e-07 0.000509782907059519 0.000111418558617098)
(-6.12921187816873e-06 0.000366931308490366 9.35976879417748e-05)
(-1.81806153762656e-05 0.000109809923600501 7.75442477008111e-05)
(-4.17620656703722e-05 -0.000404831671723549 6.23257456268825e-05)
(-7.06338151830528e-05 -0.000932869875430968 4.70119511834318e-05)
(6.13649696264906e-07 0.000362810228892142 2.39659389855013e-05)
(1.52490098154075e-06 0.000463051439801594 3.9572374989707e-05)
(-1.84705845840912e-06 -0.000376057091789552 2.08720940569806e-05)
(1.84298466243021e-06 0.000651829427103339 5.48875252554136e-05)
(1.22065750932414e-06 7.60267578282521e-06 3.68338687017188e-05)
(-5.81541404788705e-06 -0.000575145552855432 1.67909583157442e-05)
(1.52905827422308e-06 0.000714005541463242 7.3281209611441e-05)
(3.34478387104924e-06 0.000413796922899119 5.30678999925222e-05)
(-1.29652907696779e-06 -0.00018280576654171 3.53684595651357e-05)
(-1.25585640118161e-05 -0.000660367719947389 1.57616774067661e-05)
(1.23236640296785e-06 0.000745864329847493 9.44496472960925e-05)
(3.27995876951092e-06 0.000568698311605928 7.26210389175248e-05)
(2.29782465470539e-06 0.000285504725507017 5.33552632909016e-05)
(-6.51004792328131e-06 -0.000268883907460845 3.5565241790214e-05)
(-2.27632059572378e-05 -0.000735599254949409 1.53567030782994e-05)
(1.081343957033e-06 0.000770920751589611 0.00011747386005541)
(2.8739731112e-06 0.000638446683299037 9.48931004695208e-05)
(2.80998247769129e-06 0.000477367485864144 7.47204315098942e-05)
(-1.10587446466659e-06 0.000209304147207279 5.56370040828796e-05)
(-1.4870418465329e-05 -0.000339515932782141 3.68602166465919e-05)
(-3.6311129400672e-05 -0.000807769300044827 1.80673452728628e-05)
(1.02800190656273e-06 0.000795088750237994 0.000141666415982541)
(2.58157172747387e-06 0.000682564220413202 0.000118567120569297)
(2.77491673239075e-06 0.000566001777238468 9.83840632355593e-05)
(5.5996095062017e-07 0.000415998935107989 7.92705248150927e-05)
(-6.84171471832127e-06 0.000144304234252055 6.00377057931106e-05)
(-2.55165042386905e-05 -0.000403178324472596 4.05797721485526e-05)
(-5.21959077026226e-05 -0.000871268372023757 2.42293505564287e-05)
(1.02045731322041e-06 0.000819944676508204 0.000166782276556917)
(2.4777066607671e-06 0.000718443536334963 0.000143149753942317)
(2.87403517626323e-06 0.000622291831891275 0.0001228671421287)
(1.43833123554371e-06 0.000516637539879164 0.000104327383266367)
(-3.17294973947359e-06 0.000365496983566054 8.58163183415049e-05)
(-1.40525848225437e-05 9.33083920188059e-05 6.79929368940347e-05)
(-3.72150343158127e-05 -0.000444341367481772 5.1133563219911e-05)
(-6.6615436758733e-05 -0.000900879789386053 3.88229490219669e-05)
(1.02156117584413e-06 0.000845828033101757 0.000193013087371641)
(2.52862180335338e-06 0.000751870628174319 0.000168822108312252)
(3.24930399375831e-06 0.00066706093252507 0.000148098319741684)
(2.5179812699537e-06 0.00058145051701957 0.000129263326512168)
(-5.60132246110876e-07 0.000476331413265274 0.000110728404781213)
(-7.52911002273362e-06 0.000326898033817388 9.28020026364045e-05)
(-2.14314741264144e-05 6.15407864812364e-05 7.67070003642521e-05)
(-4.75721463358426e-05 -0.000459277271087783 6.15311337736147e-05)
(-7.76073532055867e-05 -0.00101075776711613 4.60076561938335e-05)
(1.17753946084584e-06 0.000389761419441364 2.33907332098338e-05)
(2.17703096858441e-06 0.000485362272991332 3.97619312621713e-05)
(-7.97677047353764e-08 -0.000358061230848872 2.03327221896831e-05)
(2.39438679911944e-06 0.000674083053201074 5.38885558090954e-05)
(2.9666229327658e-06 2.4831169831713e-05 3.72134312561995e-05)
(-2.7049884675605e-06 -0.000561343993326063 1.79862765025594e-05)
(1.99691631486084e-06 0.000736032203336502 7.08423910471123e-05)
(4.90942575403851e-06 0.000433488731452931 5.20295915987026e-05)
(1.53065137389625e-06 -0.000168435922535928 3.57230434489182e-05)
(-8.51760552618727e-06 -0.000650364940183136 1.72089091095214e-05)
(1.62377751599101e-06 0.00076753167001808 9.04998395136117e-05)
(4.62843138889458e-06 0.000589261381592462 6.98386928260695e-05)
(4.90640916177334e-06 0.00030366218175071 5.18545331221207e-05)
(-2.48686368928438e-06 -0.000256314712075351 3.5508480168614e-05)
(-1.76564997995487e-05 -0.000730608248469052 1.65145308538337e-05)
(1.40273861466791e-06 0.000792154629223247 0.000112160027996704)
(4.00305456490542e-06 0.00065889873367915 9.04309608777721e-05)
(5.09522164252219e-06 0.000496732202471155 7.10927535354214e-05)
(2.63140666952989e-06 0.000226140220715883 5.29826622314071e-05)
(-9.61624895594544e-06 -0.000329015690044535 3.53826300503468e-05)
(-3.0220169321118e-05 -0.000809974453830829 1.74691915060747e-05)
(1.28520663263736e-06 0.000815935853145634 0.000135240540117556)
(3.49150258986133e-06 0.000702403676477201 0.000112787955973782)
(4.65503982326037e-06 0.000584746007085138 9.30480563249384e-05)
(3.75139798164595e-06 0.000433162296277249 7.41883056622078e-05)
(-2.09555052939179e-06 0.000158044915594505 5.50473272496539e-05)
(-1.9354192248135e-05 -0.000397645978962102 3.55458312447035e-05)
(-4.58900704374267e-05 -0.000887718080142715 1.77074210407553e-05)
(1.22369850584315e-06 0.000840453256190088 0.000159389761846203)
(3.17434565921727e-06 0.000737028509122153 0.000136304090559553)
(4.28634522905928e-06 0.00063868539795963 0.000116311313425932)
(3.84730385499472e-06 0.000530319372800457 9.77126600631001e-05)
(5.34133285152352e-07 0.000374911149928836 7.85281344480173e-05)
(-8.9262103467647e-06 9.4445493593652e-05 5.90175355457832e-05)
(-3.12030899963811e-05 -0.000461062483635377 3.90487090903587e-05)
(-6.26562094261242e-05 -0.000954895722920263 2.33235072239573e-05)
(1.17614026065263e-06 0.000865927320277546 0.000184589125044914)
(3.03632609892396e-06 0.000768982727404227 0.000160892794747588)
(4.18349243823956e-06 0.000680930708811744 0.000140565667499475)
(4.08848238469732e-06 0.000591753354369536 0.000122012567141813)
(1.87734075515895e-06 0.00048164754879409 0.000103429358838686)
(-4.03922915388272e-06 0.000323813426730698 8.46842663786933e-05)
(-1.7037838757074e-05 4.29461286225126e-05 6.66514917885443e-05)
(-4.36363424895086e-05 -0.000501514532942223 4.96971805914337e-05)
(-7.66748739992436e-05 -0.000979442177312096 3.74332463305128e-05)
(1.15239225967659e-06 0.000892305949105452 0.000211096292109588)
(3.01838172193101e-06 0.000800668901363219 0.000186874360899529)
(4.3598068251586e-06 0.000719153182844251 0.000166074622653112)
(4.6965204182087e-06 0.00063992821198992 0.000147047577089791)
(3.32899302106799e-06 0.000550106489401513 0.000128085473772963)
(-7.50567757547901e-07 0.000439296284687878 0.00010923729619932)
(-9.103212233932e-06 0.00028332683916132 9.11321435957659e-05)
(-2.50257873327168e-05 1.01882087638313e-05 7.49631066103002e-05)
(-5.45629059667568e-05 -0.000513308434734202 5.99792193222828e-05)
(-9.37945085667345e-05 -0.00108751892229137 4.1980711897877e-05)
(1.97061511175595e-06 0.000418957505177395 2.35459886325703e-05)
(2.90944440780877e-06 0.000508855750995349 4.00729267345706e-05)
(2.17282080291577e-06 -0.000338226547342876 2.04646115390275e-05)
(3.01009611538013e-06 0.000697104091254917 5.31751263328664e-05)
(4.96745773818021e-06 4.29212038867965e-05 3.77107522049759e-05)
(1.08313988184748e-06 -0.000545774686976204 1.91307849827154e-05)
(2.50558578751773e-06 0.000758562013970245 6.88537611081074e-05)
(6.62635928176533e-06 0.000453645404149019 5.13793410804829e-05)
(4.72285465817942e-06 -0.00015343761610867 3.63118286005074e-05)
(-3.67392251776498e-06 -0.000638005939923174 1.86512640686116e-05)
(2.04691585766741e-06 0.000789616764096012 8.71550517289501e-05)
(6.06826887186785e-06 0.000610161119264807 6.77009736277622e-05)
(7.67548861121973e-06 0.000322071883919278 5.10047864574279e-05)
(1.85163573567166e-06 -0.000243233373121284 3.60265677346553e-05)
(-1.1846768444827e-05 -0.000722002999617685 1.81212090119257e-05)
(1.75359383623316e-06 0.000813816454766474 0.000107491425442803)
(5.2073290835553e-06 0.000679813599874983 8.67408600926559e-05)
(7.46651358513722e-06 0.000516563841464706 6.84284765025613e-05)
(6.47148803761649e-06 0.000243438532751844 5.15514545280909e-05)
(-4.14756182980865e-06 -0.000317632709432906 3.53919346548674e-05)
(-2.35202673283411e-05 -0.00080669927552546 1.81071156786082e-05)
(1.57307660247695e-06 0.000837229079852886 0.000129388579116796)
(4.48840093423933e-06 0.000723000856918379 0.000107709655974458)
(6.64921603879609e-06 0.000604638543833429 8.86593058279878e-05)
(7.05872157353061e-06 0.00045194094675413 7.05344648737548e-05)
(2.75623757936827e-06 0.000174055849578044 5.23439636784514e-05)
(-1.30132307240656e-05 -0.000388335198965149 3.45826175167236e-05)
(-3.88666262054645e-05 -0.0008920615092986 1.78235681163003e-05)
(1.45616175607708e-06 0.000861473393242879 0.000152500337918595)
(3.97714077970173e-06 0.000757130809250003 0.000130086909352439)
(5.90423893629992e-06 0.000657873518955715 0.000110575177126264)
(6.55616750668035e-06 0.000548446913481797 9.22847143943711e-05)
(4.61953054808991e-06 0.000391323609501153 7.3267190997861e-05)
(-3.30959643207375e-06 0.00010726170147089 5.38192857866012e-05)
(-2.4325770211134e-05 -0.000456860349387086 3.41628976923449e-05)
(-5.66848329070038e-05 -0.000974744388367836 1.65864728272223e-05)
(1.36431972613751e-06 0.00088670039850827 0.000176704450273323)
(3.65893428952465e-06 0.000788077271512001 0.000153602670461772)
(5.40879926868953e-06 0.00069822887821001 0.000133683050643629)
(6.12537368895121e-06 0.000607051762065468 0.000115326424297612)
(4.97714918249322e-06 0.000494242122550853 9.66019392777245e-05)
(3.50750671859438e-07 0.000332048538382708 7.70684930401151e-05)
(-1.13579550395697e-05 4.25781649573287e-05 5.72704769925537e-05)
(-3.74771834666305e-05 -0.000520799555792908 3.71029286897131e-05)
(-7.33862318196754e-05 -0.00103992308402065 2.12326264124466e-05)
(1.29569393860955e-06 0.000912685918594171 0.000202090494748801)
(3.47545709522963e-06 0.000818423420930824 0.000178366772988266)
(5.19647675653818e-06 0.000734237972739823 0.000158005345457167)
(6.0688367724445e-06 0.000652339399191499 0.000139388572843079)
(5.40930526422075e-06 0.000559167887435046 0.000120709545796501)
(2.21932225455001e-06 0.000443323584797783 0.000101749460265475)
(-5.15678805958101e-06 0.00027863530350123 8.27222969860132e-05)
(-2.04890262683176e-05 -1.07173093915323e-05 6.45443067992316e-05)
(-5.1007557292327e-05 -0.000559272087005957 4.7803113777586e-05)
(-9.19158562415034e-05 -0.0010610733678363 3.49245106952415e-05)
(1.24608326175943e-06 0.000939297702197184 0.000228936157687934)
(3.40968106795104e-06 0.000849269489239954 0.000204717059373393)
(5.24083051754601e-06 0.000769333780384469 0.000183895249179173)
(6.38218572567811e-06 0.000692745212784683 0.000164751672606533)
(6.24669136774733e-06 0.000609608696847915 0.000145505007396614)
(4.07818276025138e-06 0.00051454259490272 0.000126078698133921)
(-1.11071308096985e-06 0.000398013527540889 0.000106858977254731)
(-1.09650030373298e-05 0.000235606835486457 8.85848095733221e-05)
(-2.93901678838533e-05 -4.41437737076692e-05 7.23558802907713e-05)
(-6.56676443786655e-05 -0.000565095777984615 5.73927777953727e-05)
(-0.000147657916295728 -0.00123825077075592 3.92800015280808e-05)
(3.02561171944017e-06 0.000450782633966639 2.43479840092816e-05)
(3.7441929531186e-06 0.000533859296421438 4.05529285997797e-05)
(4.99158984873708e-06 -0.000316231258140167 2.13151383263853e-05)
(3.69671982817264e-06 0.000721152061591569 5.26779246245252e-05)
(7.23433533410137e-06 6.21208167949048e-05 3.84113116835134e-05)
(5.56144725039484e-06 -0.000528331548771221 2.03252991106533e-05)
(3.05006563274025e-06 0.000781823973865993 6.72316884107248e-05)
(8.51825579518679e-06 0.000474525308451075 5.10316343764509e-05)
(8.33978609566546e-06 -0.000137608388012927 3.70733519354563e-05)
(2.09001056290257e-06 -0.000623727679971485 2.01047422281594e-05)
(2.50638569442519e-06 0.000812254070711582 8.43170081585787e-05)
(7.62608470093245e-06 0.000631553577545937 6.60565044012908e-05)
(1.06937138867026e-05 0.000340917289372442 5.05806188408961e-05)
(6.66977164189454e-06 -0.000229567388715055 3.6803119732375e-05)
(-5.07860968222581e-06 -0.000710963572298398 1.97633916293354e-05)
(2.13600391990357e-06 0.000835945749173249 0.000103417760607707)
(6.50213111831445e-06 0.000701148767748154 8.36990653685995e-05)
(9.99125816026642e-06 0.000536717650145717 6.64620218167174e-05)
(1.05684637485148e-05 0.000260955481097825 5.08292679104029e-05)
(1.7631345057411e-06 -0.000305804859551697 3.61122109201794e-05)
(-1.59818959246983e-05 -0.00079980045843806 1.9360439414067e-05)
(1.89155976860571e-06 0.000858946030118129 0.00012413747514088)
(5.56998113093309e-06 0.000744075352106182 0.000103313913353964)
(8.76834729663706e-06 0.0006250420600127 8.50969140027433e-05)
(1.05372739284201e-05 0.00047120776683794 6.7922960199531e-05)
(7.85659151090501e-06 0.000190494373206777 5.09701697891252e-05)
(-6.21322471599896e-06 -0.000378252794957932 3.49863356037095e-05)
(-3.07563496249471e-05 -0.000890659367828986 1.98319109580475e-05)
(1.71978125845928e-06 0.000882878324455206 0.000146167452940164)
(4.87351908279628e-06 0.000777876632464206 0.000124487924599452)
(7.66831904822414e-06 0.000678027156971663 0.000105597079703885)
(9.46692481082939e-06 0.000567906603461998 8.78922915945049e-05)
(8.95524128000561e-06 0.000409490691008004 6.95739057061533e-05)
(2.62937206469438e-06 0.000122403873684834 5.11301304067889e-05)
(-1.6845879726193e-05 -0.000448800715546517 3.34324902937872e-05)
(-4.87147341088809e-05 -0.000981928588717273 1.69254380585203e-05)
(1.58284711936574e-06 0.000907889787531259 0.000169359041667667)
(4.38686536795308e-06 0.000808429770197286 0.000146943415159742)
(6.83975624607173e-06 0.000717768949301811 0.000127540489545378)
(8.47796375424939e-06 0.000625729777731634 0.000109551574172813)
(8.50730693811452e-06 0.000511754609257372 9.10671397880931e-05)
(5.30363376839686e-06 0.000347695523111046 7.16471665028039e-05)
(-4.862499621163e-06 5.43768198433047e-05 5.19199135975076e-05)
(-2.97821511112669e-05 -0.000518313954998638 3.21661879324077e-05)
(-6.66393255823224e-05 -0.00106417905639847 1.46973320690698e-05)
(1.47267999502582e-06 0.000933652531324207 0.000193710013128301)
(4.05026030348185e-06 0.000837902082219442 0.000170597627013214)
(6.29482037602636e-06 0.00075219574339094 0.000150705179419288)
(7.85087057824974e-06 0.000668703393261223 0.000132426410975741)
(8.07132405043398e-06 0.000573565039734792 0.000113901622781712)
(5.98218271689671e-06 0.000454951733433293 9.47287457901454e-05)
(-1.10931557840166e-07 0.000285688795758583 7.48179261036227e-05)
(-1.42152068624608e-05 -1.28235061556325e-05 5.47704473577796e-05)
(-4.40596802040421e-05 -0.000581947105705207 3.46545326253366e-05)
(-8.53848406056027e-05 -0.00112979610665629 1.850519839889e-05)
(1.38398340381068e-06 0.000959844724739836 0.000219361644970275)
(3.83725387551759e-06 0.00086747107355674 0.000195634383342906)
(6.0158564584853e-06 0.000785259077711448 0.000175257805464446)
(7.61573994502525e-06 0.000706548172257094 0.000156577884340204)
(8.07307852612839e-06 0.00062096076867653 0.000137768805407551)
(6.64605240298828e-06 0.000522535456301822 0.000118599967751931)
(2.33698474259691e-06 0.000400762287767634 9.92043951563072e-05)
(-6.63207255075864e-06 0.000229143307099933 7.99356840250832e-05)
(-2.45551122036564e-05 -6.78956180751049e-05 6.17057555999594e-05)
(-6.03981151974672e-05 -0.000616631709848466 4.55111990777604e-05)
(-0.000127338981360183 -0.00122430795340896 3.35766984497811e-05)
(1.30975312796745e-06 0.000986346615278559 0.000246569805399246)
(3.70844356841415e-06 0.000897712188050263 0.000222372957083301)
(5.93451735164184e-06 0.000818704733498291 0.000201563096525269)
(7.70678901601895e-06 0.000743134067157699 0.000182365500129568)
(8.51202427568362e-06 0.000662828943070329 0.000162930839274509)
(7.73250100721213e-06 0.000574803406739446 0.000143107067259612)
(4.64812358485041e-06 0.000474489837294945 0.00012315398405671)
(-1.74095905209013e-06 0.000352302741669576 0.000103575072182585)
(-1.33632925627197e-05 0.000183826134410477 8.51445809994866e-05)
(-3.57561838805205e-05 -0.000101098092380875 6.8855261380713e-05)
(-8.67727937621803e-05 -0.000634921524148157 5.40533177089683e-05)
(-0.000201107434726284 -0.00129227565795984 4.3311786395074e-05)
(4.2966739985214e-06 0.000485617306016417 2.54386777603622e-05)
(4.69773910360576e-06 0.000560714912448397 4.12292385283705e-05)
(8.37455097865973e-06 -0.00029189463701334 2.31468782961597e-05)
(4.45849212651245e-06 0.000746514632040805 5.23941995944231e-05)
(9.78991320078663e-06 8.26539670554341e-05 3.93661729425541e-05)
(1.07363817823753e-05 -0.000508960481171336 2.21827348252946e-05)
(3.64622283876531e-06 0.000806069035055904 6.59293909394255e-05)
(1.05929548648051e-05 0.000496377970072032 5.09675914257582e-05)
(1.23889212453608e-05 -0.000120733745645402 3.80186782499025e-05)
(8.75858526436921e-06 -0.000607570716952147 2.15908087461798e-05)
(3.00476688514609e-06 0.000835625659978071 8.19197782783273e-05)
(9.30677389564175e-06 0.000653643945626702 6.48233974908206e-05)
(1.40032419705393e-05 0.000360438664237385 5.04915883348615e-05)
(1.20461261235365e-05 -0.000215119581087666 3.77718917026256e-05)
(2.81519231330327e-06 -0.000697954782928935 2.13866546481428e-05)
(2.55187286130992e-06 0.000858657446083038 9.98863924332279e-05)
(7.90211430113109e-06 0.000723017057600053 8.12078769216043e-05)
(1.27195649459372e-05 0.000557321464016928 6.50295636434624e-05)
(1.50174607346674e-05 0.000278852203466869 5.05647742017775e-05)
(8.26427205912904e-06 -0.000293472311954442 3.71175517878333e-05)
(-7.32444391012265e-06 -0.000790408875200795 2.09997784936209e-05)
(2.24102329201972e-06 0.000881149529505647 0.000119476996165028)
(6.74204744519823e-06 0.000765616074951528 9.95509948057758e-05)
(1.10423664072136e-05 0.000645856363582153 8.2228699787119e-05)
(1.42563837400999e-05 0.000490771000090381 6.60639062829417e-05)
(1.33308008673917e-05 0.00020708403082795 5.03652292511541e-05)
(1.1889003749848e-06 -0.000367792915669817 3.58933216017842e-05)
(-2.15972656418488e-05 -0.00088545422853945 2.17761831639076e-05)
(2.01372354762301e-06 0.00090469110159014 0.000140424973219221)
(5.85802406319165e-06 0.000799085023166978 0.000119520358057738)
(9.57405627879386e-06 0.000698695425173543 0.000101344389132241)
(1.25840244440422e-05 0.000587897021323968 8.4388558954513e-05)
(1.35724136992413e-05 0.000428128906004256 6.70072603965227e-05)
(8.96490361425949e-06 0.000137894877109513 4.9837704071049e-05)
(-8.69013362577598e-06 -0.000440072098277784 3.40925606528086e-05)
(-3.90724036176711e-05 -0.000982948685301547 1.92273837018619e-05)
(1.83044478007424e-06 0.000929418528887813 0.000162584518525154)
(5.20882181067198e-06 0.000829335907239707 0.000140876605353923)
(8.42692839916226e-06 0.000738124824272693 0.000122061907624182)
(1.10630078639732e-05 0.000645520241076005 0.000104595388555171)
(1.2346778092391e-05 0.000530712872722954 8.66555238559883e-05)
(1.06497852411233e-05 0.000365170755647172 6.79258764592375e-05)
(2.18490657303339e-06 6.85667550887954e-05 4.9237533392472e-05)
(-2.10245345554573e-05 -0.000511724127709619 3.15112708252753e-05)
(-5.71516676275699e-05 -0.00107487595826694 1.53189270140152e-05)
(1.67948332364959e-06 0.000954979108743056 0.00018591944417312)
(4.72888573045675e-06 0.000858473618073658 0.00016349385137582)
(7.59110760400641e-06 0.000772037634543437 0.000144142380712427)
(9.93978161460723e-06 0.000687789227260632 0.000126283170428477)
(1.11622776923083e-05 0.000591703968625429 0.000108073820958751)
(1.03115657693254e-05 0.000471792714348702 8.90889187336886e-05)
(5.695085779337e-06 0.000300478297507351 6.92432838781883e-05)
(-6.7855454625701e-06 -2.24072966768248e-06 4.92362821432145e-05)
(-3.50004593034754e-05 -0.000581588526127378 2.96249915789371e-05)
(-7.49771025586635e-05 -0.00115909600512741 1.20971281342034e-05)
(1.55387034684735e-06 0.00098092840813998 0.000210489789805632)
(4.37749503675086e-06 0.000887232211454017 0.000187375482085909)
(7.0253589925187e-06 0.000803704355206833 0.000167496311462562)
(9.21768037683211e-06 0.000723670702285909 0.000149230796487255)
(1.041654783111e-05 0.000636535571033287 0.000130742142534561)
(9.91305106633247e-06 0.00053609963880098 0.000111684376395468)
(6.73203127199306e-06 0.000411403622714428 9.2001753253409e-05)
(-9.40301802231695e-07 0.000234857498734816 7.17454212362317e-05)
(-1.74232714136781e-05 -7.21588501140782e-05 5.15391139473372e-05)
(-5.10842846695287e-05 -0.000643601597268977 3.19737813690615e-05)
(-0.000111332719291836 -0.00130311344452794 1.75436533861236e-05)
(1.44534626418276e-06 0.00100695633026451 0.000236440967453863)
(4.11968879938982e-06 0.000916207988661745 0.000212722267162365)
(6.66563501271456e-06 0.000835214483096402 0.000192354249616123)
(8.84339114248179e-06 0.000757894755750019 0.00017363853734729)
(1.01546900563987e-05 0.000675689902489187 0.000154709650865029)
(9.9953483691551e-06 0.000585229097282895 0.00013532131459545)
(7.65873015475547e-06 0.000481403000702668 0.000115585532425285)
(2.13081776078974e-06 0.000353622194999226 9.57697540687213e-05)
(-8.59395917613105e-06 0.000175253154424404 7.6323890589447e-05)
(-2.97504524056166e-05 -0.00012852900493534 5.81521829129957e-05)
(-7.54329114150063e-05 -0.000693668299380583 4.23994737059899e-05)
(-0.00016578970280332 -0.0012723641278275 3.4164763947261e-05)
(1.34730660294659e-06 0.00103300100247909 0.000264008423280559)
(3.92017975650671e-06 0.00094578530798728 0.000239853008190616)
(6.46011097645986e-06 0.000867576156169089 0.000219079690480921)