/*--------------------------------*- C++ -*----------------------------------*\
  =========                 |
  \\      /  F ield         | OpenFOAM: The Open Source CFD Toolbox
   \\    /   O peration     | Website:  https://openfoam.org
    \\  /    A nd           | Version:  12
     \\/     M anipulation  |
\*---------------------------------------------------------------------------*/
/*   Windows 32 and 64 bit porting by blueCAPE: http://www.bluecape.com.pt   *\
|  Based on Windows porting (2.0.x v4) by Symscape: http://www.symscape.com   |
\*---------------------------------------------------------------------------*/
FoamFile
{
    format      ascii;
    class       volScalarField;
    location    "300";
    object      k;
}
// * * * * * * * * * * * * * * * * * * * * * * * * * * * * * * * * * * * * * //

dimensions      [0 2 -2 0 0 0 0];

internalField   nonuniform List<scalar> 
10176
(
1.5194404925373e-07
1.44021105448683e-07
3.36111506698313e-06
6.5106353937525e-07
6.81700015476755e-07
1.57780847984282e-07
3.44588040774415e-06
1.44191668990593e-05
1.06961292962342e-05
1.83834368137841e-06
1.08072967925863e-05
7.10934493751946e-07
1.91100956424328e-06
1.46465320481127e-07
3.56185984076661e-06
1.44585280503209e-05
2.78339515184568e-05
3.14433987314822e-05
2.28918038471254e-05
3.78279830154453e-06
2.29794949853275e-05
1.08896420197558e-05
3.14076747275506e-05
6.88219233750147e-07
1.96314922236566e-06
3.97015689840926e-06
1.31714210059016e-07
3.36195871637995e-06
1.44235250739927e-05
2.80270009350068e-05
4.30409640122218e-05
5.22334962092667e-05
5.34879827496304e-05
3.86915125451732e-05
6.72247019016514e-06
5.33147460631286e-05
2.29224330095521e-05
3.87269285768717e-05
3.10308984320415e-05
1.03996504632764e-05
5.21218113323484e-05
6.01635106367544e-07
1.89835520960586e-06
4.06102187496322e-06
6.86019061506692e-06
7.91011200862263e-08
2.79540691336302e-06
1.35596630754097e-05
2.75457113272659e-05
4.28241033243729e-05
5.90084387665017e-05
7.34759702803099e-05
8.15635653923852e-05
7.87705368518903e-05
5.66297735922762e-05
1.01530218537371e-05
8.11381723937803e-05
7.84483072154216e-05
5.24727243360844e-05
3.84331353078572e-05
2.19521039807135e-05
5.65122554968742e-05
5.11742761232439e-05
2.95443993947181e-05
9.01055390720096e-06
7.29376969684698e-05
4.10446323248946e-07
1.65488413075073e-06
3.9167957868992e-06
6.95782864585222e-06
1.04007801374242e-05
3.20771203080117e-08
1.79509930082637e-06
1.16562847411209e-05
2.56132819753744e-05
4.16397854197265e-05
5.86069714755229e-05
7.64504740513732e-05
9.48859316919373e-05
0.000108873660910815
0.000113828693216756
0.000106020740040533
7.53795594261394e-05
1.43542420406238e-05
7.9551663334825e-05
0.000113260364080848
0.000108130283566157
0.000105580314964085
7.71514831586424e-05
5.01663478563141e-05
5.59680299978386e-05
3.69092496440305e-05
1.949044739946e-05
7.52189447073295e-05
7.12573171314146e-05
4.86310500911051e-05
2.63775562202536e-05
6.43739037928478e-06
9.40811607499428e-05
2.14058975859722e-07
1.21194828100636e-06
3.4523720452472e-06
6.71408309020313e-06
1.05608476435038e-05
1.45956068079041e-05
5.01579426662559e-09
6.91196711248688e-07
8.53729209028779e-06
2.22245692633402e-05
3.87892631420976e-05
5.6777477062781e-05
7.56181243924025e-05
9.37058463312185e-05
0.000116261272092747
0.000135768682528788
0.000147055201624747
0.000148046226450988
0.000134190620869964
9.44797311079111e-05
1.89168807680189e-05
0.000111191016137136
0.000105828385907003
7.60119680211582e-05
0.000146243619185212
0.000147423073999842
0.000134732105072907
0.000133680124010269
0.000103954011774808
7.40544704597846e-05
4.56145252730406e-05
7.45394524930672e-05
5.4002499360828e-05
3.34538175236946e-05
1.50397589498601e-05
9.42905397736462e-05
9.17460102551556e-05
6.75272982137867e-05
4.37586810479801e-05
2.09940193034553e-05
2.87286513379683e-06
0.000115183930033048
3.73726450705401e-08
7.6007583585057e-07
2.68516007968564e-06
6.01545946533366e-06
1.02667016872516e-05
1.48293218148093e-05
1.9284564656804e-05
1.25914122041726e-09
9.47035025297134e-08
4.10342142087597e-06
1.7200438481797e-05
3.38784246813916e-05
5.27436975296871e-05
7.31427687270943e-05
9.27097571059596e-05
0.000111169061410554
0.00013743004363864
0.000162026591506623
0.000179250195573431
0.000187090982096674
0.00018321327380466
0.000162550027219143
0.000113475768476948
2.39614476942024e-05
0.00014351859318081
0.000106817797856943
0.000145073843091311
0.00013177423760351
0.000101115326229799
6.96709606604482e-05
0.000178174217269012
0.000186283855197227
0.000182558210130008
0.000160742211654951
0.00016202385245343
0.000131874680981338
0.000100312382925471
6.82919852059053e-05
3.8047633628281e-05
9.35920150082752e-05
7.23484773554769e-05
4.98781597959008e-05
2.74773033819866e-05
8.23396146824408e-06
0.000113356841499647
0.000112230532687029
8.69373335716749e-05
6.10782019378416e-05
3.60223164736658e-05
1.24389894425103e-05
3.7679533366771e-07
0.000136111097626804
4.18465502803278e-09
1.19754619339922e-07
1.86337951132688e-06
4.92574384341817e-06
9.37383054798036e-06
1.4528369059383e-05
1.96876996474435e-05
2.44308023391221e-05
6.10400913470055e-09
7.87069650134443e-07
9.84695518619606e-06
2.66858025623953e-05
4.62125345545781e-05
6.81025032340898e-05
8.96368773188997e-05
0.000109924150964458
0.000127932407173803
0.000157939375666249
0.00018751517998373
0.000210365565571782
0.000224431047732553
0.000227999020978035
0.000218513184905677
0.000190610476730027
0.000132173084986547
2.93661835957578e-05
0.000174827620188138
0.000183350523807773
0.000138052228393875
9.93119816973527e-05
0.000140207993262009
0.000180061005908015
0.000157185645723067
0.000125983210668915
9.31686141121738e-05
5.97865919784247e-05
0.000223381997605579
0.00020904803399913
0.000227181145664967
0.000217842856279684
0.000186019201530803
0.000190115845703968
0.000160159295991483
0.000127992231067784
9.38206243832914e-05
5.89331718533476e-05
2.57005206741223e-05
0.000112740499449186
9.13617092398795e-05
6.79623117384148e-05
4.31394276262531e-05
1.85287561179869e-05
0.000132138973439436
0.000132603862830409
0.000106344047615109
7.88373206678883e-05
5.12401754207373e-05
2.43773153790841e-05
3.03369108392306e-06
4.06563883552147e-08
0.000156468003552978
8.15733384631057e-09
5.49543531418207e-07
3.62865428833234e-06
8.02824907799883e-06
1.3486924745034e-05
1.94335280189266e-05
2.50189901175705e-05
2.99401423042049e-05
4.48094038050492e-08
2.4240785356073e-06
1.63724498158329e-05
3.71009459663704e-05
5.99017389604596e-05
8.34660606891256e-05
0.000106293350980938
0.000126577136336819
0.000144068253407273
0.000177679959333635
0.000211967322461395
0.000240259938855056
0.000260238192929696
0.000270327337873324
0.000268938119731093
0.00025336377333659
0.000218055055030814
0.000150396791697622
3.5192804663704e-05
0.000219867791101199
0.000205129910125878
0.00016835605937845
0.000224129382319902
0.00017749647468824
0.000129088977789259
0.000132104343924668
8.79239726514897e-05
0.000175001631926983
0.00021526850435811
0.000181947784686466
0.000150390715248852
0.00011649133462831
8.12386522722048e-05
4.50912780242342e-05
0.000258951244834378
0.000269266784078182
0.000238749781554833
0.000268090783890328
0.000252703985328333
0.000210321828553454
0.000188263653431823
0.000217616595945733
0.00015623956586205
0.000121357780711991
8.36875451175438e-05
4.36703291252387e-05
9.20187312147195e-06
0.000131647187964738
0.0001105734345711
8.69653119282972e-05
6.12432119711738e-05
3.36893560125904e-05
0.000150479780714279
0.000152535637155697
0.000125793848138614
9.67110674160017e-05
6.6727078646652e-05
3.6449822064456e-05
8.42408171621134e-06
2.74297711408893e-07
5.94800703693583e-08
0.000176045382771768
8.61646038382103e-09
2.15945918104296e-07
2.12275347203596e-06
6.42308557731485e-06
1.19193495229535e-05
1.82885625716357e-05
2.48554346897689e-05
3.07215545795203e-05
3.58877647452388e-05
1.40736021586838e-07
4.80724563225215e-06
2.39721517776365e-05
4.82471973601719e-05
7.36339046300904e-05
9.91363853440402e-05
0.000122524373905568
0.000142535995574506
0.000159144603916053
0.000196382372486977
0.000235292831178271
0.000268797944164835
0.000294457074067726
0.000310635949873168
0.000316100429824833
0.000309287418445236
0.000287387770048469
0.00024468249060044
0.000168154362808272
4.12503069583248e-05
0.000265643905591398
0.000254888605716471
0.000213099933119604
0.000234343785757096
0.000197737318051115
0.000158030099209333
0.000218135738025027
0.000264937031195955
0.000168136482823029
0.000116017749269985
0.000166859479836663
0.000120277371560859
7.16615639599782e-05
0.000210166323899035
0.000250087500406698
0.000205827999080454
0.000174276006527183
0.000139469917164461
0.000102474540075244
6.35818732014366e-05
2.10056424377014e-05
0.000292984544902262
0.000309330156155751
0.000314989177392025
0.000267145031404193
0.000308420268771838
0.000286756708313265
0.000233505343173609
0.000184376819337851
0.000215802750396489
0.000244304050498543
0.000149745111648818
0.000111715436112896
6.84542710482599e-05
2.47039121640148e-05
7.02468189621696e-07
0.00015012087260838
0.000129573387067182
0.000106228373024054
8.05010130722503e-05
5.25825297854151e-05
2.59687562651603e-05
0.000168326500330594
0.000171675643504163
0.000144887136644417
0.000114741543502205
8.25175326952467e-05
4.89690159593047e-05
1.47626013168562e-05
7.06184570537448e-07
4.91790981486182e-08
0.000194596464805019
7.26583835604401e-09
1.15905415787097e-07
1.29748521992373e-06
4.77081150606289e-06
1.01125140359585e-05
1.6526708229524e-05
2.36417412401149e-05
3.06659330938573e-05
3.68396649284451e-05
4.21119789345657e-05
3.1001778971049e-07
8.0268440094391e-06
3.21881861352788e-05
5.97238281837483e-05
8.77203332031052e-05
0.000114456649773278
0.00013800369364352
0.000157462067624331
0.000172941100800091
0.000213807739411652
0.000257343386960529
0.00029591549967185
0.000327037402635331
0.000349009664870507
0.000360723304818162
0.00036112771028084
0.000348641849832579
0.000320351639422006
0.000270370971901674
0.000185424278148227
4.74494693397823e-05
0.000258780540392068
0.000305161028199005
0.000311235310546244
0.000288454052176952
0.000247275013591239
0.0002025721180018
0.000262331798006521
0.000226136360130976
0.000186137282722181
0.000143208991341336
0.000258878661543188
0.00020883605174399
0.000305166461879546
0.000155030450725005
9.73973625756337e-05
0.000155583912804387
0.000202197814728704
0.000104660717658578
4.54683390177202e-05
0.000244960789454349
0.000284106393747971
0.000228621825497473
0.00019737836631876
0.000162048250425318
0.0001235209662156
8.19585541712202e-05
3.38658830091362e-05
1.51017802615541e-06
0.000347515145704449
0.000325430261578799
0.00035935001839376
0.000359965634807466
0.00029414325946506
0.000347769322231556
0.000319751095636188
0.000255428314351093
0.000178009160282235
0.000211939238139612
0.000242523296968134
0.000270044575526528
0.00014075338078376
9.94546160793401e-05
5.17410445741745e-05
1.0372978687738e-05
5.12256241011784e-07
0.000168088062957829
0.000148135925488822
0.00012526765833689
9.99122429343648e-05
7.24968333771425e-05
4.35496393942144e-05
1.80726109429595e-05
0.00018567249808936
0.000189828994745062
0.000163188513695136
0.000132439518440293
9.84752247530345e-05
6.18002683827108e-05
2.20676688251138e-05
1.35194140791666e-06
7.2982424408447e-08
0.000211906221508572
5.91755864480694e-09
8.60350410669361e-08
8.11520887745576e-07
1.67905607176203e-06
3.51689265652771e-06
8.33252345952207e-06
1.45209984646678e-05
2.16957627113083e-05
2.93876247102064e-05
3.68638555126986e-05
4.32762956866052e-05
4.8480177176014e-05
5.30293946341393e-07
1.21230156426368e-05
4.08329531397586e-05
7.14266792247937e-05
0.000101366842271768
0.000128933246115774
0.000152496332340766
0.000171143620693294
0.000185592867138357
0.000230003314658496
0.000278001074553379
0.000321547759012144
0.000357959133318589
0.000385484036762992
0.00040305622662524
0.000409887779579512
0.00040500204738518
0.000386749737231564
0.000352100369646951
0.000295055809739262
0.000202124011837566
5.37054070624749e-05
0.00029748932922172
0.000304285541726292
0.000248417199821513
0.000342882604314455
0.000355027870314969
0.000356058136189841
0.000280087834547562
0.000320511156983306
0.000235635949063271
0.000188085404994662
0.000288972141451359
0.000253404034805118
0.000213366987670103
0.000169645653258898
0.000122206300344477
0.000299009876472587
0.000249728397803313
0.000196379420155491
0.000344410917383149
0.000137922114451011
6.68408278252247e-05
0.000191573525919055
0.000141741195979211
0.000237077950320971
8.52226353124896e-05
2.08684324305087e-05
0.000278912421432089
0.000317055648363162
0.000250192530263459
0.000219449133647282
0.000183935107312898
0.000144274234815237
0.000100295553752639
4.73118020076398e-05
2.7981614054373e-06
1.03730090949012e-06
0.000401485334831768
0.000383855939630654
0.000356246192517657
0.000408442188229178
0.000403801474208791
0.000319669098656708
0.000385873950977483
0.000351522243567966
0.000275975450408443
0.00016933044458281
0.000205590789069348
0.000238642980599553
0.000268278426794981
0.000294763910167338
0.000129833475690772
8.59429321211776e-05
3.54709605804604e-05
6.20382205749809e-06
3.53714375810134e-07
0.000185518062849887
0.000166155634993607
0.000143822549236548
0.000118983099728493
9.223451680252e-05
6.37619071161715e-05
3.45805463588839e-05
1.16590036248978e-05
0.000202433195455533
0.000206806955989229
0.000180595704667435
0.000149465255926557
0.000114247652897439
7.49610663225098e-05
3.02240464638316e-05
2.16216697046286e-06
6.07082765332145e-08
0.000227980015514585
4.49693945613659e-09
6.75517776039151e-08
5.81398968734837e-07
1.30709431575187e-06
2.5932235151917e-06
6.73174549060686e-06
1.25097134686097e-05
1.94471863558502e-05
2.72311971134143e-05
3.54979143380334e-05
4.33903112507284e-05
4.98603474258517e-05
5.48998773033196e-05
8.70078903999608e-07
1.66900237632737e-05
4.99520402324618e-05
8.30117628668953e-05
0.000114322938441521
0.000142505732802839
0.000165803134347197
0.000183656681766912
0.000197001464188637
0.000244891857481366
0.000297244138281288
0.000345633144517141
0.000387199046351908
0.000420087179370354
0.000443231816962543
0.000455989014559058
0.0004577353053423
0.000447469401578107
0.000423433800795601
0.000382521519445151
0.000318667001650426
0.000218177502073382
5.99385695761382e-05
0.000334492737677045
0.000347258500019508
0.000286112883733432
0.000348943196388073
0.00029406029920407
0.000234778203808049
0.000378842153225464
0.000396687652658703
0.000403927513034626
0.000399725847767455
0.000267416726259167
0.000311478246970112
0.000350991061544532
0.00021977964362431
0.000169291297474016
0.000314173268719512
0.000279390242038496
0.000239559373986064
0.000195309460008614
0.000146408371490431
8.79155816583216e-05
0.000289854494062347
0.000338088953796988
0.000237821749859497
0.000181295654686182
0.000382397547986706
0.000116323963492728
3.35072423305566e-05
0.000226707192003011
0.00017891442726852
0.000126162147842596
0.000270956666527607
6.34194391102098e-05
1.40166631244156e-05
0.000311739337764585
0.000348760809439751
0.000270425665431735
0.000240368488960174
0.00020489445263291
0.000164466916135408
0.000118510882639202
6.1236674947657e-05
4.39602941465394e-06
1.94585702986016e-06
7.74947637260589e-07
0.000454334399761667
0.00044152366677435
0.000418357105082797
0.000385393365396172
0.000456227759618945
0.000446234006884026
0.000343656487752246
0.000422550142307356
0.00038195198146816
0.000295109211415401
0.000158892350141027
0.000196943832555096
0.00023220842308414
0.000264335679668903
0.000292982330220727
0.000318395553775705
0.000117782227434621
7.21608496634314e-05
2.74705444630246e-05
5.01636825196189e-06
2.5133164083816e-07
0.000202339983514759
0.000183581856114639
0.000161761472408419
0.000137438235875854
0.000111352870810949
8.38078603322166e-05
5.49850763934265e-05
2.76304968365706e-05
8.41655366344826e-06
0.000218534370678256
0.000222580471767238
0.000196974792890435
0.000165753142809566
0.000129487721330971
8.79309909444556e-05
3.88214978793871e-05
3.23591056000878e-06
4.76602953102544e-08
0.000242743375305885
3.19131519655535e-09
4.72778449525493e-08
4.34370838440825e-07
1.0752168739592e-06
1.94286003364426e-06
5.34780786328285e-06
1.05612045376745e-05
1.71219779767401e-05
2.46919039964373e-05
3.31144134368031e-05
4.19140317759375e-05
5.00640383005677e-05
5.64873775715213e-05
6.12909926861487e-05
1.27882197067348e-06
2.20053881097737e-05
5.8859678215933e-05
9.40188948749151e-05
0.000126736751170023
0.000155152501500342
0.00017797652458874
0.000194890511269102
0.000206936223182969
0.000258344705844844
0.000315021579430518
0.000368131570651938
0.000414722192137366
0.000452824496573786
0.000481332593129963
0.000499668920959886
0.000507432167963949
0.000504017370899348
0.000488341391763354
0.000458567871849076
0.000411536582997116
0.000341145547500367
0.000233513028074047
6.60770961032538e-05
0.00036981691283671
0.000322170598458516
0.000388198316408231
0.000395945227411774
0.000336029177193887
0.000271290545078444
0.000338631147060745
0.000392357529479252
0.000280964927952704
0.000218367399952282
0.000413016202152325
0.000436339120658321
0.000449320018460568
0.000451497749443153
0.000441974872090894
0.000250251302992532
0.000297850871916193
0.000341353342289861
0.000379833225255417
0.000199338942166983
0.000145765574729317
0.000337860529209274
0.000303990732328341
0.000264552267883701
0.00022003894699373
0.000169991741614205
0.000108852854736147
4.74309220718989e-05
0.000278068338543985
0.000328739893115969
0.000375848829840531
0.000223766510741653
0.000164159787709639
0.000418937114953202
9.15753609224636e-05
2.44151623182436e-05
0.000214391986014977
0.000260504105078877
0.000164910360717917
0.000109859280509125
0.000303583534407408
5.16086126379887e-05
1.21187779229307e-05
0.000343271312749791
0.00037910133062012
0.000260023895426137
0.000289268217749175
0.000224808393159142
0.000183848478963099
0.00013628614436932
7.52986052546787e-05
6.46949372601107e-06
3.08941676293062e-06
1.5230708558866e-06
6.36583705100152e-07
0.000497871724382819
0.000505702664289233
0.000479520924786454
0.000451005982660183
0.000412829562820772
0.000502451385968841
0.000487066325896209
0.000366060453360413
0.000457665072538368
0.000410964247084324
0.000312780359591222
0.000147302264943543
0.000186525030519422
0.000223407610219633
0.000257726110313774
0.000288930469300791
0.000316576038945819
0.000340883777398877
0.000105424427015883
6.16953786508536e-05
2.44787065456583e-05
4.61336200366912e-06
2.06309488512061e-07
0.000218482822763986
0.000200371848039809
0.00017903351656919
0.000155162246149795
0.000129663301447349
0.000102904700671833
7.51405583620547e-05
4.73183674307355e-05
2.27403758066209e-05
6.73175746894557e-06
0.000233905934802643
0.000237047462304959
0.000212175019649905
0.000181050819677769
0.000144118973606299
0.000100755029438353
4.7732995911227e-05
4.48570048289333e-06
3.81608107590381e-08
0.000256089888553635
2.56386795623744e-09
3.07044763958601e-07
3.65835392455482e-08
9.03559207041625e-07
1.44538272036212e-06
4.17929874815918e-06
8.72008450942957e-06
1.47886443632431e-05
2.20177915446032e-05
3.02764519424919e-05
3.92670693394227e-05
4.84704601495631e-05
5.67738761427238e-05
6.30735216137986e-05
6.75835111870892e-05
1.80018885297697e-06
2.7221799095977e-05
6.76926016895721e-05
0.000104732864941829
0.000138337060423428
0.000166731679823556
0.000188847366225242
0.000204666384273126
0.000215324219252924
0.000270352981769629
0.000331279025725197
0.000389006113556525
0.000440491539953092
0.000483675757092022
0.000517392238355922
0.000541071562009016
0.000554431609537013
0.000557145927567026
0.000548556734676021
0.000527491699768433
0.000492059421201118
0.000439082536746978
0.000362442552175287
0.000248071973191874
7.20522301095665e-05
0.000403414011111663
0.00042721735624896
0.000356613299243677
0.000376041083540528
0.000306198654480966
0.000440587267081527
0.000443195561720837
0.000384574336880657
0.000321780734167661
0.000253537699866153
0.000325550457525145
0.000381741139999403
0.000434283457744771
0.000265582173292734
0.000199723282517152
0.000445368227610974
0.000474006221091497
0.000492456083054353
0.000500441079091997
0.000497487069497435
0.000482607777228344
0.000228236092130676
0.000279442380512921
0.000326832350322153
0.000369634380070873
0.000406983931485787
0.000174045583215862
0.000118718541970906
0.000359982776447264
0.000327121816036693
0.000288232336773352
0.000243661162677638
0.000192768430236666
0.000129474327979573
6.28329263915263e-05
3.64400761659589e-05
0.000264179347089872
0.000316719199842884
0.000366167916958736
0.00041211023632996
0.000208135698740139
0.000145884475203279
0.000453898298828904
7.67203921867938e-05
2.18576256889962e-05
0.000200658419443801
0.000248038264367005
0.000292837301873339
0.000150243945812824
9.63138942900368e-05
0.000334818336487075
4.61282048278545e-05
1.16000703411433e-05
0.000373399336824476
0.000408007024223749
0.000278323124149184
0.000243515014360206
0.000306664341311647
0.000202299490134245
0.000153471650385294
8.92911381558107e-05
8.804016335446e-06
4.68708376171084e-06
2.57523002886884e-06
1.31314261746015e-06
5.73906205202044e-07
0.000539167818705376
0.00055255325590468
0.000555344094183011
0.000515491009132199
0.000481773736432597
0.000438515131298487
0.000546927672257516
0.000526169055356282
0.000386844573632125
0.000491128771135063
0.00043849909610194
0.000328944634003902
0.000135139595914196
0.000174847327166798
0.000212733302294333
0.000248623147640978
0.000282079720783004
0.000312383220759011
0.000339010420171982
0.000362182766454406
9.40748711357166e-05
5.44470509331383e-05
2.24981260743426e-05
4.35288804914265e-06
1.82235315861993e-07
0.000216461460123212
0.000233879846089254
0.000195636245133718
0.000172135100405453
0.000147040854002914
0.000120965423625345
9.40390437553478e-05
6.68269831011014e-05
4.08610713917582e-05
1.91930945507081e-05
5.61748355879066e-06
0.000248494555079047
0.000250129359408162
0.000226078854921864
0.000195249623592426
0.00015790903097364
0.000112973759630321
5.65015887135346e-05
5.92271051306326e-06
3.33724143234512e-08
0.000268010813237347
2.22406658082299e-09
1.02972209331043e-06
2.12968151022823e-07
2.9902337242422e-08
7.77093312131955e-07
3.1832513045517e-06
7.01297251434813e-06
1.2471967228802e-05
1.93276676944231e-05
2.72733972819644e-05
3.60901920228925e-05
4.55452230533574e-05
5.50563353637443e-05
6.34336028402767e-05
6.95473674712193e-05
7.3694815600755e-05
2.37040728854467e-06
3.27132956745187e-05
7.62812308326159e-05
0.000114862916128828
0.000148932878827793
0.000176988748518971
0.000198299211491515
0.000212928219956833
0.000222222935969829
0.000280963343432426
0.000346016636404637
0.000408230743281055
0.000464473328694014
0.000512608696306198
0.000551401372377936
0.000580256902437189
0.000598946274077608
0.000607305906610095
0.000604977631423392
0.00059122617923997
0.000564816749615785
0.000523835501352001
0.000465112854588181
0.000382521670243228
0.000261814049106609
7.78069712886244e-05
0.000389380716437321
0.000435228083622007
0.000464311715642681
0.000483071683592447
0.000414198664409459
0.00033953494108197
0.000428254653725791
0.000360680412790405
0.000287122592964389
0.000491339362299562
0.000488787381007186
0.000431434534877362
0.00037027463654701
0.000305085952853993
0.000233415151525106
0.000310203790091455
0.000368290229712989
0.000423215049776453
0.000474549292235565
0.000248402538936838
0.000179650926064917
0.000475856579609171
0.000509677164621153
0.000533410944810579
0.000546869529938371
0.000549814348668182
0.000541714853230404
0.000521498606806304
0.000201271508804507
0.000255921197321994
0.000307243141403212
0.000354272644774735
0.000396257484403311
0.000432399223721165
0.000145119865459165
0.000101277963263369
0.000380502642920945
0.000348722376109903
0.000310499758707504
0.000266058450614226
0.000214571957217265
0.000149548586349238
7.89181415324991e-05
4.99325404816863e-05
3.32033680488971e-05
0.000302488014136454
0.000248627136720854
0.000353695692017528
0.000402008210009855
0.000446763098346151
0.000191456438797894
0.000129595190650139
0.000487196477037416
6.8709232859353e-05
2.08074885841936e-05
0.000185972691962981
0.000233980458791345
0.00027994228735037
0.000323643814076455
0.000135951511030822
8.60806836841588e-05
0.000364591724086407
4.23437279616182e-05
1.10889962555735e-05
0.000402066465686516
0.000435424633523838
0.000295207358907099
0.000260931410280528
0.000219652328899241
0.000322580496459966
0.000169829277875062
0.000102884183436531
1.1465162095717e-05
6.57469188494491e-06
4.07359882260244e-06
2.31793971632037e-06
1.2088057287239e-06
5.33546718360271e-07
0.000578261037256857
0.000596958095421368
0.000605347940863803
0.000603098586011469
0.000549414921408105
0.000510625743687824
0.000462416551128859
0.000589527397330049
0.000563440032364273
0.000405985933709768
0.000522871088085871
0.000464512863237954
0.000343601783273569
0.000122973957877447
0.000162280570632983
0.000200628807477258
0.000237522295640575
0.000272594352079302
0.000305250023781598
0.000334656189128626
0.000360245557713875
0.000382259049729322
8.40536735209285e-05
4.85427074417487e-05
2.02981689436418e-05
3.87785461158098e-06
1.60150857099231e-07
0.000211516363499073
0.000231789698581597
0.000248483588000125
0.000188399574661895
0.000163599398798532
0.000137873584753531
0.000111556597670022
8.49900954807671e-05
5.89714075077233e-05
3.52020239344695e-05
1.6169601614192e-05
4.57101630201225e-06
0.000262264043906797
0.000261827057879391
0.000238678135301844
0.000208320513146868
0.000170789813735638
0.000124593204155565
6.51062919726773e-05
7.46180622987694e-06
2.98943648125044e-08
0.000278540281394078
1.81419907377215e-09
2.35477235495476e-06
7.23295768625678e-07
1.55083321664875e-07
2.27718348150691e-08
6.45654634728976e-07
5.52227805679177e-06
1.03242008376181e-05
1.66301085681052e-05
2.41815071877389e-05
3.27100137001556e-05
4.20089030491118e-05
5.18448228811736e-05
6.15889611315728e-05
6.99684649596412e-05
7.58263186560254e-05
7.95779328430812e-05
3.00905680265572e-06
3.81500196693917e-05
8.43766007887353e-05
0.000124114234996807
0.000158344398305751
0.000185977355983733
0.000206316657110047
0.000219750915322347
0.000227758712086003
0.000290204181572157
0.000359270163803604
0.000425803421629961
0.000486646347224035
0.000539585303516968
0.000583326568994031
0.00061723312839808
0.000641076729276756
0.000654773554803182
0.000658156120184816
0.000650802724276113
0.000631917387258929
0.000600234526270558
0.000553843999901809
0.000489597553694843
0.000401360728201073
0.000274712724698381
8.33027656460301e-05
0.000420407543581311
0.000450483576819868
0.000371240083087631
0.000465207403834214
0.000499448715409971
0.000523438275252608
0.000469854651765063
0.000537082118966288
0.000397769563283821
0.000319166956037765
0.00041280138093684
0.000478551958635824
0.000342695191205661
0.000265544310193297
0.000540263083098059
0.000532575895674674
0.00047648047715119
0.000416656866635307
0.000353530297139682
0.000286391485860724
0.000211648929673296
0.000292950155570513
0.00035243849793453
0.000409172864914576
0.000462949343960169
0.000513047773639507
0.000229826552046518
0.000160936006936709
0.000543317976047148
0.000504442709236483
0.000572195854441484
0.000590919451275055
0.000599373278482061
0.000597285815598842
0.000584056173175758
0.000558550592805357
0.000170645341641617
0.000227363769968781
0.000282286058286286
0.00033356376699144
0.000380101271100165
0.000421174350164627
0.000456045678809117
0.00012530377638227
9.0896090787919e-05
0.000368754141068643
0.000399400028197459
0.000331291707191261
0.000287125828053609
0.000235255714913355
0.000168843640237381
9.52883347872742e-05
6.42903650395866e-05
4.57451575154521e-05
3.1344625806932e-05
0.000338857852930787
0.0002863926232687
0.000231732147045467
0.000388968466122479
0.000436191623915565
0.000479734948490178
0.000174529256335632
0.000116294493307841
0.000518767779137169
6.25915369428337e-05
1.96756294289744e-05
0.000218656320618019
0.00017075465476549
0.000265269033701775
0.000310174376298587
0.000352914498825371
0.00012263406490676
7.72143491713391e-05
0.00039286874147782
3.83066062693834e-05
1.00308500806304e-05
0.000429231420127595
0.000461316437414045
0.000310662886276997
0.000277021403122426
0.000235832637669382
0.000185258085328258
0.000337016490705804
0.000115927640168506
1.42691372468314e-05
8.83642675966685e-06
5.9761399568524e-06
3.74067963178038e-06
2.15397192330162e-06
1.12504956055294e-06
4.75707875855791e-07
0.000615149591000927
0.000638994016130295
0.000652701889302747
0.000656113102740051
0.000648840065686147
0.000581257139694178
0.000537523978781673
0.000484513684975167
0.000630143804976563
0.000598799878589191
0.000423483432327133
0.000552842494729814
0.00048897785630065
0.000356782253389841
0.000110978837733994
0.000149130876612793
0.00018738405708544
0.000224832958413689
0.000260974070169374
0.000295334176267154
0.000327216880172118
0.000355719049090682
0.000380253209087979
0.000401092322954658
7.46465867879693e-05
4.25677692950971e-05
1.73821934795524e-05
3.19513408283384e-06
1.38553127867175e-07
0.000226623915712918
0.000203918921256563
0.000246316602135591
0.000262262098806169
0.000179404836854643
0.000153912890404514
0.000127862961738088
0.000101608142316197
7.57209680310651e-05
5.12067236832891e-05
2.95759463628036e-05
1.28722642487879e-05
3.44461436875276e-06
0.000275184881746015
0.000272151585334586
0.000249937010590043
0.000220123591251223
0.000182587429179908
0.000135493477202536
7.33851514264062e-05
9.07038854171042e-06
2.45074412549693e-08
0.00028771427624184
1.20909826207497e-09
4.21365612852776e-06
1.67968392604763e-06
4.96021479904935e-07
1.0590276725477e-07
1.46874299337863e-08
4.9053635346359e-07
8.3197126006719e-06
1.39880242474685e-05
2.1033081584616e-05
2.91975202866489e-05
3.82288570256475e-05
4.79415710202605e-05
5.80921790489038e-05
6.79892900696044e-05
7.63003080206197e-05
8.18641298783405e-05
8.51941968870007e-05
3.68599954112396e-06
4.33426937233247e-05
9.1985957689809e-05