/*--------------------------------*- C++ -*----------------------------------*\
  =========                 |
  \\      /  F ield         | OpenFOAM: The Open Source CFD Toolbox
   \\    /   O peration     | Website:  https://openfoam.org
    \\  /    A nd           | Version:  12
     \\/     M anipulation  |
\*---------------------------------------------------------------------------*/
/*   Windows 32 and 64 bit porting by blueCAPE: http://www.bluecape.com.pt   *\
|  Based on Windows porting (2.0.x v4) by Symscape: http://www.symscape.com   |
\*---------------------------------------------------------------------------*/
FoamFile
{
    format      ascii;
    class       volScalarField;
    location    "300";
    object      nut;
}
// * * * * * * * * * * * * * * * * * * * * * * * * * * * * * * * * * * * * * //

dimensions      [0 2 -1 0 0 0 0];

internalField   nonuniform List<scalar> 
10176
(
6.18851563602558e-08
5.83689488353734e-08
1.66875059410864e-05
2.63088919005737e-07
2.7910145773549e-07
6.491006385828e-08
1.68667542532912e-05
7.62915853048258e-05
3.08978035273941e-05
7.49686173328456e-07
3.13598025903748e-05
2.95671085107397e-07
7.87917557650556e-07
5.89895281464298e-08
1.75597543280981e-05
7.29205376946085e-05
0.000120820525184719
0.000147194630843736
5.30308802681933e-05
1.50935078067027e-06
5.39874943998321e-05
3.20875973145926e-05
0.000146316342773118
2.89332263253222e-07
8.30016754513915e-07
1.6413908914039e-06
5.43927598200388e-08
1.69374567335848e-05
7.02212483624088e-05
0.000127656733999803
0.000167909157471212
0.000247343352542127
0.000223998759404317
7.88662766214897e-05
2.71777439296382e-06
0.000224861646028113
5.51264871721016e-05
8.08792281160989e-05
0.000145212422197074
3.14635405499012e-05
0.000249386608284548
2.55177142694489e-07
8.21561818725327e-07
1.74188897663045e-06
2.8524899303889e-06
3.2010431068225e-08
1.50371285159053e-05
6.82737606382488e-05
0.000128256152206972
0.000165490425014031
0.000232691127921785
0.000328065285154778
0.000390795281206849
0.000299627983026852
0.00010656620729833
4.0693116209634e-06
0.000390797689935673
0.000301749778323618
0.000224661793567982
8.27325068844121e-05
5.43596155718266e-05
0.000108963051700014
0.000248042393237626
0.000141923531086662
2.84473225710841e-05
0.000326139533888956
1.72697744502778e-07
7.21541664428838e-07
1.72899831143222e-06
3.00462158901431e-06
4.32267250230584e-06
1.32797636350885e-08
1.05219996549442e-05
6.31835982135008e-05
0.000130140014662745
0.000159934040840055
0.000229033399715047
0.000254432589136754
0.00040579923286477
0.00052359757955931
0.000531019339216078
0.000371644899344891
0.000132992687671454
5.79469180090433e-06
0.000387163593896939
0.00053091286683911
0.000521297846114609
0.000374548164168477
0.00030216088249346
0.000219761063248776
0.000111409142150779
8.18906347458848e-05
4.97743866844377e-05
0.000136164053095691
0.000319519498443215
0.000241525075252818
0.000132383830482381
2.13109703285779e-05
0.000401674436179549
9.33384793844514e-08
5.2259696339274e-07
1.53846311992394e-06
2.98901321335774e-06
4.56849641316278e-06
6.08170050813402e-06
2.03791186482908e-09
4.67585483950916e-06
5.2710101401807e-05
0.000116105514032041
0.000145194174471789
0.000219946782871501
0.000256040784282449
0.000311536865793471
0.000461657243530909
0.000634344564623821
0.000723487114558645
0.000660972433670828
0.000438194228556377
0.000158730939829045
7.63563111616653e-06
0.000525899242428868
0.000512510821658592
0.000374935045068025
0.00072067758661854
0.000661189486412566
0.00062981495022032
0.000441851672995314
0.00037558811341918
0.000296117682256112
0.000205284936396773
0.000139333218457487
0.0001107380727337
7.6095893354339e-05
3.94000791870662e-05
0.00016225932105704
0.000392351532010016
0.000303215460047786
0.000222306816541173
0.000111494275817916
1.00205576402224e-05
0.000458839018655864
1.59113299648788e-08
3.45924364730322e-07
1.18470027048667e-06
2.70870361625697e-06
4.57861948459542e-06
6.42355097849578e-06
8.05085633197408e-06
5.18821597677092e-10
4.69245827922018e-07
3.31596169790561e-05
9.04724224568492e-05
0.0001345178746292
0.000209231734353668
0.00024913185435883
0.000303190976216211
0.000337812109318582
0.000524201695959486
0.000725845238172188
0.00088030588736353
0.000912573872835922
0.000778482270992371
0.000499466779680136
0.000182813611102057
9.69772087392465e-06
0.000709431170481935
0.000509866300127892
0.000655807402992309
0.000617248724387049
0.000491441250897521
0.00034694930385723
0.000875040103696737
0.000909452472489977
0.000779191985986549
0.00072053439499658
0.000503780041661039
0.000443785365785776
0.000369350815956684
0.000277986632728081
0.000173821495301874
0.000166122581446323
0.000139139502457013
0.000104553548663452
6.34535679218636e-05
2.15239679116892e-05
0.000186984209015069
0.000448396724524343
0.000374619782192724
0.000280136840295572
0.0001863638180716
6.86165372778913e-05
9.7600202816825e-07
0.000517229501583963
1.69137468058658e-09
4.94582453468178e-08
8.67476772821058e-07
2.21126013463756e-06
4.2319243098841e-06
6.48647981038341e-06
8.54856134876846e-06
1.02239208582459e-05
2.54413621161982e-09
5.77676249610737e-06
6.03901545490278e-05
0.000128825464108966
0.000186459399736742
0.000228378499311573
0.000288385293997803
0.000335372147320068
0.000379842404475074
0.000572448478797917
0.000808364597350715
0.00101039584505572
0.00112052182364802
0.00108479752329836
0.000884201804643999
0.000555572528073751
0.000205463067227063
1.18955532640358e-05
0.000858565623688531
0.000896629480424039
0.000682636587442884
0.000474357699479584
0.000638197742694413
0.000774319502211935
0.000705132334384574
0.00059046624231345
0.000452369664580999
0.000292515117200276
0.00111441010426579
0.00100345671793867
0.00108165311149286
0.00088556233160423
0.000801262957542993
0.000560639127472658
0.0005067776705185
0.000438384520689992
0.000350101398323937
0.000239806999728018
0.000108822658929633
0.000191678635581433
0.000166608046251031
0.000133326066024987
9.16402245230728e-05
4.2116712722758e-05
0.000210171556576422
0.000502496516517929
0.000424327678416245
0.000341713924909908
0.0002434287981122
0.000122665914070618
1.05720222023706e-05
1.67790245166637e-08
0.00056678543077023
2.4402595794757e-09
2.2890650638293e-07
1.67826263121411e-06
3.62326817516356e-06
6.09499852807407e-06
8.69777327263893e-06
1.08914097797417e-05
1.25496454886721e-05
1.90695789679987e-08
1.52145818243069e-05
8.88096721995675e-05
0.000150374659004237
0.000199484294265696
0.000268241111009744
0.000327470389998661
0.000374593067034764
0.000421755229223171
0.000621600686204868
0.000879852994550078
0.0011218887222039
0.0012930211413642
0.00134353801416895
0.00123969233026608
0.000979459388348962
0.000606946610419598
0.000226331336592016
1.42641947343828e-05
0.00109503229633222
0.000982890142101179
0.000822929397190902
0.00106853326133348
0.000866430330394633
0.000630620167854824
0.00059988963177406
0.00040663828873805
0.000757377971024413
0.000881822537950982
0.000782740880040591
0.000672339850948902
0.000540443897494134
0.000381764322813655
0.000193108251758907
0.00128468337274858
0.00133686206392111
0.0011135272353511
0.0012369051617429
0.000981625837508718
0.000872339527124984
0.000564840659429451
0.000612741362427156
0.000502823543545392
0.000420607505253247
0.000311229293297932
0.000164672933709499
2.07958759743377e-05
0.000215698981984186
0.000192942093038054
0.000161466378706404
0.000121664236730624
7.12636190938491e-05
0.000231770477112029
0.0005532412395936
0.000476362352013049
0.000384223484235904
0.000287304091607604
0.000164732737211974
2.760445563105e-05
1.1712236389448e-07
1.78682636679806e-08
0.000614884415151341
1.89340512421363e-09
9.20477470981326e-08
9.88353515005659e-07
2.87447106140345e-06
5.38333672542556e-06
8.28480654208628e-06
1.11565283963854e-05
1.34007944098274e-05
1.50571241882819e-05
5.86961571989461e-08
2.61119460415757e-05
0.000110782615739894
0.000168219324057556
0.000242150556937306
0.000310650181067252
0.000361753358839825
0.000413488869592333
0.000441037951993089
0.000667313815402238
0.000944587116324189
0.00121864298553789
0.00143882448927323
0.00155996377535443
0.0015463156429348
0.00137882553582016
0.00106560389137324
0.000653865029923085
0.000245646651962579
1.67215482232081e-05
0.00131623113088506
0.00126013154750131
0.00105379896757151
0.00108960781506939
0.000939846062298675
0.000756795048623313
0.00103820721308223
0.0012245970026685
0.000808801319602875
0.000537986723387363
0.000721242403317382
0.000530145113729964
0.000289717252735411
0.000866966029607645
0.000979348781784843
0.000852367557867123
0.000745697268262513
0.000613330094560868
0.000453185290758745
0.000255429166546791
4.74807598086642e-05
0.00142888853964834
0.00155063016025737
0.00153961934520451
0.00120936075767727
0.00137672516783493
0.00106861173063166
0.000936385390133005
0.000562491230798068
0.000618133845158963
0.000660387974957722
0.000487595816785697
0.000387026203529403
0.000240907264096059
6.1153513666746e-05
2.3270793012323e-07
0.000238131354768547
0.000217745195873329
0.000188437579592996
0.000151146071578408
0.000104756003469652
4.87167550185809e-05
0.000251673052421214
0.000598879418820212
0.00052582665798024
0.00043296679534275
0.000323636289200217
0.000198713891053105
4.41101622044652e-05
2.90796108523971e-07
9.80622058805045e-09
0.000659145546126446
2.34224913493682e-09
5.09673409992477e-08
6.02190724144354e-07
2.10954718623436e-06
4.54613450429543e-06
7.48388941838694e-06
1.0743413925983e-05
1.37966867423471e-05
1.60896054310989e-05
1.76765536250162e-05
1.30952510879194e-07
3.76939275347667e-05
0.000121689127910642
0.000195700482829336
0.000270013300564844
0.000332610964983306
0.000394561750551638
0.000433957891150817
0.000463849625930969
0.000701514318245057
0.00100247471336906
0.00130376643121634
0.00156417971954607
0.00174271736562837
0.00180590943737072
0.00172950662416388
0.00150414093145218
0.00114375082643019
0.000696717566906034
0.000264112504523317
1.92353057455467e-05
0.00127371965613244
0.00152403168389007
0.00151929190136992
0.00140038341308626
0.00120994389768187
0.000979516578863953
0.00118298071813816
0.00104073924813911
0.000862268221883246
0.000643556185533696
0.00119648584127583
0.000982417564198548
0.00136589698495484
0.000711003509680095
0.000384788108652683
0.000659394608800624
0.000835467512614571
0.000418401730197375
0.000115159068337341
0.00096702680836013
0.00106783011537335
0.000914510295179743
0.000811751681106587
0.000679742893247106
0.000513789974235592
0.000306513377482168
7.28625057162646e-05
4.57130269641541e-07
0.00173154711133828
0.00155310548087763
0.00179627031068303
0.00172329830143077
0.00129372632131312
0.00150286765267612
0.0011475475094253
0.000993457343960715
0.000549641028367212
0.000617281281001612
0.000666892886109875
0.000703945968342841
0.000459993105795768
0.000335451913988826
0.000147458776377099
7.91969295174555e-06
1.0995799014224e-07
0.00025888264702571
0.000240940598771087
0.000213835324981802
0.000178961794366662
0.000137059347544597
8.44736908785884e-05
2.96930111616316e-05
0.000270580794534269
0.000639533210834131
0.000564730784769787
0.000474059256024039
0.000362213787356851
0.000225926851019481
5.99704259751364e-05
5.60710041689708e-07
2.29277442251963e-08
0.000693108409477061
2.00605731902184e-09
3.64144554710915e-08
3.6949685841781e-07
1.30938304631159e-06
1.55253436496362e-06
3.73336637680838e-06
6.55491087346209e-06
9.85740837266208e-06
1.33896133937102e-05
1.66099235697669e-05
1.8913342588251e-05
2.0353537075623e-05
2.2138302779178e-07
4.9780129490393e-05
0.000152731586577895
0.000219603217036989
0.000282111314788539
0.00035279007475688
0.000413633412082353
0.000455777166085948
0.000490924026071843
0.000731920188002855
0.00105183725829687
0.00137876636474604
0.00167329662689885
0.00189919131045173
0.00202617314661584
0.00203012258881873
0.00189490457700567
0.00161738182611564
0.00121483128132099
0.000736555184898665
0.000281809447874511
2.17712548903902e-05
0.00147157981363433
0.00147873121831292
0.00120041687804676
0.00170048425847637
0.00176953849370512
0.00170430249442595
0.00134317834901407
0.00152159846126407
0.00112221349775591
0.000858454269939232
0.00126525272197459
0.00112934856983867
0.000953982357930967
0.00073288139868225
0.000462944323140045
0.001340953637511
0.00114657634904278
0.000893302735996609
0.0014937067976287
0.00056110955871991
0.00016519530905325
0.000784355617698289
0.000568012765679647
0.000940220910196244
0.000264049162714794
1.66513492545634e-05
0.00105788099201
0.0011481163212967
0.000969362676603505
0.000869382252448777
0.000738672793440145
0.000569440280173552
0.000351076961795464
9.5911743713889e-05
8.63279133805013e-07
2.05361211881232e-07
0.00201454408341728
0.00188673177417379
0.00166134972107224
0.0020208356399123
0.00188944224384348
0.00136804400114179
0.00161690063305384
0.0012193453496854
0.00104227365186277
0.000526264375729582
0.000606312975294483
0.000667334407676152
0.000711481672970238
0.000744319452684267
0.00042080284097326
0.000267218225532927
6.21076799546283e-05
5.44034472517463e-06
1.12463745139476e-07
0.000278412353277682
0.000262402564963597
0.000237546681577434
0.000204923143753444
0.000166449956971258
0.000120602428656059
6.49273717593199e-05
1.81318794977677e-05
0.000288663256262195
0.000671768401338138
0.000598599142199935
0.000504702211243812
0.000395470570607549
0.000257795777639138
7.55758596583194e-05
8.93621691278069e-07
2.04172512648441e-08
0.000722836672152077
1.54590477300346e-09
2.86904265062911e-08
2.54486620196674e-07
1.20673426130411e-06
1.15494620146246e-06
3.01804965211425e-06
5.63979637711837e-06
8.80950995390252e-06
1.24077198248893e-05
1.62014061499752e-05
1.95666212536297e-05
2.17975352133976e-05
2.30503295604203e-05
3.65746910719141e-07
6.19496889152302e-05
0.000156599795200839
0.000229197344875566
0.000300893100446089
0.000376228090039859
0.000434020199046337
0.000479979173250226
0.000506921198839007
0.000760395968124699
0.00109440460577482
0.00144424721503009
0.00176884280321033
0.00203475862507651
0.00221487322466173
0.00228701670140159
0.00223372308576832
0.00204440776583744
0.00171992748984555
0.00127993999299611
0.000773860944170265
0.000298695765962009
2.42978618128772e-05
0.00164028396677235
0.00171870151678163
0.00138393733200161
0.00166719573396715
0.00141178464712514
0.00108807535383279
0.00185232200661516
0.0019830705348413
0.0019952995457661
0.00187216199941061
0.00124477614841455
0.00145883137797876
0.001627462942779
0.00098286638841121
0.000679016669996606
0.00133768740575434
0.00120736820683479
0.00103481237962318
0.000811646063621696
0.00053124564761173
0.000209485143729423
0.00129759249929429
0.00147188683299061
0.00107114368030667
0.00076691868231435
0.00160926725989644
0.000363655745899416
2.76552572786179e-05
0.000897867218621663
0.000713638922221885
0.000449922246126179
0.00103486676260079
0.000119299435616978
1.30779489030496e-05
0.00114013431729587
0.00122106334249495
0.00101659663264259
0.000919992454390704
0.000789410765151886
0.000618799971779089
0.000393137209808624
0.000118040308201822
1.35011300852726e-06
3.91410769405355e-07
2.37581542338223e-07
0.00227569553600012
0.00220187532892328
0.00202132915643731
0.00175618471117505
0.00222514124088052
0.00203970772282106
0.00143296708342249
0.00172015029633225
0.00128502469378615
0.00108434551905243
0.000494413952920293
0.000585636019129017
0.000657763777087531
0.000713000557997578
0.000752654917419285
0.000782074223371178
0.000372066540118583
0.00019380735387421
4.98287961920652e-05
5.14845936651867e-06
8.39495608676195e-08
0.000297041945899713
0.000282428046539534
0.0002593548569847
0.00022896112490336
0.00019318157963872
0.000152288525533106
0.000103899580490083
5.18384379501116e-05
1.35455806309232e-05
0.000305895245192571
0.000700705460734131
0.000630082880891615
0.000534545900683109
0.000421582290420963
0.000279413763452875
9.07261487509433e-05
1.34297787285312e-06
1.63670626408046e-08
0.000750151396722931
1.10168485486793e-09
2.01225651348699e-08
1.90758311877027e-07
1.13220399855693e-06
8.70483942544694e-07
2.40697714163733e-06
4.76530952667374e-06
7.74621290430496e-06
1.12181052163565e-05
1.51171777324502e-05
1.9148072952598e-05
2.25850292358982e-05
2.46978292070542e-05
2.57342634380079e-05
5.36778827158544e-07
7.34542325964626e-05
0.000181978435072454
0.000252916567045506
0.000318833052958893
0.000401695279978799
0.000455944420498372
0.0004942008202987
0.000511449012383805
0.000782186631609714
0.00113137458695893
0.00150113279598887
0.00185252270531781
0.00215310153111076
0.00237816937247331
0.00250781784537575
0.00252548737711911
0.00241831317080541
0.00217960352467498
0.00181315056728202
0.00133993973987653
0.000808812298550884
0.000314696111904834
2.67861551428559e-05
0.00178607550421326
0.00154126196550994
0.00192421728358119
0.00194803666784972
0.00163750051400729
0.00125299144692613
0.00160793657898439
0.00183867658897402
0.0013147977552618
0.000933760170946658
0.00198431782247037
0.00216688558072857
0.00224535903218872
0.00220135919575539
0.00202404910795051
0.00109104805420637
0.00135182660041271
0.00156015355702686
0.00172034530236068
0.000781005362938197
0.000450195149537473
0.00140110169506482
0.00127614214036414
0.00110607256563984
0.000881629325727517
0.000593041796784562
0.000251308961206078
3.9646900664511e-05
0.00123449772677057
0.00143408320936962
0.00159005835744206
0.000970488926065072
0.000610346072543436
0.00171376671731739
0.00018090771650909
2.36454418206914e-05
0.000841696890529833
0.000998570562497619
0.000627641180346134
0.000330040552104608
0.00111990185411058
0.000100579105728262
1.30881113136839e-05
0.00121460059691082
0.00128764614544517
0.00096485907728847
0.00105773907152313
0.000834972208255292
0.000662354752540704
0.000430089582879146
0.000138980152310728
2.00534089289389e-06
6.17610248881065e-07
4.66256391332072e-07
2.11381662741048e-07
0.00249512947054831
0.00251489821392112
0.00236414877527703
0.00213889745532643
0.00183928305019013
0.00241048810639332
0.00217555080580778
0.00148940587659399
0.00181392095431433
0.00134548696198872
0.00112079009527203
0.000456613435843577
0.000557853659441325
0.000638799480970249
0.000704369717910539
0.000754995870246323
0.000791074490823559
0.000817411575885537
0.000320999659840473
0.000165487269818966
4.97320076406701e-05
5.38228297476905e-06
6.9974410048763e-08
0.000314767232170384
0.000301485063282062
0.000279568963594077
0.000250806857197398
0.000217596472340878
0.000179993706219519
0.00013756522451734
9.02146642502834e-05
4.36003146403717e-05
1.1508768720147e-05
0.000322198344106082
0.000726574606642575
0.000659039402347985
0.000562002251690106
0.000449744617032404
0.000305366331381133
0.000104790893929153
1.86488512420154e-06
1.31094717551204e-08
0.000770842124130392
8.78704791018801e-10
1.35143750053373e-07
1.55759826268431e-08
1.05610231858558e-06
6.4894859792126e-07
1.88822057535016e-06
3.94165313875311e-06
6.69258106373595e-06
9.98895444106022e-06
1.37830482254946e-05
1.79452565491333e-05
2.21536851226181e-05
2.56163440685228e-05
2.75787699604207e-05
2.83764614353502e-05
7.5756999302133e-07
8.44597128181907e-05
0.000191591743489256
0.000268152125564639
0.000332457487161157
0.000417098524102283
0.000467836175239583
0.000499196649213725
0.000512189775326208
0.000796076363086214
0.00116208728987437
0.00155031124827254
0.00192562196671811
0.0022567438716675
0.0025205442068589
0.00269909619067224
0.00277736510625699
0.00274264043522505
0.00258549195937035
0.00230210029053957
0.00189820343370572
0.00139534979121907
0.0008414692325121
0.000329756602402714
2.92082677526614e-05
0.0019132517685378
0.00210180055002083
0.00167800181113845
0.00183158285416132
0.00139562052021802
0.0021901448515905
0.00215804852694064
0.0018751513895733
0.00152270256659719
0.00107712064399581
0.00152551883357818
0.00178622680982787
0.00199362752137255
0.00118910763368327
0.000748598069532193
0.00209979409881092
0.00232643976758609
0.00246126361153221
0.00248638380026714
0.00238841100313263
0.00216119815433865
0.000871659635027023
0.00118650618638802
0.00144607038707638
0.00164929784767492
0.00180186128794213
0.000528801449735151
0.000239473677431105
0.00145643982590599
0.00133677953324247
0.00116935759259394
0.00094408495938431
0.000648909921127604
0.000290704696459547
5.38052699774374e-05
3.58487733500965e-05
0.0011537091575344
0.00138008148060455
0.00155638876863848
0.0016965048257921
0.000852184544262561
0.000458538974144514
0.00180848458342211
0.000155221565994332
2.41642833771299e-05
0.000775874420794256
0.000951323176307324
0.00108747478852991
0.000541457584412273
0.000286573872484964
0.00119622988940285
0.000100306169963786
1.39989934593916e-05
0.00128232046280652
0.00134881656610302
0.00100435297690088
0.000875809396104683
0.00109319455918037
0.000702357449398702
0.00046493058304974
0.000158869208286629
2.73535349404638e-06
9.4551915245626e-07
7.86842857457628e-07
4.33170743019404e-07
1.92654882100699e-07
0.00268539057139564
0.00276546451678597
0.00273285642147482
0.00250570284782163
0.00224190556978601
0.00191191594308743
0.00257830022052877
0.00229853646864514
0.00153821068437871
0.001899393440512
0.00140127469146845
0.00115092836735052
0.000417072485053781
0.000525462860695519
0.000613083902420077
0.000686249451503854
0.000747023785158787
0.000794072123680841
0.000826977449391574
0.000850401919150482
0.000286906088806153
0.000153874220179477
5.11130014947532e-05
5.65420086200536e-06
6.17298338829931e-08
0.000319584817138124
0.000331511342829888
0.000298760858604461
0.000270945827707471
0.000239252135753725
0.000204759000530278
0.000166132749505853
0.00012374602103038
7.91850543268908e-05
3.78519944888113e-05
1.01582184410229e-05
0.000337540668378312
0.000745779899467713
0.000682423289903662
0.000586162385028103
0.000473885721293806
0.0003252915337101
0.000118125830842876
2.47026447446407e-06
1.14141527392584e-08
0.000784446489669885
7.58267496703289e-10
4.63055767935143e-07
9.38661963365711e-08
1.27442517192716e-08
9.6516868095682e-07
1.44099201504789e-06
3.17501715096156e-06
5.64851615058519e-06
8.76807764953201e-06
1.23981964177414e-05
1.64487974679324e-05
2.08254607290254e-05
2.51689254203081e-05
2.86230963311049e-05
3.04098922548298e-05
3.0942546318536e-05
9.9807617142205e-07
9.450450440624e-05
0.000202510902947891
0.00028739208953206
0.000351670156094035
0.000429470393405798
0.000475868295445808
0.000500684713457614
0.000508074990666518
0.000804163108099297
0.00118617446835405
0.00159222939630335
0.00198920353555012
0.00234751760703794
0.00264520311025489
0.00286587555297712
0.00299607481290539
0.00302402916102155
0.0029398875070348
0.00273686762083514
0.00241325035858193
0.00197594336980863
0.0014465074675308
0.000871866624553428
0.000343871583972889
3.15411368207983e-05
0.00179786897956348
0.00202481723043465
0.00225640524100029
0.00239985411492111
0.00200004298736241
0.00152063179788317
0.00210615536851545
0.00170243633574359
0.00120292766084365
0.00243533864852818
0.00234850664587834
0.00209275875708148
0.00177615332899472
0.00137691346057028
0.000870572053082702
0.00142279064360735
0.00171499578125034
0.00194634723410317
0.00213308194891583
0.00104518204118283
0.000573622068928394
0.00220109769684955
0.00246580393442639
0.00264878878816325
0.00273349839601465
0.00270616133317111
0.00255758944378397
0.00228512560322298
0.000600910084358567
0.000953030541514973
0.00127131856421751
0.00152941790690523
0.00172780642177161
0.00187324847246447
0.00029712899517394
0.000207611274521458
0.00150433363848902
0.0013899760965505
0.00122557946506316
0.00100012394346893
0.000699836236383624
0.000327813010814817
6.88649415616974e-05
4.99038117547394e-05
3.70929394083524e-05
0.00131230024553658
0.0010614382601566
0.0015084140320254
0.00166566502088936
0.00179261668909236
0.000737831209657897
0.000400421650389068
0.00189464233226758
0.000152615447388422
2.53936409723747e-05
0.000708939819665646
0.000896457828004796
0.00104521294060279
0.00116611673711439
0.000487033392878927
0.000270151531348087
0.00126522057516889
0.000102651787541943
1.47444905205265e-05
0.00134432521863687
0.00140516058969104
0.00103817143434157
0.000912023358558632
0.00073826410428003
0.00112237762706406
0.000495961572283091
0.000177449714726338
3.58196298432909e-06
1.33042253911364e-06
1.24942646733082e-06
7.6340293031878e-07
4.03035818152515e-07
1.78662225793074e-07
0.00285134247417286
0.00298320495385382
0.00301300472152428
0.00293077620630543
0.00262967895156724
0.00233216097839023
0.00197512510855137
0.0027301332018722
0.00241003031295181
0.00157977882519013
0.0019774509068213
0.00145274311624966
0.00117465144390004
0.00038222719721921
0.000490487478727697
0.000582899537582847
0.000661494144403855
0.000729397777259478
0.000786562533520061
0.000830507330978309
0.000860451381779691
0.000881095372585227
0.000262805991036723
0.000145725955958099
5.07819428131013e-05
5.46153527459063e-06
5.40689979368396e-08
0.000316942642302163
0.000336656579837668
0.000347258947211389
0.000290012008869791
0.000259191192910911
0.000226069519336043
0.000190462723798244
0.000151948164505466
0.000110784556106845
6.95015749216928e-05
3.26895167339507e-05
8.36318886446236e-06
0.000351939259267985
0.000759905246818785
0.000701063986954692
0.000609384804722727
0.00049742533927507
0.000343985595189143
0.000130299416754034
3.11808448087718e-06
1.01958627487852e-08
0.000792842630617108
6.2049333908544e-10
1.06692348632606e-06
3.25769435627912e-07
6.84682091638181e-08
9.70734716800528e-09
8.33695637149078e-07
2.50209411325086e-06
4.67831727145144e-06
7.54658297601229e-06
1.099098448879e-05
1.48874904650977e-05
1.91574824197702e-05
2.37114560668152e-05
2.81575582864182e-05
3.15725171001879e-05
3.31556269763865e-05
3.34125252065976e-05
1.26763600110884e-06
0.000103860533698908
0.000212943349047239
0.000298659730723346
0.000362857477998862
0.000441402307425212
0.000483063252323096
0.000501140325849008
0.000505775636637779
0.000807064173598135
0.00120411975522532
0.00162722245037176
0.00204412799083692
0.00242684656140711
0.00275450726711101
0.00301192374457189
0.00318700069252153
0.00326910332891185
0.00324883976391822
0.00311867628765361
0.00287388789749308
0.00251418232387547
0.00204702855858246
0.00149365992790205
0.000900055951427868
0.000357035346905097
3.37690050390552e-05
0.00190347063632242
0.00214728670111065
0.00163100582862762
0.0021229333714164
0.00239174944510746
0.0025824246347533
0.00230689304737036
0.00267640417769216
0.00185934473616474
0.00131453856735159
0.00199342650080424
0.00235939462845967
0.00154057827225552
0.000979719593773607
0.00265878917924249
0.00252024559672503
0.00228910432013786
0.00200616958411224
0.00165490141348827
0.00121292148838008
0.000678290780563256
0.00130779389517444
0.00162787196966721
0.00188276910901096
0.00208939627339926
0.00225858046532722
0.000908815484655085
0.000502754271954496
0.00258797189294726
0.00228997014408833
0.00281251689947057
0.00294856061808855
0.00298296702506373
0.00290553411879252
0.00271036616567217
0.00239723650028113
0.000352183086708935
0.000667221919838686
0.00102632156573713
0.00134689663194275
0.00160320397320756
0.00179679161157526
0.00193546670737027
0.00025849628574298
0.000202407528942226
0.00143616637506513
0.00154513160784069
0.00127528321681575
0.00105029820201591
0.000745844810778067
0.000362331981577361
8.45691489415343e-05
6.5043513150618e-05
5.15526336451421e-05
3.83993587122727e-05
0.00144839511282989
0.00123515699378851
0.000969746458470096
0.00162147136779424
0.00176362708499844
0.00187970957422171
0.000664974442043812
0.000376143406845861
0.0019731800794796
0.000153144581173502
2.62537298680996e-05
0.000838463608141541
0.000652478690876651
0.000995821917163157
0.0011265840987586
0.00123647755348741
0.000450966184561213
0.000259324269415016
0.00132805164382756
0.000102579985890904
1.4469093154946e-05
0.00140127487671934
0.00145706786442199
0.00106633118190447
0.000943972446189995
0.000770827933839997
0.000524237997942564
0.00114573829196638
0.000194578568313345
4.46957483589e-06
1.79933872844526e-06
1.8410116808073e-06
1.23535356826652e-06
7.17009675576336e-07
3.74067738632472e-07
1.58845023801761e-07
0.00299668800126111
0.0031733292675306
0.00325717073784932
0.0032385494443356
0.00311003878569132
0.00273841226761055
0.00241106883901012
0.00202974247779007
0.00286744505372371
0.00251119013828932
0.0016144922523295
0.00204877553047922
0.0015001552972023
0.0011925268305244
0.000350469673837544
0.000455252150880927
0.00054947586109831
0.00063221934454499
0.000705068190101817
0.000769182084272206
0.00082331249700226
0.000864415616277245
0.000891566848839208
0.000909553707678664
0.000240628424920956
0.000134508695070663
4.66648637294122e-05
4.80778925558601e-06
4.6724894331846e-08
0.000334064237710082
0.000308014370373674
0.000352705050682716
0.000362037602270057
0.000277973343996596
0.000245740866503251
0.000211488487006564
0.00017503243262048
0.000136557643080612
9.70662068369999e-05
5.86915533349362e-05
2.55247693839873e-05
6.17634756229452e-06
0.000365359998454368
0.000770466638580839
0.000716288503244421
0.000626510525590672
0.00051601672299042
0.000361031370923418
0.000141577163734071
3.79468739504973e-06
8.34767922930977e-09
0.000797494403139861
4.08874511431038e-10
1.90999341492639e-06
7.62176047969841e-07
2.2389196879477e-07
4.66934567917601e-08
6.20876855146803e-09
6.53343079990639e-07
3.77044812800296e-06
6.34836901515512e-06
9.56142717766405e-06
1.32867537440732e-05
1.74099562262008e-05
2.18685787360228e-05
2.65711398750691e-05
3.10845573651796e-05
3.44298527892048e-05
3.57954835938846e-05
3.57706311166932e-05
1.5528220908739e-06
0.000112267035038539
0.000219912142537606
0.000301279321881388
0.000362497830532686
0.000449894703739914
0.000488768782922855
0.000502549300114643
0.00050981503496613
0.000808004144158837
0.00121650789856579
0.00165575184175118
0.00209112901852144
0.00249591633196559
0.00285030045622387
0.00314007766908446
0.00335429451504512
0.00348341652642846
0.00351879256375716
0.00345300601064631
0.0032804327108312
0.00299786002964499
0.00260584745701135
0.00211198665999193
0.00153701475199045