/*--------------------------------*- C++ -*----------------------------------*\
  =========                 |
  \\      /  F ield         | OpenFOAM: The Open Source CFD Toolbox
   \\    /   O peration     | Website:  https://openfoam.org
    \\  /    A nd           | Version:  12
     \\/     M anipulation  |
\*---------------------------------------------------------------------------*/
/*   Windows 32 and 64 bit porting by blueCAPE: http://www.bluecape.com.pt   *\
|  Based on Windows porting (2.0.x v4) by Symscape: http://www.symscape.com   |
\*---------------------------------------------------------------------------*/
FoamFile
{
    format      ascii;
    class       volScalarField;
    location    "300";
    object      omega;
}
// * * * * * * * * * * * * * * * * * * * * * * * * * * * * * * * * * * * * * //

dimensions      [0 0 -1 0 0 0 0];

internalField   nonuniform List<scalar> 
10176
(
2.45525838812153
2.46742674525263
0.201415063392289
2.4746900851459
2.44248102825323
2.43076094222877
0.204300149038559
0.189000750757072
0.346177659093178
2.4521509756763
0.344622602819042
2.40447757511937
2.42539279101941
2.48290374721351
0.20284223652646
0.198277858439186
0.230374362931317
0.213617837493427
0.431669316657663
2.5062419882704
0.425644776457693
0.3393723098988
0.214655957989957
2.37864670193321
2.36519228279355
2.41877600223159
2.421539383087
0.198492534579505
0.205401148660211
0.219549725712472
0.256334822117139
0.21117808775706
0.238786959766526
0.490596414623058
2.47352032146939
0.237100221424435
0.415815231215254
0.478824161393834
0.213693139764091
0.330530203579046
0.209000040903872
2.35771550701879
2.31066630208205
2.33138961750533
2.40498328915455
2.47110449458288
0.185900314039759
0.198607238690954
0.214771072211914
0.258770882489074
0.253591270511767
0.223967525993019
0.208711745803331
0.26289446017741
0.531404607782863
2.49502195934884
0.207621934528671
0.259978011089996
0.233563186257597
0.464546968962916
0.403831111566778
0.518636864654433
0.206312620416538
0.208171253692085
0.316745236205812
0.223639545009296
2.37667448657584
2.29353925398156
2.26535547258846
2.31570879717163
2.40609949790926
2.4154887985548
0.170604386969625
0.184482762468412
0.196813271012384
0.260355989262905
0.255888318247203
0.300474378344207
0.233824817809741
0.207933850653873
0.214358846863839
0.285274304120463
0.566794767035293
2.47713640928817
0.205472995366401
0.213331360294892
0.207425149311635
0.281887151145116
0.255332465678486
0.228276779856696
0.50236478728193
0.450713927893754
0.391575842471481
0.552414113690257
0.223013986559817
0.201349901413757
0.199250589170436
0.30206932298396
0.234222425616074
2.29336257962845
2.31908787440765
2.244039522649
2.24625406813133
2.31166814820644
2.39992199359096
2.46124199637371
0.14782253405481
0.161966906973074
0.191417000722351
0.267154403978063
0.258141884693772
0.29533624732607
0.300785738768199
0.251834610464556
0.214029866574645
0.203258909060815
0.223982452080168
0.306235482178878
0.595219376951127
2.47744822663933
0.211430264899412
0.206490051399345
0.202733697532508
0.202925166399853
0.22296645217352
0.213923319898607
0.302545248055871
0.276776628601099
0.250084594393573
0.22220103468711
0.534972588147102
0.487659736418672
0.439627107969119
0.381719003112998
0.581110158475886
0.233836248287705
0.22270400791287
0.196839133090081
0.188296835415489
0.28669713173099
0.251033424250778
2.34880711750891
2.19723128332725
2.26653116115402
2.22078909971189
2.24231380698779
2.30858630443716
2.395343285436
2.42692522064383
0.201820659651026
0.123747551832934
0.190118027291695
0.251850728200827
0.252082685700696
0.29359059248098
0.305780067279596
0.329085483746568
0.262170162168383
0.223224708223802
0.203622624983545
0.205014615984204
0.235346751790646
0.325447124477912
0.620718379735956
2.47083289008969
0.202300940742869
0.209501584690241
0.221214097964388
0.213486447840563
0.205752622607752
0.20081020450503
0.203618344480772
0.204830775474394
0.234291693720217
0.223087492798611
0.321616259189651
0.297158696857517
0.271591068956065
0.245666435596947
0.218889117034715
0.563391287285748
0.519970792462976
0.477058506703145
0.4330300766668
0.382548492082279
0.606237511160694
0.2502929360291
0.232068186743405
0.218029880944605
0.193290290177605
0.181282675226431
0.386059990443745
0.263154165046614
2.47411473995905
2.42132769774104
2.14804542289601
2.22757321323731
2.21502793093128
2.23979253525561
2.3030424470522
2.38957271655893
2.3992461986987
0.136247534958345
0.163055638120644
0.207146954578975
0.247842343265208
0.298200152113175
0.310823329706897
0.32776768089674
0.336803910428591
0.275901468020153
0.231968570368224
0.20820113879247
0.20029154541755
0.210176568512801
0.247130444382723
0.343088376581363
0.643293642844722
2.46866900125961
0.20362755666486
0.204488618555193
0.202233854635613
0.209360956523542
0.219693652738513
0.232540967124875
0.222916519436392
0.213362257891852
0.205956812330619
0.204388041721244
0.200448647002129
0.208327903199017
0.210031426204118
0.245993814896184
0.232157495588234
0.339105560757066
0.316034634729702
0.291963390646942
0.267981290084658
0.245752508976752
0.236168835855599
0.588174572023647
0.548363127085851
0.509745121600438
0.470747729512509
0.439938326620035
0.628719583143917
0.263890113605749
0.250617749028359
0.230711466290622
0.210493482357498
0.198729333766268
0.28695466447685
2.42304839085477
0.276062148140164
3.3428139837743
2.40073355756387
2.16214924937418
2.21574796285578
2.21278556227899
2.23431071491134
2.29713054815974
2.385736101568
2.34978464287258
0.159326004723612
0.184354354771649
0.246723392172912
0.30028298308375
0.31116058375591
0.324589197152673
0.337905710158465
0.341592097560075
0.285842604869768
0.240912202122795
0.21415665751865
0.20126367976871
0.201205574403146
0.216939407597504
0.258677160432017
0.359265627795609
0.66449831456051
2.46721285842196
0.200786581215586
0.208700750307008
0.20458141360989
0.209754240163006
0.204859488941708
0.204701632407952
0.220214414331506
0.216221578455759
0.2310624795309
0.24411771654001
0.23244957472648
0.223682584092851
0.215547506722608
0.212797915932701
0.233502595634961
0.201568145371378
0.201417028237307
0.21440856943167
0.216743200838912
0.25743412171146
0.241100881037253
0.333304004038925
0.355152449777051
0.310724443729126
0.288529755642191
0.268893535793984
0.265194334864271
0.442485478025891
0.610328276720332
0.573091298171474
0.538597029456063
0.503378919039059
0.472742704355555
0.64926207422675
0.275712702234104
0.264071767231445
0.251705248075423
0.232252448175318
0.221266414201285
0.305171086465324
2.34197553983812
3.32881087242657
0.286306464164387
4.55077483082212
2.34602067852975
2.1477674129826
2.23452782794022
2.21411925927989
2.20748215166293
2.22788252820848
2.29251741650411
2.38344084145685
2.39770418206125
0.184101392695818
0.216389111391994
0.286811266365951
0.304083152074495
0.319125470982997
0.33869588467268
0.344715435061251
0.36084106412354
0.294287886679827
0.249095956436396
0.220571526981047
0.204651141444264
0.199130232881587
0.204421672424458
0.224312221097112
0.269694745275483
0.374209476578404
0.684537572422878
2.4668951946132
0.201821624909278
0.202271426520417
0.202220669859542
0.215071682229237
0.210393303736879
0.208814922212831
0.210108093332762
0.216346300553271
0.207883541665813
0.215651695899658
0.231350069087988
0.226876318286929
0.247350005163221
0.242415869505461
0.255361016481706
0.241477983506901
0.233708790342291
0.227397804870995
0.226120622546412
0.248921742418908
0.442403249702595
0.2050436662991
0.199486740348459
0.204588996866745
0.220897717830102
0.224024573660454
0.268345087456379
0.249368844958635
0.327786122240973
0.349119777353386
0.369940186318782
0.307109098342885
0.288650833184242
0.284151959074861
0.403965539881125
3.01866889215897
0.630412037735607
0.595068867294597
0.56373242138588
0.532604071224504
0.501952423191178
0.53305595282887
0.668830050381689
0.286661451552907
0.27554163419737
0.265012339829368
0.254969963038346
0.246429757375231
0.334675743163823
2.42845261624
5.01509197218613
0.29522533520645
3.10207750647328
2.27411149011693
2.15460844530162
2.26153344053849
2.22442033477093
2.20830470703108
2.20057994628106
2.22270271598849
2.28965620606452
2.38236365684814
2.36740622710538
0.212947934439456
0.264511601717739
0.305179769207987
0.324874119236356
0.344115684156782
0.349764500615117
0.362851029639664
0.37283871999032
0.304780292933327
0.256708107973779
0.226969718338105
0.209079173287222
0.200267508520905
0.199746065529925
0.208803889638426
0.231788021017405
0.28008866268702
0.388063951225358
0.702065502286193
2.46679049282945
0.203169150406171
0.200232732314387
0.204855505558615
0.205982197076468
0.204368991045777
0.206808258658311
0.221754922953768
0.217284358724165
0.215869352480189
0.22252756567412
0.216365837866617
0.212573613659236
0.223418358222406
0.218044564639011
0.2531194711725
0.235949628231537
0.242017567021765
0.250144084273279
0.394830729999721
0.253313338716793
0.266059544170693
0.24999371434363
0.243151164220186
0.238396387862505
0.240411398450061
0.267389811317414
0.464791632901208
3.30360539751528
0.200696327249139
0.209535196150942
0.200053419720063
0.20888179052263
0.227361270014594
0.231403824290377
0.27863865592486
0.257110499916133
0.323864397115762
0.343343050668433
0.363661544484036
0.383615487083817
0.305990196397101
0.296479501031117
0.350884808930302
1.30977030939713
4.65865409461501
0.649282850314551
0.614823430523483
0.585813678575091
0.55828811556092
0.528944830658509
0.515540861791005
0.608648642759154
0.68619984063889
0.296824295484938
0.288966916796753
0.279373341533441
0.27187044831073
0.273541051467946
0.367975855870409
2.41112394535074
3.18314892610515
0.305733156041854
2.94984524554481
2.36266174940435
2.19628629921379
1.28232611266181
2.26525913750716
2.23190617221058
2.21528541653508
2.20096011964747
2.19480756061346
2.21938742570722
2.2881357689512
2.38190428503346
2.39536856836269
0.243531219519555
0.267351070296996
0.325253337307726
0.35931505387421
0.365467328423641
0.368675082540006
0.375498452814155
0.378048042633785
0.31424644165929
0.264300463175754
0.233214101557642
0.213924493460553
0.202972725623573
0.198924868439025
0.201902969720668
0.213732159550306
0.239120862486996
0.289834790279751
0.400588870716938
0.717236463724138
2.4668034678231
0.202156435189891
0.205774746592183
0.206942441717183
0.201638211353793
0.200633030351095
0.20891721824873
0.208526168362641
0.210641089053837
0.209974260276206
0.219097756957952
0.228390847482533
0.224380710767904
0.223659259415301
0.231477635486353
0.263976236959943
0.222983008590506
0.217803548810159
0.219835238651096
0.230574646865042
0.245802468176911
0.404616984636524
0.244243199890927
0.24953875078778
0.252151327150858
0.32275290872458
1.25325774575232
0.263651983104592
0.276152897125506
0.258100024172681
0.252419615225826
0.249007556453076
0.253361484669237
0.28567967900745
0.493284765510823
3.24131708489703
5.05110434432978
0.199293397516885
0.203450190898888
0.214431788803464
0.202115491315713
0.213714642786531
0.233668725852317
0.238650380294973
0.288287681302644
0.264782142305155
0.321759276120601
0.339083604419802
0.357606288323385
0.377070045493924
0.396018012298779
0.308537545493954
0.321620772497
0.571120360740783
1.14033620494498
3.14514135530042
0.66634278495845
0.633208882758665
0.605449624812653
0.58062304505561
0.554127609768303
0.528695050561639
0.532603514078331
0.64301131200068
0.70127801534831
0.307854545669723
0.301697232648415
0.296145435063992
0.288890403960842
0.290776935949045
0.399916674457629
2.41955515579585
2.97338146774666
0.315396304999064
2.90893691168294
2.35450586937432
2.28459542700326
1.08316665703955
2.24531974901342
2.23049527561319
2.21811438430007
2.20752192319565
2.19469793787492
2.19103909928755
2.21756790241337
2.28743052541122
2.38173936556587
2.37890978296669
0.26941255162898
0.318978962701697
0.362184661920772
0.379945363559455
0.378774835201013
0.38201709208814
0.382634689174662
0.388623448062196
0.322058332430828
0.271603515475744
0.239317161854412
0.218899636332391
0.206455534427116
0.200116111399666
0.199381584874132
0.20492034498755
0.218874829696615
0.246192821090164
0.298858947714991
0.411788453792692
0.730433862598279
2.46682486046457
0.203923676907748
0.202047008528723
0.206738323417884
0.20929947772704
0.208289769833433
0.215773845975863
0.204522837753109
0.200037086774853
0.20243953540296
0.213510288048414
0.214831177959002
0.213512165745758
0.215667621251758
0.223610906035337
0.249318323031542
0.234862993677022
0.231404339170848
0.231500297738318
0.240633779626937
0.275594486559324
0.419674541560217
0.223378675678218
0.229697654886994
0.222026002890115
0.236394886272794
0.237622151097086
0.319873849937468
1.21160479517445
0.252495232369698
0.250707215788452
0.280408779358766
0.26182758623598
0.531598819241895
1.07177839799841
0.273423344105594
0.285620571269581
0.266010782200583
0.261272239585232
0.25955365910609
0.265783651641993
0.301449162486788
0.518777660618745
3.25604552129252
4.97139369163596
3.26181752013953
0.199646390553733
0.200521646695708
0.206971291019307
0.219449220200937
0.205033168788157
0.218773504601361
0.239821620278576
0.245647222343495
0.297233184167684
0.272154222275282
0.321375133534394
0.336290504890733
0.353027076243573
0.370736988497281
0.389265151186828
0.40711679820266
0.316562267053312
0.372332877060316
0.551298577576293
0.974343564714565
2.99384104265282
0.681183200917602
0.650012838186526
0.623707125785432
0.600268870682147
0.576415572432921
0.550322882428839
0.529213651624655
0.533011755932184
0.621350526992848
0.714409178020016
0.317651972533566
0.312617274431739
0.310082151219841
0.307146965783769
0.31469813747842
0.427897562211726
2.40950400257465
2.9119638847983
0.323592512613214
2.8967587077685
2.34949394551208
2.27707424209564
0.949667087671164
2.23193092794415
2.22179420434589
2.21626831972999
2.21036759359203
2.20107616395284
2.19051558583719
2.1889425572849
2.21669132139056
2.28713937156013
2.38168824352773
2.38240017297806
0.299579579445957
0.323443149692424
0.371738775253891
0.397501921440884
0.386244273292259
0.390346973418826
0.394354892311405
0.404607728575842
0.330285248308551
0.278441449067085
0.245235845646442
0.223868884816836
0.210312653644428
0.202396262731016
0.199244503296458
0.200924452270591
0.208416915139029
0.224050560679918
0.252912185079305
0.307130664723055
0.421785806313262
0.74202705162326
2.46683765366292
0.207055587495786
0.20903039565498
0.201743493170246
0.203253477691888
0.205208593413846
0.216514283273026
0.210599815618743
0.213391268389504
0.213694408001754
0.233858121974616
0.208140146439919
0.201366940893857
0.200110544469399
0.205099535920226
0.218361733593719
0.229367810178228
0.220332157856089
0.218794708221138
0.220788945529834
0.255233768711979
0.323783085799737
0.241139190966179
0.238210715494122
0.239181655979924
0.24958215496309
0.286643778795846
0.433143546548208
1.19633366737177
0.225248157622298
0.229233485873161
0.23637423625455
0.230570905789655
0.268961815426373
0.244453991736388
0.506199308075741
1.03255259526927
0.25471400503811
0.260877012464003
0.26274624081704
0.332866006339442
0.271080482002161
0.5131146500489
0.925937870826349
0.282620734439665
0.29441421617354
0.2694941691971
0.273477860028969
0.26924056984949
0.277567992466093
0.316878505768451
0.54179394685313
3.2261316512002
5.0022109712845
3.26659512706145
3.01153703138383
0.199537430926745
0.201082756148911
0.202830265929548
0.210859095435855
0.224451349550629
0.208443835352762
0.223881843897165
0.245776157535734
0.252307065227859
0.305439040804148
0.279071309525899
0.322597307438856
0.334361937692085
0.349730419129814
0.365896068159063
0.38269145658575
0.400184865797206
0.41702832141762
0.328425354308087
0.372810420513583
0.492212313697948
0.857138508936736
2.94835624006392
0.694109171585309
0.664616169897434
0.64039124467743
0.618652328264191
0.595888803032727
0.571712771702869
0.546217684198111
0.524508602054536
0.521564488563676
0.584924211498062
0.725968767628523
0.326253436519521
0.32194587894742
0.322153192684364
0.320446244709395
0.329948062651998
0.455507097243568
2.40534949026091
2.91093428262149
0.33222093154618
2.91778078649691
2.27198641326246
2.3487146924844
0.855560291025349
2.2272684230955
2.2133530386852
2.21229118911971
2.2097071701344
2.20421383183987
2.1966441274209
2.18815870544459
2.18791861856322
2.21631455257064
2.28703171694451
2.38167508450848
2.37626736745139
0.32230513445594
0.35331690425046
0.390572570406805
0.416104511902207
0.399741716138678
0.403661316118899
0.409991502538111
0.420399292656293
0.33960684465185
0.285072411179208
0.250921299829297
0.228752864044148
0.214324613069464
0.205270051184976
0.200463978971515
0.199625036077526
0.203142169280133
0.212167256095282
0.229134978148497
0.259223754663908
0.314675602856089
0.430725852082863
0.752288116096359
2.46684365946355
0.210852548391983
0.203262558021847
0.2125225949558
0.205309349061753
0.219399650582046
0.201168094777644
0.205368672755998
0.205089753829513
0.211322119779932
0.235384681631949
0.213403106116723
0.213713699681951
0.217835805881021
0.223345781130082
0.266796416723277
0.212100904494959
0.203747471864842
0.200082624529514
0.201272659127778
0.208292069013638
0.223305658604001
0.26184084126323
0.235517002539703
0.226014136824233
0.224116208356157
0.225868624965352
0.329132197544148
0.495747771715162
0.247166254344448
0.244708875249783
0.246487762681712
0.258092410281108
0.297065006960741
0.445380929707787
1.16778386983049
1.0164943667692
0.228982621282518
0.22949311638045
0.235267642851893
0.242917220195672
0.244237824003543
0.318150655515058
0.250982675213085
0.494263742897654
0.904542681769869
0.258622289981398
0.260729760973338
0.269281922635841
0.277480545361474
0.336087492746186
0.279894641868726
0.459874052059891
0.828636028353958
0.291190344110431
0.302492595714891
0.27711684094172
0.278045674599156
0.280521283916352
0.288029251070714
0.33009583791754
0.562041814891614
3.21860277094289
4.95715369650079
3.27286446647006
3.03146654898004
2.97893413831095
0.200778175230265
0.19980486191407
0.203210124695579
0.205727111489038
0.214894749772437
0.229359001311719
0.212127225488639
0.228914817116837
0.251489979598193
0.258571373713218
0.312928720379886
0.285808086181023
0.324019446875691
0.332749163157535
0.346988889211727
0.362292672287231
0.377604738145045
0.393394014779149
0.409939134883786
0.425895989059164
0.327894299933376
0.35384127938801
0.440164447721821
0.769850268035725
2.95214330573793
0.67732085041342
0.705495757981552
0.654825555287104
0.635311869763501
0.614585335005207
0.590769750350769
0.56604759768955
0.54003338890949
0.516019995680952
0.507056360170964
0.552998893595851
0.736191452937863
0.335393002126616
0.331288304878604
0.33309817992341
0.333221753427211
0.347300030658048
0.478316963447982
2.39760178486484
2.92377499108353
0.341655953295339
2.93308969524941
2.22375395063571
2.26884820451437
2.34633918892266
0.805137306529241
2.20906935729682
2.20879830908134
2.20800771323101
2.20432214072086
2.19978748222903
2.19409303891374
2.18699713999023
2.1874726252445
2.216168443361
2.28699815469335
2.38166616419052
2.37497633589161
0.346155941243778
0.376677155265285
0.399673200176982
0.423501614359249
0.412109312391502
0.41671028179287
0.425274058172057
0.43738215824854
0.349386014606545
0.291708046021908
0.256389402324085
0.233497136111596
0.2183620241098
0.208453320745114
0.202471074445089
0.199910319828359
0.200826736209429
0.205782578406743
0.216022936125629
0.234048136616742
0.265106535620368
0.321541965754338
0.438738746811367
0.761371573893268
2.46684105682958
0.216579028206973
0.214946849068733
0.205774967725588
0.201292103794537
0.207094880973379
0.223285440666588
0.203334787227806
0.211861322046364
0.238686499870675
0.201754019957966
0.2081268885762
0.206155885582833
0.20846997300429
0.221572351197464
0.26811698204483
0.218024901615155
0.214747017887404
0.21744067161349
0.222471195950424
0.237664377255967
0.313186914862829
0.216190576315749
0.206698171539627
0.201379191573996
0.200062136760602
0.203171312045872
0.211806806814519
0.228214416779005
0.334944468471271
0.268534098513959
0.241672819111486
0.231638875924765
0.229341365682047
0.230828547348176
0.488406947205579
0.487824967583353
0.25293766833741
0.250883721651996
0.253349348254217
0.266025478493598
0.306603096641662
0.456200887138425
1.14598429538773
1.0005756820158
0.89513984543971
0.230502139403907
0.234236079528707
0.234481836225435
0.241349974315489
0.249223998116606
0.259485416571989
0.323646812114726
0.257144300399074
0.450211522064874
0.819397604574692
0.262325075844505
0.261005539225536
0.267832779786406
0.277539806929901
0.279142073251265
0.318638518370065
0.288164555052181
0.412498690724862
0.752077275246369
0.299084224644841
0.309875352837485
0.284353189793096
0.286101674734412
0.297525408083399
0.287408166985454
0.342424267052136
0.579793456389592
3.20080418080156
4.94180735191476
3.2603750033445
3.03632541121167
2.99925136744661
2.98634317350453
0.202803080476892
0.200106296635836
0.200911713327006
0.205781179987039
0.208928516190413
0.218949613006681
0.234120131999138
0.215933565778321
0.233789603946587
0.256989096977487
0.264416722702043
0.319748796633172
0.292513821915337
0.321730004489766
0.330855684744351
0.344191056162474
0.359069385042905
0.373725230015786
0.388081062564129
0.40295392544508
0.418670438960504
0.433845258553264
0.319831649154388
0.333109548828119
0.39971233511777
0.710030131934218
2.96197198413609
0.667364801286094
0.688504881423567
0.715557050424575
0.649626804752358
0.631191966675982
0.609872508060619
0.585713547750128
0.559336111478397
0.532307115540987
0.506492464007204
0.494641806600908
0.54656380192917
0.745196896908552
0.344552243816562
0.340451285108258
0.341853803265828
0.343347634811972
0.362204714087101
0.499666795098386
2.3930737847673
2.93200934036369
0.351318497060731
2.92380104586802
2.20706769054583
2.22026896793293
2.26504130250902
2.34583500733583
0.774448858742825
2.20706248719674
2.20681929817365
2.20366073240909
2.20012203751195
2.19714758352598
2.19281960586634
2.18648836811552
2.1872976522002
2.21611931470692
2.2869818963167
2.38167969499557
2.37375461096372
0.367319696045358
0.396239662643876
0.415570705485488
0.43638179700474
0.421332994538648
0.427100708070529
0.438501760859208
0.450315704410089
0.359580057033556
0.298367469053256
0.261674991967251
0.238070389626038
0.222340098503842
0.211771657297473
0.204929865674873
0.201153620951849
0.200291483298306
0.202581896310902
0.208679152386719
0.219882406620716
0.238739458379984
0.270559977084706
0.327783817821581
0.445928642063136
0.76942724881355
2.46684098479322
0.220863687392391
0.20979200243119
0.227614197675801
0.219134246085091
0.208821503620138
0.202692565819103
0.203674224212802
0.200673023694578
0.213929969815225
0.242797711656944
0.207081314896886
0.202828281824244
0.222445816208956
0.271041134505123
0.203198917505744
0.211319046194045
0.20815149093882
0.207687759766174
0.213626198067289
0.236117084744878
0.31203273837445
0.22400330560607
0.216502590192384
0.217325036275701
0.221570867074914
0.227154968138439
0.252885823279895
0.320108681147666
0.209939674201176
0.220283531005296
0.203446192465259
0.200409463400528
0.200931915588056
0.205568336553233
0.215489766871006
0.232997700785823
0.484535879437754
0.340761841313233
0.275046406224098
0.247653575694455
0.237088528629136
0.234403559907196
0.23562569021337
0.484741109614463
0.449074652820173
0.25676282878571
0.258489326197667
0.259778928180723
0.273375530399376
0.315421802918942
0.465991545936256
1.12675054650426
0.988420857445271
0.887348604347446
0.816279929094599
0.23395401567513
0.231867385853734
0.238961581165303
0.239886114456409
0.247326448786055
0.255217590562527
0.262460096660577
0.309175945108342
0.26290949545466
0.408708793110491
0.749441299496338
0.260782123988269
0.261701504053824
0.266381999763029
0.275322877928396
0.285419252318812
0.271936276166874
0.297752113003226
0.29582339158554
0.373431580602119
0.693260453382429
0.306314933107563
0.316606006266596
0.29133808665536
0.29346344190503
0.30594718654596
0.353385458618654
0.294147880950541
0.595788329482508
3.19250438145758
4.91093012114628
3.2461173490392
3.02802349697294
3.00410440287329
3.00760916903961
2.99479243649127
0.205276488824346
0.20136391854084
0.200389215621445
0.202594746202695
0.208627644346859
0.212260639703226
0.222940121030454
0.238706974050567
0.219757935433932
0.238452624299133
0.262301309725148
0.269840442012943
0.32595149129731
0.299181741037182
0.316657462880616
0.327578631587396
0.341023273908504
0.355624927256065
0.37014018478367
0.383958730066622
0.397439467229682
0.411513908810032
0.426499941740831
0.440977063331768
0.310215166028245
0.316468532184737
0.372489965476888
0.664574487977301
2.96529569191004
0.678384245097176
0.662043530661166
0.698364261183124
0.724405689248098
0.645403024172128
0.626321916230723
0.604585921190688
0.580510370535226
0.554498205467459
0.527544295300205
0.503921683483516
0.504304820746518
0.557710577976782
0.75318831538802
0.353229551685554
0.348933438772164
0.351348592338
0.353840139369472
0.375295578486658
0.518340313443827
2.39028610197061
2.93583888189193
0.36077278424659
2.95713777276846
2.20611029106095
2.20380046122113
2.21545007878158
2.26804298784447
2.36559469273718
0.750809748334089
2.20655803189063
2.20340440419824
2.19978473859533
2.19749088822188
2.19580431615995
2.19225819834781
2.1862885567589
2.18723687363053
2.2161090402496
2.28699605813752
2.3816800047244
2.37374233840886
0.386067857839534
0.418285032506011
0.439241439460693
0.459263767482297
0.430494118255705
0.435806510411128
0.448280546541839
0.455489037358044
0.369018836536243
0.305038052923501
0.266792207294646
0.24245198217477
0.226201527910853
0.215111599028623
0.207629370877667
0.202977156475206
0.200862548992845
0.201328547006825
0.204710558766432
0.211713792203964
0.22367376779954
0.243178484543354
0.275595135195776
0.333453275609498
0.452390191273335
0.776620965085758
0.225190753602704
0.212970566992497
0.23209494284732
0.205223033666189
0.216818136132905
0.247252865364876
0.223296714901691
0.212132941965569
0.204835092764499
0.201109315884734
0.207662576774872
0.201936231778801
0.201076728848076
0.224707639163911
0.274741506739414
0.204689380532876
0.212572150666727
0.203485252369007
0.237040521031511
0.312997228639123
0.20526354792036
0.214772980471374
0.210814165123386
0.208484106013762
0.209936340991179
0.220018731223838
0.2511465171984
0.32004893264985
0.229274710636258
0.218556693617084
0.217445445771959
0.220718134200758
0.225906683211143
0.231777341587746
0.256717014059095
0.307927317145311
0.20595191426501
0.213301014584128
0.224299851001091
0.201702623024288
0.200449691002054
0.20243645896827
0.208289796294354
0.219226837167072
0.237593986290371
0.483930226027643
0.48268519389354
0.346488937619761
0.281296243774224
0.253373240000736
0.242311831468175
0.239271613271582
0.240238291014204
0.450394643239961
0.411668236324012
0.26581867834219
0.262386915700041
0.263834357345863
0.2801564527527
0.323493660063572
0.475024882049961
1.11213411926123
0.979055986777653
0.881438096760375
0.814333439544659
0.752589295029577
0.233403553078622
0.238462879206128
0.232598499436584
0.23931516082009
0.245416480102972
0.253082767937307
0.260855328569875
0.256398694151735
0.289900089429852
0.268270388990356
0.372453717949162
0.694209002095154
0.264471898050888
0.25876907632619
0.257235646797671
0.272954376328321
0.282715134361643
0.29279339593128
0.261513061997136
0.278621740115635
0.302867497057286
0.342257930756048
0.651678934058472
0.312919968922628
0.32273345118584
0.298024003551535
0.300641796213762
0.313891214583306
0.363211656900462
0.609990684755515
0.300695379558453
3.18687347633969
4.89532849536336
3.23124746460883
3.01425696775527
2.99546181768828
3.01213348129328
3.01563612005647
2.99476254857659
0.203199911637671
0.207987576438667
0.200972462251077
0.201352095765071
0.204671841932147
0.211627551861504
0.215610792245258
0.22681063665318
0.243099908782686
0.223524886089987
0.242870804559294
0.267434285026444
0.274851764091885
0.331587446450214
0.305751418602224
0.323144076844083
0.31065104844995
0.337105499402281
0.351709856267375
0.366235057928668
0.380087551993111
0.393107754970006
0.405821220974106
0.419191401090453
0.433525681948619
0.447388495108571
0.301893664450997
0.305676958494915
0.354477031944291
0.632455958877903
2.9678058328767
0.688050469230961
0.672936192086006
0.657710588200719
0.707022591449198
0.732265764097727
0.640329507948416
0.620603004946881
0.598915780458542
0.575742511435878
0.551877128720958
0.529204564049733
0.515756404833324
0.526406301968862
0.554371912874451
0.760320000951823
0.361439688883003
0.357273101355659
0.362699690856262
0.365635002704325
0.387467953766187
0.534748256755201
2.38919054722817
2.95106597010917
0.369447465976804
2.91143613403353
2.20623418261256
2.20312079506815
2.19825996487358
2.21803830807898
2.29446167325043
2.39560717890876
0.732703567773407
2.2037030988029
2.19980732289069
2.19720864573825
2.19611706650936
2.19520612320231
2.19203738408044
2.18621825415901
2.18721940839072
2.21610965327266
2.28699578477596
2.37381029465978
0.403215714871005
0.421077121777306
0.465002336095641
0.493593742910244
0.441681052651015
0.446591097913259
0.456382358907379
0.462943187170483
0.376605223097848
0.311493914151556
0.271733240079908
0.246626217653093
0.229904509997264
0.218394767424986
0.210429831699333
0.205139294196299
0.202127964392887
0.201309524262873
0.202831594729043
0.207082322307367
0.214798840905433
0.227345862438163
0.247348707021633
0.280229143849191
0.338599706126322
0.458208010906138
0.229453037086222
0.216377952414404
0.236565402419235
0.207472382019716
0.220130681483994
0.251813398806533
0.209378339290833
0.202505555646659
0.227712717159176
0.278821939168044
0.2273609595641
0.215544952135516
0.207397138815681
0.20246864342036
0.200676438070384
0.204024619695064
0.213372496405871
0.201539380544732
0.202243090355069
0.239280216385665
0.315147247319097
0.204127291066626
0.207277053222733
0.219219788847087