/*--------------------------------*- C++ -*----------------------------------*\
  =========                 |
  \\      /  F ield         | OpenFOAM: The Open Source CFD Toolbox
   \\    /   O peration     | Website:  https://openfoam.org
    \\  /    A nd           | Version:  12
     \\/     M anipulation  |
\*---------------------------------------------------------------------------*/
/*   Windows 32 and 64 bit porting by blueCAPE: http://www.bluecape.com.pt   *\
|  Based on Windows porting (2.0.x v4) by Symscape: http://www.symscape.com   |
\*---------------------------------------------------------------------------*/
FoamFile
{
    format      ascii;
    class       volScalarField;
    location    "300";
    object      p;
}
// * * * * * * * * * * * * * * * * * * * * * * * * * * * * * * * * * * * * * //

dimensions      [0 2 -2 0 0 0 0];

internalField   nonuniform List<scalar> 
10176
(
83333.333327088
83333.333327038
83333.3333275425
83333.3333191672
83333.3333189028
83333.3333268932
83333.3333275359
83333.3333277726
83333.333320561
83333.3333125201
83333.333320267
83333.3333184978
83333.3333121561
83333.333326682
83333.3333274073
83333.3333276304
83333.333328461
83333.333321856
83333.3333135451
83333.3333066609
83333.3333131554
83333.3333197953
83333.3333214856
83333.3333178136
83333.333311565
83333.333306265
83333.3333262106
83333.3333271909
83333.3333274304
83333.3333283206
83333.3333288255
83333.3333238065
83333.333315011
83333.3333071448
83333.3333002918
83333.3333145604
83333.3333124787
83333.3333067298
83333.333320889
83333.3333190526
83333.3333235124
83333.3333167025
83333.3333105074
83333.3333055959
83333.3332999125
83333.333325665
83333.3333268073
83333.3333272089
83333.3333281477
83333.3333286943
83333.333328981
83333.333325123
83333.333317406
83333.3333083398
83333.3333003587
83333.3332937016
83333.3333169917
83333.3333078733
83333.3333137644
83333.3333059783
83333.3333113307
83333.333299972
83333.3333229763
83333.333320039
83333.333317895
83333.3333248261
83333.3333151604
83333.3333087834
83333.3333043399
83333.3332992203
83333.3332933241
83333.33332489
83333.3333262911
83333.3333268119
83333.3333279193
83333.3333285287
83333.3333288728
83333.3333290537
83333.3333258676
83333.3333193577
83333.3333105447
83333.3333012037
83333.3332935174
83333.3332870772
83333.3333162219
83333.3333100675
83333.3333189318
83333.3333007704
83333.3333070541
83333.3333124512
83333.3332992352
83333.3333046637
83333.3333095093
83333.3332931674
83333.3333242679
83333.3333221314
83333.3333187162
83333.3333162145
83333.3333256025
83333.3333130572
83333.3333063417
83333.3333022867
83333.3332979237
83333.3332926408
83333.333286779
83333.3333241595
83333.3333256128
83333.3333261723
83333.3333274901
83333.3333282931
83333.3333287349
83333.3333289574
83333.3333291029
83333.3333262741
83333.3333207648
83333.3333126096
83333.3333031432
83333.3332941029
83333.3332868507
83333.3332807266
83333.3333092221
83333.3333181295
83333.3333148762
83333.3333121121
83333.3333026828
83333.3333203299
83333.3332937223
83333.3333000015
83333.3333056003
83333.3333103354
83333.3332924867
83333.3332979361
83333.3333025597
83333.3333069762
83333.3332865474
83333.3333251136
83333.3333233747
83333.3333206946
83333.3333167028
83333.3333137884
83333.3333260124
83333.3333119319
83333.3333029272
83333.3332992712
83333.333295848
83333.3332914079
83333.3332861561
83333.3332804646
83333.333323062
83333.3333256123
83333.3333255018
83333.3333267103
83333.3333279032
83333.3333285501
83333.3333288247
83333.3333290222
83333.3333291025
83333.3333265478
83333.3333215964
83333.3333143381
83333.3333052586
83333.3332958268
83333.3332872885
83333.3332805163
83333.333274781
83333.3333112087
83333.333307688
83333.3333018815
83333.3333195432
83333.3333167117
83333.3333125766
83333.3333138024
83333.3333047444
83333.333295423
83333.3333211813
83333.3332869788
83333.3332930312
83333.3332985962
83333.3333032538
83333.3333071422
83333.3332859335
83333.3332912357
83333.3332958107
83333.3332995193
83333.3333035769
83333.3332802447
83333.3333255333
83333.3333243338
83333.3333219715
83333.3333183322
83333.3333136474
83333.3333136205
83333.3333262907
83333.3333098477
83333.3332986464
83333.3332947382
83333.3332927953
83333.3332894388
83333.3332850336
83333.3332798767
83333.333274566
83333.3333233717
83333.3333246017
83333.3333255698
83333.333327135
83333.3333281999
83333.3333286462
83333.3333289042
83333.3333290458
83333.3333291239
83333.3333266579
83333.3333221422
83333.3333155627
83333.3333071953
83333.3332979071
83333.3332888508
83333.3332808819
83333.3332746238
83333.3332693523
83333.3333128663
83333.3333038777
83333.3333095919
83333.333305125
83333.3333003937
83333.3332947221
83333.3333204131
83333.3333181793
83333.3333143745
83333.333308896
83333.333306614
83333.3333150162
83333.3332974548
83333.3332885448
83333.3333217493
83333.3332806337
83333.3332863909
83333.3332917463
83333.3332963169
83333.3332997412
83333.333302497
83333.3332796798
83333.3332847964
83333.3332892377
83333.333292602
83333.3332954005
83333.3332743928
83333.3333258456
83333.3333247663
83333.3333229654
83333.3333195239
83333.3333145138
83333.3333118166
83333.3333102509
83333.3333264149
83333.3332965419
83333.3332887869
83333.3332885249
83333.3332865262
83333.3332832584
83333.3332788537
83333.3332740211
83333.3332691751
83333.3333228685
83333.3333250423
83333.3333258223
83333.3333274487
83333.3333283349
83333.333328756
83333.3333289412
83333.3333290832
83333.3333291708
83333.3333267858
83333.3333225187
83333.333316432
83333.3333087182
83333.3332999394
83333.3332908906
83333.3332823497
83333.3332749698
83333.333269262
83333.3332645007
83333.3333056985
83333.3333140857
83333.3333112243
83333.3332967079
83333.3333022972
83333.3333068988
83333.3332979162
83333.3333011916
83333.3332934019
83333.3332879739
83333.3333210289
83333.3333190675
83333.3333158413
83333.3333105344
83333.3333032611
83333.3333081063
83333.3332994303
83333.3333158947
83333.3332905553
83333.3332821193
83333.3333221397
83333.3332801366
83333.3332747684
83333.3332852858
83333.3332896718
83333.3332929032
83333.3332943352
83333.3332987641
83333.3332738833
83333.3332786636
83333.3332830097
83333.3332863023
83333.3332880445
83333.3332690691
83333.3333259953
83333.3333251493
83333.333323471
83333.3333204501
83333.3333153733
83333.3333126404
83333.3333092381
83333.3332966651
83333.3333265403
83333.3332730469
83333.3332781561
83333.3332825633
83333.3332825582
83333.3332806549
83333.3332772864
83333.333273093
83333.3332687066
83333.3332643528
83333.3333231673
83333.3333252546
83333.3333260715
83333.3333276792
83333.3333284863
83333.333328808
83333.3333289853
83333.3333291474
83333.3333292379
83333.3333269308
83333.3333228383
83333.3333170808
83333.333309895
83333.3333016712
83333.333292986
83333.3332843604
83333.3332763834
83333.3332696267
83333.3332644879
83333.3332602617
83333.3332986372
83333.3333071791
83333.3333040609
83333.3333149952
83333.3333124542
83333.3333084751
83333.3332953166
83333.333289956
83333.3332996631
83333.3333027108
83333.3332912072
83333.3332941841
83333.3332950698
83333.3332868786
83333.3332816638
83333.3333214537
83333.3333197653
83333.3333167988
83333.3333119103
83333.3333045257
83333.3332998497
83333.3333092844
83333.3333011344
83333.333292604
83333.3333165608
83333.3332841291
83333.3332762015
83333.333322468
83333.3332792024
83333.3332743492
83333.3332694581
83333.333283504
83333.3332866143
83333.3332880424
83333.3332880111
83333.3332959628
83333.3332686295
83333.3332729802
83333.3332771041
83333.3332804451
83333.3332823371
83333.3332811989
83333.333264322
83333.3333261258
83333.3333253303
83333.3333239422
83333.3333211388
83333.333316169
83333.3333131619
83333.3333096383
83333.333272284
83333.333326693
83333.3332675987
83333.333269205
83333.3332746167
83333.3332772978
83333.3332771452
83333.3332750586
83333.3332717148
83333.3332678963
83333.3332639663
83333.3332601383
83333.3333233013
83333.3333254757
83333.3333263335
83333.3333278738
83333.3333285657
83333.3333288655
83333.3333290612
83333.3333292264
83333.3333293232
83333.3333270895
83333.333323123
83333.3333176133
83333.3333108262
83333.3333030976
83333.33329487
83333.3332865028
83333.333278389
83333.3332710101
83333.3332649036
83333.3332603286
83333.3332566196
83333.3332971864
83333.3333003138
83333.3332919631
83333.333308365
83333.3333055276
83333.3333013421
83333.3333156937
83333.3333134128
83333.3333097205
83333.3333041539
83333.3332888121
83333.3332930061
83333.3332836602
83333.333295664
83333.3332963128
83333.3332879398
83333.3332850595
83333.333288878
83333.3332886383
83333.333280771
83333.3332758362
83333.333321805
83333.3333202392
83333.3333175956
83333.3333130005
83333.3333058041
83333.3333003478
83333.3332962974
83333.3333025584
83333.3333102297
83333.3332944602
83333.333286245
83333.3333171094
83333.3332782136
83333.3332708539
83333.3333227689
83333.3332777097
83333.3332735557
83333.3332691047
83333.3332647617
83333.333280926
83333.3332824422
83333.3332826401
83333.3332782532
83333.3332739276
83333.3332639485
83333.333267835
83333.3332716179
83333.3332749343
83333.3332770402
83333.3332773123
83333.3332738087
83333.3332601876
83333.3333262969
83333.3333254891
83333.3333241809
83333.3333216779
83333.3333169139
83333.3333137071
83333.3333098492
83333.3332675556
83333.3333268565
83333.3332630643
83333.3332638432
83333.3332679381
83333.3332695247
83333.3332711944
83333.333272841
83333.333272165
83333.3332698381
83333.3332667164
83333.3332632944
83333.3332598134
83333.3332565236
83333.3333236507
83333.3333256221
83333.3333265799
83333.3333280115
83333.3333286617
83333.333328955
83333.3333291491
83333.3333293193
83333.3333294118
83333.333327271
83333.3333233882
83333.3333180752
83333.3333116001
83333.3333042767
83333.3332964903
83333.3332885119
83333.3332805678
83333.333273008
83333.3332662517
83333.3332608057
83333.3332567615
83333.3332535402
83333.3332988325
83333.3332907609
83333.3332947992
83333.3333017245
83333.3332937851
83333.3332857366
83333.333306731
83333.3333093262
83333.3333027896
83333.3332972028
83333.3333162696
83333.3333141594
83333.3333107386
83333.3333054008
83333.3332976566
83333.3332827381
83333.333286919
83333.3332895683
83333.333277849
83333.333290042
83333.3332893895
83333.3332824109
83333.3332834378
83333.3332792918
83333.3332832935
83333.3332786448
83333.3332751019
83333.3332705644
83333.3333221348
83333.3333206377
83333.3333181466
83333.3333138817
83333.3333069591
83333.3333010338
83333.3332966923
83333.3332729248
83333.3332960656
83333.3333037443
83333.3333110187
83333.3332882212
83333.3332803862
83333.3333175896
83333.3332728626
83333.3332661187
83333.3333230485
83333.3332756008
83333.3332722998
83333.3332684253
83333.3332644673
83333.3332606833
83333.3332775166
83333.3332776571
83333.3332755989
83333.3332704534
83333.3332681177
83333.3332598705
83333.333263265
83333.3332666583
83333.3332697881
83333.3332721411
83333.3332729641
83333.3332717078
83333.3332684678
83333.3332566492
83333.333326473
83333.3333256891
83333.3333244308
83333.3333220458
83333.3333175661
83333.3333141255
83333.3333103065
83333.3332635863
83333.3333270383
83333.3332601287
83333.3332605609
83333.3332629136
83333.3332644253
83333.333265939
83333.3332683198
83333.3332688014
83333.333267515
83333.3332651645
83333.3332623182
83333.3332592603
83333.3332562558
83333.3332534749
83333.3333239541
83333.333325776
83333.333326767
83333.3333281731
83333.3333287727
83333.3333290518
83333.3333292464
83333.3333294132
83333.3333295056
83333.3333274393
83333.3333236556
83333.3333184888
83333.333312266
83333.3333052723
83333.333297868
83333.3332902864
83333.3332826647
83333.3332752079
83333.3332682228
83333.3332621092
83333.3332573018
83333.3332537484
83333.3332509669
83333.3333002373
83333.3332925373
83333.3332964106
83333.33328476
83333.3332887932
83333.3332912601
83333.3333029094
83333.3332953712
83333.3332876751
83333.3332799855
83333.3333040169
83333.3333077211
83333.3333101349
83333.333298615
83333.3332914225
83333.3333167769
83333.3333147805
83333.3333115548
83333.333306468
83333.3332989214
83333.3332903591
83333.3332812088
83333.3332771053
83333.3332841648
83333.3332848801
83333.3332725831
83333.3332838883
83333.3332795069
83333.3332771737
83333.3332789163
83333.3332782765
83333.3332738944
83333.3332762552
83333.3332705858
83333.3332699576
83333.3332658892
83333.3333224377
83333.3333210134
83333.3333186412
83333.3333145756
83333.3333079953
83333.3333016996
83333.3332972027
83333.3332733574
83333.3332678621
83333.3332899731
83333.3332974391
83333.3333047483
83333.3333116985
83333.3332824618
83333.3332750677
83333.3333180197
83333.3332681024
83333.3332619991
83333.3333233249
83333.3332729068
83333.3332705706
83333.3332673651
83333.3332638905
83333.3332604402
83333.3332572029
83333.333273577
83333.3332719194
83333.3332691465
83333.3332648565
83333.3332635917
83333.3332563881
83333.3332592906
83333.3332622674
83333.3332651258
83333.3332675225
83333.3332688975
83333.3332686487
83333.3332666414
83333.3332637225
83333.3332536673
83333.3333266596
83333.3333258839
83333.3333246765
83333.333322431
83333.3333180366
83333.3333145236
83333.3333107526
83333.3332603483
83333.3333272081
83333.3332582423
83333.3332583864
83333.3332595522
83333.3332608941
83333.3332618969
83333.3332642204
83333.3332652962
83333.3332648825
83333.3332632929
83333.3332610469
83333.3332584605
83333.3332558011
83333.3332532655
83333.333250936
83333.3333242937
83333.333325903
83333.3333270025
83333.3333283254
83333.3333288794
83333.3333291539
83333.3333293429
83333.3333295112
83333.3333296187
83333.3333276039
83333.3333239092
83333.3333188747
83333.3333128529
83333.3333061323
83333.333299049
83333.3332918199
83333.3332845536
83333.333277357
83333.3332704173
83333.3332640311
83333.3332585559
83333.3332543422
83333.333251226
83333.3332488132
83333.3333014288
83333.3332978104
83333.3332940952
83333.3332866455
83333.3332905151
83333.3332928276
83333.3332831605
83333.333279197
83333.3332859424
83333.3332864753
83333.3333039211
83333.3332967345
83333.3332893994
83333.3332820215
83333.3332747578
83333.3332998617
83333.3333050513
83333.3333085611
83333.3333108357
83333.3332927914
83333.3332847919
83333.33331723
83333.3333153307
83333.3333122497
83333.3333073738
83333.3333000836
83333.3332913415
83333.3332804111
83333.3332790157
83333.3332758663
83333.3332719782
83333.3332805515
83333.3332794331
83333.3332678891
83333.3332767428
83333.3332709455
83333.3332744671
83333.3332721858
83333.3332749003
83333.33327224
83333.3332689545
83333.3332695053
83333.3332651077
83333.3332653862
83333.333261821
83333.3333213512
83333.333322729
83333.3333190826
83333.3333151975
83333.3333088327
83333.3333024118
83333.3332976717
83333.3332737188
83333.3332678652
83333.3332636716
83333.3332914971
83333.3332843302
83333.3332986205
83333.3333056152
83333.3333122975
83333.3332772074
83333.3332703077
83333.3333184183
83333.3332639369
83333.333258473
83333.3333235853
83333.3332698301
83333.3332684154
83333.3332659387
83333.3332629951
83333.3332599558
83333.3332570087
83333.33325427
83333.3332691789
83333.3332667863
83333.3332642024
83333.3332610703
83333.3332603123
83333.3332534634
83333.3332559072
83333.3332584554
83333.3332609998
83333.3332632825
83333.3332649514
83333.333265474
83333.3332646183
83333.3332626433
83333.3332603013
83333.3332511752
83333.333326832
83333.3333260796
83333.3333248907
83333.3333227619
83333.3333185808
83333.333314875
83333.3333112326
83333.3332582444
83333.3333273768
83333.3332570034
83333.3332575007
83333.3332569282
83333.3332585699
83333.3332588956
83333.3332607545
83333.3332620149
83333.3332621343
83333.3332612014
83333.3332595265
83333.3332574251
83333.3332551499
83333.3332529065
83333.3332507821
83333.3332488102
83333.3333246034
83333.3333260907
83333.3333271787
83333.3333284648
83333.3333289938
83333.3333292553
83333.3333294447
83333.333329626
83333.3333297525
83333.3333277943
83333.3333241522
83333.3333192342
83333.3333133821
83333.3333068859
83333.3333000735
83333.3332931481
83333.3332862086
83333.333279324
83333.3332725841
83333.3332661872
83333.3332604078
83333.3332555436
83333.3332518574
83333.33324911
83333.3332469797
83333.3333024532
83333.3332954438
83333.3332990143
83333.3332920385
83333.3332942201
83333.3332883292
83333.3332811741
83333.3332849817
83333.3332875932
83333.3332880022
83333.3332808758
83333.3332778948
83333.3332741138
83333.3332822158
83333.3332808077
83333.3333047987
83333.3332979117
83333.3332909047
83333.3332838565
83333.333276856
83333.3332700701
83333.3332940642
83333.3333009483
83333.3333059417
83333.3333092924
83333.333311454
83333.3332858321
83333.3332773816
83333.3333176453
83333.3333158195
83333.3333128643
83333.3333081617
83333.3333011061
83333.3332923129
83333.333281243
83333.3332712674
83333.333276206
83333.3332741051
83333.3332709628
83333.3332673985
83333.33327638
83333.333273115
83333.3332637793
83333.3332698447
83333.3332654061
83333.3332713792
83333.3332700399
83333.3332675569
83333.3332703557
83333.3332674565
83333.3332645537
83333.3332647262
83333.333261302
83333.3332614109
83333.3332583458
83333.3333216652
83333.3333194644
83333.3333229992
83333.3333157381
83333.3333096282
83333.3333030887
83333.3332982087
83333.3332744352
83333.3332679044
83333.3332637778
83333.3332604202
83333.33329282
83333.3332859718
83333.3332791552
83333.3332996452
83333.3333063743
83333.3333128368
83333.3332724733
83333.3332661069
83333.3333187876
83333.3332603419
83333.3332554886
83333.3333238355
83333.3332664618
83333.3332659758
83333.3332641959
83333.3332618111
83333.3332592074
83333.3332566117
83333.3332541269
83333.3332518108
83333.3332651925
83333.3332627784
83333.3332605963
83333.333258549
83333.3332581805
83333.3332530775
83333.3332510247
83333.3332552217
83333.3332574154
83333.3332595102
83333.333261236
83333.3332622485
83333.3332622168
83333.3332611743
83333.3332594965
83333.3332579378
83333.3332490823
83333.3333270082
83333.3333262627
83333.3333251109
83333.333323043
83333.3333189553
83333.333315304
83333.3333117156
83333.3332569629
83333.3333275699
83333.3332564021
83333.3332567686
83333.3332563478
83333.3332561735
83333.3332570361
83333.3332579464
83333.3332590863
83333.3332595042
83333.3332590289
83333.3332578483
83333.3332562044
83333.3332543224
83333.3332523966
83333.3332505109
83333.333248701
83333.3332469874
83333.3333249111
83333.3333262471
83333.333327358
83333.3333286027
83333.3333291054
83333.3333293626
83333.3333295613
83333.3333297577
83333.3333298863
83333.3333280106
83333.3333244013
83333.3333195715
83333.3333138637
83333.3333075557
83333.333300971
83333.3332943053
83333.333287651
83333.3332810649
83333.3332745929
83333.333268338
83333.3332624941
83333.333257304
83333.3332530018
83333.3332497641
83333.3332473072
83333.3332454026
83333.3333000596
83333.3333033449
83333.333296615
83333.3332898059
83333.3332933681
83333.33329544
83333.3332866136
83333.3332890699
83333.3332893907
83333.3332829637
83333.3332761604
83333.3332798083
83333.3332826134
83333.3332837774
83333.3332821777
83333.3332779478
83333.3332760547
83333.3332730495
83333.3332695487
83333.333277868
83333.3332742318
83333.3333055697
83333.3332989371
83333.3332922158
83333.3332854737
83333.3332787689
83333.3332721961
83333.3332659299
83333.3332869053
83333.3332952143
83333.3333019048
83333.3333067235
83333.3333099377
83333.3333120077
83333.3332781253
83333.33327023
83333.3333180268
83333.3333162618
83333.3333134054
83333.3333088598
83333.3333020233
83333.3332932344
83333.3332820467
83333.3332716423
83333.3332656182
83333.3332718832
83333.3332729847
83333.3332695348
83333.3332665677
83333.3332633871
83333.3332716386
83333.3332682725
83333.3332602323
83333.3332651055
83333.3332615633
83333.3332679629
83333.3332676003
83333.3332658363
83333.3332634107
83333.3332664693
83333.3332637675
83333.333260727
83333.3332612995
83333.333258793
83333.3332580212
83333.3332554032
83333.3333219548
83333.3333198184
83333.3333161994
83333.333323261
83333.3333102696
83333.3333037976
83333.3332988192
83333.3332751469
83333.3332681372
83333.3332638303
83333.3332605708
83333.3332583051
83333.3332939732
83333.3332874057
83333.3332808812
83333.3332744649
83333.3333005429
83333.3333070481
83333.3333133262
83333.3332682589
83333.3332624416
83333.3333191335
83333.3332572646
83333.3332529726
83333.3333240907
83333.3332632397
83333.3332633502
83333.333262251
83333.3332604058
83333.3332582393
83333.3332560008
83333.3332538156
83333.3332517128
83333.3332497384
83333.3332617989
83333.3332597237
83333.3332581547
83333.3332570729
83333.3332569333
83333.3332525336
83333.3332507263
83333.3332489745
83333.3332543919
83333.3332562317
83333.3332578967
83333.3332591258
83333.3332596522
83333.3332593568
83333.3332583939
83333.3332572426
83333.3332564904
83333.3332472937
83333.3333272054
83333.3333264531
83333.3333253161
83333.3333233063
83333.3333193168
83333.3333156836
83333.3333122866
83333.3332563881
83333.3333277855
83333.3332563076
83333.3332559895
83333.3332556151
83333.3332557609
83333.3332560159
83333.3332562841
83333.333256631
83333.3332570887
83333.3332569266
83333.3332561355
83333.3332548888
83333.3332533753
83333.3332517602
83333.3332501258
83333.333248499
83333.3332469102
83333.3332454182
83333.3333251977
83333.333326421
83333.3333275207
83333.3333287279
83333.3333292194
83333.3333294792
83333.3333296908
83333.3333298846
83333.3333300038
83333.3333282007
83333.3333246557
83333.3333198959
83333.3333143057
83333.3333081561
83333.3333017645
83333.33329532
83333.3332889117
83333.3332825915
83333.3332763847
83333.3332703498
83333.3332645938
83333.3332592964
83333.3332546592
83333.3332508518
83333.3332479792
83333.3332457553
83333.3332440534
83333.3333009751
83333.3332945314
83333.3332965137
83333.3333041296
83333.3332976388
83333.3332910977
83333.3332880519
83333.3332845452
83333.333290373
83333.3332906305
83333.3332841774
83333.3332815383
83333.3332851923
83333.3332834671
83333.3332780267
83333.3332716286
83333.3332750362
83333.3332778862
83333.3332795782
83333.3332792771
83333.3332754036
83333.333274567
83333.3332737315
83333.3332715599
83333.3332686806
83333.333265514
83333.3332729295
83333.3332691599
83333.3332998374
83333.3333062543
83333.3332933619
83333.3332868907
83333.333280468
83333.3332741529
83333.3332680453
83333.333262317
83333.3332789666
83333.333287957
83333.333296253
83333.3333027505
83333.3333074134
83333.333310514
83333.3333125082
83333.3332707668
83333.3332654853
83333.3333166647
83333.3333183834
83333.3333138916
83333.3333094717
83333.3333028305
83333.3332941042
83333.3332827979
83333.3332720774
83333.3332658812
83333.3332617858
83333.3332677636
83333.3332693461
83333.3332694233
83333.3332654108
83333.3332627133
83333.333259927
83333.3332676297
83333.3332646225
83333.3332571988
83333.3332617868
83333.3332590966
83333.3332649553
83333.3332647614
83333.3332638998
83333.3332620293
83333.3332598016
83333.3332631953
83333.3332609073
83333.3332574689
83333.3332589694
83333.3332573783
83333.3332551565
83333.3332529272
83333.3333222361
83333.3333201409
83333.3333166116
83333.3333108365
83333.333323525
83333.3333044626
83333.3332995282
83333.3332759208
83333.3332684175
83333.3332639217
83333.3332606412
83333.3332584527
83333.3332571061
83333.333294985
83333.3332886608
83333.3332823976
83333.3332762411
83333.3332702543
83333.3333013366
83333.3333076511
83333.3333137744
83333.3332645417
83333.3332592694
83333.3333194648
83333.3332546439
83333.3332508443
83333.3333243485
83333.3332603759
83333.3332607973
83333.3332602151
83333.3332588754
83333.3332571268
83333.3332552302
83333.3332533324
83333.3332514787
83333.333249677
83333.3332479682
83333.3332590816
83333.3332576172
83333.3332567607
83333.3332564363
83333.3332564338
83333.3332503072
83333.3332518944
83333.3332487492
83333.3332472183
83333.3332534844
83333.3332549893
83333.3332562711
83333.3332571061
83333.3332573461
83333.3332570295
83333.3332564086
83333.3332559007
83333.3332558317
83333.3332457548
83333.3333274183
83333.3333266524
83333.3333255237
83333.3333235309
83333.3333196279
83333.3333160532
83333.333312848
83333.3332563631
83333.333327977
83333.3332564679
83333.3332550142
83333.3332549499
83333.3332551845
83333.333255582
83333.3332561779
83333.3332561709
83333.3332551699
83333.3332550721
83333.3332545302
83333.3332535968
83333.3332523942
83333.3332510515
83333.3332496497
83333.3332482098
83333.333246762
83333.333245369
83333.3332440829
83333.3333254722
83333.3333265875
83333.3333276645
83333.3333288665
83333.3333293398
83333.3333296048
83333.3333298129
83333.3333299961
83333.3333301083
83333.33332835
83333.3333248852
83333.33332021
83333.3333147153
83333.3333086979
83333.33330247
83333.3332962149
83333.3332900178
83333.3332839295
83333.3332779659
83333.3332721605
83333.3332665762
83333.3332613164
83333.3332565388
83333.3332524013
83333.3332490173
83333.333246444
83333.333244431
83333.3333017832
83333.3332955538
83333.3332974614
83333.3332893166
83333.3332915241
83333.3332917389
83333.3333048261
83333.3332985398
83333.3332922309
83333.3332859354
83333.3332855641
83333.3332830719
83333.3332796875
83333.3332864577
83333.3332846582
83333.3332795415
83333.3332810547
83333.3332768444
83333.3332805766
83333.3332765625
83333.3332735397
83333.3332675878
83333.3332707074
83333.3332734726
83333.3332754604
83333.3332760514
83333.3332741771
83333.3332701102
83333.3332708426
83333.3332710675
83333.3332697061
83333.3332674753
83333.3332648125
83333.3332619935
83333.3332687404
83333.3332654414
83333.3332943689
83333.333300633
83333.3333068669
83333.3332881337
83333.3332819645
83333.3332759016
83333.3332700074
83333.3332643826
83333.3332591891
83333.3332714245
83333.3332798443
83333.3332889663
83333.3332971803
83333.3333035012
83333.3333080266
83333.3333110326
83333.3333129657
83333.3332659776
83333.333262234
83333.3333143308
83333.33331704
83333.3333187232
83333.3333100154
83333.3333035418
83333.3332949224
83333.333283429
83333.3332725616
83333.3332662096
83333.3332620723
83333.3332593842
83333.3332657581
83333.3332639963
83333.3332665955
83333.3332661263
83333.3332617831
83333.3332593908
83333.333256971
83333.3332643252
83333.3332618264
83333.3332546138
83333.3332595923
83333.3332577469
83333.3332618479
83333.3332623987
83333.3332619253
83333.3332605077
83333.3332587096
83333.333256735
83333.3332605421
83333.3332588696
83333.3332547287
83333.3332575881
83333.3332568208
83333.3332527501
83333.3332508291
83333.3333225116
83333.3333204493
83333.3333169724
83333.3333113261
83333.3333050569
83333.3333237867
83333.3333002078
83333.3332765572
83333.3332687229
83333.3332640315
83333.3332607293
83333.3332585639
83333.3332573139
83333.3332566471
83333.3332897627
83333.3332958774
83333.3332837286
83333.3332778111
83333.3332720491
83333.3332665088
83333.3333020423
83333.3333081947
83333.3333141889
83333.3332612887
83333.333256534
83333.3333197833
83333.3332524066
83333.3332490267
83333.3333245823
83333.3332584988
83333.3332580221
83333.3332582523
83333.3332573266
83333.3332559572
83333.3332543752
83333.3332527361
83333.3332511095
83333.3332495071
83333.3332479338
83333.3332464454
83333.3332571433
83333.3332563744
83333.3332561357
83333.3332563513
83333.333256457
83333.3332484306
83333.3332498282
83333.3332512182
83333.3332470494
83333.3332457082
83333.3332525611
83333.3332537781
83333.3332547453
83333.3332553337
83333.333255503
83333.3332553854
83333.3332552229
83333.3332552966
83333.3332557278
83333.3332444463
83333.3333276088
83333.3333268613
83333.3333257356
83333.3333237915
83333.3333198912
83333.3333163925
83333.3333133815
83333.3332565833
83333.3333281309
83333.333256697
83333.333253902
83333.3332541305
83333.3332544928
83333.3332550618
83333.3332557341
83333.3332564446
83333.3332563632
83333.3332536757
83333.3332532049
83333.3332524485
83333.3332514683
83333.3332503375
83333.3332491237
83333.3332478515
83333.3332465465
83333.3332452674
83333.3332440641
83333.3333257263
83333.3333267406
83333.3333278308
83333.3333290034
83333.33332947
83333.3333297269
83333.3333299215
83333.333330099
83333.3333302022
83333.3333284821
83333.3333250891
83333.3333204999
83333.333315096
83333.3333091893
83333.3333030998
83333.3332970069
83333.3332909925
83333.3332851052
83333.3332793566
83333.3332737674
83333.3332683741
83333.3332632396
83333.333258459
83333.3332541605
83333.333250464
83333.3332474388
83333.3332451248
83333.3333025001
83333.333296457
83333.3332983018
83333.333290431
83333.3332925435
83333.3332927264
83333.3332867916
83333.3332844244
83333.3332875896
83333.3332857566
83333.3333054481
83333.3332993373
83333.333293229
83333.333287158
83333.3332811534
83333.3332810125
83333.3332823749
83333.3332784543
83333.3332752503
83333.3332817639
83333.3332776738
83333.3332752075
83333.3332770228
83333.3332774084
83333.3332725634
83333.3332753554
83333.3332710799
83333.3332695072
83333.3332668398
83333.3332640212
83333.333269437
83333.3332715263
83333.3332726687
83333.3332721787
83333.3332698158
83333.333266276
83333.3332681843
83333.3332674102
83333.3332675989
83333.3332659947
83333.333263844
83333.3332614353
83333.3332589447
83333.333265349
83333.333262633
83333.3332892265
83333.3332952576
83333.3333013403
83333.3333074188
83333.3332832807
83333.3332774503
83333.3332717738
83333.3332663178
83333.3332611763
83333.3332564895
83333.3332665576
83333.3332721576
83333.3332807115
83333.3332899133
83333.3332980047
83333.3333041689
83333.3333085756
83333.333311505
83333.3333133875
83333.3332627325
83333.3332601101
83333.3333147369
83333.3333104985
83333.333317394
83333.3333190472
83333.333304166
83333.333295664
83333.333284047
83333.3332730509
83333.3332666025
83333.3332624117
83333.33325972
83333.3332581013
83333.3332636211
83333.3332624194
83333.333260665
83333.3332639566
83333.3332632463
83333.3332586552
83333.3332565556
83333.3332544521
83333.3332616788
83333.3332598379
83333.3332524038
83333.3332582554
83333.3332572296
83333.3332598623
83333.33325894
83333.3332600844
83333.3332595617
83333.3332575397
83333.333255891
83333.3332541624
83333.3332585763
83333.3332575526
83333.3332524272
83333.3332568973
83333.3332567145