/*--------------------------------*- C++ -*----------------------------------*\
  =========                 |
  \\      /  F ield         | OpenFOAM: The Open Source CFD Toolbox
   \\    /   O peration     | Website:  https://openfoam.org
    \\  /    A nd           | Version:  12
     \\/     M anipulation  |
\*---------------------------------------------------------------------------*/
/*   Windows 32 and 64 bit porting by blueCAPE: http://www.bluecape.com.pt   *\
|  Based on Windows porting (2.0.x v4) by Symscape: http://www.symscape.com   |
\*---------------------------------------------------------------------------*/
FoamFile
{
    format      ascii;
    class       surfaceScalarField;
    location    "300";
    object      phi;
}
// * * * * * * * * * * * * * * * * * * * * * * * * * * * * * * * * * * * * * //

dimensions      [0 3 -1 0 0 0 0];

internalField   nonuniform List<scalar> 
28876
(
-2.82775891467004e-08
-2.3516001805359e-07
7.58254504864501e-06
8.65171532620922e-06
1.86611717454744e-07
-1.81820640912182e-07
1.4411721376856e-07
-7.56968746811905e-08
6.58231535616507e-06
2.59890283259736e-07
-4.44074456882771e-07
7.76672604284253e-06
-5.41865078979863e-07
5.98472085824445e-07
8.85501070239356e-06
9.6660666679006e-06
5.92887714988243e-08
-2.38194076658153e-07
7.42040112977307e-06
2.49524912478063e-07
-1.64588172529973e-07
2.16559987500751e-07
-2.82292420065177e-07
5.65471134113197e-06
2.69837157012225e-07
-3.19903462779083e-07
6.18830112339863e-06
3.5468732013923e-07
-5.14354923001628e-07
7.92640303324444e-06
7.08149209239803e-06
5.27508814831519e-07
-4.60607351468899e-07
-6.33947233826277e-07
9.0634716449424e-07
9.99213893223456e-06
-6.64902102283607e-07
8.16432578669447e-07
9.05817386153769e-06
1.10172709967478e-05
4.7432606400688e-07
-3.46465457249897e-07
8.24911755589527e-06
3.13058961309198e-07
-2.55809397689366e-07
6.34081286860178e-06
3.51441109348025e-07
-2.89507182661459e-07
2.67178252813637e-07
-2.23441022400758e-07
5.57619336870348e-06
2.92683709573108e-07
-3.406067153799e-07
5.38273384758742e-06
2.75135317042308e-07
-4.13158269544249e-07
5.81197073850501e-06
4.1081842648967e-07
-5.08208932383931e-07
8.02380113442623e-06
-5.70985111982488e-07
5.62768654408455e-07
6.69994898929479e-06
7.94071566081817e-06
-5.63696377519987e-07
7.65681655454131e-07
6.09871382832221e-06
5.38076908325513e-07
-4.6389760960906e-07
-7.71722021001666e-07
1.29075607495922e-06
1.14045745704594e-05
-7.76248320884332e-07
1.32055918810674e-06
1.02642685885933e-05
-6.39479006431582e-07
9.57194699270417e-07
9.15127170661594e-06
1.21913702906172e-05
3.15794263365169e-07
-4.50389149750829e-07
9.31612536379007e-06
4.25541996103068e-07
-3.54194752135894e-07
7.01215393729947e-06
4.05989954273327e-07
-3.7049827490662e-07
6.13698995340922e-06
4.30506347617766e-07
-3.73121102238728e-07
2.86629543180839e-07
-3.72855588580008e-07
5.46758584253544e-06
3.20169764208751e-07
-3.79543189108694e-07
5.29496084084689e-06
2.54212383158425e-07
-4.34872953551615e-07
5.15023728756246e-06
2.57560633833425e-07
-4.45133462316372e-07
5.491337091522e-06
4.41148346467409e-07
-4.32342755422917e-07
8.01500034334398e-06
-5.97592559306565e-07
5.87310023219378e-06
5.06430390862933e-07
-7.01992752355569e-07
7.57549631640318e-06
8.53745704842741e-07
-5.83254112803029e-07
5.51783118238335e-07
6.34950593074129e-06
6.88479572888691e-06
-5.96562248424833e-07
6.9830387212147e-07
8.99496193232387e-06
-6.9168525580633e-07
1.00681488211503e-06
5.93535937673571e-06
5.87349924285823e-07
-5.29442899254485e-07
-8.91326478964767e-07
1.55113508821433e-06
1.28223402601088e-05
-8.9479502007834e-07
1.88884464271206e-06
1.17311150040728e-05
-7.37069383107377e-07
1.61735292427712e-06
1.0341191882017e-05
-5.31786119280079e-07
1.04423989638763e-06
9.07997021610649e-06
1.34109843714924e-05
6.97866964685629e-07
-4.97593776203912e-07
1.05090077076647e-05
4.91675846481079e-07
-4.19676066791081e-07
7.77469773730703e-06
4.43177228126583e-07
-4.74174336850145e-07
6.82968132252227e-06
5.04408564465102e-07
-4.96708863372583e-07
5.99849087537674e-06
4.62754791452739e-07
-4.42060437767569e-07
2.86286653074736e-07
-3.1532241267668e-07
5.32501036529371e-06
3.29897839178665e-07
-4.27492365715151e-07
5.18563619063089e-06
2.64314472577204e-07
-4.59041156720727e-07
5.05481566925619e-06
2.16910914257647e-07
-4.69280330999628e-07
4.9574751831952e-06
2.59215808669872e-07
-4.26278743580105e-07
5.22605966837312e-06
4.76778919266493e-07
-3.34962612510771e-07
7.8731897120261e-06
5.19825720327345e-07
5.69515604366505e-06
-6.12899572932794e-07
-6.09887639179784e-07
5.66315824004441e-06
4.53486920017491e-07
-7.57515738244563e-07
6.71363985233423e-06
7.33117244013441e-07
-7.03861056185315e-07
7.19702184770492e-06
8.97057562362982e-07
-8.2329035840901e-07
8.57194426611912e-06
1.20527166273367e-06
-5.27001521818465e-07
5.75501067011046e-07
6.02843792739238e-06
6.73333715528554e-06
-6.73098429730857e-07
7.60234417432193e-07
7.68951775727684e-06
-7.36711199296625e-07
8.28513848361653e-07
1.01525741995137e-05
-7.70940126591328e-07
1.24290139761851e-06
5.74735522040222e-06
6.0107191495495e-07
-5.49481639826338e-07
-9.55667193428124e-07
1.74503029746307e-06
1.41727767096458e-05
-9.86939518562947e-07
2.53584540441848e-06
1.31623110829311e-05
-8.26594905529222e-07
2.43827740483335e-06
1.17368300273653e-05
-6.06263383345558e-07
1.80275996547701e-06
1.01889540940749e-05
-4.10743028638233e-07
1.09159096457204e-06
8.87590773981433e-06
1.39135897084343e-05
2.04723218667418e-07
-4.40309894100234e-07
1.2042613026727e-05
5.59322517443947e-07
-3.82235156218857e-07
8.50079765322298e-06
4.91941900348888e-07
-5.15938908563515e-07
7.58452568024018e-06
5.518697571855e-07
-5.97551397005933e-07
6.66297864275054e-06
5.47218197516409e-07
-5.39821006214126e-07
5.78545082581961e-06
4.60096315263247e-07
-4.17027071233382e-07
2.7284582672514e-07
-3.38009186156161e-07
5.05906545911213e-06
3.20317501048162e-07
-4.1034409590821e-07
4.98754530948931e-06
2.63722295632631e-07
-4.60459867117773e-07
4.92333283492456e-06
2.13002803425817e-07
-4.73231537542513e-07
4.84576406166848e-06
2.13290981569094e-07
-4.46302013849182e-07
4.76420573132527e-06
2.76609583434336e-07
-3.6118298257864e-07
4.97566962179837e-06
4.8092768900126e-07
-2.30857197871403e-07
7.62311867045468e-06
6.52352703796321e-06
-7.70596342924516e-07
7.42717328860341e-07
4.35586675410687e-07
-6.01281627649825e-07
5.46396799345051e-06
5.09189472729318e-07
5.4791893500361e-06
-5.9020111608175e-07
-5.47910345238313e-07
5.43899889175107e-06
4.58359553233173e-07
-7.51408339831183e-07
6.49396287043116e-06
7.20712295511184e-07
-9.00544378421024e-07
7.52291804332338e-06
9.76979604125165e-07
-6.20510927141798e-07
6.82839638256413e-06
9.58380628777014e-07
-8.05498955219491e-07
8.09943422373792e-06
1.34848169264343e-06
-8.74900982239419e-07
9.59547736864613e-06
1.65034986660754e-06
-4.35378116619336e-07
6.12272129416012e-07
5.71741039275225e-06
6.49838518814939e-06
-6.83183153599217e-07
7.75752595288272e-07
7.51627479344841e-06
-8.00944485815189e-07
8.92718020221951e-07
8.41128049530402e-06
-8.07316083924783e-07
9.54413462595215e-07
1.16537129444226e-05
-6.34619877707874e-07
1.31077301016505e-06
5.49512534010326e-06
5.78754142128416e-07
-5.17592654747509e-07
-1.47321657797264e-06
8.70725395415573e-07
1.62611295910896e-05
-1.07436183389172e-06
3.13742180736355e-06
1.46455807466895e-05
-8.91244932810325e-07
3.48510484595005e-06
1.3006742342302e-05
-6.59369234307496e-07
2.76491419136803e-06
1.14340457194422e-05
-4.62950811821752e-07
1.864060978869e-06
9.87943895446825e-06
-2.95055234549397e-07
1.08562680645905e-06
8.56625500332728e-06
1.3913646263336e-05
3.74105838313173e-07
-3.35618230387015e-07
1.37428084114443e-05
3.93497973691115e-07
-2.8609794328573e-07
9.34271581435398e-06
5.65687388814671e-07
-4.44910332921949e-07
8.22417041132905e-06
5.95472004425145e-07
-6.29843114704575e-07
7.3490376712743e-06
6.01854769713778e-07
-6.28165106049076e-07
6.42091595102777e-06
5.45210555904184e-07
-5.09512521098667e-07
5.50644690400097e-06
4.39559349809635e-07
-3.94790570137054e-07
2.58593962342685e-07
-3.10366801339537e-07
4.81609760444588e-06
3.03236366779431e-07
-3.93057881581604e-07
4.73854241863342e-06
2.50908789857428e-07
-4.37766102863172e-07
4.71394237795849e-06
2.05165159638039e-07
-4.53612553567663e-07
4.69854885212552e-06
2.0007686364154e-07
-4.37910613167464e-07
4.63729601364148e-06
2.257466137109e-07
-3.77930178797738e-07
4.55520585756528e-06
2.89212324689823e-07
-2.70253219059339e-07
4.72585036242021e-06
4.72155878240334e-07
-1.31608055813703e-07
7.2825823933081e-06
-7.35227768972415e-07
6.79211455729754e-07
6.26372110398767e-06
6.24089210449358e-06
-7.26567720739883e-07
7.22656571579661e-07
7.28469030996284e-06
-9.02863182640686e-07
9.76625519973718e-07
4.11129572901789e-07
-5.57775906445874e-07
5.22972087492007e-06
4.16428229222364e-07
-5.2824593133406e-07
5.22795195470205e-06
4.78332605896806e-07
5.21451606329299e-06
-5.37014888621504e-07
-4.50377852641464e-07
5.19302934656742e-06
4.8671360358902e-07
-6.5115401400279e-07
6.23263538949436e-06
7.50329026083978e-07
-8.68110432440522e-07
7.25468151651827e-06
1.05156306183777e-06
-9.69260572550671e-07
8.20269160324749e-06
1.27993707661837e-06
-5.04347305566589e-07
6.46205084387301e-06
1.02001182309433e-06
-6.9535115972438e-07
7.63169026305784e-06
1.4621086400592e-06
-8.54762075125851e-07
8.93972920718473e-06
1.96777507865309e-06
-7.08715688740541e-07
1.09718361341562e-05
1.96661924595276e-06
-3.28235389794414e-07
6.37790089460783e-07
5.40201950980571e-06
6.19674027119477e-06
-6.25621507331732e-07
7.45368591492725e-07
7.21609396782826e-06
-7.95844721573942e-07
9.03601249970817e-07
8.15776327366007e-06
-8.64378204418857e-07
1.01618378529054e-06
9.26236164274367e-06
-7.12017147641132e-07
1.11217803825343e-06
1.34093988332122e-05
7.41608080357616e-08
9.68008830855731e-08
5.21528268592728e-06
5.45837514586477e-07
-4.69030185230893e-07
-2.1617046787386e-06
1.55591877839856e-06
1.53901794969378e-05
-2.03221816369987e-06
3.01990303512576e-06
1.84108856945851e-05
-9.84913212225351e-07
4.93926045804488e-06
1.41763561992836e-05
-6.99774900828258e-07
4.02687139454403e-06
1.24445812552447e-05
-5.12461831906138e-07
2.82835762388454e-06
1.09822255516829e-05
-3.39383162483161e-07
1.82474193192548e-06
9.47971704450558e-06
-1.83599177355632e-07
1.04165429893201e-06
8.1803261069233e-06
1.31914446875623e-05
-1.82771765614321e-07
1.40617676897164e-05
6.30299840862802e-07
5.04960879178757e-08
1.11936831308283e-05
7.27620346150271e-07
-3.03890083763811e-07
8.80717187150475e-06
6.32200339095751e-07
-5.64513356715471e-07
7.9334288017041e-06
6.55705068745378e-07
-6.54394002772147e-07
7.07803619038372e-06
6.08753083688743e-07
-5.74860214120871e-07
6.10761283555279e-06
5.20658701304051e-07
-4.58221526966642e-07
5.23587703507608e-06
4.16067624127355e-07
-3.58001919397296e-07
2.43621118003446e-07
-2.98149203114841e-07
4.58459545735752e-06
2.86224834607753e-07
-3.57731662222446e-07
4.49454618979741e-06
2.33433187563398e-07
-4.01945132482243e-07
4.46928794460111e-06
1.90075149729692e-07
-4.17589287025922e-07
4.48784324427547e-06
1.85312783293773e-07
-4.06829694194117e-07
4.48215573353962e-06
2.03507921661703e-07
-3.6376464174341e-07
4.4196223379907e-06
2.34828346768354e-07
-2.84915035320626e-07
4.33504030280466e-06
2.94126855746648e-07
-1.74086087188318e-07
4.47420203738493e-06
4.50357904009025e-07
-4.7994157856194e-08
6.88021258504433e-06
-6.69775010887618e-07
5.95310319023566e-06
6.33466059795759e-07
-8.4265725155576e-07
9.78432842535044e-07
6.96001739197168e-06
-6.22959783605678e-07
6.68980767386073e-07
5.98297412384492e-06
5.91666043944519e-06
-6.44867274855495e-07
6.76711189494531e-07
6.92857899403558e-06
-8.37435465586489e-07
9.44745339716903e-07
7.86852971979901e-06
-9.73216684751394e-07
1.26981866432851e-06
3.77386452465994e-07
4.96597344096812e-06
-4.9654386344038e-07
3.78239512288054e-07
-4.8020572887091e-07
4.98875408630425e-06
4.27758796099262e-07
-4.2777195978931e-07
4.98109679676229e-06
4.43990613827791e-07
4.94384968403689e-06
-4.76137183252731e-07
-3.40638243152034e-07
4.93222646524075e-06
5.08033258621956e-07
-5.22719027287918e-07
5.94046366710872e-06
7.97256118914731e-07
-7.31378585737445e-07
6.92227723299876e-06
1.11876123965657e-06
-9.29604136493936e-07
7.83187716033813e-06
1.49722996961126e-06
-8.93125052058126e-07
9.03917153735082e-06
1.6875473265828e-06
-3.8055628461376e-07
6.08994475491878e-06
1.05107083137679e-06
-5.58095443844346e-07
7.16952974599385e-06
1.52779737447125e-06
-7.4214768333441e-07
8.2711024059052e-06
2.17310670313998e-06
-8.00022264208156e-07
9.95507109578578e-06
2.79968019046051e-06
4.74590623053998e-07
1.27731929302431e-05
-2.19987166161427e-07
6.44228577003192e-07
5.08830401083822e-06
5.87968813770319e-06
-5.52359769512564e-07
7.00501218829979e-07
6.86576884005613e-06
-7.08806316423513e-07
8.7059784461563e-07
7.78826475675787e-06
-8.47765553087099e-07
1.0321563636977e-06
8.78656790570147e-06
-8.33230303539591e-07
1.15800698249722e-06
1.17253531089979e-05
-4.57437899804559e-07
1.11211961863319e-06
1.81045127822692e-06
2.95015224367831e-06
4.95409771803251e-06
5.13721466643593e-07
-4.14746344202157e-07
-5.82688798513622e-07
1.53300380239716e-05
1.06337088656991e-06
1.8598760469957e-05
-1.54500216198844e-06
8.65981247815629e-06
1.62353675021702e-05
-7.40610628406475e-07
5.8709097109569e-06
1.30729536750429e-05
-5.42962368171295e-07
4.02026845166453e-06
1.17956429640962e-05
-3.81152943662303e-07
2.72124478990047e-06
1.04668930446329e-05
-2.26701606273712e-07
1.7297311581939e-06
9.01832287220959e-06
-8.71789353513257e-08
9.81756099694907e-07
7.73610289611208e-06
1.42168815457216e-05
7.79546833425509e-08
1.47676978123774e-05
7.93995473849813e-07
-3.42060576378988e-07
9.96133486395034e-06
8.122708511247e-07
-4.2985899215661e-07
8.46765886444126e-06
6.91562462684956e-07
-5.91210404931786e-07
7.61772250197072e-06
6.72191214656134e-07
-5.89658122220645e-07
6.71867163645319e-06
5.85035331639146e-07
-5.04580738159163e-07
5.81284539015138e-06
4.93298596555301e-07
-4.06527086102211e-07
4.99036632800587e-06
3.93877785025287e-07
-3.27565463609502e-07
2.32858135322229e-07
-2.77563621403543e-07
4.39686189017302e-06
2.69921977039573e-07
-3.23469034695782e-07
4.28041180766658e-06
2.16773745669376e-07
-3.59152594264471e-07
4.23498034524533e-06
1.73247894219315e-07
-3.72906796625269e-07
4.25135723959539e-06
1.67869686553816e-07
-3.63258507216217e-07
4.2764021899367e-06
1.83607478097721e-07
-3.29576173003401e-07
4.26435914130521e-06
2.0697739626722e-07
-2.70349160592254e-07
4.19807915440684e-06
2.37810089733799e-07
-1.87828260071665e-07
4.11097255418608e-06
2.8874321286485e-07
-8.67045428963099e-08
4.22416977834131e-06
4.19401574172575e-07
1.59202628424254e-08
6.4448731422526e-06
5.62899016648263e-06
-5.84389719698274e-07
5.7967196491174e-07
-5.58186977528817e-07
5.66676106690023e-06
5.99810503235023e-07
-7.56493894157237e-07
6.57022428345984e-06
9.05660410644294e-07
-9.01134908964725e-07
7.43526661214642e-06
1.38323016007774e-06
-6.93116123090564e-07
9.85523776102951e-07
6.60521379614463e-06
-4.9180200538401e-07
6.88774521620343e-07
5.69104029297615e-06
5.61072475520602e-06
-5.59594921465e-07
6.27682220306556e-07
6.54710691081651e-06
-7.28531135786721e-07
8.8647052305949e-07
7.42745896748671e-06
-8.95897190805946e-07
1.22823725495667e-06
8.47810174280131e-06
-9.69518156690702e-07
1.65468363461589e-06
3.40073587605078e-07
-4.19722395799148e-07
4.73328490545026e-06
3.44220286130309e-07
4.7084807954976e-06
-4.32146387187709e-07
3.79150161535846e-07
-3.81891236913436e-07
4.74733083887819e-06
4.38831079507392e-07
-3.19175276996568e-07
4.72778023947373e-06
4.12753151269048e-07
4.69672132437614e-06
-4.14740194582189e-07
-2.31498272533384e-07
5.14693648776458e-07
4.66685306862947e-06
-3.92341257492682e-07
5.6320219287071e-06
8.28258373588253e-07
-5.73514610274748e-07
6.55895815043519e-06
1.17599737691052e-06
-7.78080092731558e-07
7.36659928861822e-06
1.61997528602391e-06
-9.3050423804959e-07
8.4388354294635e-06
2.22804969503296e-06
-6.68219829489436e-07
1.23417442463391e-05
2.21396148872646e-06
-2.59577458897939e-07
5.72025081627834e-06
1.04679609442003e-06
-4.17322912783051e-07
6.71503718656081e-06
1.54173898383146e-06
-5.88076788816119e-07
7.65489580759901e-06
2.1891277099226e-06
-8.05312665669692e-07
8.77093855268594e-06
3.42194737190593e-06
-5.04192592375232e-07
1.15223243488769e-05
-1.2093617868799e-07
6.29542596531626e-07
4.7812631377023e-06
5.59378854746921e-06
-4.77503124809475e-07
6.57922189169767e-07
6.50851080295934e-06
-6.14648824204147e-07
8.1650240334733e-07
7.38463247359246e-06
-7.44908461053269e-07
1.00083063077956e-06
8.29271966919179e-06
-8.21586255545081e-07
1.19545570899892e-06
9.87412636976263e-06
-7.27126052877858e-07
1.51490560088029e-06
1.56818567951399e-05
-2.89686989121657e-07
2.29810892385792e-06
8.28185035356069e-07
1.5756159688034e-05
4.72502391415339e-06
4.85118971882254e-07
-3.64600808221967e-07
-2.19335443605845e-07
1.66127393632814e-05
1.31384285756616e-05
1.450563659931e-05
-6.13823599113061e-07
9.72069101654069e-06
1.29993996082397e-05
-5.74691140195095e-07
5.54928919161443e-06
1.21186122710804e-05
-4.03923511313898e-07
3.77128702255921e-06
1.1149520142286e-05
-2.58051958572742e-07
2.53863041511954e-06
9.91605379815781e-06
-1.20123917040052e-07
1.60757972761069e-06
8.51261505901815e-06
-1.28831916907306e-08
9.07785692704338e-07
7.26060738314629e-06
1.5205739320033e-05
-3.2829698601875e-07
1.39317377535924e-05
9.67123653843612e-07
-3.65251464827026e-07
9.35713712143347e-06
8.08130644970249e-07
-4.4979979198516e-07
8.05738614605492e-06
6.96219312002993e-07
-5.34451592866012e-07
7.22017520836109e-06
6.51807670168616e-07
-5.10819445982815e-07
6.39883800731399e-06
5.59838615334855e-07
-4.38885230279968e-07
5.54640100727964e-06
4.68723733435231e-07
-3.62621915144948e-07
4.78592255469255e-06
3.77875504764366e-07
-2.97368577959344e-07
2.24630892262147e-07
-2.52934926659607e-07
4.24663713731608e-06
2.57334608455296e-07
-2.87870910972727e-07
4.10392908169579e-06
2.02986573276445e-07
-3.14437156788064e-07
4.03270970897883e-06
1.58435929838775e-07
-3.24521297923293e-07
4.02815876892391e-06
1.5062785152461e-07
-3.14434966072213e-07
4.05190572418788e-06
1.64091345768427e-07
-2.85015796036442e-07
4.0677508396684e-06
1.84054719333476e-07
-2.37860209957279e-07
4.04781533732008e-06
2.06980522546961e-07
-1.74653771006484e-07
3.97792434378701e-06
2.34640543862219e-07
-9.90565071368715e-08
3.88868337862572e-06
2.75930774008843e-07
-1.43724625633512e-08
3.97853042207105e-06
3.80577280159567e-07
6.06838144600864e-08
6.00361181348265e-06
5.35402043898059e-06
-4.81205738021154e-07
5.38061990973944e-07
5.34070416861293e-06
-5.00434625595261e-07
5.30287108817572e-07
6.19075789170592e-06
-6.49791687509667e-07
8.29319136548691e-07
-4.33539148990463e-07
6.03068243638387e-07
5.38458024681001e-06
-6.12902498647222e-07
6.21277608692547e-06
8.77045396203746e-07
-8.01624875553289e-07
6.9597166659892e-06
1.27389600923159e-06
-7.28385089904998e-07
6.95763223164953e-06
1.4134690311296e-06
-9.21423804641505e-07
7.84695367843995e-06
2.00530332613295e-06
-5.3242824531951e-07
1.0050493561137e-06
6.24785322465211e-06
-3.62886393199003e-07
7.05849990239619e-07
5.3945659819183e-06
5.34260609451185e-06
-4.79508663842191e-07
5.83849239808383e-07
6.20703999687647e-06
-6.22060183095149e-07
8.22684298170632e-07
6.98973501969444e-06
-7.701788800736e-07
1.15565396618318e-06
7.85100132435911e-06
-9.01641716795433e-07
1.60208114698647e-06
9.48768171958512e-06
-9.31215702380699e-07
2.3041271050852e-06
3.06178432460027e-07
-3.57398458378584e-07
4.49060593266081e-06
3.36626119816521e-07
-3.25806694086902e-07
4.50466507848635e-06
3.15992489619048e-07
4.47675430121527e-06
-3.69734405462421e-07
3.84178007869969e-07
-2.77280665455031e-07
4.5053119527967e-06
4.40762123944651e-07
-2.12382768645435e-07
4.47488372545128e-06
3.8708847792983e-07
4.48352856404954e-06
-3.57346502976959e-07
-2.67265080587361e-07
8.33979980047256e-07
5.32042352047819e-06
-1.31585568885789e-07
5.06749635435896e-07
4.40539292867116e-06
-4.22440744447549e-07
6.18975527602832e-06
1.20257754660638e-06
-5.96085035339635e-07
6.89089918676568e-06
1.6597101528348e-06
-8.33046167105543e-07
7.63860063523822e-06
2.44794954009007e-06
-8.53230319782998e-07
1.00126537845818e-05
4.90618489947677e-06
-7.94222114818221e-07
1.78904784673272e-05
1.6482779327553e-06
-1.47408658135434e-07
5.36406361724209e-06
1.01301695698797e-06
-2.82431215012167e-07
6.27807638258519e-06
1.50813842613229e-06
-4.28435247574374e-07
7.09496546413029e-06
2.1261790755117e-06
-6.33886772648062e-07
7.87586043527615e-06
3.14340738086249e-06
-1.22343085129587e-06
8.94366690089907e-06
6.61022469525348e-06
-3.7993799019284e-08
5.97642583925752e-07
4.48466147429641e-06
5.34477912691999e-06
-4.1228725945839e-07
6.21525353620543e-07
6.19686163634413e-06
-5.22987284252895e-07
7.68239332199307e-07
6.99215355313328e-06
-6.39804110382625e-07
9.3942168541786e-07
7.8185297639952e-06
-7.28941634250074e-07
1.14704816886549e-06
9.10011892849052e-06
-7.32910092254813e-07
1.45825752194806e-06
1.3983985166182e-05
-6.88875399527856e-07
1.86181562275574e-06
1.84816006800874e-05
-1.49563134242385e-07
5.78379307813059e-07
1.56726970719057e-05
4.53465283317802e-06
4.62865020750622e-07
-3.18860590118268e-07
5.88603511751559e-06
-2.73489734308695e-07
1.10001769849232e-05
1.0405018731203e-05
8.07186774284262e-06
6.10811882515694e-07
1.21689617445514e-05
1.14465748818108e-05
-6.09088917623402e-07
7.34059717799986e-06
1.181721010135e-05
-4.26886958774302e-07
4.9647076427965e-06
1.13520868221735e-05
-2.73152109731061e-07
3.44357852044475e-06
1.05177333536254e-05
-1.41390958505354e-07
2.32414712242849e-06
9.34086629659192e-06
-3.17704217196118e-08
1.46948689932287e-06
7.98267915136443e-06
4.05331347490507e-08
8.21319827587834e-07
6.77933844637958e-06
1.60002198360215e-05
-1.52383621926208e-07
1.25632715792128e-05
9.9844028597749e-07
-3.42208109945483e-07
8.76872642926914e-06
7.63281570880216e-07
-4.06305867482548e-07
7.64208847091753e-06
6.779050456589e-07
-4.62111000253619e-07
6.87840982159234e-06
6.32610524359145e-07
-4.39257903760807e-07
6.10756141494049e-06
5.36005981382192e-07
-3.86248399877009e-07
5.3216555682388e-06
4.50428161031503e-07
-3.23785340766349e-07
4.62176343509264e-06
3.65673981955208e-07
-2.65982558882179e-07
2.18438544553877e-07
-2.22975300055134e-07
4.12527107154626e-06
2.47410671012293e-07
-2.50849566984753e-07
3.96220516945305e-06
1.92213370781392e-07
-2.70052970847515e-07
3.86733155358231e-06
1.4666818328036e-07
-2.756594480713e-07
3.83717964985554e-06
1.36192178537677e-07
-2.6419129344222e-07
3.84172270465977e-06
1.46519523862985e-07
-2.36760555254774e-07
3.85713100209165e-06
1.63251799437736e-07
-1.96365822148714e-07
3.8630045166639e-06
1.82588460443382e-07
-1.45665675142269e-07
3.83623839040564e-06
2.03154315233294e-07
-8.73713900448746e-08
3.76308502611415e-06
2.26204673737299e-07
-2.41695011314409e-08
3.67227591644665e-06
2.57681351408713e-07
4.15464122061089e-08
3.73998429689512e-06
3.39504370956745e-07
8.98682152088878e-08
5.57424613239763e-06
5.34092312301187e-07
-3.65883606148882e-07
5.0888992481567e-06
5.08402289120554e-06
-4.05313340746586e-07
4.86968348148586e-07
5.85079324918417e-06
-5.21811230896607e-07
7.86934463280334e-07
5.09267027491673e-06
-4.2332031604708e-07
4.8881387423722e-07
5.87510165666645e-06
-5.49067517446128e-07
7.61501667662166e-07
6.53056102307292e-06
-6.80538675329374e-07
1.1674101813339e-06
-4.62899330780382e-07
5.87329642508697e-06
8.73020030610826e-07
-3.10825347133153e-07
6.11262686383501e-07
5.10543459933931e-06
-6.34849898005755e-07
6.49431582295008e-06
1.24891459734396e-06
-8.20409339733112e-07
7.21108441426047e-06
1.81280231659197e-06
-5.42518779177014e-07
1.40641683991755e-06
6.50270014881743e-06
-7.49920678523748e-07
7.11855079540118e-06
2.058749941811e-06
-9.49042129747555e-07
8.22686467459208e-06
3.36193177237687e-06
-3.83483323475807e-07
1.01515838328141e-06
5.89958868176886e-06
-2.40397481704605e-07
7.07570889791087e-07
5.10088885829643e-06
5.11268007716926e-06
-4.08318087158445e-07
5.47996631355407e-07
5.91806214057242e-06
-5.26186929908938e-07
7.66777170794173e-07
6.62165434338011e-06
-6.50450707884353e-07
1.07345741409044e-06
7.34833200280911e-06
-7.75979135308986e-07
1.5001924106485e-06
8.57866040251038e-06
-8.92775129264871e-07
2.08510385001789e-06
1.55916611088449e-05
-1.14244416705382e-06
1.04467113008915e-06
2.78399055517279e-07
4.27412653354036e-06
-2.96977879645888e-07
3.01166301234407e-07
-2.6763800793695e-07
4.27779065390896e-06
3.38972142128075e-07
-2.26481100713579e-07
4.2781452712575e-06
2.93563736078889e-07
4.27783756668103e-06
-3.1093922211661e-07
3.83460588769723e-07
-1.75208288625306e-07
4.26726520302702e-06
4.32696199349264e-07
-1.14836560138554e-07
4.22859317035935e-06
3.66995431720116e-07
4.3064216279213e-06
-3.03897953526853e-07
-2.81852305689276e-07
1.19429830947416e-06
5.82885549684414e-06
-1.53009879457893e-07
8.16235964622824e-07
5.01653677670686e-06
-4.61789492828149e-08
4.86524565320598e-07
4.15325861168614e-06
-4.22442664683603e-07
6.44801956987872e-06
1.63946320442054e-06
-6.2261033293931e-07
6.95636908933178e-06
2.3306643707713e-06
-9.30107284238127e-07
7.66979201496942e-06
4.49749263276963e-06
-1.17105251644994e-06
1.08126517925338e-05
1.2221428968735e-05
-1.15368594887866e-07
2.08236161359777e-05
-5.13402899814248e-08
5.02521520085916e-06
9.56060493420962e-07
-1.57932626608449e-07
5.8681732054006e-06
1.43945580685504e-06
-2.79248060444296e-07
6.58808050569637e-06
2.02111379396399e-06
-4.31617291965307e-07
7.19691115565775e-06
2.8098635126194e-06
-7.36190985063569e-07
7.8189104272899e-06
4.3952654122667e-06
-2.47839247719019e-06
8.07789522846099e-06
7.59334377823142e-06
2.69697869608253e-08
5.5450469587316e-07
4.20139755517216e-06
5.13587432045203e-06
-3.56214709396194e-07
5.92572913124418e-07
5.92588446662395e-06
-4.45817886074229e-07
7.26033059789031e-07
6.6580078571707e-06
-5.37992018333827e-07
8.86829267836455e-07
7.39948842647305e-06
-6.24237648819497e-07
1.07731930383107e-06
8.49697785961892e-06
-6.59408967837226e-07
1.34530162939394e-06
1.21795230104339e-05
-6.46488511127298e-07
1.79962145823608e-06
1.80760488012464e-05
-3.63574087748028e-07
1.84879657550898e-07
1.20744467180518e-05
4.37968090915584e-06
4.45361438157611e-07
-2.74728015673092e-07
3.70768944778849e-06
2.17039324082576e-08
7.27078024280232e-06
8.757792166756e-06
4.77021146899944e-06
5.84698176113857e-07
5.37818011593925e-07
1.08303343020563e-05
8.87272163255351e-06
-6.01675953028315e-07
8.59981701506569e-06
1.07890366400889e-05
-4.59604991552171e-07
6.18467171123953e-06
1.10568584486577e-05
-2.82606893535228e-07
4.40315726951513e-06
1.06750990929512e-05
-1.50297305469277e-07
3.10046419505662e-06
9.89170154117028e-06
-4.4189149361068e-08
2.09883657621567e-06
8.75571157374997e-06
3.25097854643415e-08
1.31951338346059e-06
7.45199052672201e-06
7.70376809854382e-08
7.30865418369192e-07
6.31093332530589e-06
1.57876225103218e-05
-2.77999423062017e-07
1.13787789882994e-05
9.43120193095318e-07
-2.58188997063191e-07
8.23986030895421e-06
7.24005900084078e-07
-3.52141418914026e-07
7.27240245033751e-06
6.62885243250614e-07
-3.96583896512479e-07
6.56205273857968e-06
6.10882408475137e-07
-3.84248417273024e-07
5.85862291416056e-06
5.16672634564369e-07
-3.42357026522084e-07
5.14068955370395e-06
4.36987891110302e-07
-2.86299600747357e-07
4.48769212940676e-06
3.56368816809594e-07
-2.3259909965442e-07
2.13965579316308e-07
-1.89999024609024e-07
4.02620219179404e-06
2.39746854210516e-07
-2.1281311181366e-07
3.84748801512073e-06
1.8389836247436e-07
-2.26183927977363e-07
3.73443750303148e-06
1.3768392324347e-07
-2.27809387025061e-07
3.68179711518089e-06
1.24909831805997e-07
-2.1471031465551e-07
3.6627888207548e-06
1.31686390468633e-07
-1.88234828976112e-07
3.66151076012328e-06
1.45229944658553e-07
-1.51975851461411e-07
3.66751125890011e-06
1.61440021262259e-07
-1.09080732974677e-07
3.66497929673132e-06
1.78364163440288e-07
-6.1946975709934e-08
3.63245012811068e-06
1.95276263980401e-07
-1.31479349976271e-08
3.55678774951127e-06
2.13555683785274e-07
3.57254299964933e-08
3.46454168985352e-06
2.36441915878008e-07
8.21808576038302e-08
3.51123115155787e-06
2.98661257395757e-07
1.06987148174681e-07
5.16860088057042e-06
-3.85920472592297e-07
5.53541727509672e-06
7.72489975621241e-07
4.80023532590969e-07
-2.97986512264173e-07
4.83726822587173e-06
5.37940180090501e-07
-2.50733110416518e-07
4.82983826652064e-06
4.85417250079111e-06
4.45656605185774e-07
-3.340729540773e-07
5.55922016615601e-06
-4.34746852861972e-07
7.15786208669585e-07
6.09582728153054e-06
-5.33063019079283e-07
1.11988383067151e-06
4.88062890591898e-06
-3.53205798870497e-07
4.55501847369968e-07
5.61230922360899e-06
-4.59524838397205e-07
7.0502508563726e-07
6.19510054986656e-06
-5.68133746659624e-07
1.07565417680899e-06
6.73001036791833e-06
-6.90548851795453e-07
1.65587444109584e-06
-3.22550549801884e-07
5.55105103353541e-06
8.72574845294066e-07
-4.62504929566344e-07
6.07536706974443e-06
1.21195677754924e-06
-1.9431405024358e-07
6.10074162057671e-07
4.83273687509458e-06
-6.40238058513371e-07
6.57257922739472e-06
1.77773956573352e-06
-8.56477310790804e-07
7.4180236425432e-06
2.88087714418146e-06
-5.38639851958917e-07
6.50272895474801e-06
1.93827000289411e-06
-3.73246399514865e-07
1.372797144936e-06
6.09586433880318e-06
-7.84628896243828e-07
7.07228540598395e-06
3.06785233222138e-06
-1.21913665526502e-06
8.5050753800572e-06
1.0496606064116e-05
-2.46162183388408e-07
1.00601859274081e-06
5.56545235594717e-06
-1.28974568431629e-07
6.92601004132101e-07
4.81694821620003e-06
4.91962419588692e-06
-3.44635111547434e-07
5.19562907790149e-07
5.6711585574699e-06
-4.43586658774138e-07
7.20121825173379e-07
6.31569980376285e-06
-5.44190051656613e-07
1.00282658332325e-06
6.95159019518163e-06
-6.50920597885007e-07
1.39629835957436e-06
7.96496784156373e-06
-7.69821038260496e-07
1.90925147877281e-06
1.32544284464194e-05
-1.03232992182636e-06
9.00090962120061e-07
-3.38518515349927e-07
1.93438688487442e-05