/*--------------------------------*- C++ -*----------------------------------*\
  =========                 |
  \\      /  F ield         | OpenFOAM: The Open Source CFD Toolbox
   \\    /   O peration     | Website:  https://openfoam.org
    \\  /    A nd           | Version:  12
     \\/     M anipulation  |
\*---------------------------------------------------------------------------*/
/*   Windows 32 and 64 bit porting by blueCAPE: http://www.bluecape.com.pt   *\
|  Based on Windows porting (2.0.x v4) by Symscape: http://www.symscape.com   |
\*---------------------------------------------------------------------------*/
FoamFile
{
    format      ascii;
    class       volVectorField;
    location    "300";
    object      U;
}
// * * * * * * * * * * * * * * * * * * * * * * * * * * * * * * * * * * * * * //

dimensions      [0 1 -1 0 0 0 0];

internalField   nonuniform List<vector> 
10176
(
(-1.39455411516604e-06 0.0027852458231556 -3.32683816678351e-06)
(1.3812083809299e-05 0.00273428041417973 -7.05786414072793e-06)
(-8.44272927080854e-06 0.00282935995536527 5.41210665842608e-05)
(2.33521362628515e-05 0.00311539349756215 -9.78957039645117e-05)
(8.07225408295927e-05 0.00315881121461007 -0.000115069496371488)
(1.98084840031098e-05 0.00274999436175386 -1.42454414970882e-05)
(-1.75986944275587e-05 0.00279981315527418 5.6898831280679e-05)
(-5.5622277964405e-06 0.00278117777303756 1.60187209099745e-05)
(1.43157071330677e-05 0.00303314801231334 -7.3108723978125e-05)
(4.38540422822452e-05 0.00308035266350632 -0.0001437461741263)
(3.79750615565464e-05 0.00307093864445827 -9.35412048357444e-05)
(0.000108614711316972 0.00320543311645392 -0.000125006341104832)
(0.000142852515691751 0.00306887297143261 -0.000165089754757653)
(3.56049827676146e-05 0.00280839500814013 -2.14672540038484e-05)
(-7.96727604454204e-06 0.0027683235504736 5.78612373794452e-05)
(-1.20690467040303e-05 0.00278746913855155 3.77925074251025e-05)
(5.22269966285988e-07 0.00276747402882979 -8.21426565852718e-05)
(1.15083611616755e-05 0.00286553558937871 -0.000108599461635362)
(3.02989114832077e-05 0.00302504828863224 -0.000173601354975876)
(5.65418817935939e-05 0.00300655535460195 -0.00013260124679268)
(9.01964406677965e-05 0.00305444604075612 -0.000191503415315413)
(5.96996414068709e-05 0.00305161631663945 -9.12535705283445e-05)
(3.30955270377509e-05 0.00288673122227499 -0.000112025520025826)
(0.000163707298251195 0.00332661953778777 -0.000142897849311446)
(0.000202444613283853 0.0030920236507153 -0.000169612332406037)
(0.000191539217936824 0.00295350463006574 -0.000150837037050793)
(5.44374360623825e-05 0.0029218554099684 -3.77862357519507e-05)
(3.54329257599981e-06 0.00279376340010894 4.64006412852084e-05)
(-8.55026341425671e-06 0.0027542982290887 5.54537272136469e-05)
(3.29564809875608e-06 0.00277304093588444 -6.71822529193299e-05)
(4.82627110403905e-06 0.00274763800830892 -0.000149200806157298)
(1.36265707689822e-05 0.00283139397699346 -0.00019221830595563)
(2.56292514683889e-05 0.00287927861129781 -0.00021311797877621)
(3.89577574381415e-05 0.00291445783156902 -0.000203812988529521)
(6.72097203878628e-05 0.00301332018389085 -0.000103921201922645)
(7.33992842424488e-05 0.00289779108209077 -0.0002223282466017)
(0.000137600973560454 0.00302889036842896 -0.000185444576855446)
(0.000125108933094824 0.00292839314305766 -0.000218715992818444)
(5.4339155974922e-05 0.0028639281395015 -0.000101706124923994)
(0.000100270095719988 0.00309755416871088 -9.8210192184111e-05)
(3.81595875130773e-05 0.00284202007391218 -0.000189531550710726)
(0.000234863611225935 0.00349237028350007 -0.000170547519207276)
(0.000300626656925923 0.00320661773686261 -0.000184563360726363)
(0.000288242612882991 0.00293954764613778 -0.000151861782260947)
(0.000219669311881027 0.00293240968458817 -0.000114689464084722)
(7.28521341562906e-05 0.00307024834816257 -4.14911467066234e-05)
(2.04019317092749e-05 0.00285269292239855 2.22583078404505e-05)
(-1.19538764897264e-06 0.00274215234921975 6.16989372722737e-05)
(1.32909175263694e-05 0.00275894831950748 -5.16768003115921e-05)
(1.39750448190543e-05 0.0027504640034581 -0.000138103991310394)
(5.73187235814433e-06 0.0026945121755075 -0.000194665709384821)
(1.42663227757104e-05 0.00277027517092395 -0.000228868833701659)
(2.22997853627076e-05 0.00282684652915985 -0.000256126679377368)
(3.13326118507187e-05 0.0028279647464487 -0.000241020938585631)
(4.4755703021305e-05 0.00282714453870735 -0.000197324209612157)
(7.4219663027713e-05 0.00300824193862439 -7.22857703277399e-05)
(6.87090713538157e-05 0.00283683661408303 -0.000261607130782203)
(9.91121366697715e-05 0.00283547812018954 -0.000251409218210652)
(0.000120674790338967 0.00287937543008114 -0.000218744751563155)
(0.000198509911395292 0.00289583622397567 -0.000212104856220419)
(0.000208705327199544 0.00305604665179942 -0.000186157186748041)
(0.000146807236286821 0.00282629866946761 -0.000208431328464921)
(6.82097646205027e-05 0.0028304989957834 -0.000181012873520967)
(8.75753848263985e-05 0.00286151929166767 -9.93978178746531e-05)
(0.000164915148644925 0.00320057183582102 -0.00011390418357155)
(4.31916355939647e-05 0.00277591181650541 -0.00022527432527407)
(0.000317829307145852 0.00372513220406588 -0.000179999783024437)
(0.000423282646111649 0.00336653072195777 -0.000208767757881935)
(0.00042343906022928 0.0030064829258722 -0.000158880524229802)
(0.000348623306419929 0.00289539849668649 -0.00011694910044272)
(0.000239932019556815 0.00291391275267373 -7.93084388408868e-05)
(0.000109687964130185 0.00330294547781521 -6.07250402243204e-05)
(4.53650830983496e-05 0.00298545922039079 -3.79816333513034e-06)
(6.45495085145065e-06 0.0027446742548962 6.02286680182478e-05)
(2.46809938056491e-05 0.00275776274532974 -4.02244706632144e-05)
(2.80487062614828e-05 0.00274156642035289 -0.000125557103968383)
(1.79213406389754e-05 0.00269843380193363 -0.000186345168821791)
(6.65296758394812e-06 0.00261853017056066 -0.000219207381843735)
(1.34916286144006e-05 0.00268816653599992 -0.000247742175946983)
(2.0832373182632e-05 0.00274619497490715 -0.000267426510299873)
(2.7377576869582e-05 0.00276882517411907 -0.000266832131660413)
(3.60547095086848e-05 0.00275804745268958 -0.000230991178922112)
(5.05864733543898e-05 0.00273712316776949 -0.000164604498312839)
(7.99578571372926e-05 0.00295587678843719 -3.46943321677942e-05)
(0.000119169169101682 0.00282632880543377 -0.0002582920250714)
(8.87690437787046e-05 0.00277091931683491 -0.000273945330514062)
(6.62025573116257e-05 0.00275134612174009 -0.000268967249243419)
(0.000117937807753819 0.0027541971735194 -0.000239903160959352)
(0.000167969757384395 0.00281353407410993 -0.000250908452888064)
(0.000184308437027362 0.00287393072236648 -0.000217729531557548)
(0.000242677604758398 0.00278905063739083 -0.000205216061542792)
(0.000290716151686305 0.0028966467991005 -0.000210779405764957)
(0.000306340540036298 0.00313268229211502 -0.000188699857831781)
(0.000164219349950958 0.00272225380298663 -0.000173902253750905)
(7.62759453479607e-05 0.00276972373970841 -0.00021755334748231)
(0.000107443398474403 0.0028304042672821 -0.000173855315864812)
(0.000133080830494207 0.00287666128659995 -0.000101194729841223)
(0.00026415190108024 0.00341497520022975 -0.00012650557226002)
(4.22323112928616e-05 0.00269107865784857 -0.000243398124468768)
(0.000322713564992227 0.00408721221508982 -0.000206273915980734)
(0.000568819025772923 0.0035961122941536 -0.000223927844009999)
(0.000594025124087136 0.00309502351843285 -0.000169061763234947)
(0.000503205754661011 0.00291285244509156 -0.000124826876826895)
(0.000388375869758832 0.00286112154627744 -8.29905237220791e-05)
(0.00024605665996945 0.00285256551614521 -4.16551700666964e-05)
(0.000141723877648121 0.00356368147883453 -8.5936802127944e-05)
(5.27173986063568e-05 0.00322192184590892 -3.70885301138833e-05)
(1.8083828281576e-05 0.002774755535762 5.067014572049e-05)
(3.00859985792499e-05 0.00275897692314852 -2.8643699856082e-05)
(4.17263544469349e-05 0.00273692479371956 -0.000113526351094127)
(3.4100119257869e-05 0.00269342652022203 -0.000176390059571934)
(2.08521923393061e-05 0.00262171623556456 -0.000212745614923919)
(7.07915893685747e-06 0.00253969782518581 -0.00022356978012433)
(1.34764612102427e-05 0.00259415522121303 -0.000251995238357652)
(1.93977089257998e-05 0.00264677474117199 -0.000266466435569907)
(2.5498251448655e-05 0.00267980070272133 -0.000265826862131072)
(3.21880233662671e-05 0.00268632222788826 -0.000245091460685297)
(4.12321568075988e-05 0.00266309427201369 -0.000194980729505364)
(5.52779037577175e-05 0.00263440801737467 -0.000119133592752889)
(8.10585024411266e-05 0.00285404045705652 1.85541475558402e-06)
(0.0001547113324271 0.00275604871187214 -0.000272387024702066)
(0.000116043465467566 0.00274375113652251 -0.000265407434063801)
(0.000182326293122058 0.00282032544705661 -0.000255617086957997)
(8.21772762206726e-05 0.00267932236310955 -0.000268916389973611)
(0.000103595166256695 0.00268011765029568 -0.000250503794611091)
(6.19879235613495e-05 0.00264978107639975 -0.00026556995195375)
(0.000132116558744932 0.00265036257280115 -0.000200827668870883)
(0.000202353325685056 0.00272814437102727 -0.000238791347508286)
(0.000249824234962366 0.00279662000619397 -0.000249702337563833)
(0.000263399505245228 0.00288365782413728 -0.000217434496707802)
(0.000276601559823641 0.00268183075384204 -0.000170930506769246)
(0.000352019650887244 0.00277224792944248 -0.000203551831041295)
(0.000408075933126298 0.00292582042516887 -0.000210430144403275)
(0.000446061176369774 0.00329596046620542 -0.000176860517193172)
(0.000176063900073124 0.00260749487854554 -0.000125389784298671)
(7.50277667249644e-05 0.00268684009888269 -0.000236715518356781)
(0.000115796045916319 0.00276918383238689 -0.000210450537261605)
(0.000153311301929152 0.00283685923409133 -0.00016745302808333)
(0.000205909157268601 0.00292739120460589 -9.45274293891805e-05)
(0.000239582061321154 0.00394585486481619 -0.000108349615204518)
(4.18326395973777e-05 0.00259653603199155 -0.000247335524588717)
(0.000610196196402844 0.00444245825751228 -0.000337816267008641)
(0.000704776347414345 0.00393731546284461 -0.000296161302900416)
(0.000815825350139029 0.00322762458356962 -0.00017685995592934)
(0.000686872132332955 0.00293218478587162 -0.000126900847366104)
(0.000558706424152481 0.00285046798405074 -9.19693590185854e-05)
(0.000407296581277832 0.00279271441856262 -4.16587665713524e-05)
(0.000248607043618531 0.00274748212204488 -1.36652281216503e-06)
(0.000102498516288568 0.00380062041470855 -4.29397520056651e-06)
(0.000220222620502004 0.00337536827678962 -4.06389645273872e-05)
(8.04750358408539e-05 0.0029825131268525 3.66641382957814e-05)
(3.03257694108175e-05 0.00276210027643848 -1.28647816344181e-05)
(4.95927260764599e-05 0.00273698170073744 -9.81675764770719e-05)
(5.03365348001715e-05 0.00269195625688738 -0.000164507928955563)
(3.81540333288572e-05 0.00261877510623285 -0.000204132090114544)
(2.21749863716194e-05 0.00254203963326888 -0.000218671204416546)
(7.01406966082015e-06 0.0024603422387588 -0.00021659587441274)
(1.33309368717745e-05 0.0025013484953109 -0.000242279856322102)
(1.82047166045304e-05 0.00254496660039226 -0.000254683976092265)
(2.33469761057148e-05 0.00257594762572364 -0.000253470982924302)
(2.90764335539773e-05 0.00258890660223084 -0.000237173389674633)
(3.59031702407458e-05 0.00258075154507065 -0.000202050213573451)
(4.46801966479275e-05 0.00255065982214187 -0.000144760980702148)
(5.80746586279335e-05 0.00251803900122051 -7.01930701875039e-05)
(7.88552314611546e-05 0.00271522785879693 3.23332862687181e-05)
(0.000144321090954147 0.00266666117582707 -0.000266503200199672)
(0.000233085758928692 0.0027393678710077 -0.000270362060226371)
(0.00018094553215065 0.00265961170057801 -0.000248951915666706)
(0.000109407036150762 0.00264399490263257 -0.000261335229244666)
(0.000177268153379204 0.00273816573101612 -0.000261547796884676)
(0.000260042350948029 0.00281890518488847 -0.000254422736215206)
(7.56922435695211e-05 0.00257477574035711 -0.000253779360299668)
(9.36179548266742e-05 0.00258234619242489 -0.000239448126643923)
(0.000114263266335667 0.0025684404327375 -0.000205751847719451)
(5.82011596392422e-05 0.00254704746767791 -0.000252664372584282)
(0.000141321823423692 0.00253167188869252 -0.00014890006408614)
(0.000228329155826122 0.00262056083511714 -0.000198640214642357)
(0.000298730543624666 0.00270235994568254 -0.000236160600013478)
(0.000346942214110576 0.00278500184922651 -0.000248224599007796)
(0.000368355640333736 0.00291927550641652 -0.000204377819559428)
(0.000299032048521864 0.0025642896660441 -0.000121769268122115)
(0.0004009438819957 0.0026542509739274 -0.000167600586890219)
(0.000483866632798685 0.00276846533357192 -0.00019969312516467)
(0.000560474893352359 0.00300590950431104 -0.000197534009584281)
(0.000586961396232548 0.00366562571658412 -0.000133176203840214)
(0.000182525363224761 0.00248156640135844 -7.46799337951919e-05)
(7.38568817542912e-05 0.00259343961907037 -0.000240582454149518)
(0.00011523295458624 0.00268790836954082 -0.000229445334342659)
(0.00016307445784932 0.00277546472021039 -0.000201883872750426)
(0.000217356083528375 0.00285090336223199 -0.000152946183095216)
(0.000302688194678836 0.00323469643056892 -4.81021012366799e-05)
(0.000671118131552525 0.00444229368486491 -3.02252607944756e-05)
(4.08612776185132e-05 0.00250383169319271 -0.000238411343075992)
(0.000531252399407079 0.00443514173604172 -6.49383824695145e-05)
(0.000862071888972767 0.00425857517087488 -0.000256314531957294)
(0.00107025121909096 0.00349204591247909 -0.000278554620800974)
(0.000905713664350698 0.00295060091587202 -0.000111495718247364)
(0.000751201189719403 0.00283491579456705 -8.82488073997587e-05)
(0.000584636444324438 0.00276570121530189 -4.72870812726039e-05)
(0.000415433500524298 0.00268641911699833 -4.23346595341561e-06)
(0.000243114417445526 0.00260610327423114 3.52291434144183e-05)
(0.000146562758471305 0.00390845214994326 6.13735513447822e-06)
(0.000226940312040022 0.00342577596867684 4.55503903422488e-05)
(3.97370799485647e-05 0.00286276168390798 3.77754060209461e-07)
(5.09099691735174e-05 0.00274949476462125 -7.44662188023775e-05)
(6.18268276036366e-05 0.00269345384518273 -0.000147835428614736)
(5.50869338169121e-05 0.00261828313550841 -0.000192628496219235)
(3.98073759233976e-05 0.00253994295895235 -0.000211386680259711)
(2.24352252831079e-05 0.00246233508114541 -0.000212506644073472)
(7.1508056853166e-06 0.00238776124342129 -0.000203167914002871)
(1.27527658180367e-05 0.00241626120188403 -0.000225125261718213)
(1.70023536448785e-05 0.00244829869980655 -0.00023540283645022)
(2.13776994021322e-05 0.00247149595696007 -0.000233021594675634)
(2.63632552842157e-05 0.00248351687675455 -0.000218746033059768)
(3.1918815180972e-05 0.0024808518868978 -0.000190976754966305)
(3.83066529177785e-05 0.00246232419713651 -0.00014876802055807)
(4.64433053785471e-05 0.00242842082583339 -9.16629052677329e-05)
(5.81389515487351e-05 0.0023939061528482 -2.48509900532997e-05)
(7.27077928424394e-05 0.0025544889896454 5.3234577040728e-05)
(0.000133474310764233 0.00256380387765693 -0.000250399142764257)
(0.000164594144424776 0.00256465104922314 -0.000236632740690402)
(0.000218614804067837 0.00265126112974955 -0.000262792432490002)
(0.000325455880940289 0.00272047173400523 -0.000268314818135895)
(0.000270576965469427 0.00263465069377576 -0.000245394072276792)
(0.000199880426596265 0.00254381561266033 -0.00020335188872669)
(0.000103056627940687 0.00254215640627119 -0.000247988074562214)
(0.000168213700286654 0.00263963331432083 -0.000256249198087063)
(0.000252818857460753 0.00273519261926178 -0.000257334668588144)
(0.00036073126643894 0.00282297644217464 -0.000246663227246485)
(8.52178578840983e-05 0.00247777031562527 -0.000219092922640432)
(6.96804980773532e-05 0.00247041511346893 -0.000231980481180442)
(0.000101683740133928 0.00246986439559046 -0.000192666325776449)
(0.000120706022567277 0.00244630291173737 -0.000151560878676778)
(5.45468590318799e-05 0.00244992248000528 -0.000233075156425595)
(0.000145579972798162 0.00240540062707812 -9.49200428476685e-05)
(0.000244746057145593 0.00249886968494276 -0.000145923496234516)
(0.0003362095953736 0.00258773868826661 -0.00019411995424613)
(0.000408697967024938 0.00267591300539895 -0.000232238308539643)
(0.000465806746515635 0.00278137228428957 -0.000241209766127722)
(0.000494621848554567 0.00312136671145631 -0.000140303424932044)
(0.000310130643734701 0.00243616661457036 -7.18655346944338e-05)
(0.000432953093744719 0.00252725278328604 -0.000116795618119893)
(0.000542019928343772 0.00262988349980034 -0.000160567338704415)
(0.000644283475984752 0.00277967978864069 -0.000187100230262772)
(0.000786867436643089 0.00320036995486196 -0.000168498450912501)
(0.000181877624405902 0.00234929213805255 -2.75241020953804e-05)
(7.14084339007263e-05 0.00250157214503597 -0.000232436062566301)
(0.000112046648844643 0.00259461909422528 -0.000232186302539537)
(0.000164477963249022 0.00269473814837027 -0.000219352962251412)
(0.000227518179877846 0.00279198701104016 -0.000183543764607736)
(0.000276619084406851 0.00297615225309874 -0.000125810038030652)
(0.000720005557714732 0.0042548749349548 0.00013880471487021)
(0.000744819197730949 0.00477536687581002 4.63061579289834e-05)
(3.94493127341181e-05 0.0024179474102186 -0.000221760598733676)
(0.00178399943195749 0.0047692110697397 -3.93330554450277e-06)
(0.00166141554156715 0.00365975206068816 1.311582709887e-05)
(0.00117009985490979 0.0029931304657351 -0.000113874182031576)
(0.000957362635950672 0.00279945958096448 -6.82647542922526e-05)
(0.000782070408156568 0.00272910302993077 -4.14472390308107e-05)
(0.000594099284354482 0.00265125968717764 -3.19803768316663e-06)
(0.000411475162154674 0.00254391102486539 3.21053244486603e-05)
(0.000226892352657408 0.00244352620472087 5.88729620438663e-05)
(0.00012828539567188 0.00394947261126772 7.15292919231686e-06)
(0.000210374122168709 0.00323649411636617 -3.70227372168641e-05)
(3.69970982653424e-05 0.00283112941323771 -4.16164098201231e-05)
(6.519761044882e-05 0.00270228231708059 -0.000121045041810887)
(6.73662977960792e-05 0.00262189794454559 -0.000175551162224687)
(5.75084354488377e-05 0.002541539450133 -0.00020055253073685)
(4.05548176486446e-05 0.00246091284957723 -0.000205991813046141)
(2.29407325684824e-05 0.00238908650507357 -0.000199417835505238)
(7.18680766823677e-06 0.00232462643018478 -0.000184944671329677)
(1.24056829462369e-05 0.00233973046501169 -0.000204573248345483)
(1.60415383247228e-05 0.00236045938101977 -0.000211687701221574)
(1.97404411448603e-05 0.00237476196702394 -0.000208068031282735)
(2.400950163937e-05 0.00238104608502292 -0.000194464569295995)
(2.86722861650372e-05 0.00237769265785051 -0.000171003682207399)
(3.37099547523317e-05 0.00236349714906241 -0.000137336151367229)
(3.942018097068e-05 0.00233843144706638 -9.41512842545862e-05)
(4.64556727915359e-05 0.00230286112465241 -4.24101018057368e-05)
(5.58490178742391e-05 0.00226746531915329 1.25862821991891e-05)
(6.51486580637747e-05 0.00238260872460348 6.63088231308915e-05)
(0.000150207859762867 0.00246228193266637 -0.000215550423480299)
(0.000123382762730551 0.00246119684062184 -0.000228064013679688)
(0.000203028922067233 0.002550227509319 -0.000245431530667097)
(0.000178713934014155 0.00244836583836542 -0.000189399450581395)
(0.000247549170124781 0.00254112869113086 -0.000231625518232546)
(0.000306067276875275 0.0026319235349937 -0.000258115823051941)
(0.000372581898771859 0.00260336812160385 -0.000239918468385147)
(0.000437202970845538 0.00269541765851189 -0.000263192398928359)
(0.000297511582064909 0.00251207259879548 -0.000198094712315096)
(0.000211099958838288 0.00241907509830481 -0.000148514259664678)
(9.66102369543631e-05 0.0024458152530251 -0.000228455724046159)
(0.00015816262493954 0.00253851201432581 -0.000241768759190351)
(0.000241552770582167 0.00263689071261545 -0.000249673939312145)
(0.0003508326776986 0.0027339875718289 -0.000248158874460078)
(0.000450075674507151 0.00289329222215289 -0.000228633028429701)
(7.78683630975927e-05 0.00237636384496572 -0.000193854573876812)
(9.16148475235955e-05 0.00236859058887549 -0.000171489881753709)
(6.44462027018644e-05 0.00237385285335299 -0.000206547753661472)
(0.000106264416164859 0.00235008948348489 -0.000138872622237098)
(0.00012322315619973 0.00232057303480427 -9.65287250358449e-05)
(5.14772134070517e-05 0.00236166258543004 -0.000209457790748844)
(0.000251766207775953 0.00237097733112981 -9.18521227675627e-05)
(0.000144901145812299 0.00227723532750968 -4.49263028090405e-05)
(0.000359384182993952 0.00245994158025265 -0.00014007941194975)
(0.000456784935712267 0.00254930448956529 -0.000186556566322078)
(0.000533590236362183 0.0026444967768737 -0.00022648399016071)
(0.000609506814224132 0.00283950642441276 -0.000202947474421836)
(0.000888297608058305 0.00410340954369314 -9.39249309817882e-05)
(0.000309300870367008 0.00230199445035145 -2.50440190344324e-05)
(0.000447205525242424 0.00239236799067013 -6.69391256865469e-05)
(0.000580632124909194 0.00248636370161675 -0.000108366639777675)
(0.000701697743360616 0.00259761660970127 -0.000148106586992081)
(0.000891756617930483 0.00283292586731716 -0.000172388861437811)
(0.00017441919522622 0.00221690924795114 1.15854490579753e-05)
(6.90359182831535e-05 0.00241601049023613 -0.000216215222535784)
(0.000108053587148392 0.00250343037795178 -0.000224280630677546)
(0.000158511853716917 0.00260165667859786 -0.000221250360932203)
(0.000228211788388827 0.00270938960199757 -0.000202239541014751)
(0.000279778781834329 0.00287653515432173 -0.000151521268031607)
(0.000624854821640915 0.0037087939624087 -0.000117996909452885)
(0.000610919365506913 0.00479662913699855 0.000100529603686343)
(0.00183646162753025 0.00524475267674654 8.55598758360006e-06)
(3.83665703264713e-05 0.00234105082113942 -0.000201732797531321)
(0.00223875617875627 0.00297672664402446 0.000188065103466902)
(0.00242654237912005 0.0016374252077134 0.000369696332074669)
(0.00163812417336293 0.00297266086686347 0.000126695888394288)
(0.00118186116048082 0.00272438150754947 -4.72710455265078e-05)
(0.00099529738475195 0.00266164648291559 -2.50580911287565e-05)
(0.000788091807894622 0.00260260731111082 1.63978310442348e-06)
(0.000585775378699882 0.002502734009769 3.21158069061083e-05)
(0.000388468919543595 0.00238173546959152 6.22262701753797e-05)
(0.000204317481412954 0.0022706920673739 7.22769397965758e-05)
(0.000137288212881788 0.00380213122495597 -1.99038416106446e-05)
(0.000191176578773774 0.0031147719906087 -3.20478726976339e-05)
(4.38602312732623e-05 0.00277176326169978 -7.98267552537221e-05)
(7.33195377321113e-05 0.00263765719391678 -0.000147937214408309)
(7.17853029921485e-05 0.00254793729246262 -0.000183971214208429)
(5.907647556108e-05 0.00246365637722535 -0.000195985285591425)
(4.12650866425329e-05 0.0023875071963089 -0.000193469855430659)
(2.31321944609506e-05 0.00232522170941242 -0.000181566540523874)
(7.2625930815898e-06 0.00226865894843781 -0.000163755731488384)
(1.20827737065962e-05 0.00227309467555336 -0.000181134271680761)
(1.52985887823462e-05 0.00228304366207704 -0.000186066882060338)
(1.84181244611845e-05 0.0022881624444676 -0.000180979612216648)
(2.20417407182467e-05 0.00228722777319429 -0.000167549252889606)
(2.59642744806336e-05 0.00227970869210366 -0.000146471247626272)
(3.00772482085021e-05 0.00226518089672473 -0.000118247678476477)
(3.44173436793398e-05 0.00224347026517659 -8.35790942412018e-05)
(3.92574728867217e-05 0.00221454879756862 -4.38179348395209e-05)
(4.49698995513579e-05 0.00217840815481607 -5.86878532761119e-07)
(5.21143302816451e-05 0.00214113911643295 4.06351833100419e-05)
(5.78686046036285e-05 0.0022075304902494 7.33581856824166e-05)
(0.00016131613517049 0.00234977284896323 -0.00016773291868364)
(0.000137533287237418 0.00236293049022391 -0.000189956567110284)
(0.000226692141599781 0.00244067126918954 -0.000209620130861826)
(0.000114329812767635 0.00236594498662452 -0.00020247961584327)
(0.000188151939806384 0.00244898831552458 -0.000222230097494238)
(0.000285900673989227 0.00253194016522532 -0.000238749329680461)
(0.00026726604011629 0.0024184792987215 -0.000183070298937064)
(0.000186588270466314 0.00232654471433758 -0.000135317730964921)
(0.000342500311158526 0.00250904139335298 -0.000224152528854033)
(0.000411239106313491 0.00260272806567461 -0.000250618128074636)
(0.000406735642134098 0.00246988665500926 -0.000189220457543615)
(0.000488083184196897 0.0025592816692454 -0.000231094528517002)
(0.000550627507749957 0.00266649037446324 -0.000254764560796319)
(0.000312764079809626 0.00238240888561515 -0.000142032635656161)
(0.00021504195939115 0.00229239128631119 -9.32385395301483e-05)
(9.12230564646529e-05 0.00235799054622313 -0.000204964593048106)
(0.000148447889641782 0.00244277260339415 -0.000221915119272469)
(0.00022685787548734 0.00253650839577614 -0.000233870662562749)
(0.000335535980911477 0.002634694858531 -0.00023965602813614)
(0.000445999110627115 0.00276721360252815 -0.000233841622173773)
(0.000784772772414419 0.00357257087898207 -0.000246836711792063)
(7.15957612508271e-05 0.0022833716434507 -0.000166544087591331)
(8.31800933875798e-05 0.00227241459069901 -0.000146365672405845)
(9.50198172518039e-05 0.00225437637603145 -0.000119065304602465)
(6.01174161779916e-05 0.00228724716996193 -0.000179381152269886)
(0.000107648185029621 0.0022291417764484 -8.51743594113998e-05)
(0.000122108444588579 0.00219588378427011 -4.58187174610648e-05)
(4.90052091284879e-05 0.00228385947816759 -0.000184174367485353)
(0.000368272133215385 0.00232819852374086 -8.58064525481253e-05)
(0.000250112677002374 0.00224239832991449 -4.18060506199666e-05)
(0.000139913036502725 0.00215136279917005 -2.28173946503609e-06)
(0.000485182705338814 0.00241058833339474 -0.000130436686740493)
(0.000590134929645639 0.00249696098288912 -0.000174499555697787)
(0.000670433254764014 0.00260254658912199 -0.000221788742585338)
(0.00103841292617444 0.00314860873264048 -0.000268058060496797)
(0.00188134525470438 0.00532026001616864 4.28406131246929e-05)
(0.000297043509497709 0.00216926886407231 1.52931788644069e-05)
(0.000444530750393726 0.00225346960105778 -2.07021283630008e-05)
(0.000594793289581447 0.00233942447139278 -5.86186905075072e-05)
(0.000743083603695258 0.00242818404429427 -9.59177593222582e-05)
(0.000891412222944975 0.00254171571406263 -0.000134228058195848)
(0.0012854353030558 0.00274631817931412 -0.000215255437157859)
(0.000162329500738513 0.002087061112779 4.08571933535147e-05)
(6.68858847409818e-05 0.00233927523736051 -0.000196740642074479)
(0.000104377597365907 0.00241809227658602 -0.000208258896705359)
(0.000153633632591726 0.00251146859388184 -0.000212956603117154)
(0.000221558906338587 0.00261942937280431 -0.000205072023823876)
(0.000280320832630649 0.00277951866351212 -0.00017244238423667)
(0.000573750623356469 0.00341478773720136 -0.000111229814228669)
(0.000586849530329729 0.00465830550942858 -3.35096244200073e-05)
(0.00223436979631615 0.00310958811504318 -5.26988670339256e-05)
(3.73622949118875e-05 0.00227404313597773 -0.000178818371219345)
(0.00114931046070151 0.000769222843348124 4.66847390692554e-05)
(0.00175796303631335 0.000834274748107003 0.000191671658515931)
(0.0021359254164399 0.00213031634546773 0.000221745777260523)
(0.00151911582528713 0.00259542092007239 -2.09017214010068e-05)
(0.00122159991903942 0.00255271549399931 -7.74455868426252e-06)
(0.000995294202966883 0.0025166003792024 1.1040844378227e-05)
(0.000770190261455617 0.00244508790500378 3.34533623751535e-05)
(0.0005547282199734 0.00233623766396371 6.05732853668408e-05)
(0.000350914157445757 0.00221175485135714 7.85367845902774e-05)
(0.000181628291175262 0.00209568588957923 7.94048804097974e-05)
(0.000132533964253279 0.00372955227130238 -2.300059133662e-05)
(0.000174160321118099 0.00301107260387871 -3.91372120635868e-05)
(5.61923489057347e-05 0.00270400008348556 -0.000103498184619817)
(8.12757797055854e-05 0.00256707039390251 -0.000157989168822595)
(7.46586026113672e-05 0.00247194382669006 -0.000180858260322809)
(6.00258012396784e-05 0.00239002044983185 -0.000184533346804185)
(4.16294962655042e-05 0.00232355025259211 -0.000176132955503081)
(2.33732871756065e-05 0.00226862666027922 -0.000160808309534745)
(7.38469322467632e-06 0.00221942940670611 -0.000140724813217859)
(1.19035319207596e-05 0.00221521996588323 -0.000155849227623875)
(1.46930888945961e-05 0.00221607503215565 -0.000159245117200505)
(1.73732653597051e-05 0.00221244678883133 -0.000153234365329384)
(2.04410311623691e-05 0.00220400938765481 -0.000139790919781028)
(2.37297841647264e-05 0.00219100271454867 -0.000120236289592016)
(2.71126808893387e-05 0.00217354102060931 -9.54933551192967e-05)
(3.05503893263096e-05 0.00215171385393349 -6.64976408330825e-05)
(3.41509600006585e-05 0.00212536534301378 -3.43929092341666e-05)
(3.80064348650535e-05 0.00209413662637289 -6.82757913711707e-07)
(4.23958235650116e-05 0.00205757967417144 3.24897473652989e-05)
(4.77200144805696e-05 0.00201658073074143 6.00838483850462e-05)
(5.09217485875288e-05 0.00203657736850031 7.59549966473739e-05)
(0.000241818742633624 0.00232212924643493 -0.000160789582495104)
(0.000146651051718822 0.00225600064892733 -0.000142420623067712)
(0.000167131056857078 0.00223391280945272 -0.000115256876783757)
(0.000126642050548468 0.00227162853558381 -0.000162533069815676)
(0.000208109553296101 0.00234314478836524 -0.000183471043613291)
(0.000314868656809818 0.0024094970396043 -0.000200728003288123)
(0.000106778850602262 0.00228018993019842 -0.000175342225627768)
(0.000174786848692063 0.00235497550691158 -0.000196190705088031)
(0.000265874006245848 0.00243200437107517 -0.000214202359264288)
(0.000385619798551373 0.00250288860461605 -0.000229299108487495)
(0.000277502915188579 0.00229259573577153 -0.000128006905413864)
(0.000366485736862699 0.00237591961517718 -0.000172778993619968)
(0.000188702717001706 0.00220510631755408 -8.15430493979695e-05)
(0.000449999553224995 0.00246115424142652 -0.000212420739719552)