/*--------------------------------*- C++ -*----------------------------------*\
  =========                 |
  \\      /  F ield         | OpenFOAM: The Open Source CFD Toolbox
   \\    /   O peration     | Website:  https://openfoam.org
    \\  /    A nd           | Version:  12
     \\/     M anipulation  |
\*---------------------------------------------------------------------------*/
/*   Windows 32 and 64 bit porting by blueCAPE: http://www.bluecape.com.pt   *\
|  Based on Windows porting (2.0.x v4) by Symscape: http://www.symscape.com   |
\*---------------------------------------------------------------------------*/
FoamFile
{
    format      ascii;
    class       surfaceScalarField;
    location    "0";
    object      phi;
}
// * * * * * * * * * * * * * * * * * * * * * * * * * * * * * * * * * * * * * //

dimensions      [0 3 -1 0 0 0 0];

internalField   nonuniform List<scalar> 
29323
(
4.98401260804173e-06
-1.05122902028287e-08
-1.2695538223e-07
5.13127838973019e-06
-1.29835520840694e-08
-1.34281914976462e-07
5.34758351987538e-06
-2.14995358692186e-08
-1.36344376492587e-07
5.03182594317879e-06
-1.30375698784519e-08
-2.52309062462521e-07
5.28949921739073e-06
-1.58975075470248e-08
-1.42322936285776e-07
5.50538583022336e-06
-2.64946756641425e-08
-1.44290795149513e-07
5.18009238782713e-06
-1.58672072254318e-08
-2.66680832599061e-07
5.91551786376449e-06
-3.25778395284651e-08
-1.51510376906103e-07
5.55183895412155e-06
-2.87652538697481e-08
-2.73125592649259e-07
5.15244589806381e-06
-1.30539551415531e-08
-3.80099301310021e-07
5.45996634151357e-06
-1.93501739268017e-08
-1.51116510966829e-07
5.67489249126446e-06
-3.23855740343143e-08
-1.53018258481715e-07
5.3394010129522e-06
-1.9194731246654e-08
-2.82436590717205e-07
6.08958643596151e-06
-4.01989984258494e-08
-1.60363911225675e-07
5.71519848016405e-06
-3.43948764307652e-08
-2.89122397000335e-07
5.3033708268681e-06
-1.55417326775613e-08
-4.02063856411917e-07
6.49670406428995e-06
-4.37371012443645e-08
-1.66694303326736e-07
6.27062820987151e-06
-4.10463574086411e-08
-3.11058067126152e-07
5.76848742757259e-06
-2.80257485792472e-08
-4.1557528252629e-07
5.26170396625016e-06
-1.68000586995691e-08
-5.05645224863663e-07
5.64412513878559e-06
-2.34521163809854e-08
-1.60706131389581e-07
5.85747596122994e-06
-3.93648899470031e-08
-1.62568298771838e-07
5.51105276960957e-06
-2.31233074799566e-08
-2.99644576473171e-07
6.27648325280578e-06
-4.9196332425285e-08
-1.70085816220182e-07
5.89068713070832e-06
-4.09990874735556e-08
-3.06702297418039e-07
5.46556707662434e-06
-1.8453665128031e-08
-4.26179004303835e-07
6.68697801014671e-06
-5.40127231638601e-08
-1.76460014321122e-07
6.45460485670937e-06
-4.9402748813607e-08
-3.29332469299779e-07
5.93713338738683e-06
-3.39141280001144e-08
-4.39395728902727e-07
5.41427959068771e-06
-1.94219861013618e-08
-5.35217250180661e-07
6.9212380379869e-06
-5.46843459490687e-08
-1.77430039800107e-07
6.91756756491014e-06
-5.07050080359669e-08
-3.45825095040652e-07
6.61195246541762e-06
-4.24213239793281e-08
-4.76622655425547e-07
5.86953466077885e-06
-2.86482607399928e-08
-5.62248793486475e-07
5.29626548838335e-06
-1.8419265914316e-08
-6.28367727787811e-07
5.84359627310321e-06
-2.83317496619901e-08
-1.71138826803048e-07
6.05467561665306e-06
-4.76603894022517e-08
-1.72990881183364e-07
5.69650533163225e-06
-2.77724697750396e-08
-3.18385795532195e-07
6.47770147981639e-06
-5.98657369730779e-08
-1.8071702354005e-07
6.07973259506887e-06
-4.87799601622664e-08
-3.25956822406308e-07
5.64035813457337e-06
-2.18729993105273e-08
-4.52562429788979e-07
6.89111956233683e-06
-6.61586031115587e-08
-1.87179178873864e-07
6.65215605333944e-06
-5.92253139558744e-08
-3.49410702328852e-07
6.11832624267386e-06
-4.08197048138173e-08
-4.65529020340334e-07
5.57829114694599e-06
-2.24725748288557e-08
-5.6771784446378e-07
7.12256284661916e-06
-6.74802631178687e-08
-1.87857248966472e-07
7.11955751184841e-06
-6.17068546647693e-08
-3.66145899429571e-07
6.80466466654994e-06
-5.10623686521639e-08
-5.04896357409141e-07
6.0394175236968e-06
-3.36646671903505e-08
-5.95035692781954e-07
5.44760136911502e-06
-2.11739500573234e-08
-6.65378839826831e-07
7.14566459243996e-06
-6.47955934968358e-08
-1.82885480838151e-07
7.33313037003475e-06
-5.96815559305615e-08
-3.6740651867894e-07
7.3163306051149e-06
-5.29687190685527e-08
-5.33601059727828e-07
6.72648555738497e-06
-4.0024162256301e-08
-6.46250872503744e-07
5.85473499404564e-06
-2.97031681398592e-08
-7.06677849917208e-07
5.24974552300563e-06
-1.59003957283651e-08
-7.49647196168587e-07
6.06019093084299e-06
-3.41419061575792e-08
-1.82452171634515e-07
6.26822228482287e-06
-5.7537283993429e-08
-1.8434054598891e-07
5.8974032318526e-06
-3.32832981649525e-08
-3.38752929854682e-07
6.69491591899687e-06
-7.25676670303871e-08
-1.9230671360709e-07
6.28393134808799e-06
-5.7964469818138e-08
-3.46997205158455e-07
5.82922903524148e-06
-2.58982985037578e-08
-4.81358037911508e-07
7.11073281528859e-06
-8.05798926802684e-08
-1.98898898976567e-07
6.86487572063747e-06
-7.08265160141368e-08
-3.71389936461919e-07
6.31353348130245e-06
-4.89432105908174e-08
-4.94093613613982e-07
5.75506742984074e-06
-2.60305706789339e-08
-6.03307861049072e-07
7.33832074144324e-06
-8.26155355709255e-08
-1.9930097233928e-07
7.3362865260542e-06
-7.46805981855582e-08
-3.88453012058869e-07
7.01163193798584e-06
-6.11952801473273e-08
-5.36002419146222e-07
6.22199140150835e-06
-3.95077271686231e-08
-6.31067628032728e-07
5.61034107386202e-06
-2.43835403247806e-08
-7.06073706554705e-07
7.35164870333381e-06
-7.98294237274068e-08
-1.93634715782749e-07
7.54577201840926e-06
-7.31956265259633e-08
-3.89010033950608e-07
7.52854089944815e-06
-6.43496398354126e-08
-5.6506886184932e-07
6.92037983587021e-06
-4.82760010139629e-08
-6.84179073709394e-07
6.02169337649511e-06
-3.49716873772764e-08
-7.48195907925175e-07
5.39687352950776e-06
-1.85078012626349e-08
-7.9399858445804e-07
7.22751801413781e-06
-7.3327666859866e-08
-1.84851662856929e-07
7.52656096958031e-06
-6.86651344262824e-08
-3.76525483522252e-07
7.71819633260078e-06
-6.23856967410741e-08
-5.65954128929088e-07
7.42008962623243e-06
-5.07345224128551e-08
-7.21852938555167e-07
6.66563092245035e-06
-3.76308685275441e-08
-8.14689598596297e-07
5.78037828077763e-06
-2.6838330863596e-08
-8.46482168119864e-07
5.15298415840454e-06
-1.15080458630149e-08
-8.69553244397083e-07
6.29594691591174e-06
-4.10627537896115e-08
-1.94692710998742e-07
6.50005074536055e-06
-6.93157922053382e-08
-1.96654046936672e-07
6.11557176635438e-06
-3.98121596920324e-08
-3.60808107383388e-07
6.93000493990368e-06
-8.77241961105169e-08
-2.0490161933759e-07
6.50509057917727e-06
-6.88105001077012e-08
-3.6997215839403e-07
6.0338967642915e-06
-3.06678345988626e-08
-5.12752466947501e-07
7.34759946999866e-06
-9.77621915567853e-08
-2.11671827728777e-07
7.09454624851149e-06
-8.45766759254437e-08
-3.95364771010326e-07
6.52438193985216e-06
-5.84760660440601e-08
-5.25267606862077e-07
5.9460790465768e-06
-3.02250791254132e-08
-6.42144188533418e-07
7.57015685222451e-06
-1.00598553898533e-07
-2.1181748257631e-07
7.56946992289581e-06
-9.00505351417221e-08
-4.12858376309754e-07
7.2345428684499e-06
-7.31481940644577e-08
-5.70095837774518e-07
6.41869399505354e-06
-4.63159983648785e-08
-6.70510535857991e-07
5.78583187787007e-06
-2.81173868861785e-08
-7.50680871837527e-07
7.57207843502008e-06
-9.76155816300457e-08
-2.05430272505002e-07
7.77367399380852e-06
-8.91656115727912e-08
-4.12718638074954e-07
7.75627116815304e-06
-7.77572650782016e-08
-5.99621534512428e-07
7.12866945845245e-06
-5.78941999466338e-08
-7.25905334997972e-07
6.20120084484355e-06
-4.1126845147319e-08
-7.93831411222387e-07
5.55514235747786e-06
-2.15549729797372e-08
-8.42787089316083e-07
7.43357613053811e-06
-9.02050338490105e-08
-1.95682644562005e-07
7.74282968526942e-06
-8.44560383067976e-08
-3.98643650640248e-07
7.94048873678751e-06
-7.63889365647914e-08
-5.99263239183187e-07
7.63298127509219e-06
-6.18594663822306e-08
-7.64376486301535e-07
6.85486010729853e-06
-4.57709554015304e-08
-8.62608547813332e-07
5.94205628410496e-06
-3.19213669196783e-08
-8.96459952960735e-07
5.2939469247748e-06
-1.38166338988356e-08
-9.21144173249753e-07
7.23896852015428e-06
-7.96908599953758e-08
-1.85248098930295e-07
7.58898942839578e-06
-7.69162814659374e-08
-3.78991003927809e-07
7.87416561718196e-06
-7.1603979943702e-08
-5.77812628616515e-07
7.78695091972076e-06
-6.11657671068611e-08
-7.63043584806588e-07
7.31581536834268e-06
-4.80586240814009e-08
-9.04890483384765e-07
6.55581678651637e-06
-3.50524936108135e-08
-9.76522864389083e-07
5.68402796304353e-06
-2.22481101374286e-08
-9.80456054691888e-07
5.04093956538769e-06
-7.9914217727982e-09
-9.86393169193259e-07
6.55318389716967e-06
-4.93002745929612e-08
-2.07936146053459e-07
6.75232857360292e-06
-8.33866940289066e-08
-2.09953325069854e-07
6.35304760337309e-06
-4.75083857476388e-08
-3.84659673761885e-07
7.18507511495158e-06
-1.05841078578286e-07
-2.18544430183894e-07
6.74522992095516e-06
-8.16626372665787e-08
-3.94942438714169e-07
6.25619248623232e-06
-3.6274411027139e-08
-5.46828991092465e-07
7.60371546462112e-06
-1.18290591654385e-07
-2.25549236073686e-07
7.34315318893963e-06
-1.00918217795441e-07
-4.21400464897152e-07
6.75283800091447e-06
-6.95347735684032e-08
-5.59560852215179e-07
6.15320805297832e-06
-3.5540760563729e-08
-6.8434022663652e-07
7.81989391411661e-06
-1.22034244662988e-07
-2.25464741721214e-07
7.82101723268101e-06
-1.08327096638289e-07
-4.39468563046717e-07
7.47531235050042e-06
-8.73050093313381e-08
-6.0730507822549e-07
6.63084605674946e-06
-5.41370294694161e-08
-7.13507352729741e-07
5.97559815810752e-06
-3.24709811603808e-08
-7.99438927578543e-07
7.80856144248174e-06
-1.18748430254321e-07
-2.18332763290925e-07
8.01858367776148e-06
-1.08122490427229e-07
-4.38655035198613e-07
8.00134640615509e-06
-9.36342149342063e-08
-6.37447482220969e-07
7.35310856316688e-06
-6.92250144641348e-08
-7.71625663060183e-07
6.39472440547267e-06
-4.83128644580755e-08
-8.43838114068374e-07
5.72588239900856e-06
-2.51073741419443e-08
-8.96312962765465e-07
7.65369147566682e-06
-1.10168656783951e-07
-2.07562511297423e-07
7.97427865483966e-06
-1.03131897890772e-07
-4.22913304813237e-07
8.17876635249254e-06
-9.2931580252214e-08
-6.35822209447707e-07
7.86147847962582e-06
-7.49637574160864e-08
-8.11049081028453e-07
7.05822172132676e-06
-5.51130169130585e-08
-9.15280408441714e-07
6.11594135404349e-06
-3.78635446340641e-08
-9.51407562871285e-07
5.44561449062613e-06
-1.65187717528864e-08
-9.77935332618469e-07
7.44274792328589e-06
-9.79286348119555e-08
-1.96055832112727e-07
7.80464914503898e-06
-9.46146729859643e-08
-4.01184204942896e-07
8.09886502980211e-06
-8.7983597705871e-08
-6.11748896018192e-07
8.0087836466844e-06
-7.50078416888139e-08
-8.07947360781488e-07
7.52260859094587e-06
-5.87737861365491e-08
-9.58166276273275e-07
6.73835377083349e-06
-4.29259544737309e-08
-1.03414057370551e-06
5.83923668817591e-06
-2.69684645334552e-08
-1.03851622249926e-06
5.17483456137746e-06
-1.00093377094809e-08
-1.04502929958293e-06
7.22436738268922e-06
-8.35818002497837e-08
-1.85079764744215e-07
7.59569783339923e-06
-8.34015264269172e-08
-3.79156304254203e-07
7.9094533418172e-06
-7.99491175531051e-08
-5.80096450597026e-07
7.90904479872018e-06
-7.10625739569828e-08
-7.77006879462628e-07
7.64953204112695e-06
-5.88631059024534e-08
-9.5306278584944e-07
7.18020158827406e-06
-4.5887494178818e-08
-1.08031025728667e-06
6.45067586951236e-06
-3.23350044648886e-08
-1.13003195842807e-06
5.58166188805634e-06
-1.81630986934685e-08
-1.10830256273497e-06
4.93434437859218e-06
-6.16780198710421e-09
-1.09820664492318e-06
6.83447452419479e-06
-5.91512707093845e-08
-2.22138799489179e-07
7.02748978773478e-06
-1.00232949242019e-07
-2.24228011583247e-07
6.61226887875376e-06
-5.64356944363686e-08
-4.10721290956338e-07
7.46247311014161e-06
-1.27526302116689e-07
-2.33257885476449e-07
7.00663621374819e-06
-9.69293686183253e-08
-4.21938219877871e-07
6.49792589550956e-06
-4.27590995274788e-08
-5.83633632316982e-07
7.88131124206359e-06
-1.42858400253245e-07
-2.40578072856258e-07
7.61293881968761e-06
-1.2037937805135e-07
-4.49612984788687e-07
7.00103498245119e-06
-8.2553239977056e-08
-5.96860213709326e-07
6.37836613191226e-06
-4.18552291640424e-08
-7.30131371554096e-07
8.08955138799927e-06
-1.47646821069105e-07
-2.40301022685622e-07
8.09305052572044e-06
-1.30122797175653e-07
-4.68377817277161e-07
7.7359857683847e-06
-1.04150833801797e-07
-6.47457550726409e-07
6.86109417104534e-06
-6.54440087606085e-08
-7.59905260561173e-07
6.18143385114744e-06
-3.75831776239106e-08
-8.52592123017725e-07
8.0628668404914e-06
-1.439366669695e-07
-2.32403255155961e-07
8.2824362972538e-06
-1.30703019388745e-07
-4.6694184112704e-07
8.2658059146094e-06
-1.12514981933801e-07
-6.78718055753073e-07
7.59597702071685e-06
-8.26877252177124e-08
-8.2162233885928e-07
6.60391216878355e-06
-5.66857318747106e-08
-8.98479722027346e-07
5.91060657013119e-06
-2.92503078979795e-08
-9.54912091764989e-07
7.88937827706909e-06
-1.33883291977798e-07
-2.20551942887707e-07
8.2226006518607e-06
-1.25316672466801e-07
-4.49461113602895e-07
8.43487270021128e-06
-1.12564475417296e-07
-6.75831134816161e-07
8.10745777809942e-06
-9.04868221159474e-08
-8.62164338975491e-07
7.27737408850495e-06
-6.60885595046967e-08
-9.73001829037749e-07
6.30348103949279e-06
-4.48111138587889e-08
-1.01167358945447e-06
5.60927819052455e-06
-1.96771536265771e-08
-1.04029885849673e-06
7.65997904159424e-06
-1.19496137264296e-07
-2.0790386315006e-07
8.03503051384207e-06
-1.15548464519414e-07
-4.25528093356689e-07
8.33936320308754e-06
-1.07352649026833e-07
-6.48990788890147e-07
8.24660293967712e-06
-9.13663415633406e-08
-8.57238215672546e-07
7.7445654892731e-06
-7.14142845843644e-08
-1.01670419868222e-06
6.93457659738027e-06
-5.19343937065821e-08
-1.09743202576127e-06
6.00618861302525e-06
-3.24556256428184e-08
-1.10242198758603e-06
5.31891313243474e-06
-1.23886405226749e-08
-1.1096247033971e-06
7.42491047737813e-06
-1.02638565441885e-07
-1.95833071824963e-07
7.80881940855434e-06
-1.02521686372996e-07
-4.01270788424145e-07
8.13265266050464e-06
-9.83110716472453e-08
-6.14056438383003e-07
8.13225796749752e-06
-8.73371258585799e-08
-8.22632065499076e-07
7.86419050345666e-06
-7.22547144122155e-08
-1.00912413870008e-06
7.3792788027703e-06
-5.62559349464409e-08
-1.14391313058412e-06
6.62608058672493e-06
-3.97599461215717e-08
-1.19675324073736e-06
5.72965951295287e-06
-2.24305939785725e-08
-1.17409219768185e-06
5.06085681388873e-06
-7.99339381843261e-09
-1.16354788297354e-06
7.20378462491313e-06
-8.49291043283795e-08
-1.84731513157681e-07
7.58236519154281e-06
-8.74906879240785e-08
-3.7867296176058e-07
7.90445678232591e-06
-8.64740610041682e-08
-5.79689982071181e-07
7.92447800852604e-06
-7.95694125366615e-08
-7.79085468971568e-07
7.75268783600147e-06
-6.88646452894777e-08
-9.68845681216972e-07
7.50222816571322e-06
-5.68600009628642e-08
-1.13524582109045e-06
7.07248876638273e-06
-4.37760044052751e-08
-1.24770991823401e-06
6.35129573586602e-06
-2.96530890309043e-08
-1.27507698012543e-06
5.48128575671529e-06
-1.52353656960955e-08
-1.23010240644722e-06
4.83863432660415e-06
-5.7475562601955e-09
-1.20349483011606e-06
7.14268386561695e-06
-7.09640586983245e-08
-2.37244662720941e-07
7.32826463604495e-06
-1.20427337822532e-07
-2.39498182806992e-07
6.89584514633884e-06
-6.70177255492428e-08
-4.38696864111672e-07
7.76480857218081e-06
-1.53534016581937e-07
-2.4903389399888e-07
7.29182093302431e-06
-1.15118982745715e-07
-4.50728986010247e-07
6.76227748563428e-06
-5.21524388159232e-08
-6.22920063887674e-07
8.18287600609615e-06
-1.72301324935022e-07
-2.56789320441635e-07
7.90642304468878e-06
-1.43602415140476e-07
-4.80068692482257e-07
7.27161268949672e-06
-9.80091734187433e-08
-6.37265432124081e-07
6.62371359371603e-06
-4.92458142848815e-08
-7.79734799046897e-07
8.38138114536446e-06
-1.78306856329168e-07
-2.56380920204041e-07
8.38795439155842e-06
-1.56163441052687e-07
-4.99697650276753e-07
8.01898064111033e-06
-1.24209979271894e-07
-6.90950805356047e-07
7.11139881455892e-06
-7.88823547226625e-08
-8.10137263807455e-07
6.40528937671524e-06
-4.35616176700227e-08
-9.10424624775094e-07
8.33695126877024e-06
-1.74027536955375e-07
-2.4770315039131e-07
8.56737920895189e-06
-1.57668850422804e-07
-4.97697490955616e-07
8.55188079675676e-06
-1.35049425940335e-07
-7.23553747362339e-07
7.85874799708185e-06
-9.91736725727356e-08
-8.76498342376248e-07
6.83077621280526e-06
-6.63490917507505e-08
-9.58002659981742e-07
6.11106829002271e-06
-3.4099298578332e-08
-1.01895379707386e-06
8.14229247495002e-06
-1.62138861334455e-07
-2.3471198291062e-07
8.48966504414828e-06
-1.51754550071854e-07
-4.78416223619282e-07
8.71085563846522e-06
-1.3595090410095e-07
-7.19488837422037e-07
8.3730480018206e-06
-1.08978021851355e-07
-9.18017572454175e-07
7.51425634240891e-06
-7.90835264785416e-08
-1.03610616262696e-06
6.50633202919202e-06
-5.294336309766e-08
-1.07763709928753e-06
5.78640065984231e-06
-2.33737224367548e-08
-1.10866012496091e-06
7.89205228287658e-06
-1.45106531205714e-07
-2.2084981441845e-07
8.28172397914207e-06
-1.40414895293846e-07
-4.52147411313596e-07
8.59743436726187e-06
-1.30358145265329e-07
-6.89738870769123e-07
8.50227832299181e-06
-1.10786965128941e-07
-9.11206011324841e-07
7.98354461947717e-06
-8.63845369517693e-08
-1.08084682160654e-06
7.14609073075672e-06
-6.25139501840469e-08
-1.1668126777298e-06
6.18628856797696e-06
-3.88641817205082e-08
-1.1725857925267e-06
5.47441305085458e-06
-1.51802650949018e-08
-1.18061789377285e-06
7.63819899688434e-06
-1.25170168564101e-07
-2.07614618215041e-07
8.03601523581694e-06
-1.25132161597511e-07
-4.25516583424902e-07
8.37111112917819e-06
-1.20026972695345e-07
-6.51312937805689e-07
8.37119917077454e-06
-1.06583774767691e-07
-8.72714621963801e-07
8.09434340740766e-06
-8.80948086243851e-08
-1.0707100687371e-06
7.59299312471469e-06
-6.84856258655851e-08
-1.21386698589424e-06
6.81464153415801e-06
-4.83750938911972e-08
-1.2700729516252e-06
5.88888189054165e-06
-2.73119574973388e-08
-1.24672064971484e-06
5.19701076556844e-06
-1.0328676066678e-08
-1.23544949922216e-06
7.40078702827207e-06
-1.04217565118434e-07
-1.95423306444032e-07
7.7921544122478e-06
-1.07472983517057e-07
-4.00671225259946e-07
8.12468091630505e-06
-1.06308611817731e-07
-6.13497638247134e-07
8.1456181844234e-06
-9.78445462370537e-08
-8.24688971080563e-07
7.96818256958758e-06
-8.46604199357271e-08
-1.02572057650496e-06
7.70871533884983e-06
-6.98548173915112e-08
-1.20201201309549e-06
7.26391723233933e-06
-5.38617170063953e-08
-1.32123921391585e-06
6.51912089163315e-06
-3.66830531172051e-08
-1.35032557128147e-06
5.62142088004006e-06
-1.89243897570052e-08
-1.30329575002462e-06
4.95772096549165e-06
-7.56110146788473e-09
-1.27507301135013e-06
7.18440081253957e-06
-8.37880032730879e-08
-1.84336948370503e-07
7.56285201869506e-06
-8.89639067277645e-08
-3.77965745373187e-07
7.88790441329828e-06
-9.05846634731243e-08
-5.7874188589268e-07
7.91118276698342e-06
-8.59872258437329e-08
-7.78167469339301e-07
7.76014367629182e-06
-7.71809707246175e-08
-9.70844095249147e-07
7.6020289439843e-06
-6.66714220113762e-08
-1.15311279047799e-06
7.39830516529219e-06
-5.48891593157848e-08
-1.3100299371954e-06
6.97813976958162e-06
-4.15597975998603e-08
-1.40714454647657e-06
6.25351782856973e-06
-2.74063661643424e-08
-1.41184180513273e-06
5.38550199529835e-06
-1.47482293737471e-08
-1.34451543098833e-06
4.75078084652508e-06
-6.27245658875329e-09
-1.30112871541954e-06
7.48099998902215e-06
-8.51474278087348e-08
-2.53168068053206e-07
7.65769184844998e-06
-1.44665870264685e-07
-2.55724830388146e-07
7.20670736463476e-06
-7.96516565805497e-08
-4.68454781483948e-07
8.09501939486636e-06
-1.84755435015893e-07
-2.65882218665724e-07
7.60367019427394e-06
-1.36812796481369e-07
-4.81551971844593e-07
7.05172577949587e-06
-6.31893913390932e-08
-6.6495545764982e-07
8.51115861718513e-06
-2.07627728278005e-07
-2.74188491344853e-07
8.2263901567878e-06
-1.71373898403541e-07
-5.12745774863742e-07
7.56672745479793e-06
-1.16794765386929e-07
-6.81201094170375e-07
6.89196728617552e-06
-5.78286945148794e-08
-8.33344639452542e-07
8.6978832973949e-06
-2.15057432787479e-07
-2.73745768356787e-07
8.7083967893406e-06
-1.87324539920393e-07
-5.33509460414549e-07
8.32705026933983e-06
-1.48155829283026e-07
-7.37991396645845e-07
7.38412660865265e-06
-9.47125423939569e-08
-8.64526031958522e-07
6.6493578407393e-06
-5.0592101612214e-08
-9.73210552872115e-07
8.63297459205725e-06
-2.10036927775823e-07
-2.6429343192681e-07
8.87580462629377e-06
-1.89930678089536e-07
-5.31039423519186e-07
8.86212821838355e-06
-1.61983290404148e-07
-7.72171591277631e-07
8.14409391641842e-06
-1.18911782330616e-07
-9.36266651609136e-07
7.0774065413403e-06
-7.75950223508223e-08
-1.02273344388897e-06
6.32922316918879e-06
-3.97831277031042e-08
-1.08879561044795e-06
8.41425060366025e-06
-1.95879865170987e-07
-2.50105545740706e-07
8.77753680795875e-06
-1.8333655225469e-07
-5.09907460712926e-07
9.0089827956691e-06
-1.63887837928752e-07
-7.66985903652559e-07
8.66042119499232e-06
-1.31150990236846e-07
-9.78948660304011e-07
7.77094521130832e-06
-9.45641566883335e-08
-1.10497140773729e-06
6.72640739165384e-06
-6.2446158239862e-08
-1.1497305311365e-06
5.97871558285409e-06
-2.77575017818359e-08
-1.18351046212916e-06
8.1404746551045e-06
-1.75606641279928e-07
-2.34954559311594e-07
8.54647272171465e-06
-1.70044365165316e-07
-4.81171365397005e-07
8.87504078852444e-06
-1.57774730863349e-07
-7.34198795183747e-07
8.77789361441706e-06
-1.33934473848449e-07
-9.70146586653704e-07
8.2416069298674e-06
-1.04201216887857e-07
-1.15096140148346e-06
7.37477092645924e-06
-7.50372830235645e-08
-1.24269187112732e-06
6.38112318889848e-06
-4.63446269696559e-08
-1.24950000709065e-06
5.64270401478494e-06
-1.84851553764456e-08
-1.25846527209558e-06
7.8654869173859e-06
-1.51914643121755e-07
-2.20479540479457e-07
8.27874658069794e-06
-1.51981435405446e-07
-4.52014835717777e-07
8.6264872942208e-06
-1.45820386991412e-07
-6.9206143370355e-07
8.62765349712779e-06
-1.29445196564115e-07
-9.27534009068948e-07
8.34183153124983e-06
-1.06900944827208e-07
-1.13817690628208e-06
7.8231567269975e-06
-8.29661979193761e-08
-1.29055774968863e-06
7.01795943735931e-06
-5.8517843884847e-08
-1.35047627913264e-06
6.06064340513939e-06
-3.2967271312409e-08
-1.32655985232213e-06
5.34399715767385e-06
-1.30992771820682e-08
-1.31450449562731e-06
7.60980977454308e-06
-1.27062593735771e-07
-2.07130449006117e-07
8.01527993847355e-06
-1.31096488062092e-07
-4.24776296913363e-07
8.3594671915591e-06
-1.29760786212274e-07
-6.50569600010511e-07
8.38190830239386e-06
-1.19454892425234e-07
-8.74731671309845e-07
8.19889671031809e-06
-1.0334196701991e-07
-1.08818106506826e-06
7.93014836201596e-06
-8.52209668691513e-08
-1.27540739071086e-06
7.46949925244266e-06
-6.5732274934216e-08
-1.40209122570691e-06
6.69954063595707e-06
-4.4922181370113e-08
-1.4328820954572e-06
5.77233020695678e-06
-2.43110272924162e-08
-1.38364702712973e-06
5.08579169043561e-06
-9.66253437122331e-09
-1.35385726272114e-06
7.37793244559438e-06
-1.02782042999298e-07
-1.94967139375039e-07
7.76901128047759e-06
-1.09217202278567e-07
-3.99838545407753e-07
8.10460051744683e-06
-1.11312527431373e-07
-6.12363522754197e-07
8.12912615317937e-06
-1.05733366700494e-07
-8.23551856317745e-07
7.97339985904218e-06
-9.49367814023487e-08
-1.02766833091575e-06
7.80926504098726e-06
-8.20132583419081e-08
-1.22079786262984e-06
7.5971047968952e-06
-6.75692145288666e-08
-1.38710348841231e-06
7.16163843286941e-06
-5.13413434899615e-08
-1.49007927636153e-06
6.41338347508394e-06
-3.41393308237002e-08
-1.49497575306975e-06
5.51784334374102e-06
-1.91685080221716e-08
-1.42402943893889e-06
4.86221680125886e-06
-8.36856185976563e-09
-1.37814007027584e-06
7.16683437141581e-06
-8.02988902889423e-08
-1.83889892124264e-07
7.54256614592018e-06
-8.78273372749679e-08
-3.77160845017235e-07
7.86768329616515e-06
-9.20288138384769e-08
-5.77621843458787e-07
7.89214733972936e-06
-8.9930238822592e-08
-7.76767204630396e-07
7.74437488301525e-06
-8.33224044364139e-08
-9.69503468314963e-07
7.6090464599262e-06
-7.46680994724892e-08
-1.15520293604718e-06
7.50214162030502e-06
-6.45478095090564e-08
-1.33040588464829e-06
7.31034463273859e-06
-5.26734790741067e-08
-1.47731061997292e-06
6.88336919313574e-06
-3.93660172705566e-08
-1.55845605065499e-06
6.15624463191234e-06
-2.6054768320638e-08
-1.54131631744966e-06
5.29331212859921e-06
-1.49971896006422e-08
-1.45145195641831e-06
4.6661542094404e-06
-6.80929746403546e-09
-1.39083342266445e-06
7.85295324385218e-06
-1.0219718632868e-07
-2.69755316615557e-07
8.0191521666772e-06
-1.73790768262913e-07
-2.72816298917614e-07
7.5481287740018e-06
-9.47635230885469e-08
-4.99825393798301e-07
8.45638141067652e-06
-2.22266865010368e-07
-2.83760519243663e-07
7.94539104711796e-06
-1.62743648361467e-07
-5.14353207803935e-07
7.36933796801535e-06
-7.64320713291167e-08
-7.09634509424957e-07
8.86923682707306e-06
-2.50054059178828e-07
-2.92779171592665e-07
8.57599980563295e-06
-2.04614797219244e-07
-5.47689488166357e-07
7.8896692587663e-06
-1.39191740044699e-07
-7.28491023684566e-07
7.18605537425485e-06
-6.79604827976697e-08
-8.91082630924136e-07
9.04182093619123e-06
-2.59148071786705e-07
-2.92416838269094e-07
9.05734566434305e-06
-2.24664015798146e-07
-5.69846988644073e-07
8.6630744622496e-06
-1.76871689184338e-07
-7.88692737117563e-07
7.68208791745199e-06
-1.13272731938322e-07
-9.23717944833127e-07
6.91646248504371e-06
-5.93037569380631e-08
-1.04114492795537e-06
8.95331945154647e-06
-2.53179751798708e-07
-2.82221768811243e-07
9.21037991855349e-06
-2.28582108039671e-07
-5.67062954975176e-07
9.19942772107911e-06
-1.94228119633089e-07
-8.24736245265964e-07
8.45492291402231e-06
-1.42489372530124e-07
-1.00104302889083e-06
7.34584198879717e-06
-9.05617023564853e-08
-1.09299114713278e-06
6.56734040720636e-06
-4.64996225247219e-08
-1.16482743489441e-06
8.70724478651406e-06
-2.36236208036235e-07
-2.6679470994791e-07
9.08849948214835e-06
-2.21128315177218e-07
-5.44058332334482e-07
9.33180191709278e-06
-1.97321576767247e-07
-8.18520021961232e-07
8.9722346927188e-06
-1.57711199556041e-07
-1.04518509843948e-06
8.04999901022114e-06
-1.13011273225529e-07
-1.17990344787943e-06
6.96579775917446e-06
-7.35429462443884e-08
-1.22836337865734e-06
6.18813356203498e-06
-3.2962860734201e-08
-1.26524998685877e-06
8.40688567353846e-06
-2.12010040916474e-07
-2.50280490096704e-07
8.83119005003776e-06
-2.05429209679446e-07
-5.12730204170674e-07
9.17435401747035e-06
-1.90531220981164e-07
-7.8257724995146e-07
9.07573912367964e-06
-1.61617216721127e-07
-1.0343644860431e-06
8.52102808774609e-06
-1.2549631224014e-07
-1.22743672033895e-06
7.622746849396e-06
-8.99260049964181e-08
-1.32546687343215e-06
6.59261254311935e-06
-5.49887596072787e-08
-1.33398779445145e-06
5.82558678013763e-06
-2.27558027988876e-08
-1.34363675687239e-06
8.10811729863525e-06
-1.83748984799698e-07
-2.34487958529601e-07
8.53860010537316e-06
-1.83960526574013e-07
-4.80892300301946e-07
8.90060266953149e-06
-1.76555654638713e-07
-7.36506219999756e-07
8.90359993105188e-06
-1.56696273499475e-07
-9.87383150650305e-07
8.6087045022515e-06
-1.2931494727406e-07
-1.21190500841269e-06
8.07178418170676e-06
-1.00196072754111e-07
-1.37442955985691e-06
7.23790797174574e-06
-7.05434461414156e-08
-1.43844087728607e-06
6.24618059040698e-06
-3.94652685499276e-08
-1.41405659430982e-06
5.5031921059176e-06
-1.63160572159508e-08
-1.40134363263288e-06
7.8319455047992e-06
-1.54143141028909e-07
-2.19906956277795e-07
8.25306151554308e-06
-1.59136882015593e-07
-4.51105812264952e-07
8.61033609709442e-06
-1.57608291338379e-07
-6.91095975069706e-07
8.63500870496717e-06
-1.45121838892914e-07
-9.29484817882374e-07
8.44657665520351e-06
-1.25531577026041e-07
-1.15658274375012e-06
8.16832104408466e-06
-1.03460421453795e-07
-1.35585491802482e-06
7.69097669532598e-06
-7.97905676462053e-08
-1.49076178904708e-06
6.89415625053241e-06
-5.46538893208973e-08
-1.52340484856546e-06
5.93524728536183e-06
-3.07847262046759e-08
-1.4717908457903e-06
5.2239764136963e-06
-1.23143117654507e-08
-1.44037446150562e-06
7.58269313550442e-06
-1.25224039385458e-07
-2.06599435115205e-07
7.98772916241548e-06
-1.33153267136992e-07
-4.23792014138885e-07
8.3350867173673e-06
-1.35812478731607e-07
-6.49211247879881e-07
8.36150767311636e-06
-1.29075961702141e-07
-8.73329804496366e-07
8.20129979006895e-06
-1.15928236435702e-07
-1.09004496813901e-06
8.0311761276731e-06
-1.00150051124078e-07
-1.29516283358148e-06
7.81034977858572e-06
-8.25408357446776e-08
-1.47184321837263e-06
7.35874853039104e-06
-6.28638508127978e-08
-1.58125936326148e-06
6.58513307080834e-06
-4.22837486637968e-08
-1.58665844754601e-06
5.66027205247978e-06
-2.42075884890995e-08
-1.51153042843216e-06
4.9820787709013e-06
-1.07970940496098e-08
-1.46292179154603e-06
7.3569351310788e-06
-9.84249148484767e-08
-1.94457983545794e-07
7.74504495824146e-06
-1.07756659216996e-07
-3.98906764338507e-07
8.08061998012445e-06
-1.13038349109025e-07
-6.11049468613189e-07
8.10651274328084e-06
-1.10564095996422e-07
-8.2189773136923e-07
7.95444922535519e-06
-1.02510980369859e-07
-1.02605151971118e-06
7.8140989643755e-06
-9.19153315585041e-08
-1.22281851532851e-06
7.70180105869226e-06
-7.95192771006338e-08
-1.40850666088222e-06
7.50117052170808e-06
-6.50294236717797e-08
-1.564240956695e-06
7.05828579047194e-06
-4.88512910599123e-08
-1.6502833308392e-06
6.30716569846776e-06
-3.27664309389286e-08
-1.63229865720794e-06
5.41732418658918e-06
-1.91716325621886e-08
-1.53723794848092e-06
4.76962357674478e-06
-8.69971292062819e-09
-1.47290943234066e-06
7.14502462343088e-06
-7.46681198293527e-08
-1.83242103137458e-07
7.52211296520444e-06
-8.41668960736028e-08
-3.76259282469402e-07
7.84666022216743e-06
-9.07572409021048e-08
-5.76405875303022e-07
7.87155582400424e-06
-9.12182303854859e-08
-7.75233516198116e-07
7.72503086468713e-06
-8.70276721868419e-08
-9.6768331722276e-07
7.59362291330563e-06
-8.0531886831599e-08
-1.15348078088794e-06
7.51105074387129e-06
-7.2322160458421e-08
-1.33276220214612e-06
7.4184613043803e-06
-6.21889570223017e-08