/*--------------------------------*- C++ -*----------------------------------*\
  =========                 |
  \\      /  F ield         | OpenFOAM: The Open Source CFD Toolbox
   \\    /   O peration     | Website:  https://openfoam.org
    \\  /    A nd           | Version:  12
     \\/     M anipulation  |
\*---------------------------------------------------------------------------*/
/*   Windows 32 and 64 bit porting by blueCAPE: http://www.bluecape.com.pt   *\
|  Based on Windows porting (2.0.x v4) by Symscape: http://www.symscape.com   |
\*---------------------------------------------------------------------------*/
FoamFile
{
    format      ascii;
    class       volVectorField;
    location    "0";
    object      U;
}
// * * * * * * * * * * * * * * * * * * * * * * * * * * * * * * * * * * * * * //

dimensions      [0 1 -1 0 0 0 0];

internalField   nonuniform List<vector> 
10252
(
(-1.68874122736052e-06 0.00307771400893726 3.52984368146503e-05)
(-2.20639943507242e-06 0.00316685796433598 3.73453117907571e-05)
(-5.76968248864236e-06 0.00307697535016147 3.5849552219236e-05)
(-7.78940919879895e-07 0.003074138113048 0.000109048553348138)
(-2.82009755622115e-06 0.00326249899915981 3.95929384916594e-05)
(-7.35056764826578e-06 0.00316598771794023 3.79522895345723e-05)
(-1.27302196820551e-06 0.00316292482442393 0.000115310395703918)
(-1.04361774069249e-05 0.0030753867945371 3.66281298926606e-05)
(-4.72737850513621e-06 0.00307330586208662 0.000109155897030048)
(-6.18455836736811e-07 0.00306645473811675 0.000187455691245915)
(-3.55094069370246e-06 0.00336540368470772 4.20523910645156e-05)
(-9.22160039096999e-06 0.00326146816097312 4.02631823238771e-05)
(-1.86314667489751e-06 0.00325819013694312 0.000122180424342605)
(-1.31126911811821e-05 0.00316411664791639 3.87869825831678e-05)
(-6.27183556447364e-06 0.00316195068550542 0.000115578830252729)
(-1.0069304017686e-06 0.00315448086891509 0.000198254773551683)
(-1.56286945048586e-05 0.00307277346511931 3.71802713256688e-05)
(-9.92605851246299e-06 0.00307162091206171 0.00011094359852932)
(-4.15263012079912e-06 0.00306530179828838 0.000186186192554867)
(-2.19250729555688e-06 0.00305385375940391 0.000267381843079156)
(-4.42372019063391e-06 0.00347642826708709 4.47361370833407e-05)
(-1.14459831130767e-05 0.00336417819201972 4.27942458535392e-05)
(-2.57095137982922e-06 0.00336069827289273 0.000129690320294324)
(-1.6278337138826e-05 0.00325925233414967 4.11593171968004e-05)
(-8.10306243677929e-06 0.00325704443050236 0.000122640438209887)
(-1.47012804747081e-06 0.00324894870685211 0.000210107403840522)
(-1.94362967741786e-05 0.00316103804172295 3.93727975343349e-05)
(-1.25613740834755e-05 0.00315997597593699 0.000117506426475027)
(-5.59085101346221e-06 0.00315313474345561 0.000197014151709831)
(-2.64061710648509e-06 0.00314061277344342 0.000282970696610506)
(-2.08663658236804e-05 0.00306901635778023 3.7323586647478e-05)
(-1.54051500544877e-05 0.00306889639927775 0.000112539303045645)
(-9.5033177372756e-06 0.00306339582650907 0.000188088756679146)
(-6.5109188871554e-06 0.0030526926717899 0.000266296430629517)
(-3.33610738358928e-06 0.00303620752118915 0.000344943659749502)
(-5.4676289978655e-06 0.00359653257873573 4.76577689558362e-05)
(-1.40980539371768e-05 0.00347496811976939 4.55587953374405e-05)
(-3.42162294694945e-06 0.00347130334672926 0.000137876939711211)
(-2.00394522003868e-05 0.00336154418089016 4.37580047090097e-05)
(-1.02836205111046e-05 0.00335934652261971 0.000130378580618308)
(-2.02433414151629e-06 0.00335061670224684 0.000223069969813882)
(-2.39388103912863e-05 0.00325560560422182 4.17805167801024e-05)
(-1.56770503999674e-05 0.00325471820247101 0.000124721812252332)
(-7.29381038249818e-06 0.00324737080102209 0.000208908413173807)
(-3.16605902181602e-06 0.00323374508233883 0.000300099230777945)
(-2.57895391824894e-05 0.00315660888058987 3.95215167581084e-05)
(-1.91774686106699e-05 0.00315677808919155 0.000119191075023838)
(-1.21079792497862e-05 0.0031509190248122 0.000199287601440409)
(-7.8584089855084e-06 0.00313926212415306 0.000281777060452709)
(-3.85230129802993e-06 0.00312117479103507 0.000365225878326513)
(-2.56529732876646e-05 0.00306412567223679 3.72235205705451e-05)
(-2.07507378430456e-05 0.0030650537113548 0.0001132779404764)
(-1.53604188562938e-05 0.00306050158678089 0.000190703730098188)
(-1.10222145582029e-05 0.00305020280188372 0.000267416425530006)
(-8.61725662845457e-06 0.00303501532787998 0.000346119576489279)
(-3.33994314435798e-06 0.00301378805913713 0.000419834319496605)
(-6.71725573789474e-06 0.00372679211733968 5.08287650010077e-05)
(-1.72655352937901e-05 0.00359479062011806 4.85715414415213e-05)
(-4.4450615576528e-06 0.00359096644090606 0.000146781606975599)
(-2.45237125311662e-05 0.00347182953399907 4.6592673934565e-05)
(-1.28852279897371e-05 0.00346970502489251 0.000138837659071338)
(-2.68888411570799e-06 0.00346033203388738 0.000237210543810305)
(-2.92884501491036e-05 0.00335720752353081 4.44167822259338e-05)
(-1.93781342729447e-05 0.00335659798235709 0.000132626911379724)
(-9.31690172550668e-06 0.00334876145211286 0.000221928630105815)
(-3.78385844082096e-06 0.00333399657854918 0.000318852874472451)
(-3.16117586824564e-05 0.00325035642043127 4.19339058929694e-05)
(-2.36359203779079e-05 0.00325094279751394 0.000126497663133703)
(-1.51812858717479e-05 0.00324478465105274 0.000211610741554146)
(-9.43610028580298e-06 0.0032321716576123 0.000298784275532849)
(-4.45442382822349e-06 0.00321241608805214 0.000387525625437232)
(-3.16041454617887e-05 0.0031508401752667 3.94101047293633e-05)
(-2.56475637414856e-05 0.00315225466656581 0.00011995514507576)
(-1.90870671999582e-05 0.00314754703495988 0.000202000198960788)
(-1.3454878690363e-05 0.00313636336364542 0.000283265060641583)
(-1.0126337495905e-05 0.00311977691094418 0.000366452866543315)
(-3.85637495976432e-06 0.00309647714261781 0.000444643295783297)
(-2.96899054484976e-05 0.00305823861772928 3.70961968181504e-05)
(-2.55638807745453e-05 0.00306012624702232 0.000113318833751433)
(-2.07333726572949e-05 0.00305655481914675 0.000191987832404986)
(-1.60082991803888e-05 0.00304716975421972 0.000270412007886857)
(-1.2621740285099e-05 0.00303244842191883 0.000347204747671262)
(-8.57575939605727e-06 0.00301266024594455 0.000423239093470582)
(-2.66286129135603e-06 0.00298698866735904 0.000492931396412433)
(-8.21203802174557e-06 0.00386841284414525 5.4263304030271e-05)
(-2.10549714010301e-05 0.00372471359592881 5.18435322239961e-05)
(-5.67454285125331e-06 0.00372076282810984 0.000156434790444454)
(-2.98799029763131e-05 0.00359104388708514 4.96771837467352e-05)
(-1.5990549260666e-05 0.00358907539276337 0.000148073494418914)
(-3.49099339415094e-06 0.00357906101027196 0.00025261384195778)
(-3.5664010841994e-05 0.00346665748153609 4.7290999996652e-05)
(-2.37872273365966e-05 0.00346645359032553 0.000141258096623238)
(-1.17163588353392e-05 0.00345814005755193 0.000236155548018527)
(-4.51889102225826e-06 0.00344219075056902 0.000339324743547984)
(-3.85284897315271e-05 0.0033509622336398 4.45733390115481e-05)
(-2.89310851219047e-05 0.00335212249746008 0.000134497512015071)
(-1.88260289778413e-05 0.00334574229064158 0.000225122524390957)
(-1.12854695463238e-05 0.00333215095149872 0.000317398090914226)
(-5.15575396874564e-06 0.00331067456561729 0.000411962338144607)
(-3.8643093342568e-05 0.00324351731653778 4.18091095764552e-05)
(-3.14374823321089e-05 0.00324558885269422 0.000127284956710575)
(-2.34839101014467e-05 0.00324082740968293 0.000214410242383248)
(-1.62982493805692e-05 0.00322879454229287 0.000300708899840767)
(-1.18903268378907e-05 0.00321078874257058 0.000388807949819757)
(-4.45850559390311e-06 0.00318529870633435 0.000471930766241472)
(-3.65191554024272e-05 0.00314389498429247 3.92679324093678e-05)
(-3.14938769131994e-05 0.00314644450183864 0.00011997629193882)
(-2.55857956559046e-05 0.00314291364083302 0.000203313016078833)
(-1.96667320707664e-05 0.00313288619510453 0.000286417541312822)
(-1.51999094621688e-05 0.00311672527784604 0.000367684071749741)
(-1.00847935081097e-05 0.00309515079058467 0.000448223348543271)
(-3.13478690246465e-06 0.00306695305802276 0.000522149833815296)
(-3.28228123521431e-05 0.00305156580052707 3.70165313877486e-05)
(-2.95970278221755e-05 0.00305424346022455 0.000113108914108059)
(-2.54781826423453e-05 0.00305158971084722 0.00019225147260073)
(-2.09242199547828e-05 0.00304316815404959 0.000271853923464052)
(-1.65980594199715e-05 0.00302914749415418 0.000349387365455201)
(-1.25683288679709e-05 0.00301016843943565 0.0004250651602482)
(-7.24617732736908e-06 0.00298597290528849 0.000497274569129866)
(-1.95217276540187e-06 0.00295617216810561 0.000564264448577475)
(-9.99779325556831e-06 0.00402275830904755 5.79831618241372e-05)
(-2.55917051030239e-05 0.0038659347860731 5.53829199681705e-05)
(-7.14047885576779e-06 0.00386188836520197 0.000166883166691834)
(-3.62913844308427e-05 0.00372023395943206 5.30217717941614e-05)
(-1.97045340342626e-05 0.00371853234703941 0.000158115685976946)
(-4.44908050178745e-06 0.00370787443121107 0.000269324159112985)
(-4.32830343396935e-05 0.00358486202715104 5.04169091531702e-05)
(-2.90489946612296e-05 0.00358522093348028 0.000150644708108028)
(-1.45388798065769e-05 0.003576474708789 0.000251768864859962)
(-5.46548639296962e-06 0.00355931404082702 0.000361614527695206)
(-4.67725971015242e-05 0.003459205239248 4.74521350992329e-05)
(-3.52420731019847e-05 0.00346113213323848 0.000143227118184742)
(-2.3154395737945e-05 0.00345463815537335 0.000239880259956013)
(-1.3440127557576e-05 0.00343992708695859 0.000337707828632686)
(-5.97463895351778e-06 0.00341678450723165 0.000438657621733635)
(-4.70048262944852e-05 0.00334282315797711 4.44330555633175e-05)
(-3.83151234781145e-05 0.00334575935050062 0.000135305894960866)
(-2.87008233512428e-05 0.00334107589127034 0.000228002414355125)
(-1.96453783003988e-05 0.00332824553334987 0.000319835629498959)
(-1.39503327590176e-05 0.00330877902014037 0.000413301697663811)
(-5.1593217829217e-06 0.00328098725593926 0.000501859699059546)
(-4.45964198814681e-05 0.00323528315879764 4.16497174312126e-05)
(-3.85073436497128e-05 0.00323870250531195 0.000127281423622682)
(-3.13198851828709e-05 0.00323535656189321 0.000215746171023233)
(-2.39637231842815e-05 0.00322474932909403 0.000303995093037998)
(-1.81811022339926e-05 0.00320722478530065 0.000390209541858994)
(-1.18473100393643e-05 0.00318375154445114 0.000475694741247962)
(-3.68503741946619e-06 0.00315286221297261 0.000554304459031483)
(-4.03364656617419e-05 0.00313602328779175 3.91749989789471e-05)
(-3.6405763368855e-05 0.00313950437756414 0.000119729842130905)
(-3.13650245202872e-05 0.00313706303166086 0.000203548669198002)
(-2.5717411717719e-05 0.00312819798985591 0.000287885974129857)
(-2.02760813804085e-05 0.00311312260833334 0.00037002097934215)
(-1.51357745713688e-05 0.0030921785337581 0.000450167095217063)
(-8.65938495562002e-06 0.00306576771810209 0.000526714540817697)
(-2.36978154809666e-06 0.00303298718864249 0.000597780220016647)
(-3.49592466619596e-05 0.00304433820589577 3.6960978614696e-05)
(-3.27142766093767e-05 0.00304759458970796 0.000112885366856926)
(-2.94362141026589e-05 0.00304571665254438 0.000192070818377911)
(-2.53976713255811e-05 0.00303820567934715 0.000272163877816823)
(-2.10003288131973e-05 0.00302519869086151 0.00035037947160125)
(-1.64153024459048e-05 0.0030069236588707 0.000426012429212344)
(-1.14447013508974e-05 0.0029835875188828 0.00049955974338023)
(-5.80304796525122e-06 0.00295526981629959 0.000568169006228936)
(-1.49465690141651e-06 0.00292158600862921 0.000633058698822875)
(-1.21414413990234e-05 0.00419135888246812 6.19779233613185e-05)
(-3.1026121031722e-05 0.00401979729201493 5.91886360423063e-05)
(-8.85542977910693e-06 0.0040157305237879 0.000178269918813177)
(-4.39753250399144e-05 0.00386057134247057 5.66382236890247e-05)
(-2.41432036266277e-05 0.00385928537560268 0.000168983525953076)
(-5.57079498821929e-06 0.00384786976034259 0.000287388683226803)
(-5.24038209451791e-05 0.00371283215966655 5.38043236439599e-05)
(-3.53435098300935e-05 0.00371395016632117 0.000160829805044124)
(-1.78901738345672e-05 0.00370487007289351 0.000268760263609979)
(-6.59920498409649e-06 0.00368648296224154 0.000385815630283163)
(-5.66235948618676e-05 0.00357594956072835 5.05822614595535e-05)
(-4.27841115040532e-05 0.00357887871227962 0.000152720421089692)
(-2.82859246753305e-05 0.00357240254138742 0.000255862603533796)
(-1.64733554949055e-05 0.00355654594142162 0.000359848843746392)
(-6.93765836065919e-06 0.00353170991490709 0.000467722767401213)
(-5.69701715458415e-05 0.00344949150826321 4.72944170105346e-05)
(-4.65133388391871e-05 0.00345354574485921 0.000144056234094322)
(-3.49165822454404e-05 0.00344911176643113 0.000242840680362112)
(-2.35857377147267e-05 0.00343564338817811 0.000340746798781333)
(-1.63548487774618e-05 0.00341456593121648 0.000440047723970837)
(-5.97555199946065e-06 0.00338437123587318 0.000534604693630362)
(-5.41904952113181e-05 0.00333302461955411 4.4253884916852e-05)
(-4.68388629071546e-05 0.00333756548175999 0.000135272092522802)
(-3.81290485396258e-05 0.00333458621172646 0.00022935522140802)
(-2.90507351887003e-05 0.00332349864114359 0.000323252154828499)
(-2.16771166836116e-05 0.00330462217577327 0.000414902686980208)
(-1.39047994465217e-05 0.00327918093353076 0.00050581930116972)
(-4.32643108611802e-06 0.00324543493203447 0.000589603404194279)
(-4.92218513519247e-05 0.0032259520232141 4.15416422914794e-05)
(-4.44586892401e-05 0.00323047415299155 0.00012699198530524)
(-3.83264202972977e-05 0.00322842689500324 0.000215946412354507)
(-3.13774163416372e-05 0.00321922788958378 0.000305487269508168)
(-2.45647938647715e-05 0.00320307503606471 0.000392687004460924)
(-1.80968389970021e-05 0.00318027673619383 0.000477753550076189)
(-1.03030654207858e-05 0.00315147853950965 0.000559105109582981)
(-2.86009935079972e-06 0.00311551676491122 0.000634690746602574)
(-4.29363897066206e-05 0.00312749868705957 3.91076063081421e-05)
(-4.02061453181896e-05 0.00313166089246338 0.000119467893051688)
(-3.62003153676795e-05 0.00313013548334188 0.00020331452904857)
(-3.12213521246493e-05 0.00312235151156778 0.000288154897223282)
(-2.57343489156428e-05 0.00310844821921885 0.000371021048597725)
(-2.00478020719513e-05 0.00308866873920881 0.000451134084270911)
(-1.38839044713872e-05 0.00306299252744359 0.000529081860660216)
(-7.08085004130439e-06 0.00303193491659112 0.00060187547447111)
(-1.87157994379186e-06 0.002994844275811 0.000670708130808993)
(-3.60458620071422e-05 0.00303678538960881 3.68987588113569e-05)
(-3.48319976223115e-05 0.00304039512223197 0.000112676571724878)
(-3.24901833264543e-05 0.00303910284853739 0.00019177031263632)
(-2.91878160030716e-05 0.0030323712809697 0.000271949896147697)
(-2.51724567775222e-05 0.00302029871916566 0.000350447210328522)
(-2.0650745307874e-05 0.00300308103363528 0.00042625994087354)
(-1.56135608250408e-05 0.00298071732637501 0.000499586773829973)
(-1.00783071352259e-05 0.00295308358051081 0.000570303487318407)
(-4.74665840616492e-06 0.00292076281010908 0.000635897551130672)
(-1.31124847072864e-06 0.00288340293294083 0.000698436804333377)
(-1.47229601135862e-05 0.00437591689146224 6.62337058690993e-05)
(-3.75527025605975e-05 0.00418780687918256 6.32672200628915e-05)
(-1.09097781927195e-05 0.00418385312312948 0.000190497367595081)
(-5.31994204615371e-05 0.00401336537097497 6.05253541282612e-05)
(-2.9430282182263e-05 0.00401268011020703 0.000180617656371422)
(-7.27366447940225e-06 0.00400055077781545 0.000306895432602954)
(-6.33411935067357e-05 0.00385169613575118 5.74660252424798e-05)
(-4.28877327363525e-05 0.00385382394397968 0.000171842703572303)
(-2.18723430929219e-05 0.00384461229172444 0.000287171278925161)
(-7.93447333634651e-06 0.00382489513080996 0.000412008680170893)
(-6.84159145117529e-05 0.00370215524106963 5.3975273986178e-05)
(-5.18139926220176e-05 0.00370637611582019 0.000163016138458616)
(-3.44065150660328e-05 0.00370008399869446 0.000273199669898928)
(-2.00975566083924e-05 0.00368322212932321 0.000383888697945666)
(-8.06524596094006e-06 0.00365653870836163 0.000499317539747708)
(-6.88752139568571e-05 0.00356433217916903 5.04053098920817e-05)
(-5.63114415601636e-05 0.00356981320056049 0.000153573255168165)
(-4.23526976675707e-05 0.00356584071626955 0.00025897614069722)
(-2.87690932933866e-05 0.00355185071585439 0.000363575109712295)
(-1.91508535791155e-05 0.00352911079211925 0.000469074677712247)
(-6.92916673894431e-06 0.00349639992932373 0.000570353144795355)
(-6.56219466832761e-05 0.00343779940548899 4.70926064289871e-05)
(-5.67690924287666e-05 0.00344376726388222 0.000143986993651362)
(-4.62464876830146e-05 0.00344138353298415 0.000244207929979432)
(-3.51146596521717e-05 0.00342996770327133 0.000344293675437825)
(-2.579308390833e-05 0.00340974665644785 0.000441913881568927)
(-1.63091605432943e-05 0.00338225848897877 0.000538774096093129)
(-5.07537273415355e-06 0.00334548063209008 0.00062827603039968)
(-5.97733717995628e-05 0.00332192344045792 4.41277774972633e-05)
(-5.40240180807421e-05 0.00332777316412774 0.000134932401945843)
(-4.65956211002278e-05 0.00332634475782929 0.000229510888829647)
(-3.80948162537348e-05 0.00331695990777328 0.000324759742959636)
(-2.96276120937546e-05 0.00329978009751834 0.000417525464026329)
(-2.15661441612281e-05 0.00327511499823736 0.000507996920775993)
(-1.22203947662943e-05 0.00324381182667547 0.000594655052864255)
(-3.43347389299927e-06 0.0032044590699013 0.000675243729144577)
(-5.2367705300766e-05 0.00321584948817939 4.14602886467249e-05)
(-4.90656854010023e-05 0.00322117605551653 0.000126684687898686)
(-4.41999289589257e-05 0.00322021446379303 0.000215648890106868)
(-3.81075336752207e-05 0.00321230745053886 0.000305707238676148)
(-3.1327280933461e-05 0.00319757408177685 0.000393692120531299)
(-2.42754138174429e-05 0.00317623892688372 0.000478755406272812)
(-1.67135802368262e-05 0.00314824482192605 0.000561520947543233)
(-8.55456213125073e-06 0.00311428339855362 0.000639035474372246)
(-2.35046160310657e-06 0.00307354748788533 0.000712161620798791)
(-4.42505209509035e-05 0.00311859279634326 3.90336219334773e-05)
(-4.27861743241815e-05 0.00312316982246853 0.000119221491982362)
(-3.99346822218126e-05 0.00312233417672113 0.000202953494002645)
(-3.58829999350082e-05 0.0031154702470475 0.000287869579881219)
(-3.09157062849327e-05 0.00310266411433236 0.000371029638535752)
(-2.5307122646589e-05 0.00308411124575589 0.000451349238728554)
(-1.91252878169057e-05 0.00305974214124426 0.000529038512331)
(-1.23561744053791e-05 0.00302943142336302 0.000603987066515188)
(-5.87065950499208e-06 0.00299383865633868 0.000673699927897715)
(-1.68174206796721e-06 0.00295276601442878 0.00073998203692019)
(-3.60664966785922e-05 0.00302913331702936 3.68195035527016e-05)
(-3.59018701366314e-05 0.0030328691548892 0.0001124582257456)
(-3.45594233981852e-05 0.00303194911806869 0.000191430993214701)
(-3.21320600348968e-05 0.0030258162504178 0.000271550873640133)
(-2.87824503557938e-05 0.00301453896681075 0.00035006993313329)
(-2.46798887634845e-05 0.0029982795780041 0.000425937090756538)
(-1.99129502412509e-05 0.00297697956288355 0.000499233009123902)
(-1.45670840276095e-05 0.00295050485424316 0.000569879588351533)
(-8.91684576441232e-06 0.00291884506092405 0.000637218035050554)
(-4.40902567954951e-06 0.00288257334867955 0.000700056573381083)
(-1.34176887186059e-06 0.00284181654462656 0.000759657113478928)
(-1.78351933276496e-05 0.0045783286969059 7.07286661503668e-05)
(-4.54057667019495e-05 0.00437164703599646 6.7611028614999e-05)
(-1.3392050925003e-05 0.00436796935065241 0.000203519847359654)
(-6.42840561985209e-05 0.00418008149463871 6.46871275151037e-05)
(-3.57743169105372e-05 0.00418022998369686 0.000193091616577069)
(-9.29512252997995e-06 0.00416762817560925 0.000327803371827709)
(-7.64705942777014e-05 0.00400271086529212 6.14036542222543e-05)
(-5.19498627152327e-05 0.00400615878160535 0.000183685318872638)
(-2.70671317641044e-05 0.00399699282356782 0.000307083758504999)
(-9.49407335708314e-06 0.0039759832856308 0.000440182368260358)
(-8.25523117209963e-05 0.00383888881461524 5.764123135298e-05)
(-6.2643117856733e-05 0.00384476061208044 0.000174145721046749)
(-4.17414012710757e-05 0.00383889704912199 0.000291966667564125)
(-2.43769280156135e-05 0.00382109651190075 0.000409946763874134)
(-9.3928424017868e-06 0.00379247520824708 0.000533593880125819)
(-8.31224502495771e-05 0.00368823952880674 5.37774027769655e-05)
(-6.80429672053972e-05 0.0036955243411201 0.000163893984641671)
(-5.12568622185842e-05 0.00369227840778935 0.000276485732033129)
(-3.49769207259956e-05 0.0036778204776823 0.000388407668262727)
(-2.24147992231465e-05 0.00365349127893092 0.000500594419785707)
(-8.04506644393767e-06 0.00361815116332639 0.000609303953745187)
(-7.92739766659155e-05 0.00355035265052442 5.01781224252066e-05)
(-6.86340777518015e-05 0.00355811840595136 0.000153464218208058)
(-5.59541106366313e-05 0.00355661488140896 0.000260369721167323)
(-4.24655870382151e-05 0.00354505172696369 0.000367226478794924)
(-3.06390883898437e-05 0.00352352390426064 0.000471480440463548)
(-1.91188244147846e-05 0.00349392647272268 0.00057474697492485)
(-5.96030910536744e-06 0.00345393838878555 0.000670582134673409)
(-7.23413920557342e-05 0.00342455744370486 4.69457164029723e-05)
(-6.54219746019343e-05 0.00343208113695862 0.000143589178623501)
(-5.64527285521775e-05 0.003431550348895 0.000244309757489189)
(-4.61045563795286e-05 0.00342217692503189 0.00034580659288039)
(-3.5641003230197e-05 0.00340406006864121 0.000444682261706356)
(-2.56522826703125e-05 0.00337750273989727 0.000541076566252233)
(-1.44578426450228e-05 0.0033435634313529 0.000633602360980206)
(-4.11051572789979e-06 0.00330058896032561 0.000719708051713475)
(-6.35638360115953e-05 0.00330990864266492 4.40296569787008e-05)
(-5.95865348474498e-05 0.00331671053397838 0.000134571763101804)
(-5.37019259673205e-05 0.00331657170257333 0.0002291380552581)
(-4.62864217517996e-05 0.00330873352299411 0.000324917787532869)
(-3.79601638828763e-05 0.00329327792310342 0.000418525989367216)
(-2.92616627825301e-05 0.00327040384034638 0.000509035092398419)
(-2.00314039746063e-05 0.00324003535516641 0.000597092515958677)
(-1.02662799245541e-05 0.00320300185366984 0.000679863944357389)
(-2.91673624541914e-06 0.00315838423021548 0.000757730663253153)
(-5.39477752091265e-05 0.003205298554661 4.13720712209358e-05)
(-5.21899069709617e-05 0.00321111324688687 0.000126393328071516)
(-4.87374707229963e-05 0.00321096668084984 0.00021521572898352)
(-4.38004643517959e-05 0.00320415131487583 0.000305337214843294)
(-3.77083330936296e-05 0.00319072776542111 0.000393629621569656)
(-3.08059495667635e-05 0.00317087468462167 0.000478923134845226)
(-2.32316563158905e-05 0.0031444739515462 0.000561429193930948)
(-1.49991239011786e-05 0.00311140104273408 0.000640971773249307)
(-7.43465032993651e-06 0.00307231848647765 0.000715312456815099)
(-2.11026497500504e-06 0.00302726390461433 0.000785705860428843)
(-4.42562923590225e-05 0.00310957298042838 3.89421386309614e-05)
(-4.40829928473609e-05 0.0031142963469993 0.000118965545292177)
(-4.24638909798335e-05 0.00311389824802279 0.000202551367610403)
(-3.95022170883813e-05 0.00310773974319976 0.000287387745798172)
(-3.53859002377019e-05 0.00309586991799526 0.000370561281462204)
(-3.03254498590854e-05 0.00307844336775861 0.000450944661434688)
(-2.44702983648202e-05 0.00305536310510752 0.000528609710306808)
(-1.79416049870099e-05 0.00302645437464617 0.000603477850496959)
(-1.10179110681468e-05 0.00299178071921972 0.000674788734201898)
(-5.67002220696337e-06 0.00295181274229982 0.00074158282946606)
(-1.76525265759953e-06 0.00290693447501911 0.000804722970434703)
(-3.5039550778714e-05 0.00302160569898644 3.67233986391237e-05)
(-3.59087180522763e-05 0.00302524271672502 0.000112218090768948)
(-3.55936925946884e-05 0.00302447220905697 0.000191058344798955)
(-3.412791766245e-05 0.00301873152702649 0.000271072627703717)
(-3.16120169992387e-05 0.00300806979185592 0.000349515988803664)
(-2.81752512225308e-05 0.00299261995304681 0.000425327898311684)
(-2.3929996511912e-05 0.00297229094700063 0.000498573843231171)
(-1.89818199653071e-05 0.00294692951756195 0.000569216795094042)
(-1.357326794367e-05 0.00291647868182219 0.000636754214017767)
(-8.41120041159949e-06 0.00288113490150044 0.000700483483526901)
(-4.43097451846305e-06 0.00284122085835393 0.000760207816358315)
(-1.40391659320208e-06 0.00279720125933792 0.000816279890742712)
(-2.15899017252881e-05 0.00480069813347845 7.54228265351511e-05)
(-5.48651954553031e-05 0.00457319069876096 7.21986365681049e-05)
(-1.63958912905735e-05 0.00457000101031662 0.000217266804725349)
(-7.76192214351323e-05 0.00436235659898459 6.91164832920928e-05)
(-4.34139905343653e-05 0.00436364592488811 0.000206387975430431)
(-1.17515445973229e-05 0.00435077632684355 0.000350060391286624)
(-9.22459331426203e-05 0.00416727838152041 6.56194030190949e-05)
(-6.28412401470389e-05 0.00417243029180564 0.000196376910983104)
(-3.32780640661314e-05 0.00416347797869668 0.000328504309456347)
(-1.1347098513665e-05 0.00414140886824024 0.000470458810376972)
(-9.95163651352614e-05 0.00398733354425169 6.15863068058621e-05)
(-7.56498240931586e-05 0.00399529885820062 0.000186125625689817)
(-5.06398635023642e-05 0.0039901641853276 0.0003122004354414)
(-2.93974272508796e-05 0.003971533279216 0.000438321089343245)
(-1.10402111414232e-05 0.00394097605379964 0.000570680186505549)
(-0.000100194528671392 0.00382220060704748 5.74211867124095e-05)
(-8.21098210432443e-05 0.00383175156729448 0.000175049894732251)
(-6.19387883423154e-05 0.00382957767277123 0.000295430809786464)
(-4.23725047863005e-05 0.00381483532324892 0.000415328977863944)
(-2.62087540188019e-05 0.00378879213996518 0.000534785759020246)
(-9.3612176950047e-06 0.00375085363659105 0.000651660715643439)
(-9.5605118575652e-05 0.0036715007975912 5.35218208077516e-05)
(-8.28360272419684e-05 0.00368151536744466 0.000163740505142177)
(-6.75819356147513e-05 0.00368124719662581 0.000277908036640058)
(-5.12838252132076e-05 0.00366975600544069 0.000392150627158611)
(-3.63653495453693e-05 0.00364702246085752 0.000503684383913723)
(-2.24021053726635e-05 0.00361524201876913 0.000613942100843978)
(-7.00745810651323e-06 0.00357187745525097 0.000716757896051499)
(-8.73447214826767e-05 0.00353452696709402 5.00070409869668e-05)
(-7.90356559566859e-05 0.00354414364345201 0.00015300035811772)
(-6.82340663477423e-05 0.0035448556177053 0.000260410688451391)
(-5.57012661381765e-05 0.00353574528599346 0.000368731633312898)
(-4.28196476660411e-05 0.00351682477966588 0.000474318303670981)
(-3.04744944399109e-05 0.00348837125183878 0.000577180002391748)
(-1.70629088351297e-05 0.00345166600392437 0.000676289731774402)
(-4.97892312874549e-06 0.00340485016372087 0.000768370403712047)
(-7.68944430231389e-05 0.00341023190253879 4.68280368290544e-05)
(-7.21188301238152e-05 0.00341888380137824 0.000143166462056353)
(-6.50256132626552e-05 0.00341988611670199 0.000243848640628457)
(-5.60369311919799e-05 0.00341236232828126 0.000345887139241218)
(-4.58604876505707e-05 0.00339633922003728 0.000445662399198378)
(-3.51790693947149e-05 0.00337197525888695 0.000542149730235938)
(-2.39377897580247e-05 0.00333917788690391 0.000636008688949106)
(-1.22504136386848e-05 0.00329877393517826 0.000724616417570819)
(-3.5737985707819e-06 0.00325012416665957 0.000807751608191796)
(-6.54553036765192e-05 0.00329736557829787 4.39243778284997e-05)
(-6.33533100928752e-05 0.00330474255290728 0.00013422710783074)
(-5.9190917619678e-05 0.0033055684085375 0.000228619431830142)
(-5.32045039071908e-05 0.00329902838079321 0.000324446275680451)
(-4.57745140891719e-05 0.00328514345831352 0.000418375034947732)
(-3.73244931427382e-05 0.00326406255376436 0.000509141591204935)
(-2.80801992870031e-05 0.00323561897370181 0.00059694933461414)
(-1.80957266263161e-05 0.00319967668308459 0.000681529888800191)
(-9.30333855346002e-06 0.00315694163651016 0.00076100852080873)
(-2.64878887888456e-06 0.00310751732635954 0.000835946390053545)
(-5.39327884612219e-05 0.00319461630760565 4.12653947438976e-05)
(-5.37518462923328e-05 0.00320060091422722 0.000126092069562895)
(-5.18078068681876e-05 0.00320096968268064 0.000214738185228946)
(-4.82157326993546e-05 0.00319498847174503 0.000304756107887207)
(-4.31938823855516e-05 0.00318267574156992 0.00039305165079044)
(-3.69998496401775e-05 0.00316416657917037 0.000478415297774722)
(-2.9842657238089e-05 0.00313931852763948 0.000560907066947245)
(-2.1906604089559e-05 0.00310791921722699 0.000640420397752758)
(-1.37407607248489e-05 0.00307010443179111 0.000716123343582513)
(-7.11312678181011e-06 0.00302619977293508 0.000787227371535939)
(-2.25539701171799e-06 0.0029768787451235 0.000854331322235074)
(-4.29737832205642e-05 0.00310070288480197 3.88336738845081e-05)
(-4.40754154758907e-05 0.00310530749626169 0.000118687728343483)
(-4.3724045640347e-05 0.00310508421551724 0.000202114548933479)
(-4.19540801006141e-05 0.0030993874797424 0.000286821203719384)
(-3.88821622546625e-05 0.00308824295058455 0.000369901434569677)
(-3.46660608153508e-05 0.00307177043481578 0.000450223408022317)
(-2.9459688483386e-05 0.0030498437363437 0.000527843361159702)
(-2.34147380068143e-05 0.00302226855017487 0.000602713809199677)
(-1.68263051127666e-05 0.00298898376802745 0.000674283965058528)
(-1.06490308905122e-05 0.00295018300035143 0.0007417883815233)
(-5.69382082227594e-06 0.00290625430467415 0.000805153431223084)
(-1.78424794095126e-06 0.00285776928938295 0.000864519079863319)
(-3.30199875543832e-05 0.00301442565940947 3.66225762808277e-05)
(-3.4870936988478e-05 0.00301774078164902 0.00011195884079915)
(-3.55727408193533e-05 0.00301689506948093 0.00019065411326416)
(-3.51128512763932e-05 0.00301132812192056 0.000270543077554469)
(-3.35329715964684e-05 0.00300107880463103 0.000348877721148043)
(-3.09176338923847e-05 0.00298625926138407 0.00042459045203446)
(-2.73703444654627e-05 0.00296674887508382 0.000497750356320086)
(-2.3005457370402e-05 0.00294237350042635 0.00056835768696208)