/*--------------------------------*- C++ -*----------------------------------*\
  =========                 |
  \\      /  F ield         | OpenFOAM: The Open Source CFD Toolbox
   \\    /   O peration     | Website:  https://openfoam.org
    \\  /    A nd           | Version:  12
     \\/     M anipulation  |
\*---------------------------------------------------------------------------*/
/*   Windows 32 and 64 bit porting by blueCAPE: http://www.bluecape.com.pt   *\
|  Based on Windows porting (2.0.x v4) by Symscape: http://www.symscape.com   |
\*---------------------------------------------------------------------------*/
FoamFile
{
    format      ascii;
    class       volScalarField;
    location    "800";
    object      k;
}
// * * * * * * * * * * * * * * * * * * * * * * * * * * * * * * * * * * * * * //

dimensions      [0 2 -2 0 0 0 0];

internalField   nonuniform List<scalar> 
10142
(
1.51276534339735e-06
1.40364610412125e-06
1.85706685063355e-05
1.58583482561984e-06
1.31394711817682e-06
1.77397619466563e-05
1.4692134779387e-06
3.57137062606232e-05
1.88054479766206e-05
1.69062250627529e-06
1.20902788425432e-06
1.68888095952944e-05
1.36767704824167e-06
3.43260033400874e-05
1.79626068446347e-05
1.56533461195581e-06
4.76616075905267e-05
3.57837128325199e-05
1.91179373454157e-05
1.74972185026724e-06
1.08022960994692e-06
1.59705930133713e-05
1.25102092791501e-06
3.28761937928945e-05
1.70923422942541e-05
1.45411702637185e-06
4.58416782112345e-05
3.43929096102376e-05
1.82612193037617e-05
1.61834210138725e-06
5.69712528095987e-05
4.76317262953458e-05
3.57695344580242e-05
1.92092773068216e-05
1.72386319909384e-06
9.4047031523258e-07
1.4966561927207e-05
1.11249364911196e-06
3.13574049327944e-05
1.61563575452745e-05
1.32682413561453e-06
4.39573732530718e-05
3.2937892266065e-05
1.73713295034688e-05
1.50090616021755e-06
5.47954478548767e-05
4.5813044099434e-05
3.43779336343644e-05
1.83452494544443e-05
1.59212498046515e-06
6.47036971001083e-05
5.68689873391907e-05
4.73970032586574e-05
3.54970059019044e-05
1.89045880202605e-05
1.63297344084675e-06
8.11524141075185e-07
1.38355515807892e-05
9.74215766151287e-07
2.97663817940774e-05
1.51359068869687e-05
1.17762004558894e-06
4.20170981208383e-05
3.14134967977855e-05
1.64145930603795e-05
1.36841796006914e-06
5.25614292929146e-05
4.39283231614583e-05
3.29189596412514e-05
1.7445040079195e-05
1.47384426373404e-06
6.22161742149477e-05
5.46968300426908e-05
4.5585446785864e-05
3.41109697191486e-05
1.80430285990981e-05
1.50520139370537e-06
7.1305203005298e-05
6.45386147833482e-05
5.64796051631067e-05
4.68435594863474e-05
3.48427593806618e-05
1.82468227132566e-05
1.51194635159993e-06
6.79798572618059e-07
1.249880651856e-05
8.40127687202528e-07
2.80891394414124e-05
1.39700786177758e-05
1.02909484884841e-06
4.00269763893861e-05
2.9816106300068e-05
1.53739128376646e-05
1.21511867959926e-06
5.02850189126192e-05
4.19865151662133e-05
3.13893080029089e-05
1.64784409712383e-05
1.34259178271262e-06
5.96785409059352e-05
5.24646045200918e-05
4.37054335599284e-05
3.26553278076743e-05
1.71460553773309e-05
1.39055496000346e-06
6.85315983602615e-05
6.20570583691961e-05
5.43192843788563e-05
4.50467245215315e-05
3.34709275429242e-05
1.73982670463241e-05
1.39032241226988e-06
7.6999439491438e-05
7.10941991473524e-05
6.40258149644125e-05
5.57153117944541e-05
4.59012706587218e-05
3.3816153517208e-05
1.73612738177901e-05
1.37875838857857e-06
5.46754503769445e-07
1.10378409042193e-05
7.02613197296712e-07
2.62928865227691e-05
1.26111999388821e-05
8.86441792525611e-07
3.7988880513178e-05
2.81301988506606e-05
1.41911386328727e-05
1.05657578073861e-06
4.79802278105218e-05
3.99935705796672e-05
2.97857205798194e-05
1.54303391892576e-05
1.19436517722106e-06
5.71115852195316e-05
5.01886372776803e-05
4.17663861588156e-05
3.11281951790156e-05
1.61846705640782e-05
1.26592974597866e-06
6.57161272685853e-05
5.95233158623493e-05
5.20966307713315e-05
4.31792382224512e-05
3.20286461724657e-05
1.65140812585071e-05
1.28226397272742e-06
7.39578141243139e-05
6.8328742217542e-05
6.15601209535832e-05
5.35760574436975e-05
4.41277176316735e-05
3.24668081370956e-05
1.65311100125777e-05
1.26393331138786e-06
8.19073824161513e-05
7.67613114179162e-05
7.04886171579346e-05
6.30964141682507e-05
5.45409021534639e-05
4.45829362964935e-05
3.24902914469355e-05
1.63284882991592e-05
1.23670572663395e-06
4.2115298175229e-07
9.47824862996548e-06
5.63685863047593e-07
2.42876720075829e-05
1.1160679431897e-05
7.40796556149365e-07
3.58970836053644e-05
2.6325035636193e-05
1.281619603855e-05
9.09601065868539e-07
4.56598956253542e-05
3.79511376491629e-05
2.80923398810762e-05
1.42608925435224e-05
1.03252189666699e-06
5.45358356894108e-05
4.78828260511035e-05
3.97741430762663e-05
2.9526627058284e-05
1.514628826978e-05
1.12597183637489e-06
6.28842024156097e-05
5.69587552908364e-05
4.98280098496628e-05
4.12506877865976e-05
3.05144938212753e-05
1.55695274596793e-05
1.16530404135698e-06
7.08793410475258e-05
6.5519104806096e-05
5.90399395984082e-05
5.13721315147398e-05
4.22818725991751e-05
3.10466319150236e-05
1.56676726581662e-05
1.16278389399314e-06
7.86217452682901e-05
7.37296627086911e-05
6.77428092405783e-05
6.06570893592015e-05
5.2432138464979e-05
4.28410339488546e-05
3.11700970609521e-05
1.55205844245873e-05
1.12913727861945e-06
8.16552833174733e-05
7.60924332165713e-05
6.94350914679243e-05
6.17375025326741e-05
5.2981780066885e-05
4.29374700602384e-05
3.09203918285383e-05
1.51713752189085e-05
1.08558681817675e-06
3.13241362552385e-07
7.83127044403725e-06
4.36212718247277e-07
2.20922258333557e-05
9.59670233320292e-06
5.93842201977683e-07
3.37265588317385e-05
2.43081287350252e-05
1.1356981444073e-05
7.60448013297639e-07
4.33340156473312e-05
3.58531079238736e-05
2.62797273790963e-05
1.29006336532498e-05
8.86672878831409e-07
5.1972471785363e-05
4.55597994626199e-05
3.77303410251173e-05
2.78368593595616e-05
1.40134896055011e-05
9.7306051169457e-07
6.00622845109041e-05
5.43837544338893e-05
4.75269860946444e-05
3.92668224556612e-05
2.89260181267714e-05
1.4550909951778e-05
1.03413118660044e-06
6.77973429579877e-05
6.26913830636308e-05
5.64865014033455e-05
4.91195196027626e-05
4.03730907544569e-05
2.95546293320616e-05
1.47456314673705e-05
1.05375029063566e-06
7.52857615190552e-05
7.065867544619e-05
6.49503780944883e-05
5.81607016551273e-05
5.02563558354914e-05
4.10254721763699e-05
2.97792145237108e-05
1.4681497995101e-05
1.03487353781278e-06
8.26048581773833e-05
7.83812823062804e-05
7.30838718985758e-05
6.67204915258593e-05
5.93347952309228e-05
5.09125414822702e-05
4.12351635716819e-05
2.96355261759765e-05
1.43897130022122e-05
9.86219701194127e-07
8.09443133973135e-05
7.49502172564842e-05
6.7934996178378e-05
5.99841946235889e-05
5.10790708463288e-05
4.10001980541807e-05
2.91275784334749e-05
1.38889361895584e-05
9.27585050924662e-07
2.24226842883724e-07
6.17862575201017e-06
3.25596115303241e-07
1.96597680648524e-05
7.93504378334007e-06
4.60459313507928e-07
3.14332569825037e-05
2.21044051760348e-05
9.78714984523743e-06
6.09920443516003e-07
4.10045775634126e-05
3.36687895639532e-05
2.42583795096432e-05
1.14417591483082e-05
7.39603695003787e-07
4.94421336325208e-05
4.32293117996177e-05
3.5628280349732e-05
2.60307193848076e-05
1.26921128231925e-05
8.28043502770415e-07
5.72784215355038e-05
5.18191853501642e-05
4.52057701999001e-05
3.72292968480663e-05
2.72534657537175e-05
1.34462168652529e-05
8.91081488731582e-07
6.47445545896202e-05
5.98718178278912e-05
5.39196228090081e-05
4.68312086094024e-05
3.84070306992637e-05
2.79890328657798e-05
1.37529742358806e-05
9.31768899089186e-07
7.19620875339313e-05
6.75823916211508e-05
6.21371892365084e-05
5.56277612468039e-05
4.80288699193516e-05
3.91453821773546e-05
2.83167351311232e-05
1.37868083534136e-05
9.34374466589249e-07
7.89960908235409e-05
7.50542570358677e-05
7.0033425870793e-05
6.39563734905936e-05
5.68720428890099e-05
4.87739177412201e-05
3.94580408561871e-05
2.82804720910885e-05
1.35789820395004e-05
8.99574215320176e-07
8.58412626486682e-05
8.23573115054331e-05
7.76967150770918e-05
7.19772737652608e-05
6.52624886496478e-05
5.76277758461459e-05
4.90582557490633e-05
3.93455469725614e-05
2.78845975939757e-05
1.31379029496784e-05
8.37285524401287e-07
7.9739303999545e-05
7.33455540732749e-05
6.60297541694297e-05
5.78750062732821e-05
4.88576435478144e-05
3.87847119263968e-05
2.71130832411467e-05
1.24772910712012e-05
7.6598920814069e-07
1.54178378221718e-07
4.62288168122849e-06
2.33750422723422e-07
1.69656454034708e-05
6.2791020817207e-06
3.43898447969277e-07
2.90093868858229e-05
1.96658763679378e-05
8.11821399309553e-06
4.72859874100902e-07
3.86535773739366e-05
3.13724917876373e-05
2.20590687629982e-05
9.88124328933687e-06
5.93097185241233e-07
4.69624801983087e-05
4.08928310648017e-05
3.34367633187871e-05
2.40276222165374e-05
1.12515908475845e-05
6.87653094448083e-07
5.45614622198805e-05
4.92853442704488e-05
4.28734956798156e-05
3.51324317531308e-05
2.54700409259171e-05
1.21842974676456e-05
7.51987151701814e-07
6.17547523576365e-05
5.70880315261025e-05
5.13593977942039e-05
4.45187654489872e-05
3.63858856068671e-05
2.63426135698244e-05
1.26790343769325e-05
8.00136878686126e-07
6.86892456596325e-05
6.45332537428125e-05
5.9328699472441e-05
5.30770810447952e-05
4.57619247017812e-05
3.72062890925057e-05
2.67818374771114e-05
1.28234574863036e-05
8.22542314244779e-07
7.54370049388562e-05
7.17376925503859e-05
6.69747604401437e-05
6.11676336593985e-05
5.43686807183859e-05
4.65804283440106e-05
3.76149871881026e-05
2.68544671426915e-05
1.27145664276177e-05
8.08310486207431e-07
8.20110169712738e-05
7.87610846147397e-05
7.43934768762615e-05
6.89593069381416e-05
6.25368517233846e-05
5.52079925113151e-05
4.69657187772808e-05
3.76151665485369e-05
2.6572312046226e-05
1.23586232247378e-05
7.58928977961173e-07
8.8372565170749e-05
8.55936201428172e-05
8.16452146318449e-05
7.65314461393205e-05
7.04196327172443e-05
6.3409486352533e-05
5.55744671944679e-05
4.68944794328081e-05
3.71862530738399e-05
2.59190593254526e-05
1.1760247822705e-05
6.85085860772656e-07
7.80584744769304e-05
7.13246466688507e-05
6.37575486651229e-05
5.54294186653303e-05
4.63252397617213e-05
3.62911968329116e-05
2.48692927633813e-05
1.09343425424498e-05
6.03136231167747e-07
1.02966505388677e-07
3.26193662754034e-06
1.61042191367079e-07
1.40548156667255e-05
4.71931789588168e-06
2.46338695571415e-07
2.6400256417644e-05
1.69736819249413e-05
6.45438734143159e-06
3.52903636022901e-07
3.62836156207575e-05
2.89420745869143e-05
1.96374812056817e-05
8.21966758312733e-06
4.59745381104626e-07
4.45410881100317e-05
3.85325389088675e-05
3.11370859026533e-05
2.18564100176203e-05
9.72247423767045e-06
5.51120288403855e-07
5.19399579236893e-05
4.6799166362464e-05
4.05311277148843e-05
3.29501410857756e-05
2.35076198479018e-05
1.07898130541054e-05
6.22399473458162e-07
5.88632485665331e-05
5.4368362746956e-05
4.88251826294942e-05
4.21908955644189e-05
3.43058545939263e-05
2.45952177762461e-05
1.14831552248858e-05
6.68700000078729e-07
6.55044716014417e-05
6.15444859097937e-05
5.65514188714562e-05
5.05275311133523e-05
4.34664101483741e-05
3.52110006104168e-05
2.51694063724379e-05
1.1789117706766e-05
7.0288810445504e-07
7.19552242200408e-05
6.84696844248771e-05
6.39393258909783e-05
5.83783535574561e-05
5.18422114461967e-05
4.43435106786122e-05
3.57114584090371e-05
2.53573912014258e-05
1.1789373379903e-05
7.07362584242885e-07
7.82418481510524e-05
7.52110365157553e-05
7.10975435955568e-05
6.59287024883181e-05
5.97815507261784e-05
5.27430250882164e-05
4.48151555762501e-05
3.58176563747511e-05
2.5189977141143e-05
1.15348614951856e-05
6.76860303586322e-07
8.43397845504144e-05
8.17784498788935e-05
7.80777527302041e-05
7.32648475757598e-05
6.74445555664776e-05
6.07318537745278e-05
5.3207080764326e-05
4.485740595989e-05
3.55114682929976e-05
2.4657022576399e-05
1.10227560644424e-05
6.14978140372232e-07
9.01819151112581e-05
8.81304811633085e-05
8.48646690331359e-05
8.04377693348782e-05
7.49019420089337e-05
6.84561901390551e-05
6.1199580328104e-05
5.3194746783702e-05
4.44294818120672e-05
3.47579708162823e-05
2.3731547663939e-05
1.02596609920595e-05
5.33002315299985e-07
7.59521881272522e-05
6.89265936300689e-05
6.11353609616798e-05
5.26513677281726e-05
4.34800220024421e-05
3.35121945101361e-05
2.23839362675008e-05
9.26168309690853e-06
4.45820185951812e-07
6.6891599915746e-08
2.17423926898403e-06
1.07153358886429e-07
1.10618271434867e-05
3.33464979525009e-06
1.68774674886957e-07
2.35355821237234e-05
1.407750408812e-05
4.87776613671404e-06
2.52360481099979e-07
3.38666852527753e-05
2.63286662718263e-05
1.69770903213506e-05
6.56207220293699e-06
3.42909250323212e-07
4.21831511912664e-05
3.61526203135163e-05
2.87066375262257e-05
1.94802849750715e-05
8.10114225501591e-06
4.27212928919883e-07
4.94390895527047e-05
4.43649028724839e-05
3.81605567534238e-05
3.06585990095879e-05
2.13866282698412e-05
9.31636583506154e-06
4.98309419482766e-07
5.61068815272073e-05
5.17407687269629e-05
4.63326629294227e-05
3.98487153443984e-05
3.21492535777307e-05
2.2695814089707e-05
1.01503333075912e-05
5.50612679336768e-07
6.24474613589317e-05
5.8650713930569e-05
5.38323264419251e-05
4.79971127162317e-05
4.11507847219412e-05
3.31577460868619e-05
2.3466124227915e-05
1.06588714852681e-05
5.81330340049577e-07
6.8586643640494e-05
6.52867819963734e-05
6.09589182041574e-05
5.56132977305547e-05
4.93100094528421e-05
4.20733972869131e-05
3.37508348528445e-05
2.3786130320559e-05
1.07984302390105e-05
6.00332486325817e-07
7.45697152144482e-05
7.17355787539216e-05
6.78458374854215e-05
6.29151994690515e-05
5.70188726241355e-05
5.02489496019351e-05
4.2617224984782e-05
3.39584429687169e-05
2.37381814942976e-05
1.06521999404246e-05
5.87615083451917e-07
8.03849567009061e-05
7.80207136274248e-05
7.45520608462687e-05
7.00005321863434e-05
6.44508600402103e-05
5.8018667443718e-05
5.0789737627331e-05
4.27593080242246e-05
3.37686226508335e-05
2.33263175527371e-05
1.02426954698107e-05
5.4317320201471e-07
8.59773290457905e-05
8.41164206213717e-05
8.10825048204631e-05
7.69123259432539e-05
7.1682521047876e-05
6.553356903283e-05
5.85796646158985e-05
5.08898049070164e-05
4.24579295958259e-05
3.31482488705026e-05
2.25279033505412e-05
9.56682503675775e-06
4.72574111541753e-07
9.1248864501522e-05
8.99537005972426e-05
8.73932731984288e-05
8.36305179592836e-05
7.87570695729337e-05
7.28573490218207e-05
6.61259378830176e-05
5.86501775840977e-05
5.04931076599104e-05
4.16619406724647e-05
3.20536830027746e-05
2.13101654419459e-05
8.63175405187275e-06
3.89445617619921e-07
7.34605874219644e-05
6.61673104823467e-05
5.81647078172242e-05
4.95370035820497e-05
4.03143922346454e-05
3.04346326328772e-05
1.9640949499799e-05
7.46491919743095e-06
3.03043692077986e-07
4.49363211153887e-08
1.38894573028797e-06
7.02515400170976e-08
8.21966193617535e-06
2.214495871042e-06
1.11555072371191e-07
2.03489955743223e-05
1.11049683313473e-05
3.45918391714091e-06
1.72870131599134e-07
3.13449051254834e-05
2.34675550867414e-05
1.41263102715304e-05
4.98801269013252e-06
2.45139124323809e-07
3.98949199934133e-05
3.37265796406192e-05
2.61025602628383e-05
1.68860881928681e-05
6.48258249026497e-06
3.18646206108231e-07
4.70736825643995e-05
4.19980884155984e-05
3.5768385143929e-05
2.82470335474037e-05
1.90798569516087e-05
7.76330779171199e-06
3.86165983329405e-07
5.35232363253275e-05
4.92295868344073e-05
4.38842817965321e-05
3.74744644092008e-05
2.98806698514695e-05
2.06342165353274e-05
8.74568667115282e-06
4.40375536988271e-07
5.95610905067652e-05
5.58880250219739e-05
5.1197715476018e-05
4.55000463684428e-05
3.88169202632602e-05
3.10340987879242e-05
2.1638066641466e-05
9.3921894991122e-06
4.75027693025402e-07
6.53728302383904e-05
6.22277842462677e-05
5.80663514657612e-05
5.28973390049719e-05
4.67885133347125e-05
3.97783292058387e-05
3.17332160932296e-05
2.2132379870498e-05
9.73278530592828e-06
4.9221061350011e-07
7.10329923223715e-05
6.83700189172335e-05
6.46731867341924e-05
5.99483859788721e-05
5.42714193564395e-05
4.77415730710467e-05
4.03815514036859e-05
3.20414096594838e-05
2.2214854025439e-05
9.70714936619001e-06
4.94072788487047e-07
7.65472247232214e-05
7.43572520079876e-05
7.10960540263589e-05
6.67734890038771e-05
6.14660600425314e-05
5.52902537481976e-05
4.8337115984771e-05
4.06101401821156e-05
3.19631114832538e-05
2.192732435209e-05
9.40647237714873e-06
4.66300813624336e-07
8.18728319847633e-05
8.01770273558778e-05
7.73535123361296e-05
7.34223450351205e-05
6.84583955307769e-05
6.25851856391773e-05
5.59179206334149e-05
4.85302367919132e-05
4.04226970682563e-05
3.14699073575814e-05
2.12567866682768e-05
8.83424450869834e-06
4.13168783529708e-07
8.69282083286662e-05
8.57746118935018e-05
8.3417945859115e-05
7.9894835212896e-05
7.52837458073536e-05
6.96944515578962e-05
6.32655605533121e-05
5.60984398572453e-05
4.82614330166056e-05
3.97666548116475e-05
3.05190880394177e-05
2.01730623948644e-05
7.98737452391325e-06
3.40929776672212e-07
9.15813226477978e-05
9.1049783680563e-05
8.92195685628567e-05
8.61455591889499e-05
8.19187854096798e-05
7.66554023704098e-05
7.04377122808816e-05
6.3445227642514e-05
5.57633642393445e-05
4.74662395283594e-05
3.85847240055448e-05
2.90608233985009e-05
1.86387303041189e-05
6.87481566410235e-06
2.61300990621836e-07
7.05986822552246e-05
6.30464968378969e-05
5.48398255393931e-05
4.60778602419609e-05
3.6815437597204e-05
2.70398255851147e-05
1.66216552395537e-05
5.55881195559342e-06
1.82321647929262e-07
3.120014901832e-08
8.82452764308314e-07
4.7983249583859e-08
5.80485642908346e-06
1.41115986395571e-06
7.35275936497727e-08
1.68513145860057e-05
8.28351124232211e-06
2.30168987530925e-06
1.14473015319783e-07
2.86098978351587e-05
2.02999104758981e-05
1.12033813300786e-05
3.57021524989599e-06
1.68080393893603e-07
3.76542178732135e-05
3.11992720852067e-05
2.3271044620314e-05
1.4119521561008e-05
4.95218696484333e-06
2.27827259968447e-07
4.48748565616291e-05
3.96980392116818e-05
3.33307232055833e-05
2.56797364133914e-05
1.65807820617871e-05
6.21826594936426e-06
2.87751283080062e-07
5.11472612414849e-05
4.68507602233964e-05
4.14981362966749e-05
3.50767805407438e-05
2.75062407714056e-05
1.8410806660885e-05
7.2793989668845e-06
3.40792027529749e-07
5.68924749836055e-05
5.32931590786573e-05
4.86697110575991e-05
4.30380317877509e-05
3.64484420094411e-05
2.88048836998393e-05
1.96440661452349e-05
8.06079325578048e-06
3.78790088763698e-07
6.23600206897415e-05
5.93344849488495e-05
5.52955666399993e-05
5.02543785346727e-05
4.42907192406849e-05
3.74608993043779e-05
2.96502279931997e-05
2.0375464988263e-05
8.54189349665287e-06
3.97992886405375e-07
6.76746633604856e-05
6.51547965042411e-05
6.16161157114148e-05
5.70583167567715e-05
5.15615406592982e-05
4.5235748595842e-05
3.81161883879307e-05
3.00681632140108e-05
2.06145537041101e-05
8.69455948520876e-06
4.0278612785188e-07
7.2866731570516e-05
7.08257991122208e-05
6.77433362062322e-05
6.36159779966404e-05
5.8517031303706e-05
5.25669345768563e-05
4.58635433631871e-05
3.8419008404936e-05
3.00991404597595e-05
2.04581917434529e-05
8.50904730920862e-06
3.8952872464878e-07
7.79103769054434e-05
7.63526435859482e-05
7.37139953966772e-05
6.99942095227081e-05
6.52620298936661e-05
5.96361271081962e-05
5.32327491967947e-05
4.61294410033102e-05
3.8333119659317e-05
2.97281941696589e-05
1.99180849971086e-05
8.04816851530546e-06
3.51886674242122e-07
8.27407161148244e-05
8.16937640793142e-05
7.95137152449692e-05
7.62059947644385e-05
7.18372820849718e-05
6.65183797374514e-05
6.03717225968108e-05
5.34986352158633e-05
4.59708400714796e-05
3.78055492958334e-05
2.89157081256294e-05
1.89697830742729e-05
7.30536771381813e-06
2.94790143975371e-07
8.72575335763481e-05
8.67696280580686e-05
8.50890130459387e-05
8.22222902446883e-05
7.82386229285632e-05
7.32427843016981e-05
6.73409762741684e-05
6.06577893768016e-05
5.32911221046941e-05
4.53193886453731e-05
3.67771017198993e-05
2.76120948514061e-05
1.75766949535063e-05
6.2803830845715e-06
2.2556388028677e-07
9.12920691819251e-05
9.14476423062422e-05
9.03388582975285e-05
8.79734910393065e-05
8.4420168220487e-05
7.97840139400101e-05
7.41731958675563e-05
6.7658620799537e-05
6.04143681543635e-05
5.2533905056497e-05
4.41060636992315e-05
3.51854868110025e-05
2.5761430831617e-05
1.56982156579676e-05
5.03344065859459e-06
1.55606769712113e-07
6.73641992252151e-05
5.955630929756e-05
5.1150388448192e-05
4.22599493850417e-05
3.29632765900685e-05
2.33027015460466e-05
1.3311519107967e-05
3.64998438951691e-06
9.10220030979769e-08
2.46078374510577e-08
5.73692151198831e-07
3.54825278571711e-08
3.9930248942703e-06
8.99013870249224e-07
5.18041784255807e-08
1.32564429203826e-05
5.88802894353627e-06
1.47106463446627e-06
7.65923659044071e-08
2.55082941608435e-05
1.68463543012036e-05
8.42411387298098e-06
2.39986146425417e-06
1.1216062076446e-07
3.53869171600761e-05
2.84666924309308e-05
2.0169022607905e-05
1.12958517863703e-05
3.57553378307634e-06
1.56712033200585e-07
4.28594425905317e-05
3.74454465885235e-05
3.07997557791859e-05
2.29171633788365e-05
1.39318178716838e-05
4.76094635410161e-06
2.05928762276681e-07
4.90240824516761e-05
4.46374626412853e-05
3.91742113547196e-05
3.26366274382231e-05
2.49978682199408e-05
1.60266875373858e-05
5.82397772796817e-06
2.53796808033683e-07
5.44955178606646e-05
5.08988620852591e-05
4.62652209130902e-05
4.06284186147333e-05
3.40544156789742e-05
2.64803758880666e-05
1.75121429090914e-05
6.68800635841069e-06
2.92061830639876e-07
5.96006929854542e-05
5.66528810271245e-05
5.26809063795289e-05
4.77047546174121e-05
4.18196614177225e-05
3.51077207583447e-05
2.74707076815534e-05
1.84549623118134e-05
7.27639410717945e-06
3.14870893032932e-07
6.45417896315856e-05
6.21345902684013e-05
5.87135907396001e-05
5.42755994414097e-05
4.89103690289862e-05
4.27434480058635e-05
3.58246643945354e-05
2.80335498330352e-05
1.89195580715933e-05
7.56827687646986e-06
3.21226883140973e-07
6.9387295849318e-05
6.7467921792887e-05
6.45316448065601e-05
6.05612024054451e-05
5.56305365816782e-05
4.9868476761211e-05
4.33824226698131e-05
3.61938238969731e-05
2.81792306235231e-05
1.89144146531476e-05
7.53832707831508e-06
3.15185160769673e-07
7.41347136136008e-05
7.26828013084276e-05
7.01999342055394e-05
6.66589176845131e-05
6.21225856913977e-05
5.67104216785386e-05
5.05423110235573e-05
4.3700444948654e-05
3.61978556721052e-05
2.79273305301256e-05
1.85089593942398e-05
7.19483597403416e-06
2.91164037308481e-07
7.87454344844633e-05
7.77557795514125e-05
7.57213755467732e-05
7.25986493171604e-05
6.84418171731038e-05
6.33588274986111e-05
5.7467115933091e-05
5.08673935436213e-05
4.36336045856901e-05
3.57874004991624e-05
2.72486038824902e-05
1.76989653793977e-05
6.56999381602407e-06
2.48558031644992e-07
8.31631089693681e-05
8.263070466761e-05
8.10562075156838e-05
7.83641194743154e-05
7.45960311905715e-05
6.98465405698625e-05
6.42218295171197e-05
5.7829145592855e-05
5.0764964986871e-05
4.31099359635467e-05
3.49021812695488e-05
2.60949587625921e-05
1.64501504346275e-05
5.66580167420347e-06
1.93215965818193e-07
8.72686576802013e-05
8.72166888651885e-05
8.61306368788165e-05
8.39037118382601e-05
8.0555502810064e-05
7.61664212756299e-05
7.08303761788687e-05
6.46387479022169e-05
5.77115168339766e-05
5.01532406520226e-05
4.20562363605279e-05
3.34776583892761e-05
2.44103344662693e-05
1.47205706257515e-05
4.52249364192495e-06
1.32506664508889e-07
9.0746960982602e-05
9.13543255073018e-05
9.08124139184579e-05
8.91163449021241e-05
8.62517141664414e-05
8.22729851073166e-05
7.72661482009326e-05
7.13246467169896e-05
6.4518489786318e-05
5.70260021448016e-05
4.89518639550648e-05
4.03991745573185e-05
3.14452257129696e-05
2.21316203469806e-05
1.24731314832544e-05
3.23996916864088e-06
7.76643785989981e-08
6.37466380120601e-05
5.56834724361912e-05
4.70798032390662e-05
3.80606031605258e-05
2.87271959963361e-05
1.91937314440811e-05
9.72364538329867e-06
1.94932098424232e-06
3.35402616229761e-08
1.60442921419561e-08
3.78949252578528e-07
2.87499776228895e-08
2.73881510579427e-06
6.08527553870751e-07
4.02963470336564e-08
9.97936996087526e-06
4.08752769641887e-06
9.61503576949855e-07
5.57243768777757e-08
2.19308044234445e-05
1.33302343853522e-05
6.05665797931698e-06
1.55995857397193e-06
7.71926179658048e-08
3.29341650160037e-05
2.53737673427786e-05
1.6828709780222e-05
8.60667462310073e-06
2.43051530011944e-06
1.06271182947283e-07
4.10218228556006e-05
3.51503651597611e-05
2.80864000356606e-05
1.99355593029504e-05
1.12427156180686e-05
3.46039092587166e-06
1.42602516065392e-07
4.72251514757806e-05
4.26072785387448e-05
3.68942792343973e-05
3.0118309996829e-05
2.23302782114447e-05
1.35214540491987e-05
4.45781418748236e-06
1.82234772436005e-07
5.24361912922473e-05
4.87585807473584e-05
4.40167344553628e-05
3.82725730694936e-05
3.16220635511672e-05
2.40432200230747e-05
1.52508282150653e-05
5.33763306263832e-06
2.17615816205501e-07
5.71598567332342e-05
5.42354922188917e-05
5.02527003967411e-05
4.52611969313226e-05
3.93850082415007e-05
3.27261105710363e-05
2.5204381574576e-05
1.64180283614207e-05
5.99667032559041e-06
2.41738918548241e-07
6.16869154606427e-05
5.93600479635618e-05
5.60082878503768e-05
5.16307487249851e-05
4.63356703810162e-05
4.02696495598848e-05
3.34983640983516e-05
2.5911954064474e-05
1.70783617148616e-05
6.3803543247424e-06
2.51600996825468e-07
6.61549105381092e-05
6.43285013524736e-05
6.15020033535751e-05
5.76439220938924e-05
5.28332240820059e-05
4.72132354625504e-05
4.09047610014744e-05
3.39391302237437e-05
2.62005433915357e-05
1.72815144388799e-05
6.49059622713005e-06
2.47581523007072e-07
7.05940796844294e-05
6.92096530163448e-05
6.68497877645065e-05
6.34504949010383e-05
5.90694003616876e-05
5.38314841124404e-05
4.7864003323452e-05
4.12554353034397e-05
3.40246519100155e-05
2.60701536537542e-05
1.70245610402968e-05
6.28692507111513e-06
2.3327801584958e-07
7.50111970613544e-05
7.40069712421267e-05
7.20790848006924e-05
6.91060863033851e-05
6.51251616767307e-05
6.02417286077453e-05
5.45730741686254e-05
4.82209653527542e-05
4.1261661281845e-05
3.37204287916751e-05
2.55214286849422e-05
1.63561114641919e-05
5.79113408216363e-06
2.03783826201079e-07
7.94191779203576e-05
7.8699655016876e-05
7.71697819560771e-05
7.46110990273703e-05
7.10233907460488e-05
6.64883336211652e-05
6.11072520380699e-05
5.49797870011991e-05
4.81999637753099e-05
4.08491976831372e-05
3.29681994303205e-05
2.45140117048527e-05
1.52561283083652e-05
5.02433159811188e-06
1.6174289745979e-07
8.37733774025821e-05
8.3275296324996e-05
8.2081949968408e-05
7.99281313743307e-05
7.67461749876167e-05
7.25747977011898e-05
6.7492361830808e-05
6.1587140369202e-05
5.49601107884973e-05
4.77134927844553e-05
3.99409376789803e-05
3.1701815202051e-05
2.29918426516534e-05
1.36813678410303e-05
4.01712142981318e-06
1.12924895817879e-07
8.77727776251843e-05
8.75996648226898e-05
8.67418097034191e-05
8.49901186521929e-05
8.224323655802e-05
7.84707222373698e-05
7.37190681854546e-05
6.80620534674978e-05
6.15873706670393e-05
5.4420204228039e-05
4.66755295787785e-05
3.84593072341324e-05
2.98503848950189e-05
2.08916569856854e-05
1.15920981452794e-05
2.85357281882068e-06
6.57153289237781e-08
9.05954793552108e-05
9.12605724515378e-05
9.0972633209418e-05
8.96601533323938e-05
8.7415388794511e-05
8.41105189197228e-05
7.97429182984603e-05
7.43774564872291e-05
6.81057942681297e-05
6.10073675638123e-05
5.32674490294278e-05
4.50012562259058e-05
3.63238406880027e-05
2.73346433997637e-05
1.81433130322578e-05
8.99273214377649e-06
1.69544500089968e-06
2.86691341343905e-08
5.97288835029543e-05
5.14076056640508e-05
4.260064463034e-05
3.34414164342982e-05
2.40603284204953e-05
1.46900162528118e-05
6.00345454929716e-06
7.27323931122061e-07
7.00778392942209e-09
4.73749411047735e-09
2.10027707663697e-07
1.83215891485235e-08
1.8485028480857e-06
4.23474344763737e-07
3.1759993665303e-08
7.34326180202337e-06
2.84134963876222e-06
6.94216811819571e-07
4.37853806623367e-08
1.80407746300117e-05
1.01475784656781e-05
4.28008574388224e-06
1.06304407268816e-06
5.75424484296269e-08
3.01076774103385e-05
2.18490776288055e-05
1.34579725623636e-05
6.30692781697389e-06
1.63566882690805e-06
7.47442077624478e-08
3.93107262728185e-05
3.26674911487344e-05
2.50610121076443e-05
1.6774185706695e-05
8.69285505646516e-06
2.40027434761213e-06
9.80204859026463e-08
4.58568683036599e-05
4.07148488787839e-05
3.4568452711668e-05
2.74557574332043e-05
1.9497390030683e-05
1.09928934416045e-05
3.26123257346339e-06
1.27032176618797e-07
5.08431727901901e-05
4.69348697111791e-05
4.19372332105272e-05
3.59570790885956e-05
2.91284235246031e-05
2.14814027768469e-05
1.29047677097403e-05
4.08830149235726e-06
1.56874641828013e-07
5.51279872074859e-05
5.21494636840367e-05
4.80650427553753e-05
4.29561835659533e-05
3.6994187373994e-05
3.03095715391122e-05
2.28446117995972e-05
1.42813647642359e-05
4.7698391466389e-06
1.79983290926813e-07
5.91747488214612e-05
5.68938873849563e-05
5.35483480969858e-05
4.91496636972734e-05
4.3846290580655e-05
3.78143085019962e-05
3.11369566197851e-05
2.3710116191977e-05
1.51380085935095e-05
5.21421674997438e-06
1.91990353933292e-07
6.32166293401336e-05
6.1457195460918e-05
5.87005901273492e-05
5.49016014446104e-05
5.01509139286321e-05
4.46162007011283e-05
3.84362425578193e-05
3.16515531434068e-05
2.41465705141071e-05
1.55212245773271e-05
5.40087104938064e-06
1.918360300217e-07
6.73327818473358e-05
6.59758956128093e-05
6.37038362434303e-05
6.04050140608252e-05
5.61323894421744e-05
5.10220021978082e-05
4.52136815952033e-05
3.88045587617486e-05
3.18185895064495e-05
2.41555607470709e-05
1.5452392698091e-05
5.33835777571631e-06
1.81016264649257e-07
7.16031269249323e-05
7.04935602178552e-05
6.86253211274204e-05
6.57628662018369e-05
6.19171668792894e-05
5.71925426567356e-05
5.17099516852215e-05
4.55747404596758e-05
3.88662184957162e-05
3.1612083108143e-05
2.37368019977462e-05
1.49331818565687e-05
4.98213578664679e-06
1.62207615886087e-07
7.6151348216302e-05
7.50559502690965e-05
7.34815429888523e-05
7.09990557710839e-05
6.75504893514178e-05
6.31926418214782e-05
5.80201364438477e-05
5.21286670145404e-05
4.5610756574256e-05
3.85481945979552e-05
3.09828057846389e-05
2.28718473929405e-05
1.39857209441524e-05