/*--------------------------------*- C++ -*----------------------------------*\
  =========                 |
  \\      /  F ield         | OpenFOAM: The Open Source CFD Toolbox
   \\    /   O peration     | Website:  https://openfoam.org
    \\  /    A nd           | Version:  12
     \\/     M anipulation  |
\*---------------------------------------------------------------------------*/
/*   Windows 32 and 64 bit porting by blueCAPE: http://www.bluecape.com.pt   *\
|  Based on Windows porting (2.0.x v4) by Symscape: http://www.symscape.com   |
\*---------------------------------------------------------------------------*/
FoamFile
{
    format      ascii;
    class       volScalarField;
    location    "800";
    object      nut;
}
// * * * * * * * * * * * * * * * * * * * * * * * * * * * * * * * * * * * * * //

dimensions      [0 2 -1 0 0 0 0];

internalField   nonuniform List<scalar> 
10142
(
6.13240185519006e-07
5.69004755754003e-07
4.1695317321596e-05
6.65847796671592e-07
5.32643580236392e-07
3.99628474213407e-05
6.16880958193558e-07
0.000186069808566618
4.35601569149546e-05
7.39233739206238e-07
4.90112325400855e-07
3.81868120288323e-05
5.74248907287088e-07
0.000180196499621386
4.17458964282432e-05
6.84450144171842e-07
0.000382266553593867
0.000189694782058792
4.59588729407236e-05
7.89547557351653e-07
4.3790112304342e-07
3.62232467911415e-05
5.25269302590931e-07
0.000173947492318082
3.98643598003752e-05
6.35816347253749e-07
0.000371154857029724
0.000183706700845766
4.40460570075555e-05
7.30262818954898e-07
0.000583543932405127
0.00038519749800626
0.000194182904661902
4.75431816215569e-05
7.88153440360748e-07
3.81246840807538e-07
3.40045402101753e-05
4.67108846065392e-07
0.000167143568959666
3.77941986216372e-05
5.80164545093421e-07
0.000359349299383772
0.000177317098243348
4.20463831535953e-05
6.77266536882117e-07
0.000566756137315447
0.000374002272204358
0.000188052578387105
4.55577317502143e-05
7.27922200606238e-07
0.000769022186769937
0.000584670711177087
0.000388440852772766
0.000196905390103776
4.75022919382988e-05
7.46948358266629e-07
3.28977812590275e-07
3.12132717717935e-05
4.09046116296968e-07
0.000159627188518784
3.54602916645212e-05
5.14923943234052e-07
0.000346684663682005
0.000170359678618664
3.98474365883333e-05
6.17491693578967e-07
0.000549044746604797
0.000362092235804146
0.000181486039647808
4.34744951105998e-05
6.73843487955589e-07
0.000746489442789371
0.000567848784770486
0.000377145270939625
0.000190669282900754
4.54893309287624e-05
6.88503463369669e-07
0.000930307795849776
0.000768296267566445
0.000584950943188784
0.000389444096449281
0.000196218000457465
4.61068908004785e-05
6.89777965915903e-07
2.75581212998526e-07
2.73023389914996e-05
3.52742629019772e-07
0.00015098481111627
3.23192199645861e-05
4.49974702170585e-07
0.000332957544791029
0.000162669112006769
3.73766616208204e-05
5.4831221275665e-07
0.000530276882063385
0.000349306403520715
0.000174330301096806
4.11878480728349e-05
6.1383651771036e-07
0.000722901038696748
0.000550087011765074
0.000365103290806565
0.000183974419039425
4.33818412525952e-05
6.36062657728702e-07
0.000902281777523254
0.000745785433564839
0.000568111892177798
0.000378085262382883
0.000189943048645724
4.41104888735606e-05
6.3429165360827e-07
0.00106408692800665
0.000928267260760974
0.000765392367718306
0.000582400544696337
0.000386437748529698
0.000192383165292091
4.40139286658815e-05
6.2817651287708e-07
2.21640218111302e-07
2.30303605405352e-05
2.94993484259126e-07
0.000140453268375143
2.82535301178531e-05
3.87590262923043e-07
0.00031780461287582
0.000153757288305572
3.40982416556533e-05
4.76766744385524e-07
0.000510265627449625
0.000335439048780426
0.00016642444614915
3.86353873033404e-05
5.46065841978234e-07
0.000698158396610549
0.000531254354700067
0.000352161913356911
0.000176679679577068
4.10749687683208e-05
5.79057609842527e-07
0.000873154630576673
0.000722204502945367
0.000550310172668897
0.000365956485968834
0.000183205189387998
4.20179154475236e-05
5.84993787193423e-07
0.00103111566534009
0.000900312449053656
0.000742964383129906
0.00056559372233321
0.000375076617050475
0.000186127568976346
4.20491996243735e-05
5.75862330605563e-07
0.00116885081641077
0.00106133613926456
0.000922814424136685
0.000758902560231088
0.000575607821006272
0.000379383274651155
0.000186476305947382
4.1589591127316e-05
5.63385532070832e-07
1.70707029559893e-07
1.86834458768128e-05
2.36636215603469e-07
0.000126539403205612
2.39504933838696e-05
3.23886787890701e-07
0.000300576323504302
0.000143031425633583
2.98605787758596e-05
4.10434815814736e-07
0.000488712576327469
0.000320119068061077
0.000157285272939768
3.54658736342723e-05
4.72066195725082e-07
0.000672120045137484
0.000511164397863661
0.000338119411994262
0.000168640180147881
3.85226411620801e-05
5.15037457802984e-07
0.000842855046114251
0.000697457884232161
0.00053141862520893
0.000352915208577634
0.000175872944757977
3.97414499269329e-05
5.31635333872305e-07
0.000997035714297138
0.000871240599249133
0.000719450479600628
0.000547807164457161
0.00036293800057716
0.000179412642043669
3.99973877799339e-05
5.2977805081192e-07
0.00113187265073385
0.00102847030577891
0.000895036156138422
0.000736628215257442
0.000558890141801496
0.000368072384606773
0.000180269459387971
3.96612820538058e-05
5.14383611088053e-07
0.00116579384227827
0.00105418233982176
0.000912953437606508
0.000747851943343405
0.000564359269712896
0.000369095599871541
0.000179201756503395
3.88912703897895e-05
4.94615242582445e-07
1.26897589534662e-07
1.44180067544515e-05
1.83067475918786e-07
0.000110004051712309
1.94771675011772e-05
2.59592808885519e-07
0.000280045550026449
0.000128752879151829
2.53799592152557e-05
3.43107909554048e-07
0.000465117216819714
0.000302708406434161
0.000146322638877961
3.12173837508217e-05
4.05373361784751e-07
0.000644567287744628
0.000489520629061351
0.000322617010891772
0.000159476125978709
3.56291453677583e-05
4.45089361606166e-07
0.000811286914619144
0.000671405372846399
0.000511255162610076
0.000338775664945061
0.000167824795643113
3.72303192686133e-05
4.71789913908615e-07
0.00096182494303239
0.000840986595121962
0.000694757420645661
0.000528921017141537
0.000349891615883551
0.000172120319706315
3.77671434091581e-05
4.8010209791434e-07
0.00109359957203354
0.000994477432536652
0.000866128106658576
0.00071325690020567
0.000541186397737766
0.000355987434764875
0.000173613589625908
3.76527012356611e-05
4.7144190136073e-07
0.00120410102444749
0.00112894195528138
0.00102156734030457
0.000885448636813416
0.000725792603578218
0.000547778080941732
0.000357869665534389
0.000173057789100067
3.70038265255013e-05
4.49342715194654e-07
0.00115763179127203
0.00104185190995821
0.000898029506659065
0.000731982996639741
0.000549037154474795
0.000356166248973208
0.00017073443163918
3.58772751778253e-05
4.22627405145437e-07
9.0761999221345e-08
1.05087311759564e-05
1.36549787093438e-07
9.1231335816563e-05
1.50477793816685e-05
2.01209118158511e-07
0.00025452666022631
0.000111931788566707
2.07095274869207e-05
2.75141493821312e-07
0.000438602032904874
0.00028175634486313
0.000131761818906871
2.66007763432287e-05
3.38111045767658e-07
0.00061514638238855
0.000465824885428726
0.000305011865776797
0.000148502944340617
3.1534178394869e-05
3.78747368811337e-07
0.000778300407004406
0.00064383134969974
0.000489533912920003
0.000323217715973875
0.000158826971670467
3.44281684129333e-05
4.0652490699327e-07
0.000925422459126031
0.000809456010346609
0.000668748200963344
0.00050876543997289
0.00033577492783703
0.000164142039137131
3.53154043223511e-05
4.24524251910684e-07
0.00105430983232955
0.000959344579662625
0.00083602821121513
0.000688700191608327
0.000522387858995289
0.000343011860133992
0.000166396728325455
3.54763089818066e-05
4.25660028276183e-07
0.00116235997299809
0.00109077145613896
0.000987812974507962
0.000856805053999603
0.000702630965580077
0.00053021177190024
0.000345877430851219
0.000166475043265342
3.50429127612824e-05
4.0986571319348e-07
0.001246187268458
0.00120107714305584
0.00112108429969378
0.00100961087217096
0.000870872163583649
0.000710187499749843
0.000532631460646246
0.000345051738519857
0.000164666206023111
3.40379242321024e-05
3.81485998977433e-07
0.00114372199426618
0.00102387972260572
0.00087779134509046
0.000711320714764615
0.000529882481972358
0.0003407245636335
0.000160989461977644
3.25097967310322e-05
3.48949208688569e-07
6.22419961460401e-08
7.20438876589847e-06
9.79141136850724e-08
7.11718998239736e-05
1.10407473434209e-05
1.50162826780366e-07
0.000224417872820406
9.2819329594604e-05
1.60690545800402e-05
2.13228007435584e-07
0.000407536866761535
0.000256114094861379
0.000114692295239104
2.17874957042696e-05
2.71087125701474e-07
0.000583261887624253
0.00043917573316309
0.000283815911517842
0.000134097737739697
2.6908394478365e-05
3.14511083324751e-07
0.00074364733974042
0.000614385617507023
0.000465765125795151
0.000305629495569733
0.000148091364750651
3.06829197975101e-05
3.43060035337406e-07
0.000887713889577845
0.000776502069393118
0.000641215077534082
0.000487078837911033
0.000320327735447562
0.000155303455514216
3.26003349394888e-05
3.6454871418481e-07
0.00101395383557909
0.000923013599682342
0.000804644608358003
0.000662829764955418
0.000502343785362142
0.000329004012327866
0.000158524847695569
3.3089754557123e-05
3.74712849759823e-07
0.00112000869279735
0.00105157713539236
0.00095291071715581
0.000826964740677841
0.000678287257808497
0.000511564639492462
0.000333014756969378
0.000159349708432992
3.29247335835168e-05
3.68284838146514e-07
0.00120271925132145
0.00115946352618828
0.00108320133037575
0.00097622028897685
0.000842567976840479
0.000687286318330845
0.000515242862443034
0.000333177948411054
0.000158169114451471
3.21316360535109e-05
3.45785458324073e-07
0.00125864404777501
0.00124323863718743
0.00119274998849097
0.00110762001231551
0.000992102475208963
0.0008510389470258
0.00068983629832584
0.000513692383217599
0.000329749621205556
0.000155013388188881
3.07265310035407e-05
3.12094176601136e-07
0.00112371355183986
0.00100002370796306
0.000852028217986325
0.000685731479974211
0.000506783360795555
0.000322580789106055
0.000149790480650257
2.87648732375733e-05
2.74795393047379e-07
4.15677341748258e-08
4.61942306450982e-06
6.7329435435079e-08
5.17999409876202e-05
7.63400197229839e-06
1.07429269103887e-07
0.000189810751373015
7.25017558827987e-05
1.18844256404351e-05
1.59015922580071e-07
0.000371403646068908
0.000225770010138723
9.53562963609711e-05
1.69805428351463e-05
2.10053605391703e-07
0.000547809234556723
0.000407922112043469
0.000258043100483522
0.000117116505387362
2.21134540553418e-05
2.52021540213923e-07
0.000706884181397098
0.000582463831269749
0.000439049799098679
0.000284688202389444
0.000134260983927925
2.62552704509094e-05
2.83922871084317e-07
0.000848490755333306
0.00074188192626836
0.000611817594586726
0.000463406728523466
0.000302996503845093
0.00014497838385814
2.91932504347417e-05
3.04658451216839e-07
0.000972402905275026
0.000885373702192184
0.000771836301995105
0.000635454863846112
0.000480829120961695
0.000313753479234263
0.000149865967736658
3.0469994830185e-05
3.2020175712006e-07
0.00107677800990109
0.00101131213526109
0.000916805734959505
0.0007958423689539
0.000652647848643665
0.000491706998495629
0.000319158647344886
0.000151598384217581
3.06119492815279e-05
3.2228951185701e-07
0.00115870877666271
0.00111721593310838
0.0010442875985813
0.000941675826565849
0.000813066295875974
0.000663210780875748
0.000496788467253976
0.000320452043857115
0.000151146858087253
3.00842659833638e-05
3.08393829772962e-07
0.00121486846371488
0.00119988879575274
0.00115145879915099
0.00107016899738366
0.000959161598917036
0.000823128250992081
0.000667240057816109
0.000496518664600275
0.00031801954598428
0.000148618274930908
2.88885428374429e-05
2.80156621838201e-07
0.00124246093460662
0.00125590117552274
0.00123490972647614
0.00117857463140597
0.00108815510813705
0.000968778845824158
0.000825739885720355
0.000664614948495749
0.000490857570142983
0.0003117792063104
0.000143924917513972
2.70486286225201e-05
2.42841990011232e-07
0.00109734408364019
0.000969914021903221
0.000820299236916177
0.000654789474037721
0.000479315765542588
0.000301334671997344
0.000136900352676054
2.46261064299306e-05
2.03391620374617e-07
2.67982152118388e-08
2.79018305147595e-06
4.47341659850304e-08
3.50329520596064e-05
4.89610660192605e-06
7.34842033863792e-08
0.000152048257288442
5.29531103298929e-05
8.30298118608273e-06
1.13571083812304e-07
0.000329577667353855
0.00019094382508675
7.48702373342111e-05
1.26462348639269e-05
1.56552865709307e-07
0.000507479538256923
0.000371650538501726
0.00022762433751658
9.78945151204173e-05
1.73251068741101e-05
1.95283371986128e-07
0.000667111645614151
0.000546847431633896
0.000407731638318671
0.000259166292398307
0.000117779072711726
2.16498326782098e-05
2.27277461121232e-07
0.000807309847533602
0.000705159920790548
0.000579954017975761
0.000436911732719298
0.000282751966959991
0.000132074687568159
2.50534172522177e-05
2.50842246561314e-07
0.000929426837927857
0.00084622436168767
0.00073736946026004
0.000606261213496761
0.000457445692739843
0.000296806470696004
0.000139971788933859
2.73750394985602e-05
2.64820502077828e-07
0.0010324537047332
0.000969852553045099
0.000879392891648088
0.000763309407293998
0.000625547939840621
0.00047045248288014
0.000304140942234302
0.000143118992183752
2.80870686185796e-05
2.73522606617484e-07
0.00111389140617359
0.00107408482453237
0.00100430142288207
0.000905929080457801
0.00078229342681952
0.000637864999058267
0.000477158122843725
0.000306765193615015
0.000143518167031575
2.7852071106039e-05
2.67730622416721e-07
0.00117058992287359
0.00115597287533254
0.00110951510016168
0.00103167731549895
0.000925059351978276
0.00079401833869464
0.000643474786155674
0.000478289481872906
0.000305449804041219
0.000141706961997953
2.69186219880928e-05
2.47446080999675e-07
0.0011997197010384
0.00121220899400109
0.00119185697899485
0.00113775050808857
0.00105122931404132
0.000936347909366401
0.000798275005826385
0.000642375089495752
0.000473942617786445
0.000300222544993322
0.000137643999760747
2.52850213278248e-05
2.15310439166568e-07
0.00119991595891682
0.0012400292544109
0.00124802481260633
0.00122087568160622
0.0011582319638276
0.00106240239848516
0.000939272714127058
0.000794550085720852
0.00063411513426447
0.000463716315691006
0.000290746499468999
0.000131155999636288
2.29757954974623e-05
1.77672556302791e-07
0.00106409141434499
0.000932868874947245
0.000781884402166711
0.000617787241478009
0.000446783306412457
0.000276390119491765
0.00012199524996842
2.00744943596864e-05
1.38617039440733e-07
1.81425355637506e-08
1.62291896168402e-06
2.92578749112258e-08
2.21616221696927e-05
2.9339958187964e-06
4.84983915285242e-08
0.000113753942101449
3.5962085921369e-05
5.36003972708452e-06
7.76741758891176e-08
0.00028187885980579
0.000153040836224707
5.5143196684026e-05
8.93351128606761e-06
1.11773840225891e-07
0.00046120238385119
0.000329727422945519
0.000192863103423961
7.75169519251328e-05
1.29745233158041e-05
1.45541933382518e-07
0.000622434849882775
0.000506584400455331
0.000371486373912019
0.000229227301779854
9.91098688684975e-05
1.70319567523806e-05
1.76059575276764e-07
0.000763089211126983
0.000665442233179454
0.000544380016687541
0.000405988016034708
0.000257922954474458
0.000116297311686932
2.07004047806312e-05
2.00587990240877e-07
0.000884477905480475
0.000805142569676935
0.000700819397312403
0.000574686325801166
0.000431465683028352
0.000277314961396746
0.000128043989985907
2.35171198184434e-05
2.16381909997964e-07
0.000986751791455778
0.000926979321715907
0.000840482144618469
0.000729152777471438
0.000596715335929808
0.000447469491588306
0.000287606149523088
0.000133614267864188
2.52724715593229e-05
2.24255815734106e-07
0.00106801670572038
0.00102986475813258
0.000963126219371291
0.000868886315232037
0.000750140646804895
0.000611113910505013
0.000456200629660854
0.000291980618551091
0.000135199756622246
2.54182678661548e-05
2.25109256158457e-07
0.00112547005642607
0.00111125090602695
0.00106668697397652
0.000992112486267167
0.000889758168445132
0.00076365029190693
0.000618461847947267
0.00045890976543841
0.000291938063058128
0.000134198729501767
2.47715989525368e-05
2.12425615488076e-07
0.00115633613982524
0.00116799363421332
0.00114822145664995
0.00109625049627464
0.00101324515455203
0.000902741636093175
0.000769603075648586
0.000618964595017852
0.000455974206937864
0.000287828618215445
0.00013085040152575
2.33968902555866e-05
1.88244912510897e-07
0.00115906882277463
0.00119730403382273
0.00120453532902117
0.00117824295572674
0.00111796372401041
0.00102606474756133
0.000907412138791074
0.00076759866511597
0.000612300150780632
0.000447117027077243
0.000279397467889611
0.000124998717956466
2.12865592007498e-05
1.55538825771778e-07
0.00113448164265296
0.00119785131279748
0.00123303544240746
0.00123501102057246
0.00120089207037544
0.00113135630211779
0.0010298431979856
0.000902922683609778
0.000756775788624572
0.000597654464227218
0.000431591049298785
0.000266063127871905
0.000116367071871398
1.84251916494749e-05
1.19523303240854e-07
0.00102305631906082
0.000887920841084209
0.00073582056759102
0.000573752080972019
0.000408211633961212
0.000246918901797821
0.000104600627386226
1.50384100524282e-05
8.33577522418125e-08
1.24102690874896e-08
9.56500899832598e-07
1.99875415558259e-08
1.34133280155538e-05
1.7044355876148e-06
3.19423646777813e-08
7.88154898768314e-05
2.28600137167609e-05
3.22295496688252e-06
5.13686395606517e-08
0.000229004142672284
0.000114676081589626
3.78567398155465e-05
5.85907856992286e-06
7.65106142899885e-08
0.000407508177632221
0.000282000015606271
0.000155203852859644
5.78080665615214e-05
9.27256377646071e-06
1.03920133094891e-07
0.00057058448629922
0.000460404439523002
0.000329751414464531
0.00019518789740638
7.92836960339192e-05
1.2825249656826e-05
1.31084282847977e-07
0.000713213567914582
0.000620907450309544
0.000504279453688727
0.0003703575705131
0.000229015412791925
9.84620089270277e-05
1.63399738693255e-05
1.55166792553181e-07
0.000836072548758163
0.000761095417617105
0.000661297161924922
0.000539563921309958
0.000401395081312725
0.000253588025309003
0.000113067924462951
1.94302607178292e-05
1.72515790876221e-07
0.00093900929664466
0.000882176595972639
0.00079967424029301
0.000692985776591378
0.00056566575826121
0.000422140519895262
0.000268851245358946
0.000122497113621667
2.17150176381188e-05
1.81318415698002e-07
0.00102076832788371
0.000984285931919334
0.000920556956682029
0.000830378474114345
0.000716428232767389
0.000582734369578511
0.000433647633144538
0.000275820115827787
0.000125991200580102
2.27416001465453e-05
1.83513613798921e-07
0.00107917497574444
0.00106548311507423
0.00102278183887471
0.000951371543471488
0.000853182374225525
0.000731939077021819
0.00059209440664341
0.000438255419922897
0.000277362800889244
0.000126001863532531
2.24150592629035e-05
1.7745057928907e-07
0.00111169648398098
0.00112294573075158
0.00110378389277005
0.00105386276431069
0.000974183499108743
0.000867936264650929
0.000739680091543366
0.00059431877554329
0.000436865453497033
0.000274492182590893
0.000123448225322166
2.13289739040215e-05
1.60323731829142e-07
0.00111658743197617
0.00115391147699941
0.00116050329411515
0.00113500411515107
0.00107698272630148
0.000988638992500443
0.000874352500163837
0.000739423616424903
0.000589304094840642
0.000429456116930235
0.000267201921896904
0.000118317133053057
1.94581918363089e-05
1.34489061154286e-07
0.00109439082181156
0.00115688854664137
0.00119031086746483
0.00119180422255682
0.00115875168287916
0.00109170270853068
0.000994158791322119
0.000871715229218419
0.000730433309362717
0.000576359268236764
0.000415385087081199
0.000254966665130946
0.000110323803279507
1.67791988261011e-05
1.03176628879832e-07
0.00104881892890874
0.00113272549832566
0.00119204063122374
0.00122190813386001
0.00121669580803921
0.00117444243997753
0.00109723147558474
0.000989603548859177
0.000858795558421717
0.000711490940116841
0.000554294751529324
0.000393540035742377
0.000236919271124583
9.90270737153976e-05
1.3493068668832e-05
7.11436868653345e-08
0.000973054910499251
0.000833904143402377
0.000680933950648257
0.000521446480046677
0.000362332197094402
0.000211806265173613
8.40082311042653e-05
9.79737704422431e-06
4.10728992818388e-08
9.98013850070322e-09
5.78462573594316e-07
1.46781369990311e-08
8.08021176929574e-06
1.00100276995892e-06
2.24663456577428e-08
5.10833825398627e-05
1.39535710208389e-05
1.87299785641328e-06
3.43560378117298e-08
0.000173937462474141
7.97623190900882e-05
2.43661125029827e-05
3.56274831323439e-06
5.09873363491314e-08
0.000345428993294292
0.000229205654327505
0.000117204219941486
4.04072145017595e-05
6.18836744535287e-06
7.13529920569947e-08
0.000508331961518643
0.000406968573058118
0.000282506817946913
0.000158479453400382
5.9983755989798e-05
9.23058101036039e-06
9.3677341790367e-08
0.000652981467433599
0.000569507072302326
0.00045850265100022
0.000329606979588783
0.000196352429840395
7.95878283124527e-05
1.23373841129184e-05
1.15461207465597e-07
0.000780472078068956
0.000711546827215295
0.000617145232570735
0.000500156421923423
0.000366943697811907
0.000226036923092556
9.61882765578391e-05
1.53511758202367e-05
1.32963563741423e-07
0.000887377815945317
0.000834051494932833
0.000756004946791478
0.000654025211106809
0.000531428370199985
0.000393169492946314
0.000246313631611546
0.000108335281265606
1.78334708610052e-05
1.43426006106505e-07
0.000971448520060742
0.000936725612282413
0.000876116317992948
0.000790054529515627
0.000680833677795283
0.000552333340625234
0.000408989564612394
0.000257696764206868
0.000115291891549347
1.94237640490419e-05
1.46345552981251e-07
0.00103130386451938
0.00101836936792019
0.000977548252836945
0.000909275381920911
0.000815195791237853
0.000698744154105777
0.000564195883384584
0.000416108733779812
0.000261488808071287
0.000116927586799726
1.97612118298694e-05
1.43580284010468e-07
0.00106491883739916
0.0010767395659368
0.00105831849602237
0.00101041435548348
0.000933962000418472
0.000831877926333038
0.000708444214284824
0.000568353647548717
0.000416507287112652
0.000260084495186168
0.000115304362307031
1.89902034970379e-05
1.32656765846391e-07
0.00107008252585191
0.00110926153474315
0.0011156344442727
0.00109096156928369
0.00103510125966254
0.000950121973037998
0.000840084096751652
0.000709993596268257
0.000565071056836911
0.00041064640290061
0.000254039210479204
0.00011098039591185
1.74249979010901e-05
1.13397048299456e-07
0.00104647986728868
0.00111413968628417
0.00114683614219583
0.00114802590860298
0.00111596422183594
0.00105128098446638
0.000957342682954847
0.000839274459092773
0.000702842234416551
0.000553864410319173
0.000398100747368546
0.000243002743584726
0.000103718092861545
1.5066479290354e-05
8.83801732589311e-08
0.000998184676305394
0.00109205226930434
0.00115057403652654
0.00117920373660567
0.00117382820339469
0.00113284289055924
0.00105825753120102
0.00095466550218607
0.000828361991872965
0.000685893617055737
0.00053365409092102
0.000377844705414413
0.00022614664344281
9.30609343189963e-05
1.20280875291063e-05
6.05823028123226e-08
0.00082634929080498
0.000940059753154879
0.00112785608183841
0.00118350725521649
0.00120657409823392
0.0011923281379078
0.00114053483841162
0.00105475091558783
0.000940541237877898
0.000805773225663053
0.000657572325208787
0.000502853945908396
0.000348357490747054
0.000202245626893198
7.85115211197382e-05
8.57798238945611e-06
3.50453919886774e-08
0.000912758674045128
0.000769521052910649
0.000615876654410821
0.00045940647602446
0.000307623068872729
0.000169669234502912
5.95514984855397e-05
5.02222766826071e-06
1.46656501130245e-08
6.42719573118545e-09
3.66431168838135e-07
1.1835826997285e-08
4.9437441966343e-06
6.31918753337469e-07
1.73448605552367e-08
3.20673422638627e-05
8.47009588410939e-06
1.12996218472893e-06
2.4956831017366e-08
0.000122658228411238
5.2179997712389e-05
1.50819750864086e-05
2.10523996329082e-06
3.50803705137984e-08
0.000276632841045116
0.000174258130065851
8.25948269955445e-05
2.65442850289392e-05
3.80361265799269e-06
4.83134609036034e-08
0.000433799325630446
0.000345159331632441
0.000230643949954595
0.000121515197204967
4.27567037547292e-05
6.25140823452167e-06
6.47447095948703e-08
0.000576623029614566
0.000508327924060841
0.000405924550000028
0.000283918775540465
0.000161291893330648
6.10979137075698e-05
8.89079251935257e-06
8.27838877856085e-08
0.000710173044189173
0.000652359760560772
0.000566611820120073
0.000455551802514286
0.000327910629336367
0.000195153381646528
7.8426223508375e-05
1.16113346470917e-05
9.89887009850265e-08
0.000827125917467297
0.000779093280695162
0.000707160394049352
0.000610746194503724
0.000493183136060342
0.000360175609975276
0.000220185042585418
9.24185209753755e-05
1.40323300380993e-05
1.10070204696616e-07
0.000918157677392085
0.000885451644514764
0.000828538164468725
0.000747085706035364
0.000642720081883403
0.000519174910762962
0.000381187151434935
0.000236257077531302
0.000101921488239761
1.58064609158506e-05
1.14606374269943e-07
0.000981199216967205
0.000969259432997646
0.000930414527958385
0.000865415434932826
0.000775521037460109
0.000663815956131626
0.000534455260176171
0.000392055538785388
0.000243800453598796
0.000106437038913129
1.67100860716057e-05
1.12777036370263e-07
0.00101507382034744
0.00102901107994767
0.00101154796932849
0.000965686056080215
0.000892440549090898
0.000794468639550861
0.000675792398364085
0.00054093100720194
0.000394713628457314
0.000244377880630899
0.000106183766879123
1.6437435641528e-05
1.06281117494845e-07
0.00101571394395918
0.00106246714570796
0.00106960126875821
0.00104591085016816
0.000992173155735925
0.000910455693273044
0.000804574639707026
0.000679266392582773
0.000539532183655637
0.000390580160103953
0.000239751576660868
0.000102781052819903
1.52304143626164e-05
9.29693560308765e-08
0.000979720265706553
0.00106719207070722
0.00110191275191673
0.00110339410237525
0.00107236015037135
0.00100993110085537
0.000919408146333399
0.000805603098798902
0.000673980198251429
0.000530117010532436
0.000379642424977249
0.000230024971188713
9.638069590659e-05
1.32576880869775e-05
7.39837893410073e-08
0.000817786838762566
0.000924958017155371
0.00110661724658861
0.00113565713915976
0.00113034859630678
0.0010905349964794
0.0010184400469068
0.000918540404224904
0.000796653121497912
0.000659017529742796
0.000511791954035039
0.000361053242164754
0.00021448399191957
8.65467232943363e-05
1.05991551474136e-05
5.16294840094487e-08
0.000618055233579965
0.000719483163921718
0.00104232565481941
0.00114150382670702
0.00116397345179015
0.00114984354514383
0.00109953512425818
0.00101655472779617
0.000906491430378186
0.000776288750685603
0.00063291448634243
0.000483067971654827
0.000333368778349356
0.000191943521051462
7.27338661555252e-05
7.46418982732597e-06
2.96534939986464e-08
0.000490713890602113
0.000573287490792605
0.000852615542479236
0.00112207607066891
0.00117233773219895
0.00118595590646422
0.00116054361962375
0.0010977843708403
0.00100256710899172
0.000881386014625822
0.000742625810186677
0.000593744536643926
0.000441956138089094
0.000294631941400867
0.00016080434891795
5.45505704416969e-05
4.29805015213241e-06
1.2535725903507e-08
0.000840796681723832
0.000693436660818584
0.000539230458823855
0.000386111443013336
0.000242607744927589
0.000119369683252681
3.22575971836289e-05
1.61345166770021e-06
2.94237202046677e-09
1.61925847725588e-09
1.85264444167629e-07
7.46231568961235e-09
3.04015012329702e-06
4.24955824409205e-07
1.34482425470511e-08
2.00343453334622e-05
5.27305006278362e-06
7.82856703723792e-07
1.9435428588497e-08
8.16059574377065e-05
3.32457578943667e-05
9.38548964164024e-06
1.34188915225521e-06
2.61167159087504e-08
0.000198953133184048
0.000123428276445729
5.50670845616843e-05
1.68734198736256e-05
2.35893503059354e-06
3.39672914498015e-08
0.000300832581126868
0.000276872276254719
0.000177033600274092
8.75946122865932e-05
2.87961601156345e-05
3.97775305602862e-06
4.44285769975162e-08
0.000442432611196463
0.000419221661128048
0.000345647594591779
0.000234297605928938
0.000126002554777506
4.43823489663443e-05
6.10195995919135e-06
5.75906602477276e-08
0.000616053403763715
0.00057819952036216
0.000507293279884031
0.000404981109546561
0.000284673091890243
0.000162200242511591
6.10551918141345e-05
8.42027449375716e-06
7.12530151841273e-08
0.000748650407917924
0.000710385566829489
0.000649730690695809
0.000561872663690724
0.000450443856699525
0.000323203112994843
0.000191184193450365
7.58415859174058e-05
1.06555748007377e-05
8.18826222351658e-08
0.000856033444960091
0.000826021373351
0.000774704612571628
0.000699522429643583
0.000600808386089969
0.000482307983748628
0.000349614903265234
0.000211458332258786
8.69621714843161e-05
1.23942265957358e-05
8.74185510250407e-08
0.00092736645171624
0.000916372701582267
0.000879820063670994
0.000818736927289005
0.000733518739363766
0.000626671099925973
0.000502315160401723
0.000365328951704693
0.000223307396439886
9.3737475841473e-05
1.34492257382408e-05
8.73696985665593e-08
0.00096173333053298
0.000979163201358341
0.000962880860930429
0.000919194320075274
0.000849309067075799
0.000755512167393954
0.000641541296235802
0.000511805840015486
0.000371138053552324
0.000226930628974224
9.57112760870271e-05
1.37080569781286e-05
8.24655250798114e-08
0.000951597745398827
0.00101278782315181
0.00102206255238248
0.000999610435780563
0.000948026075116791
0.000869544125352254
0.000767762167768538
0.000647170515646195
0.000512577054277002
0.000369086310127308
0.000224101643815978
9.35080315541636e-05
1.29352592576639e-05
7.39999315023736e-08
0.000879064667703074
0.000983611172427333
0.00105456099271575
0.00105760114143812
0.00102776338735135
0.000967537585140298
0.000880321259472637
0.000770687673707363
0.000643819587649279
0.000505055563503827
0.000359893507928466
0.000215840589327831
8.81027867688678e-05
1.13807520813861e-05
6.03813381921574e-08
0.000609558583227012
0.000720413424055346
0.00105153803813299
0.00109047688215702
0.00108600973809793