/*--------------------------------*- C++ -*----------------------------------*\
  =========                 |
  \\      /  F ield         | OpenFOAM: The Open Source CFD Toolbox
   \\    /   O peration     | Website:  https://openfoam.org
    \\  /    A nd           | Version:  12
     \\/     M anipulation  |
\*---------------------------------------------------------------------------*/
/*   Windows 32 and 64 bit porting by blueCAPE: http://www.bluecape.com.pt   *\
|  Based on Windows porting (2.0.x v4) by Symscape: http://www.symscape.com   |
\*---------------------------------------------------------------------------*/
FoamFile
{
    format      ascii;
    class       surfaceScalarField;
    location    "800";
    object      phi;
}
// * * * * * * * * * * * * * * * * * * * * * * * * * * * * * * * * * * * * * //

dimensions      [0 3 -1 0 0 0 0];

internalField   nonuniform List<scalar> 
28893
(
9.80181637539098e-06
-2.40808373118962e-07
-2.45296434546026e-07
1.02985572443958e-05
-2.0944682263915e-07
-2.87289233697791e-07
6.12156351585518e-06
-5.66666807620586e-07
-1.05556374622557e-07
1.15785545801811e-05
-2.63909391395768e-07
-5.12616029694258e-07
1.08134829697937e-05
-1.94414340785786e-07
-3.20509698990169e-07
6.57403209002732e-06
-5.39511364069243e-07
-1.22405636829064e-07
1.21038269090092e-05
-2.24149207766026e-07
-5.8840088656896e-07
4.00996901198546e-06
-8.08670011352713e-07
-5.57080384232106e-08
7.61114966688482e-06
-6.68048413936327e-07
-2.12496804487673e-07
1.29113629322821e-05
-3.11079588650684e-07
-7.71512273250266e-07
1.1326164168699e-05
-1.51496284260386e-07
-3.61177908746614e-07
7.03689192118688e-06
-5.17353600131753e-07
-1.39918260892229e-07
1.26415257872928e-05
-1.92423524236449e-07
-6.65793527327346e-07
4.31828757663764e-06
-7.82070008021707e-07
-6.57590950601617e-08
8.14285736856192e-06
-6.2580577432186e-07
-2.52453146587521e-07
1.34724060342347e-05
-2.6388536030324e-07
-8.85530494340249e-07
3.31383509662994e-06
-1.01208716936045e-06
-4.27760779491462e-08
5.02242160410283e-06
-9.83526087415809e-07
-1.0495616261951e-07
8.82078034253854e-06
-8.0381640131537e-07
-3.01338105079638e-07
1.42228465070263e-05
-3.61815301038038e-07
-1.01176246378126e-06
1.18287912698818e-05
-7.59683733829865e-08
-4.26659837465316e-07
7.5185134438559e-06
-4.62289140408938e-07
-1.70824367670582e-07
1.31843039857586e-05
-1.33231689939616e-07
-7.70726363994508e-07
4.62667943476951e-06
-7.45296077538715e-07
-8.0449358272663e-08
8.69500580310394e-06
-5.82391524029581e-07
-3.02094212394442e-07
1.40482485679103e-05
-2.23162737311601e-07
-1.01847035676008e-06
3.56720886008018e-06
-9.81180078701629e-07
-5.42625140754694e-08
5.40276404987709e-06
-9.4097755118007e-07
-1.30930874478878e-07
9.42542776687284e-06
-7.4896584706858e-07
-3.72021257085937e-07
1.48151728053827e-05
-3.08353912567425e-07
-1.16951301395474e-06
2.97948082624667e-06
-1.20174289181291e-06
-3.3045833062438e-08
4.06037034020866e-06
-1.24895158105643e-06
-7.87408604018675e-08
6.00846745078395e-06
-1.20144447254364e-06
-1.39311140276788e-07
9.88897753946494e-06
-9.28715667952083e-07
-3.74963315581272e-07
1.50432511856588e-05
-3.98294990923976e-07
-1.22197696860788e-06
1.23107728539304e-05
3.04099185829902e-08
-5.12386420291732e-07
8.03049578450652e-06
-3.71205498647382e-07
-2.16740533874054e-07
1.37169440038577e-05
-4.3441383601513e-08
-9.15873979788104e-07
4.94593871274688e-06
-6.78790158986986e-07
-1.02757158969695e-07
9.27187544464496e-06
-5.05336030616475e-07
-3.75593689189901e-07
1.46274705571982e-05
-1.53171579410153e-07
-1.19676405771693e-06
3.8262182660583e-06
-9.34234563919289e-07
-7.00723871167402e-08
5.7904719864829e-06
-8.82876103142304e-07
-1.67666401789192e-07
1.00543151107024e-05
-6.90557615551241e-07
-4.63570435878292e-07
1.54205464502707e-05
-2.62301497305728e-07
-1.36156460747874e-06
3.21119129567139e-06
-1.16695204525549e-06
-4.59385733749018e-08
4.37348700518378e-06
-1.20285626853387e-06
-1.05498889758746e-07
6.46065472914303e-06
-1.14580221124915e-06
-1.86285047595489e-07
1.05550302291728e-05
-8.65981399995035e-07
-4.80439327130804e-07
1.56415567891458e-05
-3.42330898289489e-07
-1.42551467165429e-06
2.74937132991418e-06
-1.38509082411594e-06
-2.60151437934675e-08
3.56604115441492e-06
-1.49005000084725e-06
-6.21078542981096e-08
4.8621003600875e-06
-1.5349664921423e-06
-1.05819383491848e-07
6.83057509982396e-06
-1.39442186442469e-06
-1.58162752188954e-07
1.0600947025105e-05
-1.00304338060169e-06
-4.41447461828605e-07
1.52929926113346e-05
-4.15931570844826e-07
-1.39909529173839e-06
1.27521216409796e-05
1.73667552403505e-07
-6.15021089786411e-07
8.57778906007645e-06
-2.41895138035334e-07
-2.75002361738097e-07
1.42240795202764e-05
7.72390153885549e-08
-1.09675512331425e-06
5.28480255000747e-06
-5.78430815751483e-07
-1.31635731233587e-07
9.87831103870383e-06
-3.90505296032725e-07
-4.76098689766739e-07
1.51922728156658e-05
-5.1973281067147e-08
-1.42870505019882e-06
4.09854754935661e-06
-8.59920098967997e-07
-9.11997735761859e-08
6.19198791439555e-06
-7.903433832273e-07
-2.19270007101282e-07
1.07096477082834e-05
-5.94249702794191e-07
-5.89843565763459e-07
1.60255673151379e-05
-1.88281601963327e-07
-1.61348282505402e-06
3.45399355632321e-06
-1.11412752237859e-06
-6.29087366080137e-08
4.69697462012844e-06
-1.13424743765767e-06
-1.42191051794746e-07
6.92343246070803e-06
-1.06981512026051e-06
-2.51181692659861e-07
1.12465003375041e-05
-7.98376937367556e-07
-6.18960821879461e-07
1.62498100771165e-05
-2.97231251220274e-07
-1.67259009021855e-06
2.96999238314615e-06
-1.34842522555831e-06
-3.91471841592652e-08
3.84880387485289e-06
-1.44119546333464e-06
-9.03607428670169e-08
5.23824679127394e-06
-1.476047262065e-06
-1.51398928590209e-07
7.33779437747413e-06
-1.32981920180796e-06
-2.2966384978121e-07
1.12964865962619e-05
-9.35162416078979e-07
-5.83150101713173e-07
1.5872600898678e-05
-3.61326429066244e-07
-1.64379259988416e-06
2.55869150892526e-06
-1.56593740258849e-06
-1.86730492306882e-08
3.25143567637397e-06
-1.72031304492326e-06
-4.91958833131318e-08
4.22890209540974e-06
-1.83191050202512e-06
-8.69079734977609e-08
5.52449278667241e-06
-1.78109680683779e-06
-1.24775918404423e-07
7.33554626887644e-06
-1.50027021649726e-06
-1.69990456890379e-07
1.0985071009393e-05
-1.02458137745179e-06
-5.07630285150222e-07
1.51567522953315e-05
-4.19203685694818e-07
-1.54098129959298e-06
1.31264840145999e-05
3.62190765586917e-07
-7.36546898579783e-07
9.16596444497545e-06
-6.62407720312741e-08
-3.48278199211923e-07
1.46861396485098e-05
2.35036333500884e-07
-1.31209175217674e-06
5.64801674667211e-06
-4.3823843709871e-07
-1.66868947578555e-07
1.05172623650415e-05
-2.33051940873602e-07
-6.03646975417654e-07
1.57226560767945e-05
8.08054206396488e-08
-1.70793905057514e-06
4.39006340275169e-06
-7.52581247578473e-07
-1.17366966053182e-07
6.61319933115097e-06
-6.57483067738707e-07
-2.8586891596441e-07
1.13947455594315e-05
-4.56624123609782e-07
-7.56550649812919e-07
1.66104088580179e-05
-8.41460311831879e-08
-1.92941475976559e-06
3.71358887865071e-06
-1.03491753925233e-06
-8.45984774115301e-08
5.03651942681915e-06
-1.03091024802994e-06
-1.90173191203261e-07
7.40143771144464e-06
-9.52846238637606e-07
-3.38673879237234e-07
1.19639527635953e-05
-6.90741087132435e-07
-8.0484750875451e-07
1.68468805746458e-05
-2.24797275752027e-07
-1.98577861666675e-06
3.20596683347371e-06
-1.29306704350555e-06
-5.70343278398914e-08
4.14645459329521e-06
-1.36669856756961e-06
-1.28107490175785e-07
5.62753673806883e-06
-1.3884435069012e-06
-2.12851001202627e-07
7.85633528029324e-06
-1.24242557044503e-06
-3.25675499448151e-07
1.20144252491458e-05
-8.677520619293e-07
-7.66385359484497e-07
1.64507970154426e-05
-3.18939226539529e-07
-1.93186283918362e-06
2.77177964981803e-06
-1.52883248099913e-06
-3.26812045207524e-08
3.51997982620764e-06
-1.67040763387532e-06
-7.84789262347667e-08
4.56681138656822e-06
-1.77102995291404e-06
-1.3328807631792e-07
5.94777927846329e-06
-1.71360006581942e-06
-1.90903717814352e-07
7.86736063912048e-06
-1.43205962142332e-06
-2.64583192501295e-07
1.16806527771816e-05
-9.58760251004972e-07
-6.81300655580517e-07
1.5693682230181e-05
-3.66676794501795e-07
-1.8140637642183e-06
2.39343283926961e-06
-1.74656854390042e-06
-1.09519598520456e-08
3.02135486887639e-06
-1.94754248023372e-06
-3.54118836391588e-08
3.83275872271135e-06
-2.11240194613567e-06
-7.00711280027564e-08
4.78004393206537e-06
-2.11995886572884e-06
-1.08837712098175e-07
5.91585071861488e-06
-1.91027136471857e-06
-1.39802508828738e-07
7.60052556228775e-06
-1.52413377526225e-06
-1.831094332222e-07
1.11770481898624e-05
-1.01461772068983e-06
-5.73245406213098e-07
1.48441838874757e-05
-4.14500997113561e-07
-1.64389313000183e-06
1.34121551142266e-05
6.03626831300628e-07
-8.89300524840709e-07
9.79704395067265e-06
1.74036074293057e-07
-4.42924584214029e-07
1.50782733909264e-05
4.43350438777292e-07
-1.57203586933673e-06
6.04090306855071e-06
-2.48758824046961e-07
-2.10370761033893e-07
1.11899557414651e-05
-2.06602063167472e-08
-7.65276876183156e-07
1.6198175590654e-05
2.5276610235516e-07
-2.04038705544001e-06
4.70618586977886e-06
-6.04787645698262e-07
-1.4957388956404e-07
7.05763176137492e-06
-4.76328084102784e-07
-3.68019275731113e-07
1.21099662820655e-05
-2.70593338512279e-07
-9.6746933733697e-07
1.71546186917755e-05
5.20504982365013e-08
-2.30420183207877e-06
3.99532254702203e-06
-9.23112770289229e-07
-1.11202107914716e-07
5.39667714539408e-06
-8.85261623202314e-07
-2.49745669751473e-07
7.89966333852643e-06
-7.90249276251089e-07
-4.5047411182137e-07
1.2707041268681e-05
-5.39537073086349e-07
-1.04424859175193e-06
1.74119379054378e-05
-1.26099743386439e-07
-2.36834533414132e-06
3.46238924143863e-06
-1.21173656669041e-06
-7.96028035448039e-08
4.46386459131515e-06
-1.25660443826386e-06
-1.76314220376027e-07
6.03506956818351e-06
-1.25802065251382e-06
-2.92530251855121e-07
8.38950854811614e-06
-1.10967041321906e-06
-4.5292173474512e-07
1.27519061662706e-05
-7.58835258340691e-07
-1.00829000857921e-06
1.70047177118201e-05
-2.5209415451788e-07
-2.28759528424904e-06
3.00346472030387e-06
-1.47352806486211e-06
-5.12240123100357e-08
3.80744780558836e-06
-1.59386890584772e-06
-1.17333069400074e-07
4.92253359037397e-06
-1.67756697329855e-06
-1.94705634732183e-07
6.38463318541478e-06
-1.61346082628198e-06
-2.78668448201481e-07
8.40750106712857e-06
-1.34190699363231e-06
-3.91658215820548e-07
1.23893647243742e-05
-8.90449795936583e-07
-9.03581896226675e-07
1.62186976538198e-05
-3.29037026275817e-07
-2.12784260090656e-06
2.60082094709181e-06
-1.7109503239638e-06
-2.52704482145756e-08
3.2830445731747e-06
-1.89903783462946e-06
-6.57403977016236e-08
4.15277379051263e-06
-2.05197609278192e-06
-1.17547223227516e-07
5.1588581186217e-06
-2.05124751163451e-06
-1.74456806259038e-07
6.35794217840923e-06
-1.83948729388231e-06
-2.25567206241985e-07
8.13173791908953e-06
-1.4558687660281e-06
-2.98687410419189e-07
1.18520819293523e-05
-9.50021850603085e-07
-7.73003452783162e-07
1.53273039982274e-05
-3.62884967283234e-07
-1.93429273379876e-06
2.24575133000582e-06
-1.36942536001175e-09
2.83496780349339e-06
-2.17907368613951e-06
-1.78427220372764e-08
3.56105565189046e-06
-2.39072508632259e-06
-4.87048833342396e-08
4.32243452086575e-06
-2.43808855176051e-06
-8.97561003927097e-08
5.10676354330264e-06
-2.26702535539633e-06
-1.29114908041861e-07
6.11517201618322e-06
-1.93445765108658e-06
-1.55589167106344e-07
7.76070078817814e-06
-1.50258418315408e-06
-2.0075937252937e-07
1.12942496268405e-05
-9.90493188636864e-07
-6.35782674509368e-07
1.44865630440392e-05
-4.05849995005744e-07
-1.70857366329846e-06
1.35755504211227e-05
9.0147305656043e-07
-1.06485277353068e-06
1.04644809182144e-05
5.08934871105039e-07
-5.7273735365744e-07
1.5363617292871e-05
7.25325094374054e-07
-1.89998757158944e-06
6.4736662123314e-06
6.96179849741064e-09
-2.65688045719473e-07
1.18927049429522e-05
2.7094931196479e-07
-9.7325368125726e-07
1.65906840888324e-05
4.82279343165935e-07
-2.44685553610625e-06
5.05298868084237e-06
-4.06337873138961e-07
-1.89223173615086e-07
7.53130821338232e-06
-2.3332738115739e-07
-4.71376756585542e-07
1.28530986297944e-05
-2.14759946757697e-08
-1.23416214212469e-06
1.76371360548492e-05
2.29488763751686e-07
-2.75238312563777e-06
4.30537886161691e-06
-7.71000597646808e-07
-1.43843257388116e-07
5.78304925823778e-06
-6.87348412793569e-07
-3.24929918792805e-07
8.41826205639232e-06
-5.66599817398387e-07
-5.90620437100294e-07
1.34729374676407e-05
-3.36524691465647e-07
-1.34479152409997e-06
1.79339896223902e-05
2.2946214866976e-09
-2.82852830225062e-06
3.74485223412268e-06
-1.09810783376217e-06
-1.07467794342543e-07
4.80612811627793e-06
-1.10268972148207e-06
-2.36036415284683e-07
6.46315467075457e-06
-1.07564949481366e-06
-3.92428921176575e-07
8.93988659747749e-06
-9.2616027015362e-07
-6.14226112003773e-07
1.3505924803354e-05
-6.07423519301132e-07
-1.31695817979691e-06
1.75202483891994e-05
-1.59296013002294e-07
-2.72459234873086e-06
3.25900001734186e-06
-1.39254907448837e-06
-7.47227277914665e-08
4.118868309407e-06
-1.48085934082511e-06
-1.66768143007815e-07
5.30055099978046e-06
-1.53914434749232e-06
-2.73206989237153e-07
6.8391380700602e-06
-1.46479209657678e-06
-3.91913965060265e-07
8.9588273832308e-06
-1.20605399254076e-06
-5.5703196308855e-07
1.31097881599873e-05
-7.88699773616452e-07
-1.19209919347006e-06
1.67120540060906e-05
-2.67032588301411e-07
-2.51393739613793e-06
2.82974067713455e-06
-1.65815592663748e-06
-4.42920795813179e-08
3.56763006041646e-06
-1.82385249259962e-06
-1.05826074133667e-07
4.49516008249755e-06
-1.95731047029747e-06
-1.79978129140989e-07
5.55635030408639e-06
-1.94530208484465e-06
-2.60356736614241e-07
6.81123948178674e-06
-1.73555585533747e-06
-3.38315848482875e-07
8.66817858139392e-06
-1.36745865782691e-06
-4.510872757567e-07
1.25322540394176e-05
-8.87721303827454e-07
-1.02506737471126e-06
1.57929069592779e-05
-3.29537361864882e-07
-2.26392262457997e-06
2.44934099485059e-06
-1.89874888588726e-06
-1.57907233541694e-08
3.09419804742911e-06
-2.13488282928745e-06
-4.86552329802805e-08
3.87460362950718e-06
-2.33383241178881e-06
-9.74305183825523e-08
4.68085774414534e-06
-2.37097751943213e-06
-1.56239197615175e-07
5.50099397140152e-06
-2.19507584994846e-06
-2.13098116116517e-07
6.55544932820924e-06
-1.86314291590555e-06
-2.58567939996227e-07
8.28054221015589e-06
-1.43489077978503e-06
-3.33660274261381e-07
1.19406152547506e-05
-9.26815764193308e-07
-8.55449071292958e-07
1.49154307814091e-05
-3.54458525195687e-07
-2.00867464724158e-06
2.67046873439242e-06
6.42709794062301e-09
3.34989110835949e-06
-2.6784903203676e-06
-1.80801055669143e-08
4.02137513303503e-06
-2.7552362543805e-06
-5.97552248940431e-08
4.62029264230605e-06
-2.60129557608009e-06
-1.08627343111377e-07
5.27773691513852e-06
-2.29055721793305e-06
-1.50213133040655e-07
6.24462822283066e-06
-1.90261978576387e-06
-1.74960799731432e-07
7.90298320728599e-06
-1.46234733976914e-06
-2.23858573378621e-07
1.14026521673154e-05
-9.60107973427506e-07
-6.94756746862035e-07
1.41475838468814e-05
-3.94434964541478e-07
-1.73965074173149e-06
1.35978933187402e-05
1.25733955335527e-06
-1.27968148857546e-06
1.11220464728647e-05
9.80314718587244e-07
-7.3640452508233e-07
1.55334484415643e-05
1.05248253043592e-06
-2.28712782039216e-06
6.96404926724615e-06
3.57500979091768e-07
-3.38949062467244e-07
1.26091209091979e-05
6.82813511752126e-07
-1.24665325247835e-06
1.68566655032306e-05
7.95181994727995e-07
-2.96113224057688e-06
5.43964887922569e-06
-1.40868940847603e-07
-2.38829457654816e-07
8.04626327045202e-06
9.34827365678706e-08
-6.03179405747936e-07
1.36155872192979e-05
3.19261909799485e-07
-1.57270943408913e-06
1.80281917577159e-05
4.71984706536294e-07
-3.30990057211922e-06
4.65167207556292e-06
-5.68184401064102e-07
-1.84446248780318e-07
6.20171040625747e-06
-4.24041179823837e-07
-4.17171334789296e-07
8.96247681960216e-06
-2.70646840685584e-07
-7.66415004853958e-07
1.42567816381892e-05
-6.50820254298922e-08
-1.72341889638417e-06
1.83920321841428e-05
1.76823719550605e-07
-3.38725817350117e-06
4.06057760485972e-06
-9.44677040724186e-07
-1.42049161041148e-07
5.17961671005524e-06
-8.94905444680099e-07
-3.09774894295691e-07
6.91964005766036e-06
-8.31412406371957e-07
-5.16597849429639e-07
9.50452086636603e-06
-6.74522930512938e-07
-8.17254761802781e-07
1.42721282935119e-05
-4.05363321553482e-07
-1.70335473269267e-06
1.7989101695636e-05
-3.86224054342198e-08
-3.25876797184895e-06
3.54433295405185e-06
-1.27947769688473e-06
-1.0396332277388e-07
4.4599862015382e-06
-1.32289647725562e-06
-2.28379675385326e-07
5.70572784876934e-06
-1.34560516649116e-06
-3.71257140704361e-07
7.31230752429815e-06
-1.25737137014211e-06
-5.34387362355956e-07
9.52035408565337e-06
-1.0165225329672e-06
-7.66647126640573e-07
1.38371454545642e-05
-6.43566405787397e-07
-1.56004525679768e-06
1.71640400351292e-05
-1.80494915068669e-07
-2.99608601928358e-06
3.0858559939492e-06
-1.57996907974514e-06
-6.86955501004079e-08
3.880414626087e-06
-1.71131487639889e-06
-1.57050356878053e-07
4.86467885976713e-06
-1.81574412809498e-06
-2.59687799033516e-07
5.97623423956012e-06
-1.78777885759845e-06
-3.70104275818372e-07
7.27809209541285e-06
-1.58185511993365e-06
-4.82973330680462e-07
9.20855712304967e-06
-1.23603567336491e-06
-6.50075893967628e-07
1.32141392669776e-05
-7.90240116997658e-07
-1.35078418020055e-06
1.62217615295224e-05
-2.73206825012578e-07
-2.66956943854165e-06
2.6776951643362e-06
-1.85162648378706e-06
-3.4883813197071e-08
3.38048707461862e-06
-2.0645433097246e-06
-8.98900754050609e-08
4.21530392487829e-06
-2.24227138494721e-06
-1.61564090317429e-07
5.06304622437133e-06
-2.26457658916732e-06
-2.42891098946455e-07
5.9119964772144e-06
-2.08489112927676e-06
-3.22022865903968e-07
7.00291280538612e-06
-1.76047525926956e-06
-3.92765125763536e-07
8.79902276538984e-06
-1.34981814283633e-06
-5.07462208917724e-07
1.25835861148705e-05
-8.68093878410851e-07
-1.12949308438486e-06
1.5321694425765e-05
-3.2414908265215e-07
-2.34604704718044e-06
2.30564805945864e-06
-2.09740697976987e-06
-2.37329111121028e-09
2.93114551477037e-06
-2.38669232492795e-06
-2.46584687877007e-08
3.66399105777308e-06
-2.62913231194092e-06
-6.74553167638028e-08
4.37398450447407e-06
-2.69330077604902e-06
-1.27716513130532e-07
4.99328740881961e-06
-2.53104705077382e-06
-1.9326303125438e-07
5.6693163521192e-06
-2.21744410141845e-06
-2.50375860474272e-07
6.67431243555926e-06
-1.83105779386327e-06
-2.92081791560233e-07
8.40757323759418e-06
-1.3947794155226e-06
-3.70293379568933e-07
1.20177631163838e-05
-8.96759364103712e-07
-9.28271819138216e-07
1.45240426083727e-05
-3.43420767710579e-07
-2.04170041266894e-06
3.16369116770479e-06
2.62708349265529e-08
3.79259470971441e-06
-3.08611574089035e-06
-1.35627548168901e-08
4.30935156988661e-06
-2.93488680994334e-06
-7.03009929940389e-08
4.78348977455068e-06
-2.62348983533874e-06
-1.29062254091792e-07
5.39693132117921e-06
-2.24885822104093e-06
-1.74892456110614e-07
6.37344000334828e-06
-1.84852178742092e-06
-1.99690977535955e-07
8.06129931454052e-06
-1.414721950874e-06
-2.53078954956143e-07
1.15367619782277e-05
-9.26839718827489e-07
-7.50710907973047e-07
1.38522029735867e-05
-3.81969288464111e-07
-1.74141164418376e-06
1.34683063757335e-05
1.69658423671561e-06
-1.56699409013732e-06
1.16855145617954e-05
1.63203786125575e-06
-9.38180404567091e-07
1.56132965726731e-05
1.41651222725311e-06
-2.77606084939414e-06
7.53800008637868e-06
8.42777988482212e-07
-4.36412329227138e-07
1.32557490381307e-05
1.25866047507047e-06
-1.58922605158269e-06
1.69877985264852e-05
1.14954329816049e-06
-3.56780028794237e-06
5.88127693517261e-06
2.18148760150434e-07
-3.02274830963465e-07
8.62451848497996e-06
5.40445850730783e-07
-7.74836333239747e-07
1.43760828412515e-05
7.96393801107082e-07
-2.00837410183422e-06
1.82778610528022e-05
8.03797754181703e-07
-4.01461181128452e-06
5.04513586180479e-06
-2.99286003410707e-07
-2.35046812325969e-07
6.66370504579335e-06
-7.38540043678356e-08
-5.33485688857433e-07
9.5424526256871e-06
1.24166514328567e-07
-9.88058858387036e-07
1.5050104874619e-05
3.05406158328467e-07
-2.19945133185899e-06
1.87500816773106e-05
4.19473135782694e-07
-4.08741520472093e-06
4.41931157000523e-06
-7.41609392172399e-07
-1.8530882104e-07
5.59355605121253e-06
-6.19674718665514e-07
-4.0275067080249e-07
7.40673424509317e-06
-5.02878635209892e-07
-6.72033216863848e-07
1.00866503695607e-05
-3.43603003944443e-07
-1.07002567080701e-06
1.5045133178983e-05
-1.33795913134321e-07
-2.18581648361301e-06
1.83851233421748e-05
1.28309437668171e-07
-3.91158248225439e-06
3.86756050868355e-06
-1.12732627799558e-06
-1.40577949509005e-07
4.8386132342611e-06
-1.11029020214054e-06
-3.05290384945193e-07
6.14314605300231e-06
-1.08503639146277e-06
-4.93572207778054e-07
7.8104446287255e-06
-9.78741703945782e-07
-7.10514649658393e-07
1.0087773336475e-05
-7.61917300337515e-07
-1.02812443372819e-06
1.45645037201159e-05
-4.50421841470368e-07
-2.01891263133825e-06
1.75587901463466e-05
-6.55638955454792e-08
-3.58793765647233e-06
3.37525462513222e-06
-1.46958760291637e-06
-9.92894039964407e-08
4.22759754496989e-06
-1.55263769187922e-06
-2.21405470844061e-07
5.26695113038957e-06
-1.61658161576802e-06
-3.59675834558741e-07
6.42240192049628e-06
-1.56718488863107e-06
-5.07611122368506e-07
7.75935950172461e-06
-1.36796334156199e-06
-6.64214087986861e-07
9.75223150144801e-06
-1.05333597233749e-06
-9.00554033589566e-07
1.38927289022214e-05
-6.54188768573315e-07
-1.76494075583623e-06
1.6602453327698e-05
-1.9308962326377e-07
-3.18369345859226e-06
2.93683475601891e-06
-1.77900816935608e-06
-6.01005348093798e-08
3.69933287786649e-06
-1.95569242852594e-06
-1.43164973374096e-07
4.58834570357174e-06
-2.10187257009598e-06
-2.43962991633741e-07
5.47312932040832e-06
-2.10390907506119e-06
-3.5364085144902e-07
6.34232493596873e-06
-1.92144107141707e-06
-4.60844599693755e-07
7.45824815239809e-06
-1.61005511491534e-06
-5.64287805106444e-07
9.31568885472685e-06
-1.22463581314299e-06
-7.32350652562953e-07
1.32182143442828e-05
-7.77437924238317e-07
-1.4811988021732e-06
1.56868376118837e-05
-2.74336881565859e-07
-2.76040068425995e-06
2.53636770577792e-06
-2.06079056076335e-06
-2.15551493010218e-08
3.22371066856708e-06
-2.3256983583729e-06
-6.62938795140844e-08
4.01059762332275e-06
-2.54544406904341e-06
-1.33323322587337e-07
4.75586919008175e-06
-2.59146539525217e-06
-2.16559468246828e-07
5.38851761871362e-06
-2.42027555275947e-06
-3.02735783066225e-07
6.07384730306261e-06
-2.10771059000648e-06
-3.79319640749698e-07
7.10624148278868e-06
-1.73090292480473e-06
-4.43607350673755e-07
8.90484619602272e-06
-1.31271153930759e-06
-5.60106453789597e-07
1.26213799139452e-05
-8.41260602611705e-07
-1.21597327369288e-06
1.4873512861234e-05
-3.15792874571504e-07
-2.37975171775871e-06
2.15289857434429e-06
-2.31463141897848e-06
1.70953831620429e-08
2.77704028660544e-06
-2.66425753674599e-06
9.92551314799685e-09
3.48398523777357e-06
-2.95052624053868e-06
-2.35590740296051e-08
4.1483415680602e-06
-3.03411646979485e-06
-8.23861319803503e-08
4.67735963058728e-06
-2.87007928043878e-06
-1.56690440483995e-07
5.15390690496765e-06
-2.55128504946353e-06
-2.29836968447455e-07
5.77848197069652e-06
-2.17449035896849e-06
-2.88492426673529e-07
6.79047383127196e-06
-1.77614531684485e-06
-3.27746458145935e-07
8.55039110400208e-06
-1.34675794317078e-06
-4.09384177318579e-07
1.21206984743053e-05
-8.63211655215681e-07
-9.9239549364851e-07
1.41799906139994e-05
-3.31213483273859e-07
-2.03826982519606e-06
3.58965819408553e-06
5.43302920568638e-08
4.07569250311171e-06
-3.28322199949774e-06
-8.88134021288544e-09
4.47369116291463e-06
-2.95460168489401e-06
-8.40870025597628e-08
4.90256347771722e-06
-2.5710448333232e-06
-1.5435040554013e-07
5.52100126453004e-06
-2.18146971540937e-06
-2.05379097702657e-07
6.52334334556455e-06
-1.78611779563102e-06
-2.31067320401627e-07
8.24861177271406e-06
-1.36430690109958e-06
-2.89495483717306e-07
1.17166566014962e-05
-8.93222490358173e-07
-8.04828320694392e-07
1.36092580251728e-05
-3.70825214078844e-07
-1.7174837641569e-06
1.32022517752454e-05
2.28132489270299e-06
-2.01527103847687e-06
1.20575287986088e-05
2.50645047186759e-06
-1.18187400930593e-06
1.55968895101899e-05
1.87670264131892e-06
-3.42729517967291e-06
8.21846372902908e-06
1.52075972620518e-06
-5.69188804188451e-07
1.3703754226226e-05
2.04502739031905e-06
-2.01470633012244e-06
1.70133866435864e-05
1.52560709345419e-06
-4.3273014542341e-06
6.39856854675186e-06
7.10925979585612e-07
-3.8543909367485e-07
9.2901849734619e-06
1.15661937954831e-06
-1.00003677434552e-06
1.5043582214584e-05
1.45105530149901e-06
-2.55824309662198e-06
1.83727740150457e-05
1.17551685788873e-06
-4.83821865268183e-06
5.50301595424733e-06
5.97694165266599e-08
-2.99501354885905e-07
7.18666282702627e-06
3.97099504333125e-07
-6.81885218124034e-07
1.01771923304114e-05
6.58775792724582e-07
-1.27196882903245e-06
1.58333583677676e-05
8.19372014223116e-07
-2.80721333796666e-06
1.89518504552209e-05
7.37442270398469e-07
-4.95382694743852e-06
4.83466261922318e-06
-4.74869146984519e-07
-2.39768046291127e-07
6.06080313256745e-06
-2.57171824596187e-07
-5.18974948412324e-07
7.93617862641682e-06
-7.24087782512639e-08
-8.66353721655261e-07
1.06943934985275e-05
9.46715103117542e-08
-1.38507595298687e-06
1.58161271188198e-05
2.36195304546737e-07
-2.78715533598172e-06
1.86675136933409e-05
3.52395127795432e-07
-4.72219005511498e-06
4.24007862842705e-06
-9.27407210722993e-07
-1.86720259778499e-07
5.26610124244274e-06
-8.30510478264835e-07
-4.01961671942978e-07
6.62397637925752e-06
-7.40813256644145e-07
-6.45646200406056e-07
8.33449077105256e-06
-6.0936285638837e-07
-9.30322135286697e-07
1.06605599821868e-05
-4.25908288003882e-07
-1.35070572240183e-06
1.52856404956819e-05
-1.93793105729048e-07
-2.58484790090219e-06
1.78660718566564e-05
8.81626270111607e-08
-4.30702185855177e-06
3.70646362761519e-06
-1.32065459142158e-06
-1.37880716641433e-07
4.61800781022595e-06
-1.33885499090378e-06
-3.02423731351429e-07
5.70970740020591e-06
-1.34815064286343e-06
-4.84932725441736e-07
6.89945935008783e-06
-1.27041045482491e-06
-6.78961926190842e-07
8.25655434936342e-06
-1.08105330464691e-06
-8.88565093998925e-07
1.02931804314942e-05
-8.08880373375612e-07
-1.21061019158436e-06
1.45589209107867e-05
-4.73376297651029e-07
-2.27731159006996e-06
1.6916127137627e-05
-8.82214208612803e-08
-3.81339737281668e-06
3.23274348621233e-06
-1.67347106258243e-06
-9.20245653464325e-08
4.05692476629469e-06
-1.79879841486923e-06
-2.10721403091558e-07
4.99981257326565e-06
-1.90126094305611e-06
-3.48193092296192e-07
5.91598010932141e-06
-1.87672391259097e-06
-4.92988499051162e-07
6.79438051928446e-06
-1.69307496011108e-06
-6.34555870321865e-07
7.92102421511225e-06
-1.40220702268924e-06
-7.78120785111418e-07
9.82798846337775e-06
-1.05257745002178e-06
-1.01446252803468e-06
1.3838948299495e-05
-6.51488576402284e-07
-1.92726772598888e-06
1.5995087350181e-05
-2.01366755430286e-07
-3.29060199347713e-06
2.80240486870671e-06
-1.99774271309962e-06
-4.73024262666575e-08
3.55362246418306e-06
-2.22414386446453e-06
-1.21560767021299e-07
4.39513844826109e-06
-2.41052447231463e-06
-2.19053824705687e-07
5.1716665828221e-06
-2.43269780754059e-06
-3.30972120469868e-07
5.80902419495716e-06
-2.25314657960076e-06
-4.42442463148547e-07
6.49274515427047e-06
-1.94675479531394e-06
-5.43042357800277e-07
7.54016205213766e-06
-1.58648202228318e-06
-6.36358593399003e-07
9.39375507126962e-06
-1.19437636267583e-06
-8.0432280906312e-07
1.32064194549876e-05
-7.57562452734086e-07
-1.58303098604682e-06
1.51771318747683e-05
-2.71871466390414e-07
-2.79214705070005e-06
2.38947617080989e-06
-2.2952380956264e-06
-2.12976336832498e-09
3.08140757641992e-06
-2.61974995517915e-06
-3.18704303954365e-08
3.84348606025972e-06
-2.88119514881905e-06
-9.0043483792754e-08
4.53972121923253e-06
-2.94261074413007e-06
-1.73557931619204e-07
5.07345418379298e-06
-2.76405144411936e-06
-2.68878209969676e-07
5.54292906139525e-06
-2.44012471750739e-06
-3.59342327970935e-07
6.16832588799177e-06
-2.06629017687867e-06
-4.33774173593176e-07
7.20471755059127e-06
-1.67826996534548e-06
-4.92287834202285e-07
9.0266003731848e-06
-1.26738802805043e-06
-6.10190235502936e-07
1.26854965218177e-05
-8.10604206994053e-07
-1.2859368878394e-06
1.44757132783861e-05
-3.04937807371884e-07
-2.37052703098196e-06
1.96513178597089e-06
-2.56066163236074e-06
4.44973239968106e-08
2.61256718648409e-06
-2.98107184297476e-06
5.95314323219989e-08
3.31166035853463e-06
-3.31192413389384e-06
4.01686007045577e-08
3.95545502581305e-06
-3.40834373343195e-06
-1.5127484210525e-08
4.44848491395832e-06
-3.22883699669472e-06
-9.64193898924692e-08
4.83960189136965e-06
-2.88686868496815e-06
-1.87018058101917e-07
5.26329899575735e-06
-2.49633001788197e-06
-2.68732077772895e-07
5.89102734052608e-06
-2.10512769214564e-06
-3.29534214151667e-07
6.9281511464264e-06
-1.7123928689465e-06
-3.6692259622852e-07
8.72365172261355e-06
-1.29546107875498e-06
-4.52168942234422e-07
1.22712507115609e-05
-8.28535713343568e-07
-1.04968615816985e-06
1.38927027115932e-05
-3.16482559301752e-07
-2.00522787200737e-06
3.86707683186861e-06
8.18873177654126e-08
4.24303305110503e-06
-3.29845568837589e-06
-1.00897125852502e-08
4.5969386151996e-06
-2.88936559945014e-06
-1.05058754386853e-07
5.02762687288648e-06
-2.48936504467563e-06
-1.86899913712315e-07
5.66622342781054e-06
-2.10488525252441e-06
-2.43100859544434e-07
6.69984645220388e-06
-1.72103530599458e-06
-2.7022748545999e-07
8.47431384917302e-06
-1.31379071965209e-06
-3.35194810936941e-07
1.19574088015778e-05
-8.61533053498534e-07
-8.59894604378921e-07
1.34149759925265e-05
-3.5527930179145e-07
-1.67951058608282e-06
1.26988065118094e-05
3.01737757473147e-06
-2.51392415190078e-06
1.21702550914399e-05
3.63925027797468e-06
-1.47065155927708e-06
1.54071129495709e-05
2.56796790313438e-06
-4.39348633497837e-06
9.00501142952148e-06
2.47635553264848e-06
-7.56447151574234e-07
1.38352012887724e-05
3.08029057431578e-06
-2.51692221929088e-06
1.69426719979473e-05
1.98798648107485e-06
-5.34455961287858e-06
7.01428358563568e-06
1.396203772265e-06
-4.91159142221166e-07
1.00594501941313e-05