/*--------------------------------*- C++ -*----------------------------------*\
  =========                 |
  \\      /  F ield         | OpenFOAM: The Open Source CFD Toolbox
   \\    /   O peration     | Website:  https://openfoam.org
    \\  /    A nd           | Version:  12
     \\/     M anipulation  |
\*---------------------------------------------------------------------------*/
/*   Windows 32 and 64 bit porting by blueCAPE: http://www.bluecape.com.pt   *\
|  Based on Windows porting (2.0.x v4) by Symscape: http://www.symscape.com   |
\*---------------------------------------------------------------------------*/
FoamFile
{
    format      ascii;
    class       volVectorField;
    location    "800";
    object      U;
}
// * * * * * * * * * * * * * * * * * * * * * * * * * * * * * * * * * * * * * //

dimensions      [0 1 -1 0 0 0 0];

internalField   nonuniform List<vector> 
10142
(
(5.02406566269491e-06 0.00335022822647024 6.89185082656761e-05)
(7.0153971882006e-06 0.00350798538575586 5.8407714103267e-05)
(3.38779318331224e-06 0.00269002356824349 0.000247102683890942)
(2.74887004502341e-05 0.00350375051657619 6.39812340536877e-05)
(1.24563366323675e-05 0.00363311445397047 6.56033621447287e-05)
(5.08734294890645e-06 0.00287927877035667 0.000238347539428788)
(3.32920090735361e-05 0.00365411763799333 5.40338831390962e-05)
(1.65348450219534e-07 0.002010336760217 0.000399222875676408)
(2.25259031945856e-05 0.00286545154414257 0.000258475908660501)
(5.18193796504478e-05 0.00356457527895441 6.55636467765403e-05)
(1.30194801839058e-05 0.00375551647255568 5.57969750244245e-05)
(6.83657885962587e-06 0.00305810602042094 0.000240342857092458)
(4.30370881636771e-05 0.00374003350845494 6.08900453395013e-05)
(-9.80348286069202e-08 0.00216581607768331 0.000389685250474207)
(2.65049639826345e-05 0.00304770482126084 0.000246396878233036)
(5.5817214452706e-05 0.0037101071742571 5.39376752519647e-05)
(-1.75179076919986e-06 0.00171033425758826 0.000522346323987837)
(7.16499328815846e-06 0.00214820604239416 0.000426650698721001)
(4.28645937746852e-05 0.00293978461105463 0.000272333736127778)
(8.05474853585914e-05 0.00360931301079457 6.85703563103224e-05)
(8.14207901637008e-06 0.00389101901473251 3.36533950178707e-05)
(5.10696179587249e-06 0.0032332823969204 0.000216217383480877)
(4.28560892172409e-05 0.00383241436762925 4.5440336479185e-05)
(-1.45226045276768e-06 0.00231304395772656 0.000376735659280885)
(2.97711948051112e-05 0.00321897673250316 0.00024050394768775)
(5.88826722249355e-05 0.00378819554967674 5.96421723300204e-05)
(-3.17161212769398e-06 0.00184185326342053 0.000508297578872449)
(6.21803457720975e-06 0.002305781773158 0.000412169734780852)
(4.32971286223361e-05 0.00312137287041856 0.000257657957887269)
(7.94685482771355e-05 0.00375292056737118 5.50122302196585e-05)
(-2.3497495104751e-06 0.00155315323355436 0.000637725718145954)
(-2.25150625323669e-06 0.00181040237505959 0.000563670532054585)
(1.52703823544409e-05 0.00222749373986933 0.000452389855490225)
(6.86719970509689e-05 0.00298692486205861 0.000283774306961713)
(0.000112917207850126 0.00362715259928859 6.9201959155757e-05)
(9.53986745473016e-07 0.00400830079840448 3.80657560375767e-06)
(1.01316002456841e-06 0.00341973068938224 0.000171358939850947)
(3.45925411454135e-05 0.00394216425103935 1.8523451855335e-05)
(-4.25578707429269e-06 0.00246008508480083 0.000346289713241686)
(2.5473678866386e-05 0.0033916320284654 0.000207767193142077)
(5.16843283467801e-05 0.00387571230593376 4.24242744383265e-05)
(-5.51699969007239e-06 0.00197105942421156 0.000487105540952659)
(2.31932289737402e-06 0.00245872662894246 0.00039231294623446)
(4.09712273950042e-05 0.00329230659776669 0.000247438241625969)
(7.40448629392135e-05 0.00382833460919056 5.83802486363892e-05)
(-4.28549234280192e-06 0.00167296963247869 0.000619831196470076)
(-6.33083659451113e-06 0.00194744302288359 0.000544785118055997)
(1.03936832652862e-05 0.00238828991744208 0.000435147249177643)
(6.37172608369131e-05 0.00316852545595101 0.000266954446682095)
(0.000105343356119726 0.00376768165755329 5.39923203817705e-05)
(-2.52586038631606e-06 0.00144964813206812 0.000746652978588533)
(-5.84962815224327e-06 0.00162938353947505 0.000690597480482219)
(-1.0947880257974e-06 0.00187650229539827 0.000600142662322659)
(2.71153222563095e-05 0.00227872170166967 0.000472024652823975)
(0.0001000608571302 0.00302782769012788 0.000286612504791222)
(0.00014858147031342 0.00362701162385204 6.73847685888635e-05)
(-5.78780379030047e-06 0.00408001460136042 -3.28545468306232e-05)
(-4.27080591373865e-06 0.00360751143932599 0.000112561625077455)
(2.314378230685e-05 0.00403060038493618 -1.37781682731799e-05)
(-8.07424610683478e-06 0.0026130922539749 0.000299623226810401)
(1.56446125865643e-05 0.00357335637266955 0.000157167160362967)
(3.8263942485544e-05 0.0039838771818708 1.4656321061312e-05)
(-8.7696383846237e-06 0.00210394329348773 0.000451145968002118)
(-5.57962253846026e-06 0.00261308021207811 0.000355386467185898)
(3.02545725464575e-05 0.00346529278560278 0.000210440141053894)
(6.09846107831265e-05 0.00391623318301491 3.97421830536318e-05)
(-7.05068989774185e-06 0.00179496020174265 0.000592795828592027)
(-1.31036745287651e-05 0.00208416792695153 0.000517269880594837)
(1.0015421823697e-06 0.00254573724330911 0.000411586605672193)
(5.41065667765043e-05 0.00333827702808526 0.000254494176126586)
(9.27259793504903e-05 0.00384592079004666 5.47914646685596e-05)
(-4.75965117981309e-06 0.00156366697214264 0.000726063425883493)
(-1.1482057980798e-05 0.00175528043175265 0.000668169845681851)
(-9.62530321452347e-06 0.00201816419507629 0.000578761074251096)
(1.70328831472518e-05 0.00244066168541392 0.000453202378495688)
(8.96916030794035e-05 0.0032081710101734 0.000268146124841658)
(0.00013574763404498 0.00376608428239627 5.15416077276431e-05)
(-2.35372122850451e-06 0.00136839449694914 0.000851729615897547)
(-6.44224455237668e-06 0.00151399490911756 0.000809580537644156)
(-7.62479946709883e-06 0.00168385900695073 0.000735637270140222)
(2.2912089220844e-06 0.00192370400069788 0.000626561473062164)
(4.39672685147627e-05 0.00231890829088474 0.000478950459013023)
(0.000134256430532305 0.00307273508662955 0.000280982996259418)
(0.000185660207413333 0.00362154120330096 6.38126022252206e-05)
(-1.15508627056428e-05 0.00408498588834362 -7.76315837537313e-05)
(-1.01691908601977e-05 0.00378877513758706 4.07814546088278e-05)
(1.09169964956627e-05 0.0040633101072629 -4.91305886208971e-05)
(-1.28427365085784e-05 0.00277140713920604 0.000236014008099611)
(2.25678155438327e-06 0.00374878331543439 9.68747574914145e-05)
(2.27349618202631e-05 0.0040683204968868 -1.62157192540856e-05)
(-1.2769169228617e-05 0.00224346845385643 0.000398591286438979)
(-1.66222569654567e-05 0.00277084586382749 0.000303447257014482)
(1.24180361681471e-05 0.00364710676233629 0.000157822355674984)
(4.06063782555885e-05 0.00402791485462338 1.28629676205093e-05)
(-1.05918154619358e-05 0.00192319599586776 0.000551734108915552)
(-2.25777291177102e-05 0.00222484015467351 0.000474448121179229)
(-1.42693340117456e-05 0.00270498959257105 0.00037057049563774)
(3.57341272138774e-05 0.00351029398539724 0.000216703222408559)
(7.49147787700878e-05 0.00393560038052772 3.65033858015721e-05)
(-7.75881148631307e-06 0.00168267925520037 0.000695485848881236)
(-1.95951425599454e-05 0.00188424579336876 0.0006348276281503)
(-2.24632479315723e-05 0.00216039183706527 0.000547699391925377)
(1.10419734784685e-06 0.00259892398324453 0.000428303649890622)
(7.25874909322826e-05 0.00337641431573566 0.000255169395975496)
(0.000118615077601831 0.00384344153787513 5.18720382932961e-05)
(-4.74257645077806e-06 0.00147891131767818 0.00082942228111042)
(-1.30127596568412e-05 0.00163461323064492 0.000784692050529002)
(-1.81588802669019e-05 0.0018145146734052 0.000711017832746399)
(-1.15656363253775e-05 0.00206734484054317 0.000603953930821367)
(2.86536299625549e-05 0.00247980970311312 0.000459372657842747)
(0.000119080430476448 0.00325101661106404 0.000262044468113882)
(0.000168311898065431 0.00375423161501139 4.93021785137419e-05)
(-1.66890422429187e-06 0.0012969412901927 0.000955272885976905)
(-4.92453748798531e-06 0.0014272687453951 0.000925136712071016)
(-8.45660885132107e-06 0.00156191406276046 0.000861948502976747)
(-7.75186841780736e-06 0.00172637857360439 0.000766855501761566)
(9.23032201937991e-06 0.0019617202319352 0.00063590142932723)
(6.34290841181886e-05 0.00236043763899711 0.000473446036614998)
(0.000168094975646106 0.00312402497407212 0.000270126774516932)
(0.000219671091787375 0.00361442978411958 5.92660459424988e-05)
(-1.62561129041256e-05 0.0040048189715117 -0.000129577223927941)
(-1.7490986234303e-05 0.00395229692089835 -4.69534660612662e-05)
(-3.95969897140356e-07 0.00401160552972963 -9.11863735081535e-05)
(-1.8889288257797e-05 0.00293434191722799 0.000152999583967272)
(-1.42987126181613e-05 0.00390558740277153 2.83825818246972e-05)
(4.50563670249491e-06 0.00409210112338858 -4.73298449599419e-05)
(-1.76898812390107e-05 0.00239092893404637 0.000326682033023523)
(-3.07040917343408e-05 0.00292870107872907 0.000235787399398027)
(-1.1115814145872e-05 0.00381955801943729 9.81301179621725e-05)
(1.63443680583215e-05 0.00410921775247972 -1.29094115061831e-05)
(-1.48608113022731e-05 0.00205963984775705 0.000494077619374713)
(-3.4479558312242e-05 0.0023704725692179 0.000414409842627577)
(-3.47451689462424e-05 0.00286663651621142 0.000314716968157556)
(8.1409670847138e-06 0.00369013703089589 0.000166282634485491)
(4.96138478932078e-05 0.00403856000543629 1.52180434743214e-05)
(-1.15231955239951e-05 0.00181006184688849 0.000650938391149693)
(-3.0069572000077e-05 0.00201932869077348 0.000585768710397532)
(-3.98967242102342e-05 0.00230659696146446 0.000500425595465795)
(-2.23536250933166e-05 0.00275839475204409 0.000386037311057943)
(4.56634451771459e-05 0.00354453426870166 0.000220761092212705)
(9.23112254620519e-05 0.0039236462851002 3.6264067002701e-05)
(-7.91276472865538e-06 0.00159637846677062 0.000796954506805694)
(-2.19701060313047e-05 0.00176074899288595 0.000747602235156676)
(-3.28070224436103e-05 0.00194874401046478 0.000674275141488473)
(-3.11627272342473e-05 0.00221129641189228 0.000571309161348902)
(5.96923854864744e-06 0.00263610193993817 0.000434529790812864)
(9.51915794860022e-05 0.00341572870185609 0.000251061910345724)
(0.000144543213022401 0.00382280836419074 5.13886805796445e-05)
(-4.11425342103706e-06 0.00140509504200981 0.000932169841423136)
(-1.2072639936164e-05 0.00154552140970572 0.000898798992417255)
(-2.02474924846169e-05 0.0016874909065695 0.000835287884242924)
(-2.38755656794557e-05 0.00185925104348943 0.00074124865337895)
(-1.0026161725221e-05 0.00210476688127157 0.000612663958412662)
(4.34965398254564e-05 0.00251907828130918 0.000453468666235539)
(0.000148546484457433 0.00329846536239503 0.000251982264167388)
(0.00019698782293409 0.0037359692145663 4.61962643973678e-05)
(-3.01848032849772e-07 0.00122777340326464 0.00105894309033179)
(-1.4428730662012e-06 0.00135286982770464 0.00104134915894852)
(-4.86501403937e-06 0.00147168999074715 0.000985046511487861)
(-8.66378462050658e-06 0.00160162797227247 0.000897032384476568)
(-5.34860880555591e-06 0.00176298818678813 0.000777206645844738)
(1.78562846948575e-05 0.0020004651820404 0.000629181870669492)
(8.25781361405182e-05 0.00240818835498866 0.00045925683159907)
(0.000198586025361906 0.00318194436832696 0.000256179516481501)
(0.000248339366872394 0.00360739584061334 5.37627740033169e-05)
(-2.04562849702994e-05 0.00383025765509871 -0.000192795540924318)
(-2.77545925398504e-05 0.00408452779934527 -0.00015512033941392)
(-1.22897615891635e-05 0.00385474932743717 -0.00014930170637115)
(-2.67077555042659e-05 0.00309997800093973 4.40863917372032e-05)
(-3.52566295844905e-05 0.00402639437466121 -5.21697048412857e-05)
(-1.86378926553125e-05 0.00402398089046337 -8.53701024229265e-05)
(-2.38424843918949e-05 0.00254814526050939 0.000231517653543774)
(-4.84607719828728e-05 0.00308355026570722 0.000149354461560826)
(-4.18204782677012e-05 0.00396801452349172 3.14269521902357e-05)
(-1.74971782051585e-05 0.00411990915696794 -3.61895052812223e-05)
(-2.00119636232676e-05 0.00220643463101112 0.000416520589315144)
(-4.92797496325545e-05 0.00252097299288363 0.000334243994606262)
(-6.06012691254272e-05 0.00302570418393448 0.000243286593227515)
(-2.87955792557853e-05 0.00385624218087517 0.000110723325361617)
(1.00386853207406e-05 0.00410343989729368 -2.28245451068264e-06)
(-1.60819500619659e-05 0.00194755532527189 0.000589439835588827)
(-4.28218955093279e-05 0.00216140141041519 0.000518254465091705)
(-6.19455782790892e-05 0.00245683214634476 0.000434970205002302)
(-5.33002514614699e-05 0.00291897053676549 0.000329175524686853)
(6.85971865482289e-06 0.00371596291607235 0.000176089795130181)
(5.1996132611156e-05 0.00401042412829706 1.98488048577984e-05)
(-1.18802455791507e-05 0.00172416752157842 0.000750311107998511)
(-3.32889622177894e-05 0.00189505946973688 0.000693900199540465)
(-5.17326940377883e-05 0.00208905878372059 0.000620372450389594)
(-5.73363174555638e-05 0.00235847794395564 0.00052200516968532)
(-2.58227220934841e-05 0.00279204183531169 0.000393055497411231)
(5.89012718438007e-05 0.00357545065114833 0.000220105083345815)
(0.000107557511656547 0.00388950642071883 3.79370484361207e-05)
(-7.42775451444762e-06 0.00152160415630605 0.000899150787976826)
(-2.16961163545368e-05 0.0016712772416179 0.000859655010758623)
(-3.61532706521586e-05 0.00181898942744098 0.0007949889263052)
(-4.56131986261892e-05 0.00199539457055627 0.000703001335360143)
(-3.64253222808016e-05 0.00224717728910633 0.000579684358091941)
(1.47067866933741e-05 0.00267159313139209 0.000429261399699994)
(0.000118135486132525 0.00345695860373715 0.000242228949176608)
(0.000166627031140688 0.00379366656197974 5.03641807832136e-05)
(-2.79635767249358e-06 0.00133446403675658 0.00103690795143181)
(-8.85310985866929e-06 0.0014706707366058 0.00101489205600115)
(-1.75393790716379e-05 0.00159556683292255 0.000957490535167634)
(-2.63242869977068e-05 0.00172964491965846 0.000869698844354386)
(-2.7128516560044e-05 0.00189549754045864 0.000751027849346017)
(-6.22545176363407e-06 0.00214150027958353 0.000605386055745725)
(5.87034360961362e-05 0.00256393539967034 0.00043887161927384)
(0.000174949967069161 0.00335104301282449 0.000238318241082561)
(0.000220794432745086 0.00371647025111216 4.17672870191374e-05)
(4.33826704436653e-06 0.00128139415154252 0.00116159446225738)
(2.8291553702991e-06 0.00139470297259291 0.00111029265024869)
(-2.41311847332522e-06 0.00150989363533217 0.00102405738145448)
(-6.92509203713639e-06 0.00163792734448296 0.000907829600091393)
(-2.19516044220094e-06 0.00180121163040501 0.000768537507471816)
(2.58982509857739e-05 0.00204506569298627 0.000611321640472365)
(9.92507911816466e-05 0.00246389229502099 0.000439579450840306)
(0.000224331166580526 0.00324767122310333 0.000239538887495251)
(0.00027200593578307 0.00360156778602424 4.63194888831739e-05)
(-2.55420894501771e-05 0.00355516153090854 -0.000261339335653859)
(-3.99602581931319e-05 0.00416667276134345 -0.000287691025181159)
(-2.5398465757312e-05 0.00357684836160058 -0.000203768670592156)
(-3.69572241909388e-05 0.00326942593118286 -0.000102113421661163)
(-6.24163386895326e-05 0.00409557766169011 -0.000151936073754193)
(-5.15325380099982e-05 0.00384348812037254 -0.00014160948681144)
(-3.14866953399908e-05 0.00271698791379459 0.000106301832084754)
(-7.06262574234187e-05 0.00323190835095719 3.69550996012304e-05)
(-8.08605375693551e-05 0.00407363266614724 -4.71573104613256e-05)
(-6.61503384080885e-05 0.0040357996996728 -6.97048013082526e-05)
(-2.63564392509575e-05 0.00236637524365803 0.000314749928848325)
(-6.75009035258549e-05 0.00267713229095003 0.000229894068223593)
(-9.28794080537685e-05 0.00317769170210535 0.00015243384310522)
(-7.7518179265873e-05 0.00399289469131715 4.70403094139653e-05)
(-4.77163609624146e-05 0.00409770034385654 -2.36305505034841e-05)
(-2.16434807989187e-05 0.0020978205809187 0.00050755253042177)
(-5.82501282643993e-05 0.00231166732939711 0.000428842652892071)
(-8.92437241574287e-05 0.00261018066758356 0.000348266714573764)
(-9.24485009013648e-05 0.00307410948283611 0.000256571251870078)
(-4.60507653936817e-05 0.00386933362873829 0.000124278360059441)
(-5.52745619977453e-06 0.00405830785676867 6.3704784875757e-06)
(-1.67152072062094e-05 0.0018640263931851 0.000686291883139991)
(-4.70309265935081e-05 0.0020384649902342 0.000620321782444517)
(-7.51132838782475e-05 0.00223573574291537 0.000546306851737512)
(-9.05259798048557e-05 0.00250849375277818 0.000454052650486574)
(-6.74137899762836e-05 0.00294685247469796 0.000337447867628527)
(7.32279708254134e-06 0.00373499631862215 0.000178358893811442)
(5.35805973239395e-05 0.0039610646562664 2.37933205447031e-05)
(-1.16018317112218e-05 0.00165055564045133 0.000851743077904319)
(-3.38442500166217e-05 0.00180733428167774 0.000802822588247742)
(-5.64245303609206e-05 0.00195871634525174 0.000736127202833166)
(-7.3688289400615e-05 0.00213701952267772 0.000646846194008164)
(-7.12409669357718e-05 0.00239147940209864 0.000530328129756577)
(-2.50196748146029e-05 0.00282155937785387 0.000389007576301199)
(7.31860470743528e-05 0.00360622007913489 0.000212991240804825)
(0.000123279769359221 0.00384748992758125 3.82156578894221e-05)
(-6.16782438737321e-06 0.00145083276317107 0.00100501479214347)
(-1.90149516011104e-05 0.00159761234359665 0.000975256756698103)
(-3.44839601385727e-05 0.00172743813182337 0.000915488852046536)
(-4.96857910388043e-05 0.00186330792977142 0.000828100177984363)
(-5.59518540576698e-05 0.00203035108789286 0.000712363790637257)
(-3.87279054917014e-05 0.00228050563644557 0.000572457650965412)
(2.47619522313614e-05 0.00271157006648863 0.000414907214760701)
(0.00013937492811092 0.00350226024021288 0.000229014686588796)
(0.000186847380772136 0.00376289183970169 4.64907726443856e-05)
(-5.97583763361979e-07 0.00125997780150962 0.00114653821978316)
(-3.26205769896617e-06 0.00140030024283325 0.00113723271706521)
(-1.02995656607903e-05 0.00151939837110067 0.00108353151958255)
(-2.11796760452959e-05 0.0016366816625002 0.000996215241695264)
(-3.04839116720055e-05 0.00176576837744782 0.000879968899477323)
(-2.90789068390008e-05 0.00193188689461563 0.000741610358321775)
(-2.21106979817767e-06 0.00218352175546176 0.00058669148521737)
(7.22283587156393e-05 0.00261637814994647 0.000418410616515662)
(0.000197693183805042 0.00341079788801655 0.000221499481483905)
(0.000241179527666281 0.00369827745853975 3.4772367311773e-05)
(1.51750898838617e-05 0.00132050479895168 0.00124211299030257)
(1.05896675831441e-05 0.00143161009645014 0.0011540179680259)
(1.73640141634347e-06 0.00154649840596044 0.00103505946356902)
(-5.21709018559945e-06 0.00167687757653941 0.000896903605986962)
(-1.67471016156081e-07 0.00184542069800594 0.000746799580909806)
(3.17403772682146e-05 0.00209748430844366 0.000586635306390768)
(0.000112437779137871 0.00252829335538574 0.000416183707904847)
(0.000245151368004214 0.00332308409088432 0.000220378107783289)
(0.000289322949589311 0.0035977545145852 3.7304567258693e-05)
(-3.14424624889951e-05 0.00319291748922094 -0.00032259020159671)
(-5.3365836153244e-05 0.00417576626817005 -0.000452525465656512)
(-3.57177420572154e-05 0.00318318107024182 -0.000242443676170552)
(-4.98966527946339e-05 0.00344462141445715 -0.000298999849934608)
(-9.1024820527628e-05 0.00408567501770115 -0.000271824651157432)
(-8.85048552243206e-05 0.00354098340730412 -0.000192383626966044)
(-4.10655752760987e-05 0.00290110497947113 -5.97807919861316e-05)
(-9.81796411034203e-05 0.00337289028978496 -0.000113196124250819)
(-0.000128117187616914 0.0041197837886644 -0.000145341639631682)
(-0.000128598183508618 0.00384468384991903 -0.000124948791001183)
(-3.41027843338582e-05 0.00254313686165395 0.000182494467785453)
(-8.98067571852054e-05 0.00283989052066126 9.44393838081662e-05)
(-0.000132438812938353 0.00331782085828575 3.48817032296976e-05)
(-0.000137446571790545 0.00408267675397308 -3.1585817939199e-05)
(-0.000122473200547474 0.00400178519951919 -5.91660269271043e-05)
(-2.84363258916715e-05 0.00226424453717839 0.000400962009119999)
(-7.71551230168446e-05 0.00247226483709463 0.00031313064661338)
(-0.000122818362428863 0.00276662545722312 0.000236197156839723)
(-0.00014099888124046 0.00321845196909719 0.000163984146065243)
(-0.000114156750947545 0.00399053200697509 6.16956742508129e-05)
(-7.99896982215835e-05 0.00403664474865028 -1.85205131807361e-05)
(-2.26536923076495e-05 0.00201879550695281 0.000601499378743141)
(-6.37605094593602e-05 0.00219288614794465 0.000523346565907513)
(-0.000103788189916907 0.00238920393376428 0.000448471419908332)
(-0.000131550259825616 0.00265958213078174 0.000364465940405401)
(-0.000119992348845769 0.00309332399975334 0.000265725341403005)
(-5.99616817408023e-05 0.00387352665164341 0.00012823564647587)
(-1.7351550470677e-05 0.00399414126164975 7.39325027351168e-06)
(-1.67191563099493e-05 0.00179360415904761 0.000786334158025098)
(-4.86910442903793e-05 0.00195463062156997 0.000724635565064525)
(-8.14239158511667e-05 0.00210703971709379 0.000655091068731295)
(-0.000108727895090751 0.00228389832140242 0.000569646534597139)
(-0.000115261154002239 0.0025368950124658 0.000462615142028239)
(-7.65484322163428e-05 0.00296794829270567 0.000334857708302749)
(1.13995448424041e-05 0.00375325296636742 0.000172717317005703)
(5.9616704615019e-05 0.00390486334830299 2.34403844192106e-05)
(-1.0547141492868e-05 0.00158192651870239 0.000958304485053792)
(-3.19802018975679e-05 0.00173732744995489 0.000916809249630105)
(-5.61164223543087e-05 0.00186984278851152 0.000853374308810914)
(-7.9600225379619e-05 0.00200468608898539 0.000766944041610777)
(-9.30566065791894e-05 0.00216954709187597 0.000655887816869418)
(-8.1271549104953e-05 0.00241970224025547 0.000523843534367637)
(-2.16341764658282e-05 0.00285434589322766 0.000375451910947718)
(8.84549605329944e-05 0.00364100149911544 0.000200920821690775)
(0.000140056978073642 0.00380462985700975 3.52857121915093e-05)
(-4.00919080770865e-06 0.00137743505440968 0.00111834683827163)
(-1.36533465987342e-05 0.0015304087591502 0.00109938656918965)
(-2.80727399668041e-05 0.00165386033014747 0.00104164271692871)
(-4.59213001597032e-05 0.00177127763454097 0.000953249535538699)
(-6.12727271017493e-05 0.00189838915853777 0.000837968513623846)
(-6.42707170672187e-05 0.00206358239000333 0.000702773259053302)
(-3.97724308455824e-05 0.00231829209855383 0.000553636070629068)
(3.43469220907491e-05 0.00275882216427902 0.000394229164098469)
(0.000159270413039774 0.00355470520079071 0.000212246530899708)
(0.000205465802176962 0.00373350239231101 3.99868848565781e-05)
(2.80042122331402e-06 0.00117342529522833 0.00126516214760367)
(5.47012108873588e-06 0.00132659102327967 0.00127071984944047)
(1.77196718531205e-06 0.00144780654513614 0.00121874042093354)
(-8.75324189337032e-06 0.00156004766255089 0.00112756810531979)
(-2.31169303260119e-05 0.00167339908404536 0.00100673383692358)
(-3.41545747876131e-05 0.00180300337352629 0.000868087057049907)
(-3.13548804568714e-05 0.00197370620033044 0.000718673004285773)
(4.99394742009431e-07 0.00223325946924278 0.000560760041800808)
(8.32904153435599e-05 0.00267754547874524 0.000393845525833045)
(0.000216628837793648 0.00348041506855624 0.000201642615140577)
(0.000256790481510776 0.00368249617468505 2.61788254756758e-05)
(3.12935167796727e-05 0.00135584110326917 0.0012918804362025)
(2.00548713423528e-05 0.00146857592381959 0.001165135907337)
(5.15317535327072e-06 0.00158678394716194 0.00102136747287226)
(-5.34600655399177e-06 0.00172211117946174 0.000871170691716802)
(-5.642042803749e-07 0.0018973186115786 0.000717223346235189)
(3.46171816889767e-05 0.00215821091029129 0.000557724559407911)
(0.000121903930297859 0.00260199257072369 0.000389895964446537)
(0.000260701248147815 0.00340965219783538 0.000198667672009878)
(0.000300285892938575 0.00359617915181007 2.72115439601903e-05)
(-4.59936537255253e-05 0.0027949999287081 -0.000370576879820467)
(-7.04385761091894e-05 0.00409358015412906 -0.000654564278529093)
(-3.72270696184919e-05 0.00267798078269784 -0.000267631280819452)
(-6.59959028866214e-05 0.00362691323806526 -0.00056096989846549)
(-0.000119111173221223 0.00397218445132232 -0.000417003544893533)
(-0.000112925308284905 0.00312337316320608 -0.000221470439020732)
(-5.2991219570101e-05 0.00310604101256244 -0.000280464808779254)
(-0.000131475580160698 0.00350661325631535 -0.000313389455006972)
(-0.000177292314936673 0.00407903237066905 -0.000261102258965204)
(-0.000189328914429885 0.00354177950303264 -0.000178225161368591)
(-4.36324267413177e-05 0.00274201744805076 1.0048652753469e-05)
(-0.000117068485633548 0.00301209670192789 -8.27519034193652e-05)
(-0.000180181216641258 0.0034431739274702 -0.000120504794769249)
(-0.000205690199339622 0.00411270406741304 -0.000131027590435295)
(-0.00020781162564146 0.00380682036893092 -0.000114242058109791)
(-3.67697982722988e-05 0.00245153539747511 0.000263810587744033)
(-0.000100135439295887 0.00264640808006483 0.000164957570602561)
(-0.000163894277717457 0.00292605941342765 9.18605746352893e-05)
(-0.000199377704406148 0.00334644840943714 4.46317920558562e-05)
(-0.000194131701203814 0.00406436362451823 -1.86605187938867e-05)
(-0.000169887113273548 0.00393195178960563 -5.63325965538482e-05)
(-2.99553624742027e-05 0.00219226655464323 0.000491970487338693)
(-8.42371422618884e-05 0.00236106609195151 0.000398671533230803)
(-0.000138896160561131 0.00255100099744861 0.000322572760769349)
(-0.000182011810936174 0.00281082917476775 0.000249052805388249)
(-0.000184390844216244 0.00322570605672512 0.0001738771035437)
(-0.000142259052401644 0.00397899899797727 6.67903332072109e-05)
(-0.000102105011370473 0.00395914797638169 -1.86009024050793e-05)
(-2.30497064139336e-05 0.00195353277249824 0.000699610658845645)
(-6.69125850680482e-05 0.00211517650132201 0.000621579790621307)
(-0.00011213757311571 0.00226516023544517 0.000548262211550522)
(-0.000152006750243192 0.00243588012820465 0.000467891842865472)
(-0.000169693953454509 0.0026809270956661 0.000373547727971692)
(-0.00014067094698727 0.00310366140217841 0.000264934320277878)
(-6.59784260761734e-05 0.00387800439599213 0.000123807080534214)
(-2.0463902584645e-05 0.00392431888325359 5.12886288172656e-06)
(-1.59650314913171e-05 0.00172954593599138 0.000892629346433811)
(-4.79837455209339e-05 0.00189052425530385 0.000835166813481681)
(-8.29792604008634e-05 0.00202314430616577 0.000767010910274785)
(-0.000116947208971278 0.0021537004181277 0.000682466640557047)
(-0.000139468724979208 0.00231243937625298 0.000578516026537924)
(-0.000134835591072146 0.00255803768235815 0.000457595248724963)
(-8.10316582909312e-05 0.00299166697508214 0.000322723832089619)
(2.003953031351e-05 0.0037760248387773 0.000161717859844994)
(7.05471519493614e-05 0.00384809103136101 1.93407705099781e-05)
(-8.53710127369147e-06 0.00151238230239482 0.00107451084709058)
(-2.73776281532795e-05 0.00167597647441237 0.00104103262600818)
(-5.10480716670521e-05 0.00180161785861745 0.000978045853396041)
(-7.77353511598708e-05 0.00191602365732139 0.000888960963602488)
(-0.000100704681241318 0.00203766655605602 0.000776434276504069)
(-0.000109395147342531 0.00219813944639914 0.000646815705322374)
(-8.86320541388725e-05 0.00245149004851069 0.000505733563751683)
(-1.67992089999259e-05 0.00289432742653796 0.000355211288118408)
(0.000105447774771962 0.00368351397855359 0.000185171519176971)
(0.000157211246538988 0.00376358907384728 2.86885971443581e-05)
(-6.53227435407335e-07 0.00129305843631055 0.00124433892228693)
(-5.05963984199091e-06 0.00146226241848958 0.00123791186672291)
(-1.63366929894242e-05 0.00158770470881593 0.00117984208446282)
(-3.4581814700529e-05 0.00169815070806992 0.00108520051262048)
(-5.56038898509749e-05 0.00180728311582358 0.000963424857360887)
(-7.16618357445577e-05 0.0019326422421403 0.000825740601644577)
(-7.18748739437571e-05 0.00210149793161202 0.000679404966478467)
(-4.08920724843361e-05 0.00236364631162854 0.000527178821664226)
(4.30614171698312e-05 0.00281499381718257 0.0003691196455433)
(0.000177308852361428 0.00361744973084551 0.000192001360552933)
(0.000219792209344288 0.00370691781305034 3.0010902062781e-05)
(7.63127945936533e-06 0.00106061403952129 0.00139776227067428)
(1.85660654549486e-05 0.00124038167323562 0.00142146261662994)
(2.01819270537434e-05 0.00137257929986063 0.00136925850745217)
(1.15883249582018e-05 0.00148775858377125 0.0012695318211973)
(-5.46928152599656e-06 0.0015975859956873 0.00113829716586367)
(-2.53187949052717e-05 0.00171210498237442 0.000991824359241385)
(-3.89016168450522e-05 0.00184593367698163 0.000840787971043556)
(-3.51716288497162e-05 0.00202317192733428 0.000687425602749418)
(1.22817641470801e-06 0.00229149267785418 0.000530225356714288)
(9.17153742096382e-05 0.00274840291248162 0.00036607098543745)
(0.000231450058961458 0.00356143406543042 0.0001787573060151)
(0.000267054602418206 0.0036699032523095 1.19981889417855e-05)
(4.93313655595076e-05 0.00139310562076438 0.00130304272162581)
(2.80111233991291e-05 0.00151049700027196 0.00114794941328842)
(5.81166892151377e-06 0.00163383099721582 0.000991031065470224)
(-8.48192281617702e-06 0.00177502389492431 0.000836778013844094)
(-4.00237738077675e-06 0.00195721841123082 0.000683119506862481)
(3.43317417617707e-05 0.00222730042922844 0.000525935879956533)
(0.000127547106213189 0.00268573509503318 0.000360797877149138)
(0.00027134024132618 0.00350974846809838 0.000173940295664171)
(0.000306146074385252 0.00359600408189873 1.07941515316222e-05)
(-5.92890669426359e-05 0.00245492299237412 -0.000396572194325171)
(-0.000100292750405674 0.00392453576418115 -0.000890650071409876)
(-6.10833336817706e-05 0.00214170380301402 -0.000277789847468084)
(-8.75882838829787e-05 0.00380996357870318 -0.000901239180422794)
(-0.000148019682529341 0.00373109596729875 -0.00059118182126275)
(-0.000110069449440863 0.00257511663495453 -0.000227041228722546)
(-6.78585444492755e-05 0.00333713898183121 -0.000573008016397856)