/*--------------------------------*- C++ -*----------------------------------*\
  =========                 |
  \\      /  F ield         | OpenFOAM: The Open Source CFD Toolbox
   \\    /   O peration     | Website:  https://openfoam.org
    \\  /    A nd           | Version:  12
     \\/     M anipulation  |
\*---------------------------------------------------------------------------*/
/*   Windows 32 and 64 bit porting by blueCAPE: http://www.bluecape.com.pt   *\
|  Based on Windows porting (2.0.x v4) by Symscape: http://www.symscape.com   |
\*---------------------------------------------------------------------------*/
FoamFile
{
    format      ascii;
    class       surfaceScalarField;
    location    "0";
    object      phi;
}
// * * * * * * * * * * * * * * * * * * * * * * * * * * * * * * * * * * * * * //

dimensions      [0 3 -1 0 0 0 0];

internalField   nonuniform List<scalar> 
28758
(
-0.000265359531027474
6.92041897346453e-05
3.09867401779677e-05
-0.000278723608404028
4.60690257564568e-06
8.75717070752002e-06
-0.000132844701314858
9.44189639018383e-06
-0.000227218496719206
3.50320620707819e-05
-0.000273326630104701
-8.75582906144923e-06
3.35885013064176e-06
0.000226456196959846
-0.0002198160032641
-2.10865440690318e-05
1.9053252440691e-05
-0.000263119044291156
3.11612011337147e-05
1.34965109585163e-05
-6.63380210070128e-05
0.000142494731636051
1.74547852042379e-05
-6.85639152097546e-06
-2.82861670618805e-05
1.73954380763039e-05
2.71890224391728e-05
2.96193805900327e-05
-2.36992088363074e-05
2.22555017724679e-05
1.88840186694011e-06
-3.37973281149437e-06
-0.000234151681582024
7.08766871879365e-07
4.87108053806093e-06
-0.000264453992469719
-1.49729610379884e-05
1.96667577052795e-05
0.00021644611873444
-0.000235877718302906
-2.56292325405761e-05
2.39742779624648e-05
5.59295409075495e-06
-3.23832933971867e-05
-4.05849803371776e-06
4.99020826404224e-05
-0.000267150498195496
3.36785744360794e-06
1.7368890012495e-06
-3.57898438674837e-05
1.25259756588706e-05
4.23533283916951e-05
-3.95307423356366e-05
0.0001538510169751
3.57878227611985e-05
-7.26546052481616e-05
8.32739748380003e-05
3.28222858884535e-05
-9.46610178104652e-06
-3.1594006095997e-05
2.42046445772081e-05
3.43102481924661e-05
-7.77114468701889e-06
-2.47018422923024e-05
4.18682214372022e-06
1.02995288452278e-05
-8.96132359371445e-06
-2.9296318854417e-05
-2.2669542392895e-05
-3.82371677744373e-05
6.76681524530566e-06
-3.42098815228468e-05
6.58057826669079e-06
-6.06550463486662e-07
3.92812745232187e-06
2.6689921748445e-06
-0.000233960168104418
-1.29974281195571e-05
1.17886493238886e-05
0.000171904668507945
-0.00022124629744766
3.14328667933906e-06
3.60964650122559e-05
-0.000250586593391797
-4.83036262040471e-06
7.93321196923098e-06
0.000184605133657345
-0.000214655230681418
-2.00361526122522e-05
2.44570223796438e-05
1.77465620887704e-05
0.000214669632198673
-0.000240931330287221
-2.68686566281779e-05
5.93580802577022e-05
4.25979219521546e-05
6.11336049670642e-05
1.68014186388436e-05
3.9484565433411e-05
9.60733136449333e-06
3.72296460222854e-05
3.06510295304757e-06
-1.7677239493204e-06
-0.000310258605257111
0.000341080171212317
-2.56859847102618e-05
-5.11799504198207e-05
-0.000205642168689953
-4.45158207365523e-05
0.000301307111541613
3.92810482204392e-05
2.62993343085146e-06
4.93307253135812e-05
-2.8358512743152e-05
0.000141428130589193
3.20047774559533e-05
-4.52789197565374e-05
9.67274675787957e-05
2.97478610066463e-05
6.35179186637736e-05
-4.74587285444256e-05
0.000161275181161824
7.31230865236725e-05
-5.32461287969678e-05
5.87500934927807e-05
1.45070835605843e-05
-9.94654474529855e-05
-8.59736793888701e-05
8.5236675363067e-05
3.64088397539387e-05
5.58551506013695e-05
-3.15968551167719e-05
2.97935214560769e-05
6.72966337869866e-06
-1.09402415238097e-06
-8.09415723958316e-06
7.5969601987669e-06
-1.97867650739723e-05
1.04867176372739e-05
-2.92756008541566e-06
-2.21819348903459e-05
-6.00984556386511e-05
1.37671305147199e-05
-3.0370625296704e-05
9.56690662580552e-06
-8.07043409759942e-08
9.09608143671011e-06
1.17573689507139e-06
3.10273441188927e-06
-5.22023300641638e-06
-0.000228704957562255
-1.11131096203717e-05
1.2165407409377e-05
-0.000235975223742114
-1.28606092193269e-05
2.2836432660983e-05
1.3380355201982e-05
-0.000182618633958548
-5.13779402884193e-06
-0.000280733922164606
-8.21111429158785e-06
0.000181017993672637
-0.000210377141193065
-1.39082828094679e-05
2.32312835785884e-05
0.000214568562531255
-0.000239205182472527
-2.22061034091183e-05
4.44310907672213e-05
-1.12154388764175e-06
0.000342639930150074
-0.000286597508055708
-4.00786245729158e-05
4.43728717585718e-06
3.81123800456601e-05
0.000179195831229907
-6.80324862753834e-05
0.000108048705937068
-0.00031702367359331
0.000311977281837225
-2.17611314563353e-05
-0.000132658848494691
0.000149328277886747
-3.70367070594303e-05
0.0001454607900321
4.63482683094774e-05
-4.03806719213422e-06
-1.94344472448157e-05
0.000140173773282617
3.19201609421152e-05
-3.20814964296602e-05
0.000101871511800806
2.63591959925871e-05
-3.34861535188534e-05
0.000158612317404214
7.3988456472572e-05
-4.11998522116735e-05
6.83532587205899e-05
1.63279302769822e-05
-5.37440450807623e-05
0.000103425941393261
5.53674677646311e-05
-6.76380402989524e-05
0.000178566675434258
0.000172175543059138
-4.26471740554208e-05
4.37361706001584e-05
8.67739597410939e-06
-6.01863516289447e-05
6.25401843200451e-05
2.72367687535345e-05
-0.000101582275348306
9.08890753351526e-05
7.03072771098696e-05
5.42150055542819e-06
2.07017513960222e-05
-4.77317016727714e-05
-4.09825661403792e-06
-4.92606198560446e-06
-1.73776571093209e-07
4.69166901107017e-07
9.07412368190113e-06
-2.82418387694524e-06
5.47213967907636e-06
-3.39275643472426e-06
-0.000222586743318277
-8.53026638513414e-06
9.62675852746241e-06
-0.000242415568145625
-1.00708938205144e-05
1.2586077356581e-05
3.65506850059269e-06
-0.000257684630536139
-1.48693057487306e-05
-0.000309646517116591
-1.19332068276719e-05
0.000179528668146188
-0.000208082283356146
-8.29942346821813e-06
2.29447609184977e-05
0.000208958101107485
-0.000234677885466241
-1.5329307167996e-05
4.20742772076426e-05
2.49637860828157e-06
0.000297529567414638
-0.000266267563568865
-2.94059053318134e-05
0.000105497556590961
-5.70721380148985e-05
4.85281480225498e-05
0.000106284976348762
0.000182441997845354
-4.47821703800763e-05
-9.27303337893722e-05
0.000100886142969651
0.000117936972380611
-0.000306497527615762
0.000302413743615528
-1.51809665064424e-05
-1.18460111415222e-05
0.000139885597624124
3.20546397833277e-05
-2.22227842755698e-05
0.00010373098223282
2.65840803673053e-05
-2.26484053607233e-05
0.000156264823447656
7.3775701442356e-05
-3.07258664333926e-05
7.39395972666915e-05
1.74579275653782e-05
-3.71694204133327e-05
0.000110113067971688
5.82838237420302e-05
-4.49861973267955e-05
0.000168211290613236
0.000180654903866034
-3.49725220848397e-05
5.06851944376944e-05
9.99341138343778e-06
-4.64946460541233e-05
7.32190835446942e-05
3.28430814808301e-05
-6.1886823365128e-05
0.000108166326238061
8.6072367603055e-05
-6.58903352462197e-05
0.000116634043190251
0.000134986484770568
-3.50748087834923e-05
5.64214974836819e-06
-4.68507798761821e-05
4.70738468274014e-05
1.73901835092932e-05
-6.65112531655808e-05
6.59244309382147e-05
4.14598599835345e-05
-8.03443397256347e-05
7.88455267527421e-05
7.64653770887167e-05
-6.15392358913161e-06
-3.87070740981124e-06
-3.75777993427629e-06
5.73405858945263e-06
-3.00400146601162e-06
3.50306241965607e-06
-5.45161044682188e-06
-0.000221260219683776
-4.56967721051792e-06
9.21734634657095e-06
-0.00023831522573347
-7.33730238316876e-06
1.05305045109065e-05
6.41483325784446e-06
-0.000264673574497371
-1.029205489217e-05
-0.000301867088362511
-1.01488171374416e-05
0.00017925770218275
-0.000207109951163466
-3.29680740920226e-06
2.28496364858083e-05
0.000206033866411568
-0.000231108876006911
-8.98929110177922e-06
4.16797591369635e-05
3.02614373569812e-06
0.000288089015483364
-0.000259156950643528
-1.92898284305388e-05
6.90664115781288e-05
-4.82218311327864e-05
2.41542268687999e-05
5.03019514975321e-05
0.000116214918349798
-4.11470091465703e-05
-6.41900761667717e-05
6.12151906416316e-05
8.71331418446134e-05
0.00010372908590385
0.000183367545326766
-2.94650479592378e-05
-0.000295729372440178
0.000294266860314637
-1.06923088448953e-05
-4.83536587793991e-06
0.000140210258166603
3.20368026724855e-05
-1.39031027528448e-05
0.000104682955115316
2.68829613903368e-05
-1.36429085053152e-05
0.0001552851286509
7.379789047415e-05
-2.20211393314375e-05
7.6973144592579e-05
1.80531084537679e-05
-2.55211922142757e-05
0.000111853770104455
5.93469091631947e-05
-2.96704744529895e-05
0.000165495607090146
0.000181053401733446
-2.74009233527535e-05
5.54442393390835e-05
1.09237574629615e-05
-3.43499129120859e-05
7.94054490112413e-05
3.60208127060261e-05
-4.27616146062654e-05
0.000114584179009595
9.27857323752731e-05
-4.51977733018267e-05
0.000121164332156707
0.000142527105083113
-2.96451568817404e-05
6.48919249712356e-06
-3.8488510077221e-05
5.46192266304174e-05
2.0230996778877e-05
-5.1784872919133e-05
7.70949659920607e-05
4.91880628656578e-05
-6.051313433778e-05
9.27520484947821e-05
9.01231613371246e-05
-4.85505748104896e-05
6.98239069759505e-05
9.98250291935072e-05
-3.83508093489317e-05
1.14214774195333e-05
-5.16863287173002e-05
5.02688571878805e-05
2.57843291677625e-05
-6.55101117151484e-05
6.17796253123545e-05
4.8386670269047e-05
-6.55009888020928e-05
5.8862071775465e-05
6.6864587012875e-05
-3.87650537645196e-06
-3.30495160535215e-06
-3.19990929689756e-06
4.31605716248039e-06
-2.77851803425649e-06
3.59636660369631e-06
-1.49147246619231e-06
-0.000219043116649405
-1.76952669373584e-06
9.13301356875686e-06
-0.000235406385519151
-4.11999823754972e-06
1.02975489766408e-05
7.1937750172065e-06
-0.0002590128400391
-7.09944087682168e-06
-0.000291333020118233
-7.3513996414398e-06
0.000179135203213001
-0.000207537826846357
1.95939723775073e-06
2.31464218878715e-05
0.000205278161147215
-0.000229396183576798
-3.61958900485112e-06
4.15979596271549e-05
3.86858748595615e-06
0.000283628053006573
-0.000254424530262068
-1.06821723498501e-05
4.84730284845706e-05
-4.07301652630505e-05
1.34721307374332e-05
2.66300945962172e-05
7.86648968023289e-05
-3.73019060966303e-05
-5.19976272322011e-05
3.71989619188826e-05
6.34337853626963e-05
5.04627004234625e-05
0.000121130122653904
-2.9372286049035e-05
9.96756052871772e-05
0.00018291388456021
-1.77876671043682e-05
-0.000289410479391622
0.000288700212546859
-6.11345372974159e-06
1.74297009443861e-06
0.000140681380802779
3.18754901303408e-05
-6.07989977973085e-06
0.000105344148250364
2.70429066509875e-05
-5.46769937113229e-06
0.000155375808982473
7.37639546586325e-05
-1.43444375100678e-05
7.85768216580533e-05
1.84294290876769e-05
-1.59125728508061e-05
0.000112650321104079
5.99091529032912e-05
-1.74917185651373e-05
0.000164323060883457
0.000180924140885287
-2.03768531178207e-05
5.84498847310055e-05
1.14991874532176e-05
-2.45778228440599e-05
8.26798672197252e-05
3.74549208822883e-05
-2.93820396391166e-05
0.000116473852960582
9.49890952900854e-05
-3.0881337130319e-05
0.00012105693808287
0.000145355642933352
-2.39902379155501e-05
4.26710445749445e-05
7.11827455693013e-06
-3.01684000671203e-05
5.98184726482731e-05
2.21906227043638e-05
-3.85057115461362e-05
8.36879086180442e-05
5.36379254360153e-05
-4.34771276731199e-05
9.93521914251182e-05
9.75618736177151e-05
-3.56788139432633e-05
7.35907855941352e-05
0.000106527261156693
-3.24739769160338e-05
1.31683619683644e-05
-4.26779570648017e-05
5.83321067512067e-05
2.99854849385077e-05
-5.23346853699187e-05
7.2090974652289e-05
5.66737159081421e-05
-5.19413318253158e-05
6.85386364330241e-05
7.78487776230881e-05
-4.12789036049769e-05
4.26503537227723e-05
7.3086044959136e-05
-4.24843163895786e-05
1.70120965654196e-05
-5.31275994017193e-05
4.89849953124753e-05
3.13938555697957e-05
-5.87231862492087e-05
5.10956860420811e-05
4.75838318161398e-05
-5.40659485877464e-05
4.08599770880512e-05
5.45549946137255e-05
-3.80710627209696e-06
-3.6395006527829e-06
-2.135617006805e-06
4.38919671325838e-06
-1.28373172890839e-06
3.11890805520636e-06
-7.76537223189438e-07
-0.000221267497000594
2.04928218596625e-06
9.9108595612635e-06
-0.000233457889564296
-1.67692583449006e-06
1.07516436847162e-05
7.44539157581163e-06
-0.000254789750650998
-3.88206854828814e-06
-0.000284820550958883
-4.49594137322697e-06
0.000181915571157982
-0.000211279645502832
7.58164961756951e-06
2.37418246521035e-05
0.000205185075034909
-0.000229628192728479
2.47585787760273e-06
4.14940950149324e-05
5.01428875245761e-06
0.000282393075041746
-0.00025238735664242
-4.10421468868573e-06
3.55046158428104e-05
-3.48730173260371e-05
8.18929992503462e-06
1.53323914175638e-05
5.57908935865707e-05
-3.31885555388868e-05
-4.36862522076893e-05
2.29208622491294e-05
4.71276584602154e-05
2.7683770900713e-05
8.42275265897757e-05
-2.80830834277744e-05
5.01125140342584e-05
0.000123489121332641
-2.0060036343069e-05
9.79023652770239e-05
0.000182690397913284
-9.68020808455857e-06
-0.00028772058865528
0.000289940014791138
-3.31859072808568e-06
1.01875621988317e-05
0.000142022058929155
3.14489238473859e-05
1.47620111719361e-06
0.000106052915408423
2.70723634434927e-05
2.18962177753957e-06
0.000155739650382548
7.36636018662127e-05
-7.0931739700587e-06
7.94470994573204e-05
1.86457815100423e-05
-6.95052953648866e-06
0.000113234686926373
6.02219874996625e-05
-7.01494712691395e-06
0.000164415563563743
0.000181264707488752
-1.38354275493153e-05
6.02037011714388e-05
1.18316916736947e-05
-1.60820367997916e-05
8.4377867581651e-05
3.82060950569653e-05
-1.84559083333811e-05
0.000117347469493776
9.59586190927487e-05
-1.95239719437585e-05
0.000120950962236704
0.000146518187900667
-1.84405533201512e-05
4.53564886490182e-05
7.5437096304467e-06
-2.2487295293918e-05
6.31148095051804e-05
2.33831379421513e-05
-2.7726487347776e-05
8.72441339237928e-05
5.59054181099428e-05
-3.05719306142699e-05
0.000101999275247868
0.000101141567447018
-2.52353808693717e-05
7.50187396768928e-05
0.000110005985579552
-2.10164969048953e-05
3.34738188665717e-05
4.86166737460207e-06
-2.63393546250683e-05
4.63355262491413e-05
1.44665976948456e-05
-3.36345470405818e-05
6.39553976045499e-05
3.28797244622527e-05
-3.98706064467464e-05
7.85582055749729e-05
6.19678382653226e-05
-3.94654325654879e-05
7.40953063690744e-05
8.45814568799618e-05
-3.17424402782042e-05
4.56054846517945e-05
7.90690825017869e-05
-3.60985903099828e-05
1.96365615761485e-05
-4.4316493829672e-05
5.68208726980004e-05
3.64444836866135e-05
-4.832149107962e-05
5.94278751423923e-05
5.53827865991388e-05
-4.42469145946299e-05
4.73952331340377e-05
6.32848645248424e-05
-3.61134418333899e-05
2.64397492813058e-05
5.44058747881531e-05
-4.44740949749538e-05
2.13048487979382e-05
-5.05432118734376e-05
4.28508738114124e-05
3.31463264226134e-05
-5.12677212261262e-05
3.88708546827243e-05
4.2683576993901e-05
-4.58561331114094e-05
2.76956232287358e-05
4.35067370108559e-05
-4.32778527260385e-06
-2.61450748066872e-06
-1.22830328080897e-06
4.44278197538248e-06
-5.62818464880005e-07
4.1108320712575e-06
1.73188828171867e-06
-0.000224354758659158
4.80515129004561e-06
1.03192425373184e-05
-0.000234937438333929
2.36602947590917e-06
1.11771467821763e-05
8.4847296293325e-06
-0.000252459452895379
-1.54306357863871e-06
-0.000281805941254192
-1.92586393787813e-06
0.000188728414005354
-0.000218504193988772
1.29162311852973e-05
2.44412002875031e-05
0.000208496635291432
-0.000233944128074128
1.04301624096056e-05
4.12350145663012e-05
4.77388328815859e-06
0.000282267687274213
-0.00025328570868131
3.63402349810837e-06
2.68834662392162e-05
-3.03280314781532e-05
5.09054213923072e-06
9.42388002569331e-06
4.09635981573856e-05
-2.94696032413765e-05
-3.74274780524583e-05
1.46005461810699e-05
3.58748685661812e-05
1.64148936956927e-05
6.07375805971958e-05
-2.61135057982943e-05
2.8175467055297e-05
8.74658023562668e-05
-2.02352347672277e-05
5.00072361997409e-05
0.000125016689556952
-1.23935645059796e-05
9.90958073161047e-05
0.000184993244229775
-3.82923626556369e-06
-0.000289040431741181
0.000288003608099874
2.49211636152275e-06
2.2453567047417e-05
0.000144978473111411
3.14839401295718e-05
1.12875744469357e-05
0.00010556425836391
2.66464260308018e-05
1.14733193602752e-05
0.000157040210036103
7.36216601821121e-05
2.0086428917603e-07
7.99487061759434e-05
1.88101670010578e-05
1.53709804361995e-06
0.000113931257598219
6.03931305727819e-05
2.75402019232552e-06
0.000164764828541832
0.000181397505737707
-7.48295102648311e-06
6.10738154104811e-05
1.20208038082257e-05
-8.07890525536058e-06
8.52707995642362e-05
3.86065353625922e-05
-8.29724235712556e-06
0.000117994934467055
9.64839561116861e-05
-8.30386781326619e-06
0.000121560474429944
0.00014757994472966
-1.3061772789038e-05
4.70209908284139e-05
7.80392732833221e-06
-1.53705871211639e-05
6.50364977076449e-05
2.40563507982036e-05
-1.83596491518061e-05
8.91100607810522e-05
5.70766684636247e-05
-1.97927203693769e-05
0.000103289545202777
0.000102840832628338
-1.63768030436983e-05
7.57112458280936e-05
0.000111955601595488
-1.66227281049606e-05
3.57845393966088e-05
5.17817948128526e-06
-2.03154033196103e-05
4.92884467065819e-05
1.53461190074633e-05
-2.52468126525438e-05
6.75591443242203e-05
3.46803932307509e-05
-2.92174277448462e-05
8.2244749150036e-05
6.50067716724703e-05
-2.87386363423498e-05
7.70040719819283e-05
8.84294418297679e-05
-2.34065780591872e-05
4.71799987888861e-05
8.26655890833367e-05
-1.85261739647764e-05
2.66483588187256e-05
3.42671758944012e-06
-2.31411169745123e-05
3.65423820912626e-05
9.93793056694312e-06
-2.94096182889811e-05
5.01362681637449e-05
2.15967552686696e-05
-3.53370212509944e-05
6.24250501588939e-05
4.00334107730319e-05
-3.80101554581023e-05
6.50278546088945e-05
6.07239602728171e-05
-3.4824423962083e-05
5.15897624901167e-05
6.91746890810301e-05
-2.88049326474951e-05
2.86927735838392e-05
5.948269148437e-05
-3.80148518192288e-05
2.46036817034688e-05
-4.27269742191913e-05
4.96576089269259e-05
3.83985144117471e-05
-4.30822172369311e-05
4.50952774983655e-05
4.94972411008777e-05
-3.85846793516788e-05
3.20904929223717e-05
5.03626667427343e-05
-3.18798393040298e-05
1.68846424518629e-05
4.13974721632759e-05
-4.34667551584983e-05
2.34878086736612e-05
-4.59553037019308e-05
3.46223674239708e-05
3.18531347054517e-05
-4.46415838308718e-05
2.84171228346727e-05
3.65108814686986e-05
-3.95356431862432e-05
1.88369552332766e-05
3.45486243273098e-05
-4.87911624987219e-06
-1.36221202507737e-06
-4.89696134009845e-07
4.72147965876543e-06
1.29370294252813e-06
3.27097004056333e-06
1.20377870128639e-06
-0.000232264287602141
5.04901367177251e-06
1.35162289250362e-05
-0.00023970913708856
6.79528280748576e-06
1.1654995056363e-05
8.23814273709584e-06
-0.00025435776597989
2.46799241649225e-06
-0.000284687588065354
1.9594307118516e-06
0.000199742304927542
-0.000229435947886781
1.72801959456509e-05
2.53296891783534e-05
0.000214351075557731
-0.000241222643305708
2.00180139274379e-05
4.17249216767936e-05
2.91259633944762e-06
0.000286257620655781
-0.000258903078206775
1.46019041433281e-05
2.07718160786332e-05
-2.67485396624522e-05
3.3574879918552e-06
5.91714274930124e-06
3.09940158461018e-05
-2.62755925893016e-05
-3.25435793586689e-05
9.60525345365779e-06
2.77087500665621e-05
1.0276331342886e-05
4.50123699834252e-05
-2.40207255505522e-05
1.70556221819544e-05
6.39404420547687e-05
-1.96437707802119e-05
2.85278729533223e-05
8.94924047872877e-05
-1.32388267294737e-05
5.10126153052486e-05
0.000126843468314815
-5.25640471893398e-06
9.87298184331931e-05
0.000185331859172938
1.12702487175536e-07
-0.000297606498307458
0.000297510804364282
5.50040690547201e-06
4.13045265968939e-05
0.000146688426628874
3.42029252476766e-05
2.54878157951269e-05
0.000104217720043641
2.6560511908305e-05
2.27501145460479e-05
0.000159991242573899
7.45669848472197e-05
9.29242029855527e-06
7.81075787909776e-05
1.83651189191998e-05
1.18781129472134e-05
0.000113318617150826
6.00270057711041e-05
1.4943311304936e-05
0.000165579181551946
0.000182110819992353
-9.49776353241553e-07
6.12344897371145e-05
1.21810374442859e-05
2.30350047519571e-08
8.57552450498783e-05
3.8884236639912e-05
1.19613611713832e-06
0.000118826676579181
9.68379090467393e-05
8.93143758008227e-07
0.000122578472728077
0.000148351847931252
-7.75134244956886e-06
4.78264433549459e-05
7.93693866819944e-06
-8.44250372689669e-06
6.5962374858071e-05
2.44011413674159e-05
-9.49575644399409e-06
9.00809979201226e-05
5.76565804736737e-05
-9.72665987480454e-06
0.000104193896394668
0.000103784478997714
-7.82659103150989e-06
7.66247209149934e-05
0.000113417627523519
-1.22669631771568e-05
3.72853115820372e-05
5.37991285349377e-06
-1.44792533742891e-05
5.11232273336196e-05
1.58810456107525e-05
-1.74555013179366e-05
6.96723092588538e-05
3.57027907176349e-05
-1.97636008770478e-05
8.42689583020729e-05
6.66434340239149e-05
-1.93231550317487e-05
7.85679727333349e-05
9.05686271823034e-05
-1.58999937303176e-05
4.81231855571313e-05
8.48537020691654e-05
-1.5018364044987e-05
2.86115093394526e-05
3.66522003688526e-06
-1.83543715647865e-05
3.90849553038037e-05
1.05949243371945e-05
-2.28197456302763e-05
5.33795548302701e-05
2.29358351080668e-05
-2.68640612891049e-05
6.61000461258735e-05
4.23521385736656e-05
-2.85536216864195e-05
6.84804190953525e-05
6.40738956073743e-05
-2.62237062435138e-05
5.41148556580457e-05
7.28938671137922e-05
-2.20025139867472e-05
3.00858961029766e-05
6.2832893714097e-05
-1.64627382944413e-05
2.14675477818787e-05
2.4656143909488e-06
-2.0471577362404e-05
2.9204849484865e-05
7.04462977951765e-06
-2.59470350189205e-05
3.99210208781356e-05
1.49706134426278e-05
-3.12022579642068e-05
5.01033851258607e-05
2.71058279255804e-05
-3.46234313542556e-05
5.46845137128404e-05
4.22732120334795e-05
-3.47474722833163e-05
4.95411092679773e-05
5.44378721502456e-05
-3.12557538997114e-05
3.51791709539513e-05
5.53593661149802e-05
-2.61999387966973e-05
1.85246121094214e-05
4.55545090453495e-05
-3.74528151143403e-05
2.71190034791915e-05
-3.93791645180822e-05
4.0081673572944e-05
3.68359802097618e-05
-3.82100630806535e-05
3.29181481518432e-05
4.22380667824722e-05
-3.40211788282896e-05
2.18130390928367e-05
3.99198054778705e-05
-2.83167569987283e-05
1.11223718407529e-05
3.19654199299571e-05
-4.0552762821867e-05
2.36315743211178e-05
-4.11139576907067e-05
2.67922375679837e-05
2.88532140955255e-05
-3.91110242522606e-05
2.0531832641206e-05
3.04677047237775e-05
-3.4515243418963e-05
1.30084211299436e-05
2.74520695609076e-05
-4.50632673117025e-06
2.81338648336968e-07
1.01327756744289e-06
4.29257942707603e-06
2.08778127174879e-06
4.82052555293749e-06
2.86963055186945e-06
-0.000236788462402545
-1.94408262704777e-06
1.43456079536055e-05
-0.00024557850476345
1.11487820693548e-05
1.35185877068471e-05
8.06984157212844e-06
-0.000260262460115448
7.41252259740538e-06
-0.000292020859359794
4.44362909100259e-06
0.000252110549115385
-0.000244249982513313
-1.47618992191111e-05
2.41815231444318e-05
0.00025370911000719
-0.000257087935301476
9.9394666328309e-06
3.87870549230772e-05
3.94687354614117e-06
0.000290285052643909
-0.000266470169119408
2.85650714428476e-05
1.62200361421794e-05
-2.38675009491716e-05
2.32800498058034e-06
3.88907245550289e-06
2.39396129553711e-05
-2.35832093882084e-05
-2.86528980954438e-05
6.54594493243787e-06
2.16357805390689e-05
6.54084951638532e-06
3.42106421149225e-05
-2.20147148391631e-05
1.08429572124272e-05
4.78204066315796e-05
-1.87436491844957e-05
1.74814235516837e-05
6.59730385401148e-05
-1.36058315293121e-05
2.90911298209446e-05
9.10254631399446e-05
-6.51195545959802e-06
5.19822219737677e-05
0.000128401656967145
-3.08425448475712e-07
0.000101292104509108
0.000189026755045432
7.30465561832472e-06
-0.000308563601276591
0.000303207826795367
1.48030553937097e-05
0.000112064812171499
0.000149206093779929
3.2144175096842e-05
4.34261869394144e-05
9.94613278373028e-05
2.92887282129036e-05
4.79491481910094e-05
0.000175104442365114
8.76085729871033e-05
1.99138497877305e-05
7.53959827076581e-05
1.82003033784061e-05
2.57729303200407e-05
0.000112099037207022
6.05579018718343e-05
2.99529818076487e-05
0.00016672737921476
0.000183114999844018
5.83003557353191e-06
5.95548934278184e-05
1.17728689700557e-05
9.96293744973701e-06
8.37069021049161e-05
3.80369288211829e-05
1.27512781237418e-05
0.000117846075381719
9.62049746428574e-05
1.26092460901103e-05
0.000122972661651701
0.000148714168086912
-2.28869938439183e-06
4.78073059759001e-05
7.96453732191716e-06
-1.12466445187529e-06
6.60458714212489e-05
2.45725681419571e-05
-3.21702293870684e-07
9.05847462671988e-05
5.79521145812431e-05
-7.4634440526801e-08
0.000105276598338718
0.00010448776366754
-3.79166655173953e-07
7.81593566554703e-05
0.000114727289300574
-7.9672595364596e-06
3.80448938968965e-05
5.48184384183091e-06
-8.72266687685098e-06
5.20039310791915e-05
1.61387927383034e-05
-9.82423844080685e-06
7.06733684358658e-05
3.61775069205214e-05
-1.06866836936385e-05
8.53295829148618e-05
6.74439819923577e-05
-1.03171481012541e-05
7.96177072371798e-05
9.17854879218474e-05
-8.64647648076989e-06
4.8967628144802e-05
8.62876087357437e-05
-1.14917204988865e-05
2.99366497577933e-05
3.82201767407903e-06
-1.36048303610665e-05
4.07403710300736e-05
1.10132267939861e-05
-1.64234913772793e-05
5.54056662033891e-05
2.37514335679383e-05
-1.88952198866106e-05
6.82972229135143e-05
4.37056873741362e-05
-1.98431574296159e-05
7.0489180417375e-05
6.60117674596426e-05
-1.827962993622e-05
5.56181242359422e-05
7.5129612244057e-05
-1.55908812561886e-05
3.09716164966901e-05
6.49518736732245e-05
-1.36323582335672e-05
2.31349244690672e-05
2.64620524517012e-06
-1.66280580512528e-05
3.13666131197927e-05
7.5400425517574e-06
-2.06756928857554e-05
4.27270039628123e-05
1.59761327121747e-05
-2.44343174210848e-05
5.3424596862774e-05
2.88433441160476e-05
-2.67719238024558e-05
5.80940478373823e-05
4.48870042367124e-05
-2.67697857544573e-05
5.24741535532969e-05
5.77369137549403e-05
-2.42340315006474e-05
3.72124304440023e-05
5.8745609456405e-05
-2.06391220700943e-05
1.96371529126326e-05
4.84778794075909e-05
-1.47461483934504e-05
1.74619118216261e-05
1.80326512638244e-06
-1.82384057167442e-05
2.35932783358331e-05
5.09089387032867e-06
-2.30556209569034e-05
3.21482314501221e-05
1.06979514148653e-05
-2.77265706035257e-05
4.05689680651453e-05
1.9142680182869e-05
-3.10527737645102e-05
4.54621842181611e-05
2.99281172165699e-05
-3.2447754158133e-05
4.42460666269208e-05
4.06368462653962e-05
-3.1485029040576e-05
3.63016523482967e-05
4.65903590588842e-05
-2.8243102047694e-05
2.40541481643148e-05
4.405175335432e-05
-2.38320264011221e-05
1.22917014229621e-05
3.53189261593204e-05
-3.52559625939665e-05
2.7272060997428e-05
-3.56781350029352e-05
3.09963027633356e-05
3.33220033981335e-05
-3.40124852397294e-05
2.37647731246287e-05
3.51877949962677e-05
-3.02140199978547e-05
1.50593445818213e-05
3.1681609375074e-05
-2.53235192869609e-05
7.57906165386513e-06
2.49460515317928e-05
-3.70477524699058e-05
2.23272758878338e-05
-3.67016213714863e-05
2.03513138797175e-05
2.51854228569009e-05
-3.45295617067071e-05
1.48666791028204e-05
2.50814501043982e-05
-3.04823980253482e-05
9.16783807122236e-06
2.18520157492255e-05
-4.08672330464867e-06
8.70267338827234e-07
2.38503939682057e-06
5.02511194212313e-06
2.22736593984933e-06
3.37527991208522e-06
-1.19919212447519e-06
-0.000254546818854279
-1.84105752364851e-06
1.01938065942189e-05
-0.000242082080082415
-1.98570857377528e-06
1.24742392160758e-05
9.69883740594192e-06
-0.000265795939583804
1.05580383712243e-05
-0.000302610399455264
8.1892604228768e-06
-0.000304139983437806
0.000272391848567064
1.698623512678e-05
0.000235740207897115
-0.000228835070873565
-5.31275079933902e-06
3.25286132304922e-05
3.01122967162806e-05
0.000281081204682461
-0.000254321417007842
1.04800476962077e-05
1.27117614046353e-05
-2.15335353198148e-05
1.66938505508697e-06
2.69675125827079e-06
1.86948419385061e-05
-2.13194811860054e-05
-2.5538393643635e-05
4.60883721526491e-06
1.70072225398928e-05
4.31256524383323e-06
2.64946274651305e-05
-2.01797600406469e-05
6.97555245102555e-06
3.65516274880946e-05
-1.77214888474285e-05
1.12212179636188e-05
4.96322751888647e-05
-1.36241058406935e-05
1.78834481120702e-05
6.72513831291372e-05
-7.71520319999257e-06
3.02773985546592e-05
9.25362686211345e-05
-9.23969772445326e-07
5.2711416512466e-05
0.000128561079981836
7.44583210930703e-06
0.000105025558801137
0.000192936895718384
1.25500359000117e-05
-0.000339343237502883
0.00037216927757526
1.20893161688086e-05
-0.000108489151417401
8.92451677550503e-05
0.000110851112607269
2.04576884812044e-05
6.87636625456912e-05
8.97534827692907e-05
3.41151440538192e-05
0.00016108063645694
8.68813319840373e-05
6.78715754006474e-05
3.00041935291956e-05
7.08828700805829e-05
1.84881105135955e-05
5.4561117774201e-05
0.000105717819092708
6.98871695273327e-05
0.000166179779421726
4.54646800976103e-05
0.000186998313027327
1.26998785027029e-05
5.71976837060722e-05
1.13284514411588e-05
2.19960861991205e-05
8.06869548184299e-05
3.75792342181336e-05
2.82375066637623e-05
0.00011614022146449
9.56588360220112e-05
2.77703666433117e-05
0.000123781888203495
0.000149197557000585
2.67528649915137e-06
4.67391199605645e-05
7.85178402112814e-06
6.22358434398865e-06
6.43126983500674e-05
2.38188196825305e-05
1.04886304074713e-05
8.83810880522104e-05
5.66915842332532e-05
1.17535641045551e-05
0.000103975035713213
0.000103374406781421
9.78438086672794e-06
7.76895821935205e-05
0.000113572454959382
-3.74981176717893e-06
3.8093905053353e-05
5.4959508762981e-06
-2.82795335193865e-06
5.19661874366797e-05
1.61495047299036e-05
-1.54149574713407e-06
7.06718337672553e-05
3.62027368302246e-05
-9.74277677743491e-07
8.57773195642688e-05
6.77389921500231e-05
-8.76376915453014e-07
8.06734362667784e-05
9.253291512109e-05
-1.22809690687446e-06
5.0195287166639e-05
8.73910182060345e-05
-7.99812613586417e-06
3.06487306233086e-05
3.90256788562188e-06
-8.91565263487778e-06
4.15776657976733e-05
1.12189292913744e-05
-1.01174967211121e-05
5.63786171780195e-05
2.41275476239398e-05
-1.10583198833696e-05
6.93481560826118e-05
4.43220353086779e-05