/*--------------------------------*- C++ -*----------------------------------*\
  =========                 |
  \\      /  F ield         | OpenFOAM: The Open Source CFD Toolbox
   \\    /   O peration     | Website:  https://openfoam.org
    \\  /    A nd           | Version:  12
     \\/     M anipulation  |
\*---------------------------------------------------------------------------*/
/*   Windows 32 and 64 bit porting by blueCAPE: http://www.bluecape.com.pt   *\
|  Based on Windows porting (2.0.x v4) by Symscape: http://www.symscape.com   |
\*---------------------------------------------------------------------------*/
FoamFile
{
    format      ascii;
    class       volVectorField;
    location    "0";
    object      U;
}
// * * * * * * * * * * * * * * * * * * * * * * * * * * * * * * * * * * * * * //

dimensions      [0 1 -1 0 0 0 0];

internalField   nonuniform List<vector> 
10107
(
(0.000576740056328572 -0.0419732226571901 0.13801739271863)
(0.00255718457351303 -0.192767935181377 0.0510279816671817)
(-6.73220496345142e-05 -0.0513431901878716 0.0756678309513319)
(0.0191812433634688 -0.0325404330757951 0.139885007482733)
(0.00109486346279184 -0.172295260938905 0.0110673595145069)
(0.00443744767786588 -0.134505005552165 0.0445739889827978)
(0.00521279126336434 -0.208949293838208 0.0463327001557859)
(0.00139948227723673 -0.101564142651156 0.0622434187549851)
(-0.00275539574019242 -0.0719533208740135 0.130003595534356)
(0.0125739851358134 -0.042967122277975 0.0845915386678192)
(-0.00020909825740753 -0.161107913886687 0.00342049337473501)
(0.00170410849310378 -0.146316831286915 0.0197648185505315)
(0.00373408771752291 -0.179736640083931 0.0147327115588765)
(0.00415668255491564 -0.118164955026945 0.0299535906908569)
(0.0106079303405018 -0.196883697447513 0.0785062658160686)
(0.0278226652360246 -0.208165951694923 0.0590811083198173)
(0.00499131584675032 -0.155581321394439 0.0475349909574512)
(0.00478922139706519 -0.0945168861809976 0.0337540756857082)
(0.00567684955711978 -0.0640701632136733 0.0449691956835271)
(0.00187171427545203 -0.147474470920402 0.0894887664284503)
(-0.00869738098665908 -0.113890036350713 0.139707335142854)
(0.0134626867490586 -0.0514437365936054 0.0843386394590665)
(0.0120836505301047 -0.0357855187031006 0.0727804866848866)
(-0.0103904771781453 -0.111903899956297 0.17281734000766)
(0.0201021465568107 -0.0618206341887745 0.0945106861972034)
(0.00157347942203329 -0.164348603992289 0.00453996299328142)
(-0.00110774299791509 -0.145259336676509 0.00628356863796434)
(0.00279798391957319 -0.135637495649178 0.018556362947141)
(0.00478160123026537 -0.150558354439012 0.0269590928007453)
(0.0025261177378848 -0.189784562756729 0.0101675789274894)
(0.00452053954938124 -0.11177958600915 0.0191017029418219)
(0.0130757540988915 -0.122202822251865 0.0324296430672485)
(0.000452096729315885 -0.154048172387294 0.0447718525175989)
(0.00406029360142383 -0.145904976918962 0.0533224857198911)
(0.0202818735510917 -0.192680057600526 0.114769528844323)
(0.0285623260670768 -0.205416966453262 0.0374119767731089)
(0.0225967573800601 -0.13596275858404 0.0467703104603045)
(0.00637710446552478 -0.156216994678397 0.0620502657072304)
(0.0244294746333898 -0.217349749313493 0.106478347687631)
(0.00556031413211896 -0.0914193752561426 0.0226308137731501)
(0.00468909860175604 -0.0693215470948059 0.0327563151565058)
(0.0174270226617281 -0.0946518367532228 0.0343623719305357)
(0.00270954459620216 -0.0428612932120017 0.0338803650627957)
(0.0118703720435976 -0.057548483747856 0.0457771620880863)
(0.0105117043360503 -0.0994288475608098 0.0426873488573451)
(0.0130024833653859 -0.1938720466483 0.11332790039717)
(-0.0140281790618681 -0.142992249023291 0.142125018377261)
(0.0155009438788995 -0.0708708884520608 0.0638610660783512)
(0.0128251444172736 -0.0541123381309241 0.0830087185827473)
(-0.0133756507846433 -0.156198226438136 0.17896967067946)
(0.0165281744160631 -0.0611971255397747 0.0970693602998007)
(0.00421969311588017 -0.17586846415927 0.00445896997788328)
(-0.00103078687531155 -0.148493937687801 0.00936991833577754)
(-0.00144828840808902 -0.140538404934736 0.00521824527726017)
(0.00189486327413998 -0.125271452487906 0.0128551112607398)
(0.00424829733264213 -0.139972573920651 0.0234287865754224)
(0.0054208025007159 -0.163550430759319 0.025238336129512)
(0.00469631949500784 -0.190532737843606 0.0142834761470076)
(0.00452887007548928 -0.107437813942097 0.0126576893921504)
(0.0146546921153551 -0.113862789094456 0.0186311712204165)
(0.0251233545613234 -0.123757531384702 0.0303317771556111)
(0.00377232453422353 -0.138976541420974 0.051951417440492)
(0.112336251141897 -0.0645983230647774 0.0576088750074322)
(0.0317817511612264 -0.181882468164386 0.0236945467093377)
(0.0335481036867035 -0.0990888270458874 0.0588713842150892)
(0.00360251110103966 -0.150069239165822 0.0535836958470767)
(0.0120570728360906 -0.218898707946744 0.120861840349268)
(0.00569574986691855 -0.0894800770099127 0.0153577984654486)
(0.00440265614358303 -0.069818480317773 0.0230001104440548)
(0.0183226038182355 -0.0916018321595298 0.0227756620802672)
(0.00289046947067762 -0.0490837417087275 0.0273077445638686)
(0.0128674210728821 -0.0674604923947166 0.0334807576304785)
(0.037414087508986 -0.0971402217633486 0.0342380239184255)
(0.00163348193663081 -0.0310493437272091 0.0269774771130577)
(0.00753639942251689 -0.0407476780434891 0.0333871984390211)
(0.0180418320472053 -0.0563836868293534 0.0428044843486204)
(0.00375399891291783 -0.137555527553839 0.0739271936591508)
(0.0170314287100625 -0.115238083405892 0.0770367239883952)
(0.0134218085914724 -0.0799874503411288 0.084274098549966)
(0.0236258865667354 -0.0990869477766073 0.099941667431396)
(0.00113792329954199 -0.180282094245838 0.00549372896378064)
(0.000177552777230847 -0.160587462660191 0.0114151610122477)
(-0.00257485132348307 -0.144562718026268 0.00926629128653564)
(-0.000360863386595233 -0.129834030828728 0.00385456360514391)
(0.00155652329011847 -0.118475117937852 0.0082942073293276)
(0.00504002479874285 -0.128766960090317 0.0138570630122483)
(0.00278039216476008 -0.149217887108252 0.0231451534487676)
(0.00179566314612998 -0.171385635633937 0.0140693878136837)
(0.00447658529709447 -0.1042172484964 0.00828839480926626)
(0.0145519419330281 -0.109407045055386 0.0125027912455842)
(0.027308635526062 -0.118520240636332 0.0193417508981576)
(0.0672533469485497 -0.0155888997329012 0.0400561882871832)
(0.111979893478589 -0.0593883151336479 0.0344645843942933)
(0.0446544769083193 -0.054391210007488 0.0464126111052967)
(0.0341473275315374 -0.17171433179883 0.0161609650401262)
(-0.000765667715987921 -0.150258277151514 0.0827384976700481)
(0.00569681779233941 -0.0878539738547286 0.0102004462344967)
(0.00445222163673214 -0.0699352607120485 0.0161625182182653)
(0.0186041620339941 -0.0894532690948628 0.01536997132134)
(0.00301111678749416 -0.051966581176523 0.0208892898365766)
(0.0135051761942628 -0.0683708110431494 0.023074812781466)
(0.0385350798944508 -0.0939595187719491 0.0227376763700478)
(0.00184919754912288 -0.0359043480994138 0.0227683241972941)
(0.00851453490743434 -0.0473907741023986 0.0270000444493611)
(0.0219947296720682 -0.0631818404182106 0.0315770067301579)
(0.0513456522237372 -0.0565236087844665 0.0313117234502191)
(0.00108453402932531 -0.0234190634443316 0.0221325551518697)
(0.00492814329966321 -0.0299139951295864 0.0265029317683905)
(0.0124011629550604 -0.0376173199943798 0.0318422326704913)
(0.0258704645988294 -0.0404713466728323 0.0362498031992407)
(-0.000948223458325366 -0.172064118648801 0.00680535229626281)
(-0.00205162215372351 -0.155846568515322 0.0105617853258206)
(-0.00132062050238951 -0.135000003637582 0.00658261642930402)
(-0.000679234069247726 -0.121704055700784 0.00248690116303837)
(0.00154696909912518 -0.113882530893885 0.00537428082187577)
(0.00495272391795597 -0.122022683207536 0.00814199304666426)
(0.0066810175922491 -0.137667001943205 0.0140914308506628)
(0.00424230964700025 -0.158274025317733 0.0109977281239963)
(0.00440597607368638 -0.10214579123601 0.00524748376625204)
(0.0144094443820688 -0.106141873421027 0.00831579062092701)
(0.0271815507593114 -0.1144124165326 0.0127899514379788)
(0.0415085979819681 -0.00611693504474611 0.0300869778313738)
(0.0718901253119147 -0.0160816826944403 0.0281243144810143)
(0.042008076643769 -0.0267236440725869 0.0354017349787239)
(0.112223288518717 -0.0567178612668931 0.0231729628644409)
(0.0343937429222378 -0.165597887664729 0.0110277402761466)
(0.00562806799268314 -0.0868339678141938 0.0062418762809656)
(0.00447948732098449 -0.0696616513455788 0.0109616014978954)
(0.0185943516985606 -0.0877957641865522 0.0102637222689005)
(0.00309400307649375 -0.0533354379260838 0.015435637872976)
(0.0138574309154955 -0.0684499473510659 0.0161164936164579)
(0.0389749799963415 -0.0919535614016558 0.0153482206082226)
(0.00200146582599201 -0.0389103581011489 0.0182951562829193)
(0.00914160249121343 -0.0503048307536662 0.0206783111978712)
(0.0238873443306515 -0.0638974086494661 0.0223685719649139)
(0.0535840151224009 -0.056459035437533 0.0217099446148317)
(0.00124409696279082 -0.0270722814081491 0.0191626524521777)
(0.00564145238422987 -0.0346930769507084 0.0224200456448435)
(0.0143439046114773 -0.0435455226207175 0.025930504093222)
(0.0302593998119761 -0.0459266055595563 0.0281440321368957)
(0.0481519905834183 -0.0293065810116003 0.0268428503950919)
(0.00333084376191331 -0.0227233778659123 0.0218073991782193)
(0.00821372149537508 -0.0276969050062216 0.025518392988821)
(0.0164890372631122 -0.0306867037320033 0.029077426965845)
(0.0272018557090262 -0.0262543674109079 0.0303804732738512)
(-0.000846989360399632 -0.157845586103135 0.00449735693172246)
(-0.00170577136008781 -0.144075468116351 0.00699081752925972)
(-0.00142801388695922 -0.126637596584209 0.00339635225592122)
(-0.000522430908387504 -0.116122099183844 0.00160642296274273)
(0.00154256200227488 -0.110782051771674 0.00359467845828311)
(0.00502987141408845 -0.117413374104352 0.00540394405095396)
(0.00782310375439959 -0.130603112724718 0.00808831360016597)
(0.00532940835480277 -0.150048971848295 0.0074834422594866)
(0.00442058268461599 -0.100879358678986 0.00272040928945398)
(0.0142163728351762 -0.104040327731756 0.00553035068993313)
(0.0269251222819341 -0.11122216602311 0.00844661184610617)
(0.0283367291602662 -0.00308002628255427 0.0237887593526915)
(0.0468857051700975 -0.00683212321489153 0.0238051003917816)
(0.0326177439532661 -0.0138003636626602 0.0279861850328737)
(0.0737185524485385 -0.0159241392030779 0.0203409015098074)
(0.111408887874771 -0.0544769713936315 0.0155401445122552)
(0.0341844225545316 -0.160836584389583 0.00815976632820188)
(0.00552188479265059 -0.0859996270290097 0.00292097349925798)
(0.00446486747655266 -0.0694330689354791 0.00665923554457507)
(0.0184085939296667 -0.0868150414534565 0.00642556762264004)
(0.00314500019666463 -0.0539232506059311 0.0108234179062058)
(0.0139826486502898 -0.0681995713435957 0.0109620844003145)
(0.0389078463560083 -0.090344168674702 0.0103388972173139)
(0.0020999589638418 -0.0406648026122747 0.014074084963091)
(0.00950271472175773 -0.0516714819852825 0.0153070373926731)
(0.0246166668774445 -0.0641345359060225 0.0158584527790535)
(0.054371693920757 -0.0556989843760037 0.0153033925019633)
(0.00136421501761263 -0.029668951694472 0.0158941593460676)
(0.00613965419964086 -0.0376539132072488 0.0180613578007709)
(0.0155171459405952 -0.0463194203793879 0.0200542226284501)
(0.0323766479280548 -0.0479876740206245 0.0209510607092339)
(0.0509672461142295 -0.0301147909379702 0.0199955540975446)
(0.00382745287701638 -0.0262890521220883 0.0189096402724413)
(0.00946570402773141 -0.0321328749908252 0.0216845996327285)
(0.0191346898264248 -0.0355995419364334 0.024075789839667)
(0.0316077995235779 -0.0300790539433761 0.0246161399708592)
(0.0375658499240219 -0.0156834099591257 0.0227873816395626)
(0.00559008490376375 -0.0212965164571309 0.0211599244177054)
(0.0109941773736321 -0.0239148892105003 0.0239061067948445)
(0.0182287661021585 -0.0229425966688036 0.0256861984531628)
(0.024322800228686 -0.0165029968236597 0.0253300512064403)
(-0.000270868285164871 -0.147692299382736 0.00265033825388232)
(-0.000971381508642067 -0.134882137420516 0.00342391087557728)
(-0.00103413072967549 -0.120892927511342 0.00216403458815818)
(-0.00058061125059074 -0.112461502608184 0.0013471618120257)
(0.00171491357504751 -0.109690518659381 0.00230194640720818)
(0.00512970265048199 -0.114223971088655 0.00405994184790479)
(0.00809544200355633 -0.125747579965279 0.00529439285386969)
(0.00558506738794335 -0.144459883695718 0.00501228621403583)
(0.00450193703269103 -0.101492733496048 -7.28489175845963e-05)
(0.0140588103171845 -0.102707599605283 0.00323441308144705)
(0.0267274600131598 -0.109074374005252 0.00574181877862536)
(0.0205136185801104 -0.00177625348078404 0.0195494299868823)
(0.0326624067986682 -0.0035505784210476 0.0200219652661359)
(0.0246519767854475 -0.00780123673081847 0.0227880355336685)
(0.0496195770332919 -0.00709859339016783 0.0183446060636916)
(0.0741599903617114 -0.0156529561938715 0.0146785459476118)
(0.110149918165041 -0.0532125505646192 0.0101416241692436)
(0.0336997364715781 -0.157333652132721 0.00623006632741127)
(0.00533745029293246 -0.0861642964103229 -0.00067151053339255)
(0.00441015938255628 -0.0692540311298587 0.00281992812579947)
(0.0181120399436546 -0.0860238889443847 0.00329097036130888)
(0.00316169063942096 -0.0541649406588154 0.0067619501235053)
(0.0139620210272656 -0.0680094747399282 0.00673763690855693)
(0.038630777085649 -0.0893835613976582 0.00675381070882852)
(0.0021570182136043 -0.041617281632416 0.0101990317061971)
(0.00968421288283654 -0.0522774962595859 0.0107726088417936)
(0.0248762669128177 -0.0640090419564115 0.010925846703082)
(0.0544598022871878 -0.0551283309860402 0.01078849982482)
(0.00144696959563661 -0.0313739413893596 0.0126137318020642)
(0.00645734855044185 -0.0393904598544069 0.0139336436797746)
(0.0161875460998243 -0.047694412746625 0.0149814014803066)
(0.0334304088352109 -0.0486489953337983 0.0152934048916538)
(0.0521785150759155 -0.0302732451057541 0.0147277095754049)
(0.00095389099187116 -0.0230563358729259 0.0138506319008905)
(0.00419812042463002 -0.0288370622260889 0.0157146080724072)
(0.0103321186413737 -0.034944021329052 0.0175712075384992)
(0.0207748323307023 -0.0382865315031945 0.0189671814763105)
(0.0341017120662135 -0.0319552275666967 0.0191074706651579)
(0.0403360405371159 -0.0166006211634566 0.0179057447877698)
(0.00643793976670882 -0.0246492378270459 0.0184001002413997)
(0.0127045060788115 -0.0277573545841853 0.0204812474256125)
(0.0211490278540565 -0.0266116056185641 0.0216968310031278)
(0.0282086131878754 -0.0190650593251334 0.0212832795768725)
(0.0284968406574257 -0.00900839670563435 0.0193881012970179)
(0.00757516054081209 -0.0189816909745726 0.0201191119384642)
(0.0125808064216317 -0.0192970965203785 0.0218199282634409)
(0.0176645459569905 -0.0163020370294837 0.02235294127843)
(0.0202358688469545 -0.0104694774818291 0.0212946476573639)
(0.000104091919107359 -0.141212778446916 0.00152436469582685)
(-0.000363800374749004 -0.128830688204514 0.0019609254275036)
(-0.0009711756966928 -0.117106853476894 0.00224003879247806)
(-0.000288065040613343 -0.111256507673054 0.00198271150034484)
(0.00182351450053231 -0.110927389997546 0.000637085561902193)
(0.00535821040778513 -0.112929142360284 0.00289589172303478)
(0.00842877375325958 -0.122360953942432 0.00393303734573006)
(0.00581868379815491 -0.14054356701307 0.00307485570369921)
(0.00461187431134596 -0.10359568955125 -0.00369561946710626)
(0.0139043978455109 -0.103316964455583 0.000158232962246323)
(0.0262415078054571 -0.107723854192074 0.00371171763273364)
(0.0153904185205265 -0.00106878027174007 0.0165372068607191)
(0.023749018788956 -0.00206493461961366 0.0170031700106823)
(0.0188348585764374 -0.00475724390284362 0.0190434482047179)
(0.0353419130134533 -0.00381763648310928 0.0162054504566405)
(0.0509683809987205 -0.0071912133247555 0.0138346624261345)
(0.0741863803759508 -0.015485795644409 0.01037827645291)
(0.10936417054535 -0.0525906165517838 0.00774766132832097)
(0.0330534076191265 -0.155268002421162 0.00438204634672872)
(0.00512755027644718 -0.0871121335945679 -0.00583642592176244)
(0.00424695562746849 -0.0689385311618598 -0.0013892753563021)
(0.0176549380654453 -0.0862047411180227 7.26972260308226e-05)
(0.0031582368594723 -0.0542988779134635 0.00295175181047074)
(0.0138287076206651 -0.0678493884103766 0.00304478659443092)
(0.0381161683883806 -0.0885826733361479 0.0040689699337743)
(0.00218374012006011 -0.0420672865565032 0.00657554389348045)
(0.00974560739969522 -0.0525359705754914 0.00677665083831672)
(0.0248823984964849 -0.0639298708126278 0.00686447160474654)
(0.0542310397834506 -0.0551730544977241 0.00717641475259908)
(0.00149737180630054 -0.0323923127922489 0.0094351736748376)
(0.00663776281530743 -0.0403420357697567 0.0101312547121915)
(0.0165225717810993 -0.0483413976481974 0.010641737229668)
(0.0338683319580407 -0.0488651064972655 0.010792936905302)
(0.0526581058650521 -0.030306799323614 0.0105871011445841)
(0.00101786075002109 -0.0245677784705104 0.0112691695959639)
(0.00445156107187721 -0.0305188957689512 0.0124994370480624)
(0.010885377667257 -0.0366263699517808 0.0136391366679156)
(0.0217332183390421 -0.0396783590402452 0.0143966696881137)
(0.0354284180450172 -0.0328302512915478 0.0144113112837591)
(0.0418266704492374 -0.0170395792586031 0.0137050628021374)
(0.000679635362558267 -0.0182133507138277 0.0121565783380076)
(0.00293181079919926 -0.0225238753301697 0.0137250387987164)
(0.00707148668289831 -0.0270721040740603 0.0153497784726755)
(0.0139068264034138 -0.0303134549548426 0.0167651642434904)
(0.0230745557574797 -0.0288665797886326 0.0174973753025732)
(0.0306755100963288 -0.0205704858055233 0.0171341023857813)
(0.0309970253135824 -0.00975183682341687 0.0158597222018781)
(0.0087364270762938 -0.0219748938849989 0.0175772410226649)
(0.0145494594124618 -0.0223832442910366 0.0188899257611572)
(0.0204688503576086 -0.0189115337714713 0.0192437249424628)
(0.0234400732911366 -0.0121374323508064 0.0183814854633801)
(0.0217782601541888 -0.00551702265494795 0.0166330791422149)
(0.00889469796347732 -0.0160381710222709 0.0187370389778489)
(0.0128210187588194 -0.0148253916544122 0.019577364301149)
(0.0157922489089244 -0.0113653941082944 0.0193900186591993)
(0.0163752763957838 -0.00682820091467619 0.0181388787023938)
(0.000349687621770025 -0.137041706756491 0.000221187898753743)
(-1.25158111351753e-05 -0.124862250142811 0.0018211854205899)
(-0.000539988297034409 -0.115914860660094 0.00271685578615174)
(-0.000435746878849127 -0.113615868603159 0.00241245476629394)
(0.0027192472916523 -0.114301083523797 -0.00114058198850259)
(0.00551728922142493 -0.114110202867927 0.000678810881867145)
(0.00834122452786476 -0.120942830034598 0.00272836686473037)
(0.00563574022739977 -0.138828596805174 0.00111887881148153)
(0.00455591375772159 -0.108225058451748 -0.00916316967600854)
(0.0138951855452386 -0.105355631638121 -0.00506506880975954)
(0.0255319202557122 -0.108360600196952 0.000833183920470075)
(0.01183213228277 -0.000689134104273429 0.0143087488267381)
(0.0178022232013106 -0.00125098159919811 0.0146573276490291)
(0.0145834535613259 -0.0030169847235692 0.0162563020856439)
(0.0260261796647182 -0.00226332303342735 0.0142382221493062)
(0.0369313026792666 -0.00396538458159788 0.0126903667102094)
(0.0516547247072885 -0.00723747559718093 0.0100797900408116)
(0.0744490431058114 -0.0155927637400235 0.00708198122322843)
(0.107906861335352 -0.0521705385661389 0.00763166190094434)
(0.0318418471167081 -0.15610541281366 0.00241248293333344)
(0.00517924664465726 -0.0892156808079613 -0.013646920342575)
(0.00406361511768711 -0.0685601284824825 -0.00713406841131145)
(0.0171944834420757 -0.0870198201191824 -0.00411602580832687)
(0.00303356332550598 -0.0534111034011559 -0.00126645361754394)
(0.0134239720848209 -0.0675069532929189 -0.000747844334138922)
(0.0374548985857135 -0.0887225848231961 0.00142170988257163)
(0.00219912773020453 -0.0421916949308729 0.00302022363018422)
(0.00974255086310472 -0.0526834041188424 0.00301777179355797)
(0.0247266739711149 -0.0638612666501533 0.00336732374743361)
(0.0538119151776628 -0.0549361782711606 0.0043729324565797)
(0.00152059872156193 -0.0328787035836705 0.00635015172775341)
(0.00671960579275516 -0.0407892903481228 0.00655815516746737)
(0.0166428391048675 -0.0486454703431292 0.00677694524960921)
(0.033972480477355 -0.0490434675508478 0.00698932693559075)
(0.0528297058100299 -0.0305793473741095 0.00709867356404357)
(0.00105854869721938 -0.0255248654459666 0.00868766964856912)
(0.00460535664117452 -0.0315270938247732 0.00937629443547879)
(0.0112006245309562 -0.0375650940667517 0.00998576026957048)
(0.0222335531799224 -0.040392751937313 0.0103870138362058)
(0.0360854248102085 -0.0332670513764258 0.010443395990235)
(0.0426157314060245 -0.0172838138715449 0.0101082263428736)
(0.000727973422855194 -0.0195093267564838 0.0100958942784547)
(0.00312631261498499 -0.0240134268826207 0.0111851718171274)
(0.00750586290064415 -0.0286885764360253 0.0122639475052278)
(0.0146855817091662 -0.03189205792776 0.0131481014500859)
(0.0242476999586123 -0.0301651294611208 0.0135669146491697)
(0.0321391447396488 -0.0214182145196648 0.0133225466742386)
(0.0325384089125568 -0.0101935005357729 0.0125370491215144)
(0.000491581426789385 -0.0145810204439889 0.010755679623511)
(0.00208619443265739 -0.0178679621700728 0.0120694692097571)
(0.00495684609399375 -0.0213678610311358 0.0134603628559913)
(0.009612459363882 -0.0241830870263798 0.0147565038240905)
(0.0159765511421327 -0.0245470582205129 0.0156720345889051)
(0.0224360560217601 -0.0206694769272863 0.0158768754309284)
(0.0256704077753134 -0.0132595236082835 0.0152427192046128)
(0.0238980936228605 -0.0060550032673109 0.0140041650182595)
(0.0102643117089171 -0.0185624379058407 0.0164719201585032)
(0.0148203084815152 -0.0171810053599454 0.0171342823482134)
(0.0182725644203604 -0.0131785865328024 0.0169636626986688)
(0.0189396599524461 -0.00791858852075733 0.0159537991772915)
(0.0168462590314164 -0.00350938154503746 0.0144372544420886)
(0.00938594096515863 -0.0129771980000201 0.0171774244839196)
(0.0120664053791321 -0.0110812299341761 0.0174287519652658)
(0.0134961649358477 -0.00793451023125281 0.0168881153741249)
(0.0131264653556147 -0.00458012857122546 0.0156722151464514)
(0.000306075101053013 -0.135199713543928 -0.000914493141563143)
(7.65935398321102e-05 -0.123501003782028 0.00194615498471174)
(-0.000722628844334353 -0.117974741362803 0.00270944129126338)
(0.000142250740151825 -0.11784808511186 0.00236555273271415)
(0.00301482161605549 -0.119885098378712 -0.00235633004727102)
(0.00680694548313266 -0.117583373939848 -0.00373535074353353)
(0.00822821150099715 -0.122145917817712 0.000330198660606251)
(0.00536708048101013 -0.139755220168331 -0.00102186411077566)
(0.00264458390885557 -0.116402320193625 -0.0164116068661222)
(0.0142760886094373 -0.110210576616928 -0.0116691355237366)
(0.0252720563418282 -0.110441160626116 -0.00447705534840551)
(0.00922078552771175 -0.000470678496771961 0.0126028350696172)
(0.0136608857601091 -0.000801631643063173 0.0128412671260448)
(0.011386660969899 -0.00200935669511143 0.0141264194359078)
(0.0196341282759974 -0.00138864229831959 0.0125664417996808)
(0.027526169794767 -0.00239193618414688 0.0114971334586253)
(0.0378487401193692 -0.00405297485376413 0.0095169497661352)
(0.0521396123474368 -0.00732584252471309 0.00682795742502587)
(0.0740948701970904 -0.0156777570214622 0.00505580943098758)
(0.107838898544196 -0.0526976381046217 0.0089102405416636)
(0.030593639577702 -0.158297936799153 -0.00166004555682925)
(0.00366266757244321 -0.0942353383494684 -0.029522856015905)
(0.00439931591591107 -0.0675679833084012 -0.0146411559777514)
(0.0172600689683571 -0.0909662748921559 -0.0110154736067821)
(0.0029466599607796 -0.0521016597584155 -0.00627462005284796)
(0.0129964362741408 -0.0672158998411535 -0.00547579461505604)
(0.0366868561557272 -0.0894811428490808 -0.00214600243853609)
(0.002104398255974 -0.0410981686541044 -0.000613093760049966)
(0.00938662477328699 -0.0517954816760501 -0.00108544113475506)
(0.0241762301161518 -0.0634384380320831 -0.000145893610751415)
(0.0531193046004839 -0.055213074939074 0.00195130057892907)
(0.00152019810315291 -0.0329030982522893 0.00326575644620469)
(0.00675065734485439 -0.0408947509999059 0.00298948551452691)
(0.0166408258782627 -0.0488422055232236 0.00307844414428677)
(0.0338937332724052 -0.0492859233977115 0.00363885749830233)
(0.0527737861462893 -0.0309429309230683 0.00425589301339105)
(0.00107821640967578 -0.0259955664604591 0.00614183315093137)
(0.00467615979214843 -0.0320046086589347 0.00633969033843799)
(0.0113371056971852 -0.0380112855123103 0.00652030547607589)
(0.0224330768387309 -0.0407702208704804 0.00673636739476545)
(0.0363595240068694 -0.0336015122822643 0.00693468194777693)
(0.0430561800542143 -0.0175286869037943 0.00690829206863031)
(0.000759755517539366 -0.0203669075737697 0.00799779899360985)
(0.0032499173098121 -0.0249587394450429 0.00864135469490977)
(0.00777016071195626 -0.0296660318062366 0.00925115220461195)
(0.015136155862639 -0.0328002852096338 0.00973788367654813)
(0.0248991032718598 -0.0308918771897919 0.00998506371468601)
(0.0329556648561251 -0.0219074738527053 0.00989467128780183)
(0.0334485489888594 -0.0104634402318852 0.00947879552823343)
(0.000528015859961681 -0.0156822552267739 0.00908955004164476)
(0.00223347390294356 -0.0191459655176084 0.0100353432290763)
(0.00528890838293832 -0.0228006127721971 0.0110058515159408)
(0.010218869330667 -0.0256835340422155 0.0118767136996088)
(0.0169253082751084 -0.0259491799082678 0.012466171009074)
(0.0237070555191149 -0.0217763254971895 0.0125867034915234)
(0.0271149458906604 -0.0139725561875279 0.0121756873400925)
(0.0253257966485566 -0.00641395718845237 0.0113712149817618)
(0.000360367820663531 -0.0117998052395105 0.00958833760527662)
(0.00150893467304618 -0.0143502529000273 0.0106938006019052)
(0.00354258462674088 -0.0170965530913157 0.0118775592900692)
(0.00680615968987772 -0.019478566656698 0.0130247570277175)
(0.0113144965490471 -0.0204731794491912 0.0139479339795528)
(0.0163187830647028 -0.0189147295888285 0.0144235854716323)
(0.0201076172363281 -0.014495769926029 0.0142827387771446)
(0.0208514797663506 -0.0087229295187518 0.0135364042302439)
(0.0185833475396479 -0.00388650433963499 0.0124104255056107)
(0.010830776034741 -0.0150134142151849 0.0152066045579231)
(0.0139364299082752 -0.0128312507437439 0.015410263887369)
(0.0155938125457785 -0.00919268606786035 0.0149654554095635)
(0.0151605846756081 -0.00531031232255955 0.0139687810976936)
(0.0131424333064008 -0.00233165864225649 0.012691588847597)
(0.00917206552224729 -0.0102045275087103 0.0156046583082289)
(0.0107868101843797 -0.00819294016694039 0.0154990843527331)
(0.0112546724334953 -0.00560046500758881 0.0148239788863931)
(0.0104891625598922 -0.00316462322393218 0.0137319711744933)
(0.000223534521208361 -0.136423641146647 -0.00171036231763796)
(-4.95982522957668e-05 -0.125257006599228 0.0015410322153377)
(0.000208112591840232 -0.122280319181436 0.00170702165725448)
(2.12705600491159e-05 -0.124482613663724 0.00150903256079381)
(0.00114391099448284 -0.130208674114166 -0.00392924286959225)
(0.00856156420511102 -0.123137236559712 -0.00901661786674982)
(0.00852858569752745 -0.125844493836366 -0.00391119104791272)
(0.00506680402520236 -0.143304194910028 -0.00413977835761365)
(0.00109626277888245 -0.160692343211615 -0.0211233817770702)
(0.0116116083142646 -0.119123827478082 -0.019869305670023)
(0.0267273681230131 -0.116107429376356 -0.0119630040949479)
(0.00722749345888105 -0.000334637495554375 0.0112727245616595)
(0.0106358243002766 -0.000546468230584869 0.0114168803320859)
(0.0089466084301891 -0.00139644741232552 0.0124750859656695)
(0.0151118965408203 -0.000891433706104796 0.0111979769209667)
(0.0209245126949619 -0.00148380880334575 0.0104037319578406)
(0.0284480232284323 -0.0024735592326059 0.00886399745716534)
(0.0383841410077986 -0.00412749488416214 0.00659924597882073)
(0.0524314134256693 -0.00753972886563739 0.00424955323608822)
(0.074003924782995 -0.0158471179585622 0.0035787624850926)
(0.107608009428946 -0.0551147545896379 0.0124319968405341)
(0.0263528135683413 -0.163713761655655 -0.011537860726503)
(0.00279711557804765 -0.0811010830763933 -0.0477724092046213)
(0.00499646832868194 -0.0659375045590474 -0.0237657111011291)
(0.0125919545978485 -0.0965872362629512 -0.0260957387872324)
(0.00298287632389166 -0.0497608699971072 -0.0115136824712083)
(0.0136521197698703 -0.0672410646578781 -0.0129572428587304)
(0.0372276974530224 -0.0930166704349989 -0.00669372183456765)
(0.00200793752624336 -0.0396471676269614 -0.00432193261998614)
(0.0090904272793475 -0.0505611172931401 -0.00592918015215975)
(0.0235569856423149 -0.0630561209781486 -0.00451615062988281)
(0.0524585935056793 -0.0561082212418109 -0.00101602155351223)
(0.00149166208898539 -0.0320776208601713 0.000299312834854423)
(0.0064897596386017 -0.0398447653915411 -0.000630617439833121)
(0.0161074249939087 -0.047958989486064 -0.000894606072932651)
(0.0332350519925547 -0.0488625355528539 0.00019780957252187)
(0.0521513979266822 -0.0308751533087235 0.0013762372461649)
(0.00107910545737947 -0.0260026853672829 0.0036459888664346)
(0.0046733312090432 -0.0320075011451414 0.00330747688737569)
(0.0113393348784412 -0.0381005930179471 0.00298679907058778)
(0.0224430580517166 -0.0410226416118678 0.00313180841934596)
(0.036423504949195 -0.0340317217525009 0.00358580543366356)
(0.0433131372915179 -0.0179693740561533 0.00391472501080271)
(0.000775818265334448 -0.0208135479224297 0.00590579730616519)
(0.00330978040856313 -0.0254227501217051 0.00612962621599414)
(0.00788980570860691 -0.0301289343303455 0.00631212511596984)
(0.0153301981773469 -0.0332439041278352 0.0064699294136924)
(0.0251862890693579 -0.0312986442977791 0.0066222448762122)
(0.0333607324450224 -0.022243078480317 0.00670987801561947)
(0.0339564220999042 -0.0106635607117877 0.00659989324943161)