/*--------------------------------*- C++ -*----------------------------------*\
  =========                 |
  \\      /  F ield         | OpenFOAM: The Open Source CFD Toolbox
   \\    /   O peration     | Website:  https://openfoam.org
    \\  /    A nd           | Version:  12
     \\/     M anipulation  |
\*---------------------------------------------------------------------------*/
/*   Windows 32 and 64 bit porting by blueCAPE: http://www.bluecape.com.pt   *\
|  Based on Windows porting (2.0.x v4) by Symscape: http://www.symscape.com   |
\*---------------------------------------------------------------------------*/
FoamFile
{
    format      ascii;
    class       volScalarField;
    location    "100";
    object      nut;
}
// * * * * * * * * * * * * * * * * * * * * * * * * * * * * * * * * * * * * * //

dimensions      [0 2 -1 0 0 0 0];

internalField   nonuniform List<scalar> 
10116
(
0.000105552785619448
0.000106081033908104
0.000107641834805922
0.000875143784535512
0.000106470766312696
0.000108175374585375
0.000879542437108539
0.000110120835329607
0.000888491733460935
0.00205821195461196
0.000106762929947573
0.000108571790806041
0.000882805345408066
0.000110660617189088
0.000892905167022768
0.00206871663887569
0.000111583164057696
0.000905121547865159
0.00207547006707438
0.00333248127569929
0.000106981938221948
0.000108870631159942
0.00088524614972155
0.000111065371804889
0.000896201983267466
0.00207651160566789
0.000112126492998716
0.000909575098983294
0.00208599573787803
0.00334994682695873
0.000111293378088834
0.000915400683325594
0.00209521959492988
0.00334554291192818
0.00454664164734906
0.000107146825235164
0.000109095276490632
0.000887071438484688
0.000111371283695767
0.000898674245832022
0.00208234594736793
0.000112536915069387
0.000912925429130757
0.00209382721603142
0.00336295695589403
0.000111834672817153
0.000919877627717782
0.00210577987725711
0.00336298310644057
0.00457112964198063
0.000109753256643537
0.000914062636896311
0.00210543251590747
0.0033558623108508
0.00455153113409698
0.00563784264432489
0.000107272034264739
0.000109264669684874
0.000888437170495343
0.000111603113073185
0.000900524660422571
0.00208671112147726
0.000112847909694026
0.00091544824943529
0.00209969849625807
0.0033727041495407
0.000112244365857042
0.000923263508891267
0.00211367659770532
0.00337600239732309
0.00458948345466809
0.000110287502556141
0.000918525309073001
0.00211600436309506
0.00337329155465772
0.00457593903426066
0.00566904976367185
0.000107726102894876
0.000903107566160331
0.00209837582302918
0.00335391341699644
0.00454725310053049
0.00563434979455127
0.00658952264506048
0.000107368864848629
0.000109393541327888
0.0008894649240334
0.000111777834682818
0.000901909617831355
0.00208997513089087
0.000113084271401256
0.000917341417501246
0.00210409464050261
0.00337999610458001
0.000112556076295252
0.000925822397995828
0.00211961599779889
0.00338576794789144
0.00460326151636456
0.00011069199062254
0.000921908007684263
0.00212394191237397
0.00338634954077997
0.00459425851246385
0.00569255098508097
0.000108251082107121
0.000907517386159281
0.00210890408727071
0.00337129716718366
0.00457157699895443
0.00566542520345817
0.00662694033822702
0.000105515694078306
0.000886992292346974
0.00207508321715863
0.00333303558604615
0.00452723726362286
0.00561560723329806
0.006580223338548
0.00740692535330904
0.000107446118893439
0.000109493398231116
0.000890249967442281
0.00011191094292506
0.00090295196789871
0.0020924254474434
0.000113262849418826
0.000918760597618647
0.00210738322367104
0.00338544215452976
0.000112792586003002
0.00092774780138143
0.0021240726460072
0.00339307769853637
0.0046135697882882
0.000111000122177893
0.000924470648048491
0.00212993042946822
0.00339616904511388
0.00460802265589725
0.00571022876886334
0.000108648418017384
0.000910862449375947
0.0021168226300774
0.00338436476964345
0.00458988543549083
0.00568884774290865
0.00665521513564563
0.000106029954895629
0.000891325120479642
0.00208549543594047
0.00335030976408571
0.00455142483824792
0.00564652810100788
0.00661747914047431
0.00744994341215627
0.000103057879417326
0.000868103047449358
0.00204030843199618
0.00329297776222634
0.00448708280814659
0.00557738215093722
0.00655061761444921
0.00739459125460774
0.00810367888582369
0.000107510699449619
0.000109573215933719
0.000890866790533977
0.000112014235317903
0.000903748281457442
0.00209428808309372
0.000113399109508022
0.000919829980861131
0.00210985293680161
0.00338951911035417
0.000112971986486247
0.0009291941724884
0.00212741150616855
0.00339853860207352
0.00462125830956086
0.000111234189168395
0.00092640265485966
0.00213443483038897
0.00340353299647439
0.0046183247170293
0.00572345869050252
0.000108951118086205
0.000913399437016264
0.00212280900398818
0.00339421897876705
0.0046036708595943
0.00570647741181078
0.00667651880383355
0.00010641902807965
0.000894611539107654
0.00209333063938218
0.00336331437181791
0.0045696852075787
0.00566988851401776
0.00664564484358631
0.00748253051696464
0.000103559612819819
0.000872341749527955
0.00205054236370543
0.00331004309916943
0.00451106070905381
0.00560807228683689
0.00658767311963738
0.00743744029105757
0.00815164267817006
0.000100218113022472
0.000846546703249473
0.00199696191492892
0.00323644464914987
0.00442603981200688
0.0055170724241584
0.00649765252588961
0.00735817062720025
0.0080898865370766
0.00869476309926137
0.000107567922818043
0.000109640164094227
0.000891373515451884
0.000112096886595841
0.000904374135679548
0.00209573979567589
0.000113505019310399
0.000920647784743707
0.00211173125127493
0.00339260208583375
0.000113109006265831
0.00093028566508155
0.00212992182765616
0.00340262739211591
0.0046269965180138
0.000111411892840014
0.000927856549208983
0.002137815694947
0.0034090424326195
0.00462601010373168
0.00573331503683646
0.000109181124754384
0.000915314157027813
0.0021273204763497
0.00340162654099563
0.00461400612580768
0.00571967522149075
0.00669246908990558
0.000106715139304293
0.000897104672191696
0.00209925998783872
0.00337313982727397
0.00458346886638393
0.00568750390504797
0.00666687658882138
0.00750711776108538
0.000103938846682519
0.000875555372664581
0.00205824219044535
0.00332289719429421
0.00452919077211407
0.00563132224364121
0.00661574233260877
0.00746990527856694
0.00818804838137131
0.000100704809512359
0.00085067260803477
0.00200696255770973
0.00325319689402787
0.00444968035683223
0.00554743790290701
0.00653440315576109
0.00740080385848973
0.00813768969117717
0.00874700472564772
9.68997796086104e-05
0.000821597627040243
0.00194531548897299
0.0031649551387096
0.00434467150021812
0.00543375149762193
0.00641950277679396
0.00729452554622898
0.00804931915082072
0.00868007535030625
0.00919384991317037
0.000107621884437281
0.000109699579229322
0.00089181487036049
0.00011216601755387
0.000904888899835324
0.00209691735174378
0.000113589948826242
0.000921290900394993
0.00211319609340907
0.00339498464204707
0.000113215385959075
0.000931121379132112
0.00213183274389003
0.00340571975229992
0.00463131206186671
0.00011154760223197
0.000928954888913785
0.00214036076573302
0.00341317231562268
0.00463174650458274
0.00574065017900018
0.000109355658795633
0.000916756352088693
0.00213071208504116
0.00340717980801535
0.00462172679431917
0.00572950900771053
0.00670434135792261
0.000106940193377288
0.000898986920252534
0.00210373333748098
0.00338053999257544
0.00459382574278257
0.00570071088708358
0.00668277598356125
0.0075255328681643
0.000104227150749933
0.000877992642580768
0.0020640707752489
0.00333261918428799
0.0045429022801962
0.00564889475666744
0.00663693570979682
0.00749440800378925
0.00821554674856744
0.000101072310767668
0.000853798728111292
0.00201448295334441
0.0032658152358778
0.00446756815003433
0.00557047809679125
0.00656231319232831
0.00743315948139976
0.00817396995115898
0.00878672406335236
9.73684038597552e-05
0.000825588318798468
0.00195502591608493
0.00318128928029365
0.00436782770097847
0.00546363344209123
0.0064558217009071
0.00733680733231747
0.00809691324571948
0.00873217178692871
0.00924970487216265
9.30326289470591e-05
0.000792473327145664
0.00188424528932905
0.00307800850241058
0.00424256848341455
0.00532643903801422
0.00631510678352425
0.00720172857640064
0.00797795872343827
0.00863667328089914
0.00917836981341826
0.00961288319008221
0.000107675706062414
0.0001097556167256
0.000892225129632613
0.000112227175280256
0.000905337567945241
0.00209792729589152
0.000113660978394472
0.00092181911358656
0.00211438417451627
0.00339689441561895
0.000113300477709347
0.000931779214079659
0.00213332419842428
0.00340810992387242
0.0046346179019549
0.000111652830667388
0.000929795586536711
0.00214229974573363
0.00341629830407295
0.00463606092095095
0.00574613814389967
0.000109489126103431
0.000917846345653357
0.00213326771147831
0.00341134926235051
0.00462749596239883
0.00573682780827556
0.00671315470797425
0.000107110825073368
0.000900404960771354
0.00210709916029079
0.0033860974037332
0.00460157758258527
0.00571056419824646
0.00669461177236794
0.00753923091799327
0.000104446251618088
0.000879832315112551
0.0020684697856861
0.00333995004728766
0.00455322521805174
0.00566209725911468
0.00665282820150111
0.00751276295109516
0.00823615059033255
0.000101351576919969
0.000856168419314589
0.00202017488751884
0.00327536322147603
0.00448111269625853
0.00558792506474579
0.00658343182216256
0.00745761475783426
0.0082013797333422
0.00881675495565237
9.77220056419912e-05
0.000828609937866369
0.00196232268979465
0.00319358923552685
0.00438535376777258
0.00548632717715089
0.00648344827106173
0.0073689744507677
0.00813308624592197
0.00877176737156443
0.00929223648507424
9.34790991684295e-05
0.000796302369165846
0.00189360247364142
0.00309381394535611
0.00426508171291207
0.0053556418702124
0.00635079101643409
0.00724348906107918
0.00802517757669022
0.0086885798088158
0.0092340975529201
0.0096717039543372
8.85586107967629e-05
0.000758435665631474
0.00181202616107614
0.00297365622878757
0.00411782405736428
0.0051930505223241
0.0061826225515143
0.0070785441367943
0.00787325332286295
0.00855939589061571
0.00913270913993702
0.00959660236028036
0.00996236634463326
0.000107731676686507
0.000109811542976007
0.000892630185073446
0.000112284760061942
0.000905754838595512
0.00209885051606387
0.00011372360710164
0.000922278605841563
0.00211540371633538
0.00339850665831181
0.000113371827402183
0.000932319192038299
0.00213453571265445
0.00341002603279533
0.0046372342546515
0.00011173684086861
0.000930456362035663
0.00214381377982819
0.00341871556273553
0.0046393660643709
0.00575030562998533
0.000109592319430741
0.000918680148515763
0.00213521444842745
0.00341450837186205
0.00463183872001906
0.00574230352211738
0.00671971715861648
0.000107241439286335
0.000901476570536424
0.00210963629521394
0.00339027544895444
0.00460737960638678
0.0057179056807819
0.00670339857118795
0.00754937873718505
0.000104612278343732
0.000881217833852001
0.00207178039658498
0.00334546066072981
0.00456096545643408
0.00567196609779951
0.00666467354515114
0.00752641751751762
0.00825147001837538
0.000101563694752983
0.000857956058795701
0.00202447023724176
0.00328256687116767
0.00449132447205155
0.00560105913459114
0.00659930007706132
0.00747595780018265
0.0082219197958993
0.00883926620404146
9.79903837219396e-05
0.000830899084371784
0.00196784315933319
0.00320289709878791
0.00439863320092683
0.00550353458498593
0.00650439175412048
0.00739333673127865
0.00816045034751183
0.00880170870507415
0.00932442395550272
9.38162594396014e-05
0.000799199886325485
0.00190062786324165
0.00310571049190427
0.00428212176983052
0.00537783086247725
0.00637796275830227
0.00727531167366552
0.00806114826544073
0.00872807813882598
0.00927650872337999
0.00971655979232991
8.89786996434507e-05
0.00076207095216537
0.00182095942740627
0.0029888133701688
0.00413952368531695
0.00522135913213233
0.00621742561513478
0.00711952740546385
0.00791987987909104
0.00861091911083212
0.00918827247580574
0.00965531549750964
0.0100235388200604
8.34208308915442e-05
0.000718656824219404
0.0017264265368341
0.0028488413531527
0.00396716897765044
0.00503020107836922
0.00601882681647172
0.00692275640030134
0.00773372050694266
0.00844484513097025
0.00905060675711592
0.00954899069565942
0.00994529696552438
0.0102516797431601
0.000107790558991929
0.000109870047664777
0.000893048876875642
0.000112342397536549
0.00090616741439602
0.002099747380095
0.00011378227883764
0.000922705244218784
0.00211633619683067
0.00339995402823212
0.000113434940903545
0.000932787811807101
0.00213557568285909
0.00341164391160669
0.00463940637093816
0.000111807150308179
0.00093099859758108
0.00214504335943499
0.00342065373303999
0.00464198196165831
0.00575356222297233
0.000109674624880632
0.000919334446143343
0.0021367325016019
0.00341695191337345
0.00463516726251375
0.00574646237249235
0.00672466222351586
0.000107342341157882
0.000902295567114877
0.00211156798713554
0.00339344389960556
0.00461175248800095
0.00572340331505903
0.00670994154083689
0.00755690395445435
0.00010473937309627
0.000882264550909273
0.00207427541500198
0.00334960593383774
0.00456676776733156
0.00567933165840922
0.00667347732844221
0.00753653374764027
0.00826280044206419
0.000101724047079076
0.000859301382647518
0.00202770181332234
0.00328798405549762
0.00449899217406513
0.00561089550350341
0.00661114975453993
0.00748961997138587
0.00823719304233076
0.0088559998350954
9.81936038390386e-05
0.000832624549417983
0.00197200706864881
0.00320992042523925
0.00440865291745988
0.00551650781651143
0.00652015951517014
0.00741164541582155
0.00818098108352271
0.00882415490447699
0.00934856376679896
9.40716429773941e-05
0.000801392834156345
0.00190594000206685
0.00311471187688057
0.00429503752093316
0.0053946705777978
0.00639859086874401
0.0072994580884267
0.00808841188926083
0.00875798067071452
0.00930860664547275
0.00975053813270714
8.92965118747375e-05
0.000764821475983633
0.00182766081413333
0.00300021614474516
0.00415594671842392
0.00524287485493369
0.00624394446820902
0.00715079296168595
0.00795545812160585
0.0086502114995672
0.00923059986865278
0.00970005505973045
0.0100702552236342
8.38075486563301e-05
0.000722061327016035
0.00173485565663255
0.00286321977910261
0.00398787115588155
0.00505738204121663
0.00605247260944714
0.00696265843566665
0.00777944220574886
0.0084957221236543
0.00910578980644347
0.00960756889494048
0.0100063826996968
0.0103146386414763
7.74767706321843e-05
0.000671885724786561
0.001624335232312
0.00269926118198671
0.00378594017239069
0.0048331965954512
0.00581912342372535
0.00673047919087182
0.00755698548487131
0.00829121343271812
0.00892778661848194
0.00946283059262133
0.0098959896241228
0.010233875058136
0.0104892665825519
0.000107853540780669
0.000109933264315989
0.000893491550015719
0.00011240286866786
0.000906595742094075
0.00210066251539928
0.000113840616223731
0.000923127465657882
0.00211724214682619
0.00340133511476902
0.000113493740600091
0.000933221407945207
0.00213652618899436
0.00341309658402679
0.00464131893462799
0.000111869293571626
0.000931468961642993
0.00214609735953883
0.00342228948088527
0.00464415377406701
0.00575622093524916
0.000109743545669821
0.000919870252942223
0.00213796329580933
0.00341891054117373
0.00463780168953721
0.00574971240792009
0.00672848055804218
0.000107422701264344
0.000902937248572863
0.00211307200077914
0.00339589557359417
0.00461510623684871
0.00572758152084885
0.00671487216534341
0.00756253460193806
0.000104837318382285
0.000883063855222226
0.00207617318248816
0.00335274944916799
0.00457114584076608
0.00568485493288409
0.00668003932982883
0.00754403593917451
0.00827117371635864
0.000101846012993927
0.000860316984091479
0.00203013559732653
0.00329205912568421
0.00450474668199792
0.00561824944912148
0.00661997216020508
0.00749975332986609
0.00824849004486741
0.00886836074987233
9.83467134714185e-05
0.000833920643465496
0.00197513716791642
0.00321520161129749
0.00441618184471964
0.00552623862395483
0.00653195717269872
0.00742530753464234
0.00819626534308444
0.00884084136502639
0.00936650697522345
9.4264475416687e-05
0.000803042508326603
0.00190994346472611
0.00312150259211714
0.00430478667862311
0.00540738072761664
0.00641414620019878
0.00731764032084202
0.00810890552096766
0.00878042347067721
0.00933268077079365
0.00977603550663756
8.95372488519938e-05
0.0007669011323219
0.00183272407344369
0.00300884167995528
0.00416839709058275
0.0052592133877937
0.00626409813633457
0.00717455213491206
0.00798247417790232
0.00868001269126654
0.00926266772983812
0.00973394429917095
0.0101056767443736
8.41024482860202e-05
0.000724640734366383
0.00174117501134109
0.00287403177338128
0.00400353803447561
0.00507804502115093
0.00607812188709369
0.00699312343727726
0.00781437170799845
0.00853458578160503
0.00914791436100742
0.00965224005048419
0.0100529879172169
0.0103627873000488
7.77963352218294e-05
0.000674988606498111
0.00163216779976303
0.00271271791840627
0.00380544722496089
0.00485899902224462
0.00585131423673761
0.00676896355824974
0.00760143922125297
0.00834107644034842
0.00898228530371859
0.00952104046718379
0.00995697308891672
0.0102967693789493
0.0105535083620001
7.05048692483932e-05
0.000615725726174656
0.00150088114184996
0.00251877728823818
0.00356774817322514
0.00459584298865266
0.00557759209046574
0.00649626078457564
0.00733879930340679
0.00809601948856985
0.00876206451845022
0.00933302987552972
0.00980641442624412
0.0101831345769682
0.0104708066937513
0.0106827235535688
0.000107921622157277
0.000110002687289071
0.000893967496706762
0.000112468717672714
0.000907055232156866
0.00210162680454311
0.000113901745506393
0.000923566489084104
0.00211816772315715
0.00340272193452635
0.00011355182148966
0.000933648439778027
0.00213744697302357
0.00341448281081515
0.0046431085770481
0.000111926996879517
0.00093190251034783
0.00214705923107362
0.00342375650774865
0.00464606617829499
0.00575851529158182
0.000109803927135419
0.000920333622981251
0.00213901608790719
0.00342056134928177
0.0046399874712443
0.0057523653740379
0.00673154541088409
0.00010748941213971
0.000903461173795793
0.00211428833898672
0.00339785960509113
0.00461776010752816
0.00573084715037136
0.00671867940357988
0.00756683413829862
0.000104914626884139
0.000883688482913423
0.00207764763558575
0.00335518013067361
0.00457450518308815
0.00568905633113072
0.00668498792056411
0.00754964976714763
0.0082774003003751
0.000101939357956338
0.000861090302892847
0.0020319839775711
0.00329514731129203
0.0045090916776878
0.00562377155782347
0.00662655797740048
0.00750727597275375
0.0082568391501664
0.00887746970813824
9.84625928298667e-05
0.000834895194399975
0.00197749128486356
0.00321917233123468
0.00442183460575588
0.00553352368465188
0.00654075694940812
0.00743545894335223
0.00820758339017295
0.00885316823909401
0.00937974926392789
9.44092677110654e-05
0.000804278291334663
0.00191294825830375
0.00312660622242049
0.00431211420554492
0.00541692452780636
0.00642580417260568
0.00733123499721525
0.00812419036038714
0.00879712650469218
0.00935057621575047
0.0097949898296757
8.97182233687978e-05
0.000768462170434264
0.00183653478740627
0.00301534583704384
0.00417779631240867
0.00527155336235534
0.00627931409606214
0.00719247282624002
0.0080028214495007
0.00870241985928911
0.00928674527566918
0.00975937555193624
0.0101322739234525
8.43262765086e-05
0.000726589845101621
0.00174594603065965
0.00288220780702092
0.00401541657788234
0.00509374327872909
0.00609763033056161
0.00701630129204456
0.0078409358833247
0.0085641154806449
0.0091798840472179
0.00968610872233171
0.0100883213551013
0.010399330050949
7.80621484947063e-05
0.000677366436232268
0.00163804230586343
0.00272283485441675
0.00382021028900579
0.00487861882964713
0.0058758644924325
0.00679836475144456
0.00763542998694536
0.00837921267161825
0.00902395544256343
0.00956551716779389
0.0100035269137818
0.0103448130463239
0.0106027054778482
7.04973305702611e-05
0.000618227382404613
0.00150798821116221
0.00253115395717321
0.00358584829064203
0.00462000013257293
0.00560800980078188
0.00653296499829324
0.00738158893414641
0.00814444832608441
0.00881546077132726
0.00939053236498596
0.00986704956402692
0.0102459621754568
0.0105350071314638
0.01074781500018
6.25312233160725e-05
0.000545498984932842
0.00134792132272566
0.00229832986662937
0.00330384300126672
0.00431006195207073
0.00528681176081093
0.00621326446677725
0.00707314464462049
0.00785480052252589
0.00855084572385176
0.009157014944916
0.00967075481565178
0.0100907331808119
0.0104188987047605
0.0106636986483101
0.0108388497469497
0.000107995210229682
0.000110075975446777
0.000894483263994283
0.000112541450869339
0.000907557066785053
0.00210266185024736
0.000113968574480802
0.000924040249766146
0.00211914566404269
0.00340416495527932
0.000113612530225188
0.000934091835099235
0.002138387203427
0.0034158751972541
0.00464487411722599
0.000111983675253914
0.000932327476286264
0.00214799179079188
0.00342515412319452
0.00464785578906374
0.00576061853225123
0.000109859455729043
0.000920758579039737
0.00213997454352479
0.00342203867140115
0.00464190982389529
0.00575465510550612
0.00673413791868239
0.00010754717886995
0.000903911379445579
0.00211532460640723
0.00339951179700763
0.00461995940427426
0.0057335114312737
0.00672173601637708
0.00757023265129251
0.000104977975319022
0.000884194847084229
0.00207883563604847
0.00335712434682793
0.00457716231405196
0.00569234046574179
0.00668881023105894
0.00755393698327266
0.00828210869911909
0.000102012716418137
0.000861690673367021
0.00203341561439295
0.00329753085333361
0.00451242531472945
0.00562797539851557
0.00663152999774328
0.0075129098297873
0.00826304842598201
0.00888420796412728
9.85507890408789e-05
0.000835633539745679
0.00197927420473694
0.00322217744028138
0.0044261026468868
0.00553899973509986
0.00654733620016932
0.00744300717569144
0.00821595703267348
0.00886225271531791
0.00938948519915431
9.45183352639686e-05
0.00080520369444896
0.00191520180720712
0.00313043921267353
0.00431761515894233
0.00542407604842564
0.00643451334351247
0.00734135565537857
0.00813552929027932
0.00880947968159052
0.0093637840950636
0.00980896975246218
8.98535073410697e-05
0.000769627791874627
0.00183938863222739
0.00302022928217949
0.00418486008543842
0.00528082473129929
0.00629073218999683
0.00720589531422484
0.00801802742130201
0.0087191267085343
0.00930466315646307
0.00977828158986038
0.0101520506445274
8.44939253540716e-05
0.000728049153649371
0.00174953101120708
0.00288836860512412
0.00402438380474778
0.0051056050395343
0.00611237309965303
0.00703380705746206
0.00786097723037904
0.00858636140913629
0.0092039296929666
0.00971155029817547
0.0101148523143365
0.0104267879343182
7.82674863281936e-05
0.000679166723896227
0.00164247538448029
0.00273048341660082
0.00383140523271721
0.00489353117824952
0.00589454985496576
0.00682075479013995
0.00766131233663238
0.00840823475206569
0.00905563663048107
0.0095992938335741
0.010038849966863
0.0103812695185749
0.0106400797203798
7.07139302975836e-05
0.0006203376383736
0.00151334416552225
0.00254046342389049
0.0035995513433253
0.00463837645138116
0.00563121884508695
0.00656102186578954
0.00741433045395878
0.0081815222824301
0.00885633930823476
0.00943453908778558
0.00991342215116434
0.0102939731467553
0.0105841065722787
0.0107977273950636
6.32829828960976e-05
0.000546450593075738
0.00135403996893891
0.00230944281452796
0.00332030970874714
0.0043322937766811
0.00531512204468265
0.0062478048889731
0.00711384521297284
0.00790134174374093
0.00860266714492663
0.00921334830225636
0.00973067408528483
0.0101532397820764
0.0104830703144827
0.0107287726166312
0.0109044311987812
3.3680979180969e-05
0.000447961328647214
0.00115232724055967
0.00202464624530635
0.00298225588511558
0.00396538803065468
0.00493754918817937
0.00587320684720683
0.00675256343011041
0.00756117534977108
0.00828952343351758
0.00893206504531468
0.00948606525134548
0.00995022009628219
0.0103242150278595
0.0106108739644613
0.0108193489129102
0.0109636844248746
0.00011015145249241
0.000895038728739932
0.000112616178471661
0.000908098357901684
0.00210378196214386
0.000114042854656885
0.00092456055089006
0.00212019759336739
0.00340569869093788
0.000113678766858165
0.000934571323118432
0.00213938116114854
0.00341732462150045
0.00464668452954498
0.000112042747761617
0.000932767718784052
0.00214894355137937
0.00342655617246588
0.00464962150258211
0.00576265401922681
0.000109913970793495
0.00092117317394686
0.00214090164515379
0.00342344346487781
0.00464370595175046
0.00575675413000511
0.00673646368232445
0.00010760016904503
0.000904321798112562
0.00211626274326962
0.00340098523652324
0.0046218896214863
0.0057358084914248
0.00672432172835202
0.00757305108913865
0.000105032772555792
0.000884626624217324
0.0020798423186059
0.00335875614166977
0.00457936095472822
0.00569501752183827
0.00669187828723852
0.00755732576674571
0.00828577552023346
0.000102072198920478
0.000862173697821449
0.00203456282602127
0.00329943111348638
0.00451505915645379
0.00563126129132917
0.00663537207821963
0.0075172144589096
0.00826774365932743
0.00888925707435375
9.86196089762822e-05
0.000836203527791705
0.0019806484518758
0.00322449078691273
0.00442937569964311
0.00554317029440485
0.00655230875220909
0.0074486675088844
0.00822219035139315
0.00886897333044538
0.00939665479469705
9.46007855813866e-05
0.000805901108123805
0.00191690159428754
0.00313333395537564
0.00432176533817547
0.00542945451553514
0.0064410333949301
0.00734889408688302
0.00814393262916726
0.00881859357364985
0.00937349545874239
0.00981922870960326
8.99547510001563e-05
0.000770496517152544
0.0018415215587079
0.00302389017230946
0.00419015995594125
0.00528777449843374
0.00629927222492188
0.00721590479585422
0.00802933011750315
0.00873150514456238
0.00931790257144088
0.00979222663123126
0.0101666315508777
8.46186783622359e-05
0.000729134255909026
0.00175220840983432
0.0028929876831811
0.00403112007065999
0.0051145195382358
0.00612344663276361
0.00704693723861599
0.00787598159655374
0.00860298110741827
0.00922185574523737
0.00973048434226955
0.0101345804467458
0.010447211908236
7.84211001372257e-05
0.000680511078571767
0.00164580013493684
0.00273624167869703
0.00383985511533301
0.00490480291059067
0.00590868080561111
0.00683768413513984
0.00768086719271432
0.00843013628653895
0.0090795104998269
0.00962470876313434
0.0100653982490941
0.0104086616133906
0.0106681823925048
7.09011994398851e-05
0.000621968081071116
0.00151738957875457
0.00254750154227747
0.00360994549539385
0.00465235106598467
0.00564889571965156
0.0065824063291933
0.00743928779945828
0.00820977231500541
0.00888746709526504
0.00946801683913417
0.00994866215671046
0.0103304302768028
0.0106213972065333
0.0108356799424016
6.38820853954724e-05
0.000548221773765226
0.00135876942811192
0.00231781956138461
0.00333278758659477
0.00434921811956312
0.00533673761081501
0.00627422458938515
0.00714500924690404
0.00793699802808559
0.0086423781663034
0.00925651456408789
0.00977657094927442
0.0102010872963523
0.0105321573073769
0.0107785955876082
0.010954778594088
3.41834946382946e-05
0.000450286036222952
0.00115705593403818
0.00203426808215815
0.00299684596409122
0.00398540502875229
0.0049634079123638
0.00590518510433938
0.00679072973581339
0.00760534764816611
0.0083392645522445
0.00898671105116904
0.00954477043071804
0.0100120159143291
0.0103880992663052
0.010675958499091
0.0108849368840407
0.0110294672530098
1.06127849038643e-05
0.000300134167918942
0.000895421041400927
0.00168082786933614
0.00258751828514089
0.00354857572481227
0.00451848923338632
0.00546618983684889
0.00636823255503411
0.0072072910661692
0.00797148374426405
0.00865346640453111
0.00924949774817819
0.00975831055534322
0.010179749604462
0.0105143966320985
0.0107658295886878
0.0109437893183096
0.0110625256900038
0.000112690935598131
0.000908661244027001
0.0021049782808148
0.000114118230202384
0.000925116778646191
0.00212133277347822
0.00340735139509332
0.000113752049119244
0.000935099064250823
0.00214044994910744
0.00341886525648928
0.00464858683222365
0.000112107179133105
0.000933243013379542
0.00214994795136773
0.00342801414392596
0.00465143214319965
0.00576470880803954
0.000109970957143323
0.000921601871304101
0.00214184679625179
0.0034248500316358
0.00464547542237008
0.0057587862914072
0.00673867129054265
0.000107652211069163
0.000904721195951832
0.00211716646676652
0.0034023824459777
0.00462368867775546
0.00573791114775776
0.0067266419563509
0.007575524682138
0.000105082945063288
0.000885018690440833
0.00208074878080427
0.00336020838058078
0.00458128561565787
0.0056973214384463
0.00669447150067473
0.00756013652652861
0.00828875906223141
0.000102123543982955
0.00086258332416143
0.00203552882176499
0.0033010194490311
0.00451723444432056
0.00563393682376302
0.00663845457393416
0.00752061685814763
0.00827140111173857
0.00889313789114218
9.86751335011263e-05
0.000836658971240648
0.00198174278917542
0.00322632751303606
0.00443195825612914
0.0055464289022452
0.00655615266617744
0.00745299551941181
0.00822690664232784
0.00887401020532087
0.00940198591210605
9.46644624624617e-05
0.000806435649262365
0.00191820454503798
0.0031355544831544
0.00432494241406334
0.00543355033169049
0.00644596538117348
0.00735455482977979
0.00815019714025258
0.00882534266181777
0.00938064763853897
0.00982675534052607
9.00305715577602e-05
0.000771146659463928
0.00184312228180189
0.0030266467181271
0.00419415300772672
0.00529300104292911
0.00630567157651453
0.00722337185578409
0.00803772219176551
0.0087406537144646
0.00932764808473626
0.00980246118925097
0.0101773168401244
8.47111728213726e-05
0.000729937980793664
0.00175420072347595
0.00289644185701438
0.00403616887504273
0.00512120130477606
0.0061317355503089
0.00705674218642806
0.00788715457585009
0.00861531972426316
0.00923512521903705
0.00974446566370555
0.0101491263430225
0.0104622674680991
7.85342143450731e-05
0.000681505106151189
0.00164827437554881
0.0027405509831579
0.00384619825701068
0.00491327436346291
0.00591930096222726
0.00685039593935776
0.00769552953507033
0.00844652878462182
0.00909734370586753
0.00964365591636964
0.010085159726875
0.0104290370277272
0.0106890950530134
7.1042345935561e-05