/*--------------------------------*- C++ -*----------------------------------*\
  =========                 |
  \\      /  F ield         | OpenFOAM: The Open Source CFD Toolbox
   \\    /   O peration     | Website:  https://openfoam.org
    \\  /    A nd           | Version:  12
     \\/     M anipulation  |
\*---------------------------------------------------------------------------*/
/*   Windows 32 and 64 bit porting by blueCAPE: http://www.bluecape.com.pt   *\
|  Based on Windows porting (2.0.x v4) by Symscape: http://www.symscape.com   |
\*---------------------------------------------------------------------------*/
FoamFile
{
    format      ascii;
    class       volScalarField;
    location    "100";
    object      omega;
}
// * * * * * * * * * * * * * * * * * * * * * * * * * * * * * * * * * * * * * //

dimensions      [0 0 -1 0 0 0 0];

internalField   nonuniform List<scalar> 
10116
(
4.33883927654967
4.35934917343637
4.27151533809451
1.48805985866322
4.37433876839702
4.29138729264384
1.4948850142493
4.19613435591346
1.46744047898726
0.926835637960316
4.38544710555385
4.30603681867798
1.49986600709953
4.21539668940271
1.47405691467392
0.930797349367828
4.12034064446688
1.43920392749017
0.919239128873129
0.718575610090353
4.39368393113292
4.31692521568704
1.50354371085525
4.22970457987293
1.47892793640365
0.933727947080137
4.13912370490456
1.44558700822708
0.923073084126974
0.721363789360675
4.05661844231668
1.41240155195553
0.906845168577407
0.715509826108289
0.618550502505844
4.39979017783947
4.32501361813543
1.50625920658893
4.24039483225124
1.48253803467277
0.935900406258123
4.15313208077614
1.45032811764629
0.925949378788437
0.723442213456377
4.07507126761729
1.41861162593352
0.910545854171355
0.718208176951484
0.620700114981516
3.99937104875821
1.3907926423927
0.893370987582219
0.709382331833014
0.617320671707063
0.563949999221918
4.40433911454981
4.33101478234653
1.50825968934428
4.24835528903642
1.48520907591405
0.937504207999869
4.16364278951753
1.45386166256218
0.928091845607322
0.724991164794657
4.08885865613038
1.4232450603672
0.913355030619311
0.720252218044222
0.622302446754273
4.0175668443845
1.3968909143582
0.896972148263862
0.711984749161742
0.619395741005533
0.565682459026425
3.93672742824908
1.37202576911592
0.880895556724336
0.701613788575599
0.613923925485031
0.563466393976624
0.531886682263556
4.40777770846112
4.33548759026318
1.50973486704767
4.2542767567438
1.48717909509663
0.93868287452938
4.17149705815529
1.45648607722294
0.929677014611675
0.726137648425496
4.09922700100822
1.42671494550875
0.91546206945214
0.721784171639839
0.623500334573939
4.03116881292134
1.40144953505825
0.899722124921223
0.713985387427094
0.620972042703191
0.566970317032962
3.95464879764738
1.378044066844
0.884431417946731
0.70414668032067
0.615920651990708
0.565131925287837
0.533314922727881
3.86215547438976
1.35199150219896
0.86910400350906
0.693337480298038
0.608925764056993
0.561290501717479
0.531658622938959
0.512202996069694
4.41045418964655
4.33886915695151
1.51083264606659
4.25869637807998
1.48863277180409
0.93954817402003
4.17735603120963
1.45842722731511
0.930843363015207
0.726980807633472
4.10700109115635
1.42930306887588
0.917028169794507
0.722920976139396
0.624389598583019
4.04141116042449
1.40487362797159
0.901796863123927
0.715497321586429
0.622158268791276
0.5679344298886
3.96804240863464
1.38254508771993
0.887137799918145
0.706108113739503
0.617464163520111
0.566397850464711
0.534372181027164
3.87973516505024
1.35792894894672
0.872594077845233
0.695826561349026
0.610868474496689
0.562886688599118
0.533023920917067
0.513393905600177
3.77384065961616
1.32829179902273
0.856684627330754
0.684814550042333
0.602984606108085
0.557682660366679
0.529996133930993
0.512040253890243
0.49979707001035
4.41263931573857
4.34150081103228
1.51166824288797
4.26204012313395
1.48971486269816
0.940187741191886
4.18173799909269
1.45986254099651
0.931700140360118
0.727599421893937
4.11281265506512
1.43122417732909
0.918184366959643
0.723758184102327
0.625045071925553
4.0491028449566
1.40743637825974
0.903346787804654
0.716625143051344
0.623041474209537
0.568651937486784
3.97813258024497
1.38593139492231
0.889187053932989
0.707600468879411
0.618637025573015
0.567352924726102
0.535163930860115
3.89286571619436
1.36236917073162
0.875267234686628
0.697759053605064
0.612382911314558
0.56412517395829
0.53406136112897
0.51427086432518
3.79099237469056
1.33412961815813
0.860132560465061
0.68727530245289
0.604896287508486
0.559233530862821
0.531297122805044
0.513170449974565
0.500795598494492
3.67058163563812
1.30021410846973
0.842666854587255
0.675751713517332
0.596483634425472
0.553100362546162
0.527083926043661
0.510586584368235
0.499648627963956
0.49188516787886
4.41453887478045
4.34365000776652
1.51233070875523
4.26464208356303
1.49053841721732
0.94067011466283
4.18505792989824
1.46093230026012
0.932333515513557
0.728056012215976
4.11716805950625
1.43264888454854
0.919035913426507
0.724372964336906
0.625526891402811
4.05486264096553
1.40934493410901
0.904496082363652
0.717458833853054
0.623693526420101
0.569182330123938
3.98571641072119
1.38847169732103
0.890724133324095
0.708719995099519
0.619515503083526
0.568066160496602
0.535754347209635
3.9027584849191
1.36571247998499
0.87729526086434
0.699235395301414
0.613542706782177
0.565070210748695
0.534845418422021
0.514927349993426
3.80379497001959
1.33849402881645
0.862773954960448
0.68918688983595
0.606390372655117
0.560448689252671
0.532310055061374
0.514028683842906
0.501526194823665
3.68721019170832
1.30592677121148
0.846066842438085
0.678189709810517
0.59837906884106
0.554628611143926
0.528344875505836
0.51165553083606
0.500587858426249
0.492724839771151
3.55042081368785
1.26750809887397
0.8266218382719
0.665821712920752
0.589506341661622
0.54793949954334
0.523317087467509
0.508042481800393
0.498297011564228
0.491747407473086
0.486846280998039
4.41630822990859
4.34551795107272
1.51288797943529
4.26676202939749
1.49119081985144
0.941048624512579
4.18764276466059
1.46174676229506
0.93281113182132
0.728399844170148
4.12047190483556
1.4337129065517
0.919666649661465
0.724826987904612
0.625883319860795
4.0591859413088
1.41076472792734
0.905345869172792
0.718072829432854
0.624173324286697
0.56957356541986
3.99140085659875
1.39036838152812
0.891868547228645
0.709551505151354
0.620166779108504
0.568594376049415
0.536192172210906
3.91019501365705
1.36822406968949
0.878820607275646
0.700347888865017
0.614416978515087
0.565780811510083
0.535432508524974
0.515417783148103
3.81343852965714
1.34178155849377
0.864779986934369
0.690650273151223
0.607539690482095
0.561384347197063
0.533085864875126
0.514678195625352
0.50207267154612
3.69961362959837
1.310195946747
0.848671792983543
0.680083695503633
0.599860744511367
0.555829322941101
0.529338009775613
0.512490949546547
0.501300382097016
0.493334417269703
3.56642201375397
1.27306666164836
0.82996361757218
0.668236592569795
0.591392606377875
0.549460269368104
0.524561237095649
0.509074861533717
0.4991770579834
0.49252885453255
0.487554166474172
3.41070777147497
1.22980227150005
0.808394065631962
0.654856613570196
0.582025838298586
0.542418332505956
0.519083744874415
0.504800862597402
0.495982338446881
0.490469361398177
0.486724596990177
0.48368237909167
4.41806475291013
4.34725780046296
1.5133913796931
4.2685992699738
1.49173910640146
0.941363761066787
4.18974637028859
1.46239182626825
0.933186029470764
0.728669384449825
4.12304456854625
1.43452359017877
0.920142728755518
0.725169015857747
0.626152747638911
4.06246851291934
1.41182825900123
0.905977339425063
0.718527362090653
0.624528522663045
0.569864430603642
3.99566926136373
1.39178298888833
0.892718162839525
0.710166442131812
0.620647571720906
0.568984467567119
0.536516623794002
3.91577113215802
1.37010254604587
0.879959950628799
0.701177879300548
0.615068602073887
0.56630955499141
0.535868818119604
0.51578269682032
3.82068592843995
1.34425334673065
0.866291488231932
0.691756307801818
0.608410318587236
0.562093034961901
0.533671425705726
0.515165788127475
0.502481585194875
3.70895290028768
1.31341225459984
0.850651412891179
0.681535099034686
0.601002843617061
0.556758457882022
0.530106699648092
0.513133207889367
0.501840276229934
0.493789740295471
3.57834841934655
1.27721881268936
0.832524306830108
0.670112598694721
0.592866547806419
0.550654883572129
0.525544105184703
0.509892799301889
0.499867842658868
0.493120817830496
0.488063120041212
3.42596519454199
1.23517560354685
0.811665110135945
0.657244995793925
0.583905695011106
0.543940373370807
0.520327324733479
0.50582073487667
0.496828310046291
0.491193176546342
0.487375183214339
0.484281463201886
3.2478947644392
1.18654193487468
0.787937348442899
0.642855704106728
0.574059810793062
0.536651211400365
0.514643847066727
0.501244881732126
0.493116116236069
0.488327839748561
0.48551441913642
0.483580264282398
0.481751111756864
4.41989651101991
4.34898510205445
1.51387967273242
4.27030615918449
1.49223400066514
0.941646390964056
4.19156502114625
1.46293332718444
0.933497982883189
0.728894256353464
4.12513687798393
1.43516541516186
0.920515913469836
0.725437216212697
0.626365376922315
4.06502433427724
1.41264046963817
0.906454984803278
0.718870359018485
0.624797178497856
0.570086108497385
3.99891135364289
1.3928452599278
0.893352107956692
0.710623355330301
0.621004454343386
0.569274742503452
0.536759599652907
3.91995775911857
1.37150606272086
0.880808751780022
0.701794399719389
0.615551865728399
0.566701440817563
0.536192592270746
0.516054627356826
3.82611853158307
1.34610401933967
0.867423124151834
0.692584458468264
0.609062417481084
0.562623489409327
0.53410892701419
0.515529534985665
0.502786959977237
3.71596879418335
1.31583165733268
0.852144827489831
0.682634162087419
0.601870636266313
0.557466022282224
0.530691736396038
0.513619851062833
0.502246619719213
0.494130952827504
3.5873242814112
1.280347002806
0.834471206793541
0.671551071103965
0.594003652745036
0.551581172974681
0.526309115529934
0.51052940286877
0.500401067660595
0.493569824463194
0.488442452982751
3.43733036595804
1.23918746173468
0.814172032940385
0.65910045704865
0.585374009698276
0.545134926572116
0.521309187889159
0.506631521087583
0.497503258525203
0.491764168019379
0.487866907250493
0.484707045952028
3.2622826552241
1.19169898297198
0.791124054341572
0.645212671247706
0.575933895451158
0.538179641080999
0.515897105973863
0.502269715942385
0.49395290654117
0.489019493950077
0.486108628262434
0.484122886854044
0.482261350809022
3.05709338958019
1.13704619675982
0.765323585526232
0.629993233435048
0.565755290555761
0.530775354925661
0.510177181074275
0.497644970967511
0.490083188607372
0.485756318581245
0.483520048848591
0.482435359012844
0.481669031640927
0.480626644552246
4.42190496797826
4.35078356092454
1.51438234106461
4.27200047680645
1.49271340134729
0.941920059776408
4.19324861010499
1.46342103511001
0.933777576344999
0.729097213530473
4.12694236518393
1.43570351613991
0.920825831417891
0.72566098311524
0.626544740313212
4.0671007521217
1.41328319262138
0.906829620618843
0.719139447863101
0.62500930311944
0.570263287347905
4.00143462351643
1.3936580981511
0.893833431368771
0.710969176048666
0.621274922541288
0.569496100575158
0.536946912162489
3.92313705646497
1.37256173657855
0.881444390585098
0.702254330708671
0.615912017391125
0.566993888515314
0.536435300229123
0.516260140903096
3.83019662961107
1.34748795752904
0.86826846394094
0.693202042823275
0.609548312291884
0.563018617913374
0.534434874792619
0.515801036954846
0.503016000999363
3.72122417734862
1.31764414853079
0.853264823688948
0.683459227233311
0.602522937657125
0.557998443813821
0.531131754413026
0.513985114215568
0.502551020727418
0.494386778991295
3.59406273595353
1.28270068651372
0.835941303858587
0.672641724568046
0.594869258365683
0.552288847222007
0.52689487077216
0.511016404403119
0.500806775101578
0.493908644508773
0.488727069659173
3.44588004215653
1.24221058459986
0.816078898291975
0.660523781019878
0.586507156375205
0.546061679088123
0.5220749528729
0.507266581115057
0.498031848559297
0.49220689427016
0.488240139972497
0.485023190025127
3.27299634534899
1.19554716394224
0.793566935688284
0.647043819809319
0.577397118329177
0.539378091952953
0.516885151109667
0.503083619207921
0.494623126669311
0.489575895430713
0.486579980469116
0.484531585195735
0.482618515209968
3.0704764436737
1.14195696264969
0.768412627951897
0.632313268727692
0.567623255562721
0.532313690912129
0.511447288886915
0.49868654905202
0.490929457946757
0.486441438301879
0.484083614052493
0.482922650549465
0.482123574134817
0.481065398877396
2.83279433166295
1.08069965892291
0.740895257533594
0.616700607667985
0.557460646460601
0.525051872248724
0.505895467471716
0.494212645083366
0.487157887710493
0.483145790293575
0.481193854781407
0.4805713250531
0.480585150756216
0.480563175484721
0.480022545703524
4.42415385964769
4.35271321004931
1.51492657548897
4.27376084330791
1.49320471675668
0.942202749548783
4.19491015365141
1.46389179200008
0.934048233328294
0.729295777024626
4.12860854173643
1.43618703075399
0.921102915966117
0.725862930808155
0.626709116954636
4.06888858077828
1.41382063251852
0.907140501171424
0.719363805943967
0.625188308463505
0.570415409673778
4.00348131597963
1.39430172297008
0.894211683492058
0.711240876189549
0.62148869820962
0.569673124677512
0.53709923163605
3.92560898457602
1.3733703795305
0.881928660305059
0.702603538407384
0.616185832503746
0.567217364924815
0.536622544386001
0.516420894296177
3.83329008266812
1.34852950566665
0.868903383111457
0.693664651712353
0.609912006947672
0.563314741667425
0.534679957339254
0.516006459921096
0.503190997351254
3.72516399672538
1.31899990274693
0.854103158498693
0.684076444914886
0.603010898604504
0.558397029572864
0.531461373061082
0.514258953113627
0.502779771535955
0.494580077626305
3.59910492596686
1.28446519153758
0.837045334371582
0.673462053241044
0.595521618240561
0.552823381611221
0.527337983534748
0.511384678671535
0.501112844816937
0.494163621606478
0.48894135866095
3.45229339375192
1.24448687537666
0.81752002053664
0.661604006358795
0.587370731008585
0.546770865617317
0.522663265703546
0.507755698622141
0.498438513095644
0.492545265948479
0.488522504435876
0.485260571263396
3.28105355767488
1.19844770437995
0.795426220179738
0.648449053931701
0.578526487935836
0.540307825391933
0.51765589876484
0.503722391508134
0.495151842511851
0.490014745485346
0.486947221563155
0.484841819253272
0.482882547237755
3.0804499460443
1.14561677408904
0.770781200737151
0.634115861288088
0.569081102106025
0.533518797682215
0.512447066129785
0.499511944859044
0.491606183786819
0.486995044915639
0.484541352277085
0.483311463738711
0.482464163841184
0.4813671625841
2.84503916894001
1.08537046638529
0.743875421978191
0.61897857438199
0.559321940852603
0.526603053058656
0.507188287184248
0.495279872380215
0.488026822539498
0.483844081863548
0.481752990172541
0.481029172520597
0.480985235749714
0.480946925045311
0.480404755602684
2.57097317816315
1.01759217413103
0.715659832804526
0.603880470939201
0.549850019400026
0.519960628448365
0.502141958362501
0.491206687146612
0.484569708306461
0.4807746958953
0.478934345030229
0.478454852899107
0.478836770770933
0.479534411892582
0.479975454558479
0.479745735926743
4.42665430890061
4.35481856413674
1.51553209770534
4.2756433529953
1.49372839998619
0.942509239252858
4.19662981396361
1.46437191034899
0.93432731045207
0.729503576074129
4.13024640779072
1.43665228792393
0.921370903241649
0.726060494582845
0.626872748580012
4.07053300657275
1.41430262055022
0.907417605565026
0.719565952191076
0.625352392926842
0.570557825851492
4.00523849465819
1.39483947589629
0.894525515917839
0.711467359866935
0.621669061905414
0.569825206577732
0.537233053354055
3.92760758705516
1.37401108337864
0.882310218234987
0.702878416567269
0.616402649289848
0.567396270609602
0.536774904516226
0.516554398378812
3.83568931006651
1.34932793051083
0.869388577994472
0.694017216619246
0.610189538012895
0.56354176659581
0.534869426566495
0.516167270206174
0.503330251549429
3.72814672703444
1.3200212831795
0.854734305830881
0.684540439760713
0.603377617363171
0.558697120681234
0.531710325289298
0.514466814942292
0.502954775702968
0.494729634614173
3.60287835691713
1.2857871588233
0.837873169585724
0.674077284377136
0.596011197504915
0.553225195960755
0.527671704612095
0.511662431245103
0.501343987551712
0.494356718705385
0.489104612170199
3.45708598885815
1.24619471769424
0.81860391775633
0.662417794279428
0.588022792568938
0.547307878505477
0.523110100761407
0.508127935646023
0.498747915428708
0.492801985048195
0.488736040629414
0.485440058185189
3.28709240094861
1.20063317676228
0.796833024957698
0.649516531742964
0.579387862337876
0.541019915029881
0.518248947185741
0.504216111348348
0.495561721559025
0.49035450822613
0.487229264565186
0.485077069258056
0.483080778011009
3.08794922272541
1.14837602509682
0.7725852470132
0.635499840539574
0.570206394860127
0.53445341102574
0.513226542341116
0.500159590000566
0.492141064729802
0.487435356427298
0.484905301594283
0.483615929926356
0.482722452769285
0.481588719968722
2.85420283692331
1.08882232789995
0.746159806966501
0.620748577155102
0.560773929387695
0.527817047413267
0.508204357336813
0.49612361721575
0.488719520844231
0.484406986291483
0.482209479034354
0.481405134642159
0.481306330999582
0.481232384504068
0.4806623666629
2.58212060274511
1.02234147369216
0.718532997810297
0.60611302562434
0.551704723013253
0.521527724145551
0.503463081285485
0.492307447739309
0.485471762206058
0.481500577357079
0.479509626153769
0.478909905647909
0.479208334805907
0.479864422954698
0.480303275665122
0.480084074313342
2.2161134346418
0.950291921638906
0.692284092482569
0.593391544293137
0.544176246825066
0.516345958631112
0.499492983066879
0.489028537914315
0.482608911538026
0.478885112630732
0.477024811534695
0.476491236799058
0.476900765652666
0.477887482078924
0.478995146629648
0.479712628484383
0.479666894877528
4.42943538610656
4.35714901364951
1.51621943249731
4.27769072071853
1.49430107389116
0.942852124899098
4.19846451494354
1.46487913478435
0.934628694066356
0.729731745137057
4.13193517605402
1.43712459729412
0.921646213268191
0.726267138448272
0.627046899422558
4.07214382181387
1.41476526297964
0.907683725802663
0.719763286798642
0.625515740493454
0.570702603323005
4.00685021070931
1.39532113111228
0.894804691608859
0.711670998611651
0.621834152812892
0.569967612699589
0.537361475188368
3.92931837477052
1.37454716236904
0.882627313596383
0.703107644020551
0.616585569730736
0.567549929581744
0.536908805869364
0.516674751440493
3.83762435724836
1.34996223920244
0.869772033267332
0.694295527200791
0.610409827710161
0.563723829646012
0.535023726154353
0.516300895928904
0.503448677771695
3.73045353494335
1.32080618998384
0.855218061357326
0.684895456428374
0.603658539695252
0.558928063549544
0.531903404035629
0.514629859072366
0.503094153599875
0.494850982624825
3.60572804514562
1.28678457491569
0.838498032370576
0.674541247660796
0.59638045950506
0.553528972844286
0.527924956866163
0.511874249304598
0.501521428415219
0.494506346535291
0.489232727482407
3.46066462661567
1.24747538870923
0.819418572107215
0.663029504842128
0.588513425799398
0.547712811676901
0.523448062574866
0.508410293713157
0.498983114933482
0.492997481107436
0.488899159521407
0.485578028619532
3.29159686475505
1.20227390583914
0.797892882394186
0.650321989278734
0.580039237947847
0.54156004310808
0.518700474346538
0.504593437382366
0.495875774057686
0.490614782444254
0.487444579960016
0.485255885039335
0.483231264623286
3.09356510611604
1.15045665146709
0.773952060230024
0.636552270765741
0.571065231902722
0.535169555258812
0.51382657915778
0.500660812605826
0.492557262655472
0.487779215400649
0.485189061113966
0.483850947866499
0.482918656400236
0.481754819897994
2.86109633912948
1.09142160844587
0.747901100355784
0.622108332395052
0.561894780081409
0.528758154255894
0.50899584132927
0.496784875097587
0.489266587065286
0.484855499429132
0.482575960644688
0.481706756947702
0.481559019992268
0.481448339369781
0.480849773242792
2.59058565075516
1.02561190793626
0.720726646369685
0.607847481507843
0.553150852146997
0.522752891626691
0.504499708418725
0.493175671500868
0.486188490854924
0.48208321304836
0.479977686722919
0.479285830735708
0.479517156425966
0.48013068823978
0.480544809426595
0.480307146906499
2.21610968677025
0.956485927121666
0.695115342908425
0.595580696285817
0.546026309544364
0.517932960491009
0.500848435862936
0.490170698168783
0.483553729034422
0.479650405577313
0.477631698852185
0.476964762435699
0.477270751154305
0.478189648974055
0.479269807340593
0.479997115116017
0.479972097982757
2.2869972684867
0.897040826213685
0.677752048415723
0.589194284147079
0.542808769856418
0.515692225621827
0.498913442488728
0.488324622438357
0.481718510741278
0.477789701485236
0.475717289585602
0.474968509768395
0.475187592699572
0.476106227469561
0.47743597231502
0.478774113346712
0.479645569617199
0.479700129170152
4.35981229689641
1.51702494787154
4.27995518330174
1.4949531577625
0.943246165388949
4.20045760667921
1.46542898156553
0.934964671821266
0.72998996467613
4.13372774966851
1.43762055515373
0.921942091421797
0.726493820612498
0.627240831172193
4.07379999929703
1.41523298556346
0.907955551497715
0.719969096305533
0.625689551761185
0.570859487611989
4.00842460712403
1.39578254169368
0.895071789054668
0.711868956966131
0.621998125892918
0.570112390309673
0.537495021693648
3.93088312057291
1.37502722985702
0.882909649298655
0.703313591930946
0.616752657785804
0.567693575576105
0.537037327283931
0.516793363316748
3.83927492715373
1.35049395689557
0.870091634076797
0.694527866061527
0.610595770925476
0.563880148834617
0.535159236446154
0.516421406032475
0.503558484338715
3.73230988454449
1.32143096919464
0.855601924740583
0.685176813248617
0.603882207739526
0.559113698027348
0.532060858441849
0.514765405199849
0.503212761828057
0.494956922157952
3.60792433895807
1.28755167520534
0.838978746390014
0.674897589219507
0.596664311538793
0.553763636485639
0.528122096479214
0.512040899983966
0.501663007494398
0.494627866267649
0.489338938280179
3.46335811500757
1.24844229772988
0.820035285440493
0.66349222817609
0.588884698970047
0.548020016950817
0.523705602720881
0.508626672848211
0.499164545260073
0.493149516533774
0.489027391365661
0.485688011629444
3.29495058788399
1.20350497340908
0.798691295063746
0.650928873544681
0.580530456331198
0.541968322504799
0.519043020413148
0.504880913272416
0.496115980592682
0.490814423417753
0.487610084904622
0.485393777663649
0.483348037287424
3.09774330818687
1.15201973068242
0.774983666792662
0.637347717275754
0.571715575148647
0.53571342228878
0.514284045491507
0.501044755763486
0.49287756572316
0.488044693215118
0.485408090159496
0.484031559571999
0.48306854088534
0.481881326317846
2.8662505828415
1.09338286065012
0.7492224654887
0.623143603223302
0.562750820039545
0.529479455599643
0.509605097088023
0.497296634306978
0.489692675232225
0.485207114902076
0.482864524178045
0.481943732253185
0.481755048527584
0.481612497358525
0.480989782018384
2.5969586224744
1.02803548995124
0.722398798058065
0.609180903511139
0.554267345029346
0.523702216068014
0.505306363669846
0.493855034833404
0.486753412806911
0.482546713374473
0.480354043538374
0.4795908281996
0.47976732940601
0.480341155944159
0.480726723924224
0.480467490589727
2.21610871984906
0.959618415634696
0.697227140832725
0.597279747982548
0.54746807565641
0.519172328688609
0.501910171187318
0.491069399593711
0.484301944589817
0.480261887554375
0.478122594268411
0.47735406867479
0.477580451374575
0.478444050377604
0.47949235912248
0.480204287472227
0.48016884478791
2.28698419106163
0.900204940492977
0.680715538625994
0.59135572760112
0.544660350213818
0.517305240729895
0.500310493110627
0.489516785819241
0.482715932940005
0.478605545671142
0.476368770503417
0.475476827603165
0.47557779678077
0.476407662291701
0.477683250459194
0.479005887406939
0.479897366721755
0.479981857249766
2.38167969099607
0.924182945570496
0.691840229315048
0.600231001377183
0.550464768423973
0.520693708823904
0.50204462042369
0.4901460327366
0.482596196186224
0.477961907057874
0.475341173622149
0.474146801914202
0.473989230019039
0.474604545498099
0.475786381729394
0.477289881985994
0.478742689923939
0.479688860837567
0.479787773019506
4.28255269162678
1.49573736949147
0.943713070821068
4.20266305543333
1.46605879486794
0.935351392111975
0.730288446349659
4.13566490607754
1.43815550621565
0.922270800558884
0.726750117809247
0.627462534999852
4.07555320141933
1.41572190260669
0.908246568182542
0.720194191279553
0.625883023913944
0.571036498398342
4.01003817292943
1.39624746996772
0.89534318935933
0.712074497996618
0.622172137257525
0.570269217809819
0.537642252716658
3.93240798995867
1.37548577207862
0.883179370348343
0.703513120197315
0.61691801347881
0.567839252334373
0.537170958448152
0.516919544024421
3.84077983113939
1.3509693759169
0.870376558341088
0.694736252736531
0.610765356559583
0.564025924933663
0.53528903523478
0.516540173494684
0.503669655334285
3.7338869485947
1.32195452584703
0.855922954168156
0.68541237372993
0.604071222532006
0.559273106413735
0.532199006704636
0.514887500898957
0.503322754294668
0.495058013812289
3.60968285118408
1.28816252278196
0.839361664510988
0.675181170495401
0.596890971165499
0.553952764952604
0.528283164033553
0.512179554189574
0.501783493969784
0.494734007647343
0.489434250749924
3.46542405841373
1.24918633620094
0.820511269523655
0.663848993463691
0.589171170545924
0.548258159764423
0.523906789215551
0.508797493793429
0.499309702035161
0.493273191519303
0.48913380397518
0.485781316950232
3.29746302915089
1.20443494764461
0.799297426702666
0.651389392239646
0.580903291798105
0.542278981599742
0.519304915039006
0.505102115259754
0.496302181995108
0.49097045493195
0.487740684675648
0.485503910125001
0.483442691108621
3.10084175622927
1.15319303616066
0.775762673503535
0.637948525315583
0.57220706406525
0.536125336243213
0.514631822424273
0.501338117676383
0.493123647005716
0.488249665581452
0.485577793431844
0.484171815490429
0.483185281623568
0.48198041795074
2.87007125060031
1.0948573462845
0.750221912627203
0.62392755347184
0.563399944923599
0.530027780359766
0.510069976340544
0.497689051024354
0.490021272435028
0.48547982544909
0.483089200939697
0.482128166234912
0.481906727753412
0.481738456840415
0.481096603867828
2.60170734222188
1.02986091438905
0.723669995565357
0.610197659246435
0.555120761457667
0.524429970607296
0.505927116487982
0.494380469439611
0.487193145041197
0.482910257611028
0.480651554291409
0.479833164152124
0.479965480875523
0.480505162351464
0.48086485412694
0.480586499966008
2.21610684513456
0.961816092239734
0.698827733582077
0.598587005025517
0.548581596273908
0.520132264117961
0.502735444389956
0.491771345659449
0.484890213219555
0.480746865882245
0.478516275373497
0.477670288120485
0.477834637972256
0.478652218856745
0.479668841981607
0.480359213353773
0.480308061139841
2.28700717368183
0.902303297037568
0.682761794702371
0.593027758979003
0.546102739781279
0.518563663411014
0.501402901697856
0.490452491209434
0.483503157860559
0.479254484279451
0.476892526285207
0.475891472625112
0.475902269221419
0.476663593189614
0.477894194985403
0.479194197617612
0.480078319724531
0.480159531591743
2.38166628498341
0.926907325901683
0.69431835305825
0.602394107863412
0.552332718996929
0.522343114677704
0.503492995695051
0.491398431349566
0.483657122097441
0.478839872201136
0.476049678803685
0.474703875435594
0.474416663331694
0.47492743404718
0.47603345897755
0.477494550895732
0.478942087308754
0.479917478088661
0.480057039806969
3.68516441843931
1.20348656738162
0.791571177935183
0.64832834221294
0.577221115634064
0.536537193085871
0.511792527285534
0.496242987724298
0.486356130109287
0.480137688785833
0.476392766238186
0.474368352038569
0.473572256205306
0.47367730319769
0.474462248815828
0.475751283558185
0.477321829592991
0.478816413167612
0.479785868008824
0.479881528127333
4.20520494796437
1.46682844793278
0.935810116071473
0.730641009393077
4.13781080345551
1.43877143157489
0.922650152680954
0.727046358574303
0.627719899177868
4.07744229456359
1.41624779403838
0.908569516154013
0.720448054138956
0.626104058077969
0.571240566767981
4.01174112262816
1.3967315964778
0.895631627035087
0.712298441750212
0.622365333913703
0.570446107194272
0.537810424906213
3.93396705551081
1.37594660753475
0.883452343459766
0.703719397708784
0.617092773725648
0.567996621331893
0.537318252708979
0.517061014064849
3.8422420128284
1.35142235169836
0.870648426311806
0.694937577047089
0.61093261200454
0.564173198246554
0.535423619416836
0.516666478066192
0.503790519189937
3.73532004384029
1.32242211537429
0.85620947384871
0.685623759878795
0.604243416746117
0.559421441812181
0.53233092504457
0.515007525179201
0.503434101978927
0.495163090926337
3.61117101749099
1.28867431518128
0.839682790640665
0.675419416592721
0.597082856713716
0.554115293276848
0.528424399666899
0.51230422827882
0.501895025397381
0.494835310324126
0.489527868354053
3.46706873970757
1.24977900859381
0.820891693961572
0.664134088641392
0.589400748901505
0.548450601330266
0.524071507173976
0.508939784007145
0.499433238488228
0.493381156811717
0.489229340901934
0.485867456140395
3.29937798337583
1.20515102760286
0.799766825184335
0.651745809451975
0.581192019170215
0.542520505474697
0.519510131849467
0.505277287046473
0.496451597169056
0.491097669043337
0.487849202068258
0.485597443303611
0.483524963363696
3.10314658943508
1.15408011457996
0.776355919819716
0.638405908226276
0.572581194038013
0.536439585725002
0.514898390209713
0.501564524795573
0.493315142468676
0.488410638289271
0.48571237980449
0.484284271588157
0.483280114780889
0.482062146342576
2.87288743743453
1.09596499048523
0.750978700117654
0.624521237831443
0.563891570542201
0.53044379401976
0.510423939447422
0.497989401341362
0.490274387819753
0.485691319594912
0.48326449508769
0.482272647049563