/*--------------------------------*- C++ -*----------------------------------*\
  =========                 |
  \\      /  F ield         | OpenFOAM: The Open Source CFD Toolbox
   \\    /   O peration     | Website:  https://openfoam.org
    \\  /    A nd           | Version:  12
     \\/     M anipulation  |
\*---------------------------------------------------------------------------*/
/*   Windows 32 and 64 bit porting by blueCAPE: http://www.bluecape.com.pt   *\
|  Based on Windows porting (2.0.x v4) by Symscape: http://www.symscape.com   |
\*---------------------------------------------------------------------------*/
FoamFile
{
    format      ascii;
    class       volScalarField;
    location    "100";
    object      p;
}
// * * * * * * * * * * * * * * * * * * * * * * * * * * * * * * * * * * * * * //

dimensions      [0 2 -2 0 0 0 0];

internalField   nonuniform List<scalar> 
10116
(
83333.3224766313
83333.3224603965
83333.3224767647
83333.3224767729
83333.3224435452
83333.3224605348
83333.3224605353
83333.3224770339
83333.322476945
83333.3224783989
83333.3224260542
83333.3224436911
83333.3224436884
83333.3224608164
83333.322460708
83333.3224622051
83333.3224774791
83333.3224772495
83333.3224786698
83333.3224826251
83333.3224079004
83333.3224262102
83333.3224261965
83333.3224439897
83333.3224438701
83333.3224454079
83333.3224612863
83333.3224610243
83333.3224624791
83333.3224665556
83333.3224781288
83333.3224777289
83333.322479074
83333.3224829357
83333.3224895957
83333.3223890613
83333.3224080661
83333.32240804
83333.322426528
83333.3224263917
83333.3224279637
83333.3224444872
83333.3224442051
83333.322445694
83333.32244989
83333.3224619741
83333.322461529
83333.3224628956
83333.3224668745
83333.3224737481
83333.3224790053
83333.3224784102
83333.3224796376
83333.322483445
83333.3224898864
83333.322499093
83333.3223695118
83333.3223892364
83333.3223891971
83333.3224084027
83333.3224082469
83333.3224098569
83333.3224270551
83333.3224267479
83333.3224282679
83333.3224325916
83333.3224452147
83333.3224447393
83333.3224461324
83333.322450225
83333.322457319
83333.3224629026
83333.3224622484
83333.3224634865
83333.3224674028
83333.3224740456
83333.3224835617
83333.3224801178
83333.3224793198
83333.322480383
83333.3224841011
83333.3224904284
83333.3224993276
83333.3225107719
83333.3223492237
83333.3223696964
83333.3223696419
83333.3223895918
83333.322389415
83333.3223910653
83333.3224089601
83333.3224086237
83333.3224101772
83333.3224146403
83333.3224278248
83333.3224273146
83333.3224287322
83333.3224329458
83333.3224402761
83333.3224461967
83333.3224455006
83333.3224467575
83333.3224507809
83333.3224576314
83333.3224674717
83333.3224640809
83333.3224632102
83333.3224642732
83333.3224680894
83333.3224746092
83333.3224838011
83333.3224956432
83333.3224814639
83333.3224804704
83333.3224813485
83333.3224849167
83333.3224911406
83333.3224998346
83333.3225109466
83333.3225242945
83333.3223281661
83333.322349418
83333.3223493462
83333.3223700709
83333.3223698711
83333.3223715626
83333.32239018
83333.3223898122
83333.322391401
83333.3223960127
83333.3224097732
83333.3224092228
83333.3224106661
83333.3224150127
83333.3224225973
83333.3224288626
83333.3224281202
83333.3224293955
83333.3224335322
83333.3224406061
83333.3224507916
83333.3224474427
83333.3224465179
83333.3224475904
83333.3224515047
83333.3224582255
83333.3224677235
83333.3224799842
83333.322465506
83333.3224644277
83333.3224652942
83333.3224689494
83333.3224753545
83333.3224843292
83333.3224958217
83333.3225096479
83333.3224830358
83333.3224818608
83333.3224825608
83333.3224859366
83333.3224920011
83333.3225005415
83333.3225114005
83333.3225244427
83333.3225393809
83333.3223063049
83333.3223283706
83333.3223282788
83333.3223498123
83333.3223495869
83333.3223513201
83333.3223706908
83333.3223702891
83333.3223719138
83333.3223766822
83333.3223910378
83333.3223904441
83333.3223919144
83333.3223964027
83333.3224042585
83333.3224108688
83333.3224100738
83333.3224113671
83333.3224156282
83333.322422944
83333.3224334984
83333.3224301786
83333.3224291954
83333.3224302774
83333.3224342961
83333.3224412343
83333.3224510587
83333.3224637633
83333.322448949
83333.322447805
83333.3224486697
83333.3224524136
83333.3224590099
83333.3224682819
83333.3224801734
83333.3224945028
83333.322467169
83333.3224658992
83333.3224665764
83333.3224700285
83333.3224762632
83333.3224850704
83333.3224962961
83333.3225098009
83333.3225252877
83333.322484822
83333.3224834813
83333.3224840231
83333.3224872021
83333.3224930624
83333.3225014107
83333.3225120559
83333.3225248288
83333.3225395168
83333.322555807
83333.3222836026
83333.3223065201
83333.3223064054
83333.3223287855
83333.3223285314
83333.3223303061
83333.3223504653
83333.3223500265
83333.322351687
83333.3223566202
83333.3223715948
83333.3223709549
83333.322372452
83333.3223770901
83333.3223852331
83333.3223921928
83333.3223913415
83333.3223926529
83333.3223970471
83333.3224046211
83333.3224155676
83333.322412257
83333.3224112087
83333.3224122987
83333.3224164326
83333.3224236059
83333.3224337801
83333.3224469571
83333.3224317684
83333.3224305546
83333.3224314178
83333.3224352564
83333.3224420608
83333.322451651
83333.3224639662
83333.322478828
83333.3224507052
83333.3224493597
83333.3224500243
83333.3224535546
83333.3224599705
83333.3224690629
83333.3224806768
83333.3224946662
83333.3225107295
83333.3224690567
83333.3224676141
83333.3224681239
83333.3224713687
83333.322477389
83333.3224859908
83333.3224969856
83333.3225102039
83333.3225254286
83333.3225423321
83333.3224868059
83333.3224853176
83333.3224857211
83333.3224887251
83333.3224943738
83333.3225024939
83333.3225129044
83333.3225254258
83333.3225398559
83333.3225559339
83333.3225733678
83333.3222600187
83333.3222838292
83333.3222836876
83333.3223069566
83333.3223066703
83333.3223084856
83333.3223294732
83333.322328993
83333.3223306894
83333.3223357945
83333.3223514174
83333.322350727
83333.3223522505
83333.3223570464
83333.3223654921
83333.3223728115
83333.3223719002
83333.3223732287
83333.3223777639
83333.3223856114
83333.3223969729
83333.3223936555
83333.3223925381
83333.3223936349
83333.3223978927
83333.3224053163
83333.3224158631
83333.3224295416
83333.3224139326
83333.3224126421
83333.3224135024
83333.3224174453
83333.3224244754
83333.3224344062
83333.322447173
83333.3224625994
83333.3224336203
83333.3224321948
83333.3224328477
83333.3224364625
83333.3224430758
83333.3224524747
83333.3224645019
83333.3224790043
83333.3224956767
83333.322452697
83333.3224511701
83333.322451659
83333.3224549718
83333.3224611628
83333.3224700375
83333.3224814056
83333.322495095
83333.3225108816
83333.3225284271
83333.3224711511
83333.3224695556
83333.3224699205
83333.3224729824
83333.3224787811
83333.3224871424
83333.3224978866
83333.322510836
83333.3225257846
83333.3225424647
83333.3225605692
83333.3224889654
83333.3224873532
83333.3224876395
83333.3224904965
83333.3224959499
83333.3225038355
83333.3225139878
83333.3225262387
83333.3225403933
83333.322556227
83333.3225734801
83333.3225918783
83333.3222355092
83333.3222602575
83333.3222600848
83333.3222842887
83333.3222839662
83333.32228582
83333.3223076808
83333.3223071548
83333.3223088864
83333.3223141701
83333.3223304757
83333.3223297298
83333.3223312781
83333.3223362397
83333.3223450035
83333.3223526985
83333.3223517228
83333.3223530655
83333.3223577502
83333.3223658866
83333.3223776859
83333.3223743513
83333.3223731606
83333.3223742629
83333.3223786516
83333.3223863403
83333.3223972821
83333.3224114913
83333.3223954198
83333.3223940482
83333.322394904
83333.3223989592
83333.3224062293
83333.3224165225
83333.3224297696
83333.3224457932
83333.322415883
83333.3224143702
83333.3224150102
83333.322418719
83333.3224255459
83333.3224352734
83333.322447741
83333.3224627881
83333.3224801048
83333.3224357191
83333.3224341028
83333.3224345721
83333.3224379597
83333.3224443368
83333.3224535057
83333.3224652728
83333.3224794623
83333.3224958422
83333.3225140633
83333.3224549046
83333.3224532179
83333.3224535559
83333.322456678
83333.3224626372
83333.3224712593
83333.322482362
83333.3224957663
83333.3225112606
83333.3225285702
83333.3225473753
83333.3224734279
83333.3224717051
83333.322471948
83333.3224748586
83333.3224804545
83333.32248857
83333.3224990415
83333.3225117018
83333.3225263562
83333.3225427741
83333.3225606873
83333.3225798062
83333.3224912695
83333.3224895671
83333.3224897637
83333.3224925013
83333.3224977831
83333.3225054464
83333.3225153381
83333.3225273039
83333.3225411649
83333.3225567182
83333.3225737379
83333.3225919763
83333.3226111781
83333.3222100277
83333.3222357613
83333.3222355533
83333.3222607417
83333.3222603787
83333.3222622688
83333.3222850513
83333.322284475
83333.3222862396
83333.3222917085
83333.3223087365
83333.3223079291
83333.3223095013
83333.3223146354
83333.3223237322
83333.3223318242
83333.3223307785
83333.3223321316
83333.3223369746
83333.322345415
83333.3223576747
83333.3223543187
83333.3223530495
83333.3223541552
83333.3223586812
83333.3223666501
83333.3223780089
83333.3223927775
83333.3223762076
83333.3223747502
83333.3223755998
83333.3223797742
83333.3223872978
83333.3223979748
83333.3224117312
83333.322428384
83333.322397472
83333.3223958668
83333.322396492
83333.3224003019
83333.3224073568
83333.3224174339
83333.3224303689
83333.322445993
83333.3224639899
83333.3224180918
83333.3224163788
83333.3224168264
83333.3224202982
83333.3224268775
83333.3224363619
83333.3224485545
83333.3224632755
83333.322480283
83333.3224992168
83333.3224380432
83333.3224362591
83333.3224365709
83333.3224397603
83333.3224458953
83333.3224547994
83333.3224662863
83333.3224801745
83333.3224962463
83333.322514219
83333.3225337599
83333.3224573023
83333.3224554826
83333.3224556939
83333.3224586605
83333.3224644088
83333.3224727737
83333.3224835898
83333.3224966875
83333.3225118704
83333.3225289012
83333.3225475028
83333.3225673732
83333.3224758555
83333.3224740411
83333.3224741906
83333.3224769801
83333.3224823998
83333.3224902842
83333.3225004819
83333.3225128404
83333.3225271806
83333.3225432983
83333.3225609608
83333.3225799098
83333.3225998755
83333.3224936733
83333.3224919305
83333.3224920724
83333.3224947246
83333.3224998586
83333.3225073178
83333.3225169586
83333.3225286401
83333.3225421976
83333.3225574471
83333.3225741896
83333.3225922068
83333.3226112654
83333.3226311314
83333.322183522
83333.3222102939
83333.3222100461
83333.3222362723
83333.3222358641
83333.3222377886
83333.322261545
83333.3222609131
83333.3222627088
83333.3222683688
83333.3222861634
83333.3222852886
83333.3222868827
83333.3222921953
83333.32230164
83333.322310156
83333.3223090329
83333.322310394
83333.3223154028
83333.3223241616
83333.3223369045
83333.3223335288
83333.3223321747
83333.3223332796
83333.3223379502
83333.3223462145
83333.3223580121
83333.3223733689
83333.322356271
83333.3223547218
83333.3223555626
83333.3223598624
83333.3223676536
83333.3223787358
83333.3223930297
83333.3224103445
83333.3223783657
83333.3223766625
83333.3223772705
83333.3223811879
83333.3223884845
83333.3223989315
83333.3224123603
83333.3224285947
83333.322447308
83333.3223997944
83333.3223979793
83333.3223984025
83333.3224019656
83333.3224087609
83333.3224185811
83333.3224312257
83333.3224465095
83333.3224641799
83333.322483865
83333.3224205355
83333.322418647
83333.3224189297
83333.3224221957
83333.3224285222
83333.3224377292
83333.3224496262
83333.3224640288
83333.3224807121
83333.3224993846
83333.3225196997
83333.3224405649
83333.3224386422
83333.322438821
83333.3224418509
83333.3224477669
83333.3224564021
83333.3224675883
83333.322481153
83333.3224968959
83333.3225145731
83333.3225338978
83333.3225545559
83333.3224598564
83333.3224579416
83333.3224580564
83333.3224609
83333.3224664673
83333.3224745919
83333.3224851209
83333.3224979008
83333.3225127504
83333.3225294622
83333.3225477969
83333.3225674856
83333.3225882461
83333.322478389
83333.3224765324
83333.3224766299
83333.3224793307
83333.3224846003
83333.3224922747
83333.3225022107
83333.3225142696
83333.3225282877
83333.32254408
83333.3225614444
83333.3225801556
83333.3225999682
83333.322620634
83333.3224961103
83333.3224944046
83333.3224945437
83333.3224971465
83333.3225021584
83333.3225094331
83333.3225188373
83333.3225302428
83333.3225434986
83333.3225584358
83333.3225748743
83333.3225926224
83333.3226114733
83333.3226312096
83333.3226516185
83333.3221559307
83333.3221838024
83333.3221835124
83333.3222108337
83333.3222103749
83333.3222123337
83333.322237119
83333.3222364259
83333.322238251
83333.3222441081
83333.3222627167
83333.3222617685
83333.3222633822
83333.3222688791
83333.3222786862
83333.3222876581
83333.3222864497
83333.3222878176
83333.3222929973
83333.3223020888
83333.3223153376
83333.3223119496
83333.3223105024
83333.3223115997
83333.3223164242
83333.3223249993
83333.3223372572
83333.3223532316
83333.3223355817
83333.3223339333
83333.3223347607
83333.3223391919
83333.322347266
83333.3223587747
83333.322373634
83333.3223916449
83333.3223585391
83333.3223567318
83333.322357319
83333.3223613501
83333.322368902
83333.3223797393
83333.3223936888
83333.3224105661
83333.3224300332
83333.3223808054
83333.3223788825
83333.3223792772
83333.3223829391
83333.3223899635
83333.3224001394
83333.3224132621
83333.32242914
83333.322447509
83333.3224679847
83333.3224023612
83333.3224003638
83333.3224006134
83333.322403963
83333.3224104947
83333.3224200241
83333.3224323567
83333.3224473042
83333.3224646337
83333.3224840435
83333.3225051727
83333.3224231846
83333.3224211528
83333.3224212949
83333.3224243972
83333.3224304965
83333.3224394225
83333.3224510041
83333.3224650653
83333.3224814016
83333.3224997614
83333.3225198473
83333.3225413322
83333.322443249
83333.3224412277
83333.3224413065
83333.3224442105
83333.3224499402
83333.3224583256
83333.3224692113
83333.322482442
83333.3224978331
83333.3225151726
83333.3225342138
83333.3225546777
83333.3225762696
83333.3224625196
83333.3224605623
83333.3224606259
83333.3224633792
83333.3224687939
83333.322476702
83333.3224869583
83333.3224994235
83333.3225139329
83333.3225302993
83333.3225483163
83333.3225677509
83333.3225883471
83333.3226098441
83333.3224809628
83333.3224791376
83333.3224792361
83333.3224818899
83333.3224870364
83333.3224945228
83333.3225042142
83333.3225159843
83333.3225296834
83333.322545143
83333.3225621812
83333.322580602
83333.3226001906
83333.3226207173
83333.3226419554
83333.3224985039
83333.3224969319
83333.3224971442
83333.3224997403
83333.3225046577
83333.3225117695
83333.3225209544
83333.3225320965
83333.3225450579
83333.3225596839
83333.3225758093
83333.3225932601
83333.322611854
83333.3226313968
83333.322651688
83333.3226725353
83333.3221271974
83333.3221562262
83333.3221558913
83333.3221843728
83333.3221838601
83333.3221858552
83333.3222117273
83333.3222109666
83333.3222128204
83333.3222188805
83333.3222383543
83333.322237326
83333.3222389573
83333.322244644
83333.3222548279
83333.3222642914
83333.3222629906
83333.3222643633
83333.3222697182
83333.3222791572
83333.3222929339
83333.3222895458
83333.322287997
83333.322289081
83333.3222940673
83333.3223029671
83333.322315707
83333.3223323289
83333.3223141082
83333.3223123525
83333.322313158
83333.3223177287
83333.322326101
83333.3223380576
83333.3223535106
83333.3223722526
83333.3223379646
83333.3223360465
83333.3223366065
83333.3223407577
83333.3223485785
83333.3223598272
83333.3223743243
83333.3223918777
83333.3224121369
83333.3223611008
83333.3223590641
83333.3223594251
83333.3223631926
83333.322370459
83333.3223810106
83333.3223946371
83333.3224111408
83333.3224302445
83333.3224515513
83333.3223834997
83333.3223813884
83333.3223815986
83333.3223850398
83333.3223917898
83333.3224016608
83333.322414454
83333.3224299769
83333.3224479878
83333.3224681733
83333.3224901575
83333.3224051417
83333.322402997
83333.3224030996
83333.3224062793
83333.3224125748
83333.3224218107
83333.3224338124
83333.3224483999
83333.3224653633
83333.3224844428
83333.3225053295
83333.322527682
83333.3224260017
83333.3224238691
83333.3224239096
83333.3224268806
83333.3224327876
83333.3224414537
83333.322452721
83333.3224664314
83333.3224823967
83333.3225003994
83333.3225201847
83333.3225414629
83333.3225639257
83333.3224460444
83333.3224439806
83333.3224440089
83333.3224468212
83333.322452395
83333.3224605569
83333.3224711584
83333.322484059
83333.3224990918
83333.322516066
83333.3225347704
83333.3225549636
83333.3225763793
83333.3225987439
83333.3224652221
83333.3224633
83333.3224633686
83333.3224660764
83333.3224713672
83333.3224790834
83333.3224890867
83333.32250125
83333.3225154235
83333.3225314374
83333.3225491071
83333.3225682318
83333.3225885879
83333.322609935
83333.3226320338
83333.3224834886
83333.3224817972
83333.3224819717
83333.3224846264
83333.3224896809
83333.3224970035
83333.3225064706
83333.322517967
83333.3225313566
83333.3225464861
83333.3225631895
83333.3225812902
83333.3226006008
83333.3226209182
83333.3226420296
83333.3226637291
83333.3225007854
83333.3224994298
83333.3224998163
83333.322502464
83333.3225073196
83333.3225142941
83333.3225232819
83333.3225341781
83333.322546857
83333.3225611781
83333.3225769905
83333.322594134
83333.3226124421
83333.3226317429
83333.3226518556
83333.3226725964
83333.3226937919
83333.3220972551
83333.3221275165
83333.3221271233
83333.3221568299
83333.3221562603
83333.3221582862
83333.322185317
83333.3221844851
83333.3221863683
83333.3221926353
83333.3222130309
83333.3222119154
83333.3222135634
83333.3222194453
83333.3222300194
83333.3222400142
83333.3222386135
83333.3222399888
83333.3222455236
83333.3222553236
83333.3222696507
83333.3222662789
83333.3222646205
83333.3222656893
83333.3222708406
83333.3222800775
83333.3222933218
83333.3223106218
83333.3222918159
83333.3222899448
83333.3222907202
83333.322295437
83333.3223041217
83333.3223165476
83333.322332623
83333.3223521323
83333.3223166115
83333.3223145755
83333.3223150992
83333.3223193762
83333.3223274802
83333.3223391616
83333.3223542338
83333.3223724972
83333.3223935882
83333.3223406538
83333.3223384977
83333.3223388184
83333.3223426961
83333.3223502176
83333.3223611647
83333.3223753212
83333.322392483
83333.3224123588
83333.322434538
83333.3223639278
83333.322361697
83333.3223618638
83333.3223654011
83333.3223723822
83333.3223826133
83333.3223958925
83333.3224120213
83333.3224307491
83333.3224517499
83333.3224746316
83333.3223864162
83333.3223841539
83333.3223842151
83333.3223874754
83333.32239398
83333.3224035443
83333.32241599
83333.3224311334
83333.322448758
83333.3224685951
83333.3224903233
83333.3225135856
83333.3224080959
83333.3224058487
83333.3224058495
83333.322408892
83333.322414988
83333.3224239532
83333.3224356258
83333.3224498446
83333.322466417
83333.3224851193
83333.3225056878
83333.322527821
83333.3225511963
83333.3224289326
83333.3224267586
83333.3224267497
83333.3224296278
83333.3224353742
83333.322443809
83333.3224547798
83333.3224681443
83333.3224837326
83333.3225013497
83333.3225207784
83333.3225417689
83333.3225640436
83333.3225873157
83333.3224488768
83333.3224468544
83333.3224468907
83333.3224496593
83333.3224551081
83333.3224630734
83333.3224734128
83333.3224859979
83333.3225006776
83333.3225172798
83333.3225356162
83333.3225554801
83333.3225766395
83333.322598843
83333.3226218389
83333.3224678638
83333.3224660902
83333.3224662412
83333.3224689566
83333.3224741578
83333.3224817088
83333.3224914821
83333.3225033612
83333.3225172101
83333.3225328752
83333.3225501893
83333.3225689723
83333.3225890309
83333.3226101531
83333.3226321151
83333.3226546985
83333.322485806
83333.3224844187
83333.3224847747
83333.3224874925
83333.3224924929
83333.3224996809
83333.3225089489
83333.3225201921
83333.3225332869
83333.3225480944
83333.3225644643
83333.3225822353
83333.3226012372
83333.322621292
83333.3226422098
83333.3226637944
83333.3226858595
83333.3225025195
83333.3225017959
83333.3225024475
83333.3225052389
83333.3225100855
83333.3225169577
83333.3225257787
83333.3225364544
83333.3225488699
83333.3225628979
83333.3225784025
83333.3225952376
83333.3226132494
83333.3226322797
83333.3226521673
83333.3226727448
83333.3226938447
83333.3227153115
83333.3220975987
83333.3220971298
83333.3221281615
83333.3221275223
83333.3221295538
83333.3221578292
83333.3221569215
83333.3221588302
83333.3221653046
83333.3221866941
83333.3221854874
83333.3221871526
83333.3221932334
83333.322204209
83333.3222147819
83333.3222132734
83333.3222146506
83333.3222203698
83333.3222305427
83333.3222454426
83333.3222421082
83333.3222403314
83333.322241384
83333.3222467031
83333.3222562899
83333.3222700596
83333.322288069
83333.3222686673
83333.3222666724
83333.3222674144
83333.3222722803
83333.3222812894
83333.3222942058
83333.3223109325
83333.3223312465
83333.3222944463
83333.3222922847
83333.3222927656
83333.3222971703
83333.3223055713
83333.3223177063
83333.3223333815
83333.3223523896
83333.3223743537
83333.3223194343
83333.3223171528
83333.3223174285
83333.3223214163
83333.3223292059
83333.3223405684
83333.3223552818
83333.3223731346
83333.322393821
83333.3224169162
83333.3223436192
83333.3223412633
83333.3223413851
83333.3223450191
83333.3223522424
83333.3223628525
83333.3223766431
83333.322393409
83333.3224128902
83333.3224347471
83333.3224585704
83333.3223669857
83333.3223646004
83333.322364618
83333.3223679628
83333.3223746875
83333.3223845981
83333.3223975118
83333.3224132408
83333.3224315612
83333.3224521948
83333.3224748063
83333.3224990227
83333.3223895126
83333.3223871464
83333.3223871065
83333.3223902248
83333.3223965204
83333.3224058022
83333.3224179034
83333.3224326591
83333.3224498717
83333.3224693105
83333.3224907023
83333.3225137328
83333.3225380639
83333.3224111669
83333.3224088797
83333.3224088326
83333.3224117818
83333.3224177117
83333.3224264366
83333.3224377997
83333.3224516559
83333.3224678315
83333.3224861269
83333.3225063182
83333.3225281464
83333.3225513219
83333.3225755435
83333.3224318988
83333.3224297722
83333.3224297754
83333.322432612
83333.3224382317
83333.3224464641
83333.3224571628
83333.3224701975
83333.322485415
83333.3225026399
83333.3225216795
83333.3225423207
83333.3225643225
83333.3225874223
83333.3226113554
83333.3224516385
83333.3224497785
83333.3224499044
83333.3224526864
83333.3224580477
83333.3224658456
83333.3224759484
83333.322488238
83333.3225025777
83333.3225188126
83333.3225367726
83333.3225562737
83333.3225771161
83333.3225990791
83333.3226219277
83333.3226454317
83333.3224702616
83333.3224688328
83333.3224691777
83333.322471967
83333.3224771206
83333.3224845392
83333.3224941108
83333.3225057291
83333.3225192705
83333.3225345969
83333.3225515575
83333.322569989
83333.3225897173
83333.3226105577
83333.3226323111
83333.3226547703
83333.3226777372
83333.3224875791
83333.3224868451
83333.3224875254
83333.3224904042
83333.3224954078
83333.3225025011
83333.3225116045
83333.3225226238
83333.3225354458
83333.3225499457
83333.3225659891
83333.3225834301
83333.3226021127
83333.3226218744
83333.3226425473
83333.3226639543
83333.3226859161
83333.3227082646
83333.32250367
83333.3225036759
83333.3225048348
83333.3225079043
83333.32251285
83333.3225196836
83333.3225283845
83333.3225388785
83333.3225510602
83333.3225648155
83333.322580024
83333.3225965551
83333.3226142684
83333.3226330171
83333.3226526521
83333.3226730225
83333.3226939744
83333.322715356
83333.3227370303
83333.3220982862
83333.3220975584
83333.3220995639
83333.322129223
83333.3221282274
83333.3221301338
83333.3221368067
83333.3221592859
83333.3221579825
83333.3221596609
83333.3221659422
83333.3221773292
83333.3221885429
83333.3221869218
83333.322188302
83333.3221942089
83333.3222047637
83333.3222202587
83333.3222169898
83333.3222150859
83333.3222161216
83333.3222216124
83333.3222315611
83333.3222458758
83333.3222646254
83333.3222446229
83333.322242494
83333.3222432016
83333.3222482191
83333.3222575641
83333.3222709916
83333.3222883979
83333.3223095548
83333.3222714328
83333.3222691356
83333.3222695714
83333.3222741052
83333.3222828144
83333.322295423
83333.3223117294
83333.3223315176
83333.3223543976
83333.32229741
83333.3222949949
83333.3222952222
83333.3222993195
83333.3223073883
83333.3223191862
83333.3223344836
83333.3223530612
83333.3223745982
83333.3223986547
83333.3223225453
83333.3223200575
83333.322320132
83333.322323863
83333.3223313381
83333.3223423461
83333.3223566733
83333.3223741084
83333.3223943805
83333.322417136
83333.3224419475
83333.3223468246
83333.3223443106
83333.3223442827
83333.3223477152
83333.3223546692
83333.3223649437
83333.3223783494
83333.3223946939
83333.3224137458
83333.3224352157
83333.3224587543
83333.3224839712
83333.3223702297
83333.3223677397
83333.322367657
83333.3223708561
83333.3223773614
83333.3223869768
83333.3223995295
83333.3224148504
83333.3224327367
83333.32245295
83333.3224752064
83333.3224991781
83333.3225245106
83333.3223927291
83333.3223903248
83333.3223902388
83333.3223932637
83333.3223993876
83333.3224084189
83333.3224201966
83333.322434572
83333.3224513669
83333.3224703766
83333.3224913699
83333.3225140775
83333.3225381971
83333.3225634124
83333.322414272
83333.3224120382
83333.3224120082
83333.3224149179
83333.3224207193
83333.3224292351
83333.3224403151
83333.3224538263
83333.3224696126
83333.3224874948
83333.3225072751
83333.3225287333
83333.3225516189
83333.3225756573
83333.3226005697
83333.3224347861
83333.3224328349
83333.3224329355
83333.3224357917
83333.3224413252
83333.3224493872
83333.3224598416
83333.3224725687
83333.32248743
83333.3225042683
83333.3225229105
83333.3225431674
83333.3225648325
83333.3225876758
83333.322611451
83333.3226359155
83333.3224541375
83333.3224526472
83333.3224529786
83333.3224558459
83333.322461165
83333.3224688314
83333.3224787287
83333.3224907491
83333.3225047681
83333.322520647
83333.3225382338
83333.322557362
83333.322577853
83333.3225995152
83333.3226221402
83333.3226455102
83333.3226694154
83333.3224720974
83333.3224713556
83333.3224720547
83333.3224750186
83333.3224801859
83333.322487516
83333.3224969243
83333.3225083146
83333.3225215737
83333.322536578
83333.3225531937
83333.3225712743
83333.3225906612
83333.3226111871
83333.3226326771
83333.3226549447
83333.3226777996
83333.3227010629
83333.3224887709
83333.3224887754
83333.3224899982
83333.3224931934
83333.3224983135
83333.322505381
83333.3225143718
83333.3225252108
83333.3225377939
83333.3225520095
83333.3225677403
83333.3225848572
83333.3226032191
83333.3226226763
83333.3226430745
83333.3226642557
83333.3226860561
83333.3227083124
83333.3227308755
83333.3225043209
83333.3225048565
83333.3225066585
83333.3225101856
83333.3225154143
83333.3225223456
83333.3225310091
83333.3225413829
83333.3225533779
83333.3225668932
83333.3225818264
83333.3225980646
83333.322615483
83333.3226339474
83333.3226533183
83333.3226734555
83333.3226942188
83333.3227154673
83333.3227370667
83333.3227588986
83333.3220994127
83333.3220983082
83333.3221001683
83333.3221070491
83333.3221307683
83333.3221293534
83333.3221310155
83333.3221374842
83333.3221492958
83333.3221612404
83333.3221595001
83333.3221608783
83333.3221669738
83333.3221779195
83333.3221940341
83333.3221908728
83333.322188836
83333.322189856
83333.3221955212
83333.3222058422
83333.3222207194
83333.3222402398
83333.3222196397
83333.3222173666
83333.3222180393
83333.3222232118
83333.3222329032
83333.3222468615
83333.3222649752
83333.3222870139
83333.3222475322
83333.3222450883
83333.3222454756
83333.3222501425
83333.3222591702
83333.3222722718
83333.3222892376
83333.3223098416
83333.3223336818
83333.3222745459
83333.3222719867
83333.3222721607
83333.3222763703
83333.3222847285
83333.3222969807
83333.3223128891
83333.3223322262
83333.322354655
83333.3223797202
83333.3223006743
83333.3222980464
83333.322298069
83333.3223018984
83333.3223096346
83333.3223210589
83333.3223359487
83333.3223540856
83333.3223751874
83333.3223988859
83333.3224247343
83333.3223259052
83333.3223232558
83333.3223231794
83333.3223267021
83333.322333894
83333.3223445491
83333.3223584714
83333.3223754622
83333.3223952819
83333.3224176295
83333.322442141
83333.3224684072
83333.3223502228
83333.3223476032
83333.3223474759
83333.3223507596
83333.3223574842
83333.3223674492
83333.3223804764
83333.3223963915
83333.3224149856
83333.3224360122
83333.3224591762
83333.3224841349
83333.3225105169
83333.3223735976
83333.3223710722
83333.3223709454
83333.3223740511
83333.3223803791
83333.3223897329
83333.3224019471
83333.3224168689
83333.3224343156
83333.3224540763
83333.3224759119
83333.3224995423
83333.3225246512
83333.3225509068
83333.3223959787
83333.3223936345
83333.3223935706
83333.3223965585
83333.3224025519
83333.3224113669
83333.3224228494
83333.3224368635
83333.3224532496
83333.322471824
83333.3224923832
83333.3225146995
83333.3225385119
83333.322563533
83333.3225894695
83333.3224172914
83333.3224152461
83333.3224153211
83333.3224182569
83333.322423973
83333.3224323147
83333.3224431417
83333.322456332
83333.3224717451
83333.3224892206
83333.3225085815
83333.3225296333
83333.3225521619
83333.3225759274
83333.3226006718
83333.3226261391
83333.3224373953
83333.322435836
83333.322436154
83333.3224391066
83333.3224446027
83333.3224525331
83333.3224627772
83333.3224752252
83333.3224897518
83333.3225062165
83333.3225244651
83333.3225443275
83333.3225656198
83333.3225881431
83333.3226116796
83333.3226360002
83333.3226608836
83333.3224560539
83333.3224552818
83333.3224559871
83333.3224590426
83333.3224643852
83333.3224719677
83333.3224817016
83333.3224934886
83333.3225072151
83333.3225227571
83333.3225399805
83333.3225587372
83333.3225788652
83333.322600192
83333.3226225353
83333.3226456996
83333.3226694839
83333.3226936984
83333.3224733339
83333.3224733619
83333.3224746374
83333.3224779374
83333.322483235
83333.3224905498
83333.3224998515
83333.3225110621
83333.3225240768
83333.3225387856
83333.3225550726
83333.3225728095
83333.3225918542
83333.3226120535
83333.3226332479
83333.322655272
83333.3226779527
83333.322701116
83333.3227246017
83333.3224894629
83333.3224900018
83333.322491881