/*--------------------------------*- C++ -*----------------------------------*\
  =========                 |
  \\      /  F ield         | OpenFOAM: The Open Source CFD Toolbox
   \\    /   O peration     | Website:  https://openfoam.org
    \\  /    A nd           | Version:  12
     \\/     M anipulation  |
\*---------------------------------------------------------------------------*/
/*   Windows 32 and 64 bit porting by blueCAPE: http://www.bluecape.com.pt   *\
|  Based on Windows porting (2.0.x v4) by Symscape: http://www.symscape.com   |
\*---------------------------------------------------------------------------*/
FoamFile
{
    format      ascii;
    class       volVectorField;
    location    "100";
    object      U;
}
// * * * * * * * * * * * * * * * * * * * * * * * * * * * * * * * * * * * * * //

dimensions      [0 1 -1 0 0 0 0];

internalField   nonuniform List<vector> 
10116
(
(-5.34352483865078e-07 0.000326439486533902 8.99051715228994e-06)
(-5.68062705588047e-07 0.000341842842975268 9.43306706321865e-06)
(-3.44772057626975e-06 0.000413107175052674 1.12869090321576e-05)
(8.45307850191677e-07 6.77150849506056e-05 1.46660694046977e-05)
(-6.53012660634825e-07 0.000357659677687556 9.80810037130848e-06)
(-3.80142984130631e-06 0.000431135666529387 1.21724149494999e-05)
(7.51570736840378e-07 7.43728315547317e-05 1.52876834528462e-05)
(-6.44381789382278e-06 0.0004266184728409 1.17268649461416e-05)
(1.35629144146496e-06 9.29351623156033e-05 1.67602074575768e-05)
(7.94828719692953e-07 5.03219113978977e-05 2.19129571720594e-05)
(-7.5317906759736e-07 0.000374395604086123 1.02303664953594e-05)
(-4.09334497915402e-06 0.000450040224000453 1.24880300694781e-05)
(6.9963779136927e-07 8.12634600126035e-05 1.59738925579089e-05)
(-6.98499354239477e-06 0.000445075322434573 1.29224764006751e-05)
(1.36102785849133e-06 0.000100546727190346 1.76592553998899e-05)
(8.0741804150669e-07 5.63390614821122e-05 2.30513871247003e-05)
(-1.06235643597323e-05 0.000437306392665721 1.17152235688144e-05)
(2.18851962513647e-06 9.65719041386005e-05 1.6949535873491e-05)
(1.43699802362011e-06 6.09153034033003e-05 2.42676742031335e-05)
(7.55071839178577e-07 5.28863782106009e-05 2.94810476315362e-05)
(-8.44971722100401e-07 0.000392124651530267 1.07014728629532e-05)
(-4.48199583423092e-06 0.000469970087083346 1.28711288365867e-05)
(7.68712042013452e-07 8.86461481802268e-05 1.68082214343624e-05)
(-7.60952601835477e-06 0.00046454810721448 1.32063308241495e-05)
(1.28665533514446e-06 0.000108536403910827 1.84459396601584e-05)
(8.1601879049578e-07 6.27195171002756e-05 2.42500828784756e-05)
(-1.15063118081547e-05 0.000456056579897041 1.30194130659737e-05)
(2.12703835393294e-06 0.000104409904808386 1.80297896064115e-05)
(1.42867276150063e-06 6.73809929249429e-05 2.55613965813285e-05)
(7.54039128895851e-07 5.90415619510219e-05 3.10979049940306e-05)
(-1.5812674440131e-05 0.000444642043682564 1.11101063061979e-05)
(2.62297726666939e-06 9.61999657656077e-05 1.66891130464439e-05)
(2.45035036672601e-06 6.11042094696301e-05 2.44011182980365e-05)
(1.14307016211151e-06 5.87920325823055e-05 3.19823984127593e-05)
(6.14960147805447e-07 5.78426595570847e-05 3.67796117313913e-05)
(-9.21671753923506e-07 0.000410835101697465 1.12429029855931e-05)
(-4.8809465753923e-06 0.000491002264536997 1.34141415531711e-05)
(7.99992304887508e-07 9.65840144359937e-05 1.76983066878959e-05)
(-8.28746581070312e-06 0.000485033292831982 1.35376387180167e-05)
(1.23235291241322e-06 0.000117077377941613 1.92856092774586e-05)
(8.24638603103611e-07 6.96218938245918e-05 2.55660934821484e-05)
(-1.2471986288139e-05 0.000475884505426671 1.32724034636255e-05)
(2.04722395392698e-06 0.000112658277535044 1.88718401699816e-05)
(1.3996810257342e-06 7.42798803662183e-05 2.68530832070275e-05)
(7.5651095476917e-07 6.56724875981454e-05 3.28341762576452e-05)
(-1.70893370327618e-05 0.000463524549665985 1.25247982428125e-05)
(2.46300752715566e-06 0.00010404847093106 1.78248909197348e-05)
(2.40323437904774e-06 6.76546437010542e-05 2.57855066556609e-05)
(1.0949240034422e-06 6.52066152860693e-05 3.37405537880718e-05)
(6.05985445251096e-07 6.428765050641e-05 3.89116903525555e-05)
(-2.21453502963878e-05 0.000447682173274689 1.02632762615462e-05)
(2.63086025553044e-06 9.3188943383196e-05 1.57271536835702e-05)
(3.27649793837124e-06 5.85176325797224e-05 2.36886543351919e-05)
(1.74293197526152e-06 5.79478814214803e-05 3.19547260413465e-05)
(7.83067301888425e-07 6.19611631601411e-05 3.93057189647499e-05)
(3.96340251087401e-07 6.31348763519005e-05 4.39279036232216e-05)
(-9.86071046271928e-07 0.00043059792955558 1.18653561758883e-05)
(-5.2386207378219e-06 0.000513121608524327 1.40469859337704e-05)
(8.2560116508105e-07 0.00010513668015578 1.8694028044929e-05)
(-8.93530113060892e-06 0.000506616834133773 1.40905111029727e-05)
(1.20624677922663e-06 0.000126213289860916 2.02445688375933e-05)
(8.36863016993699e-07 7.70994464603448e-05 2.70364538815141e-05)
(-1.34467029474844e-05 0.000496709440436421 1.3529205217245e-05)
(1.97574020997249e-06 0.000121453351737852 1.97234786921935e-05)
(1.37366888544109e-06 8.17132337065691e-05 2.8262318301186e-05)
(7.61758725194488e-07 7.28737418289601e-05 3.47527261502794e-05)
(-1.84474384529208e-05 0.00048352657344352 1.27606003875213e-05)
(2.32720970621135e-06 0.000112312940831279 1.86556733751613e-05)
(2.35978896359537e-06 7.46441745337562e-05 2.71117627439337e-05)
(1.04958277006384e-06 7.21326203806038e-05 3.55972933065172e-05)
(6.01455001228586e-07 7.12755984718565e-05 4.12219350078654e-05)
(-2.38503219230461e-05 0.00046656013696053 1.17114087049332e-05)
(2.37063614864044e-06 0.000100904825788607 1.68640808845222e-05)
(3.17770925449694e-06 6.49965589477984e-05 2.51193092223864e-05)
(1.65753295456791e-06 6.43706007509265e-05 3.37853787489617e-05)
(7.1419233224062e-07 6.85686228281145e-05 4.15754633788305e-05)
(3.79748887375183e-07 6.98952230517134e-05 4.66053028945514e-05)
(-2.96988816107693e-05 0.000446831625475036 9.27976048380991e-06)
(2.05049554528385e-06 8.82412397347529e-05 1.4145608521872e-05)
(3.82673238929386e-06 5.37574520870605e-05 2.21323519649507e-05)
(2.30585765144584e-06 5.48131473591763e-05 3.08545032554981e-05)
(9.57361350295382e-07 6.08207074690783e-05 3.90535143325084e-05)
(3.94844491888799e-07 6.61863792533083e-05 4.63507396175659e-05)
(1.6878259908696e-07 6.83950195112788e-05 5.09614223186999e-05)
(-1.04099951887306e-06 0.0004515012342075 1.25771248532846e-05)
(-5.5655272905771e-06 0.000536413901433111 1.47683899973354e-05)
(8.60969648153791e-07 0.000114370893903904 1.983071898504e-05)
(-9.53764652846856e-06 0.000529271608845398 1.47433112309809e-05)
(1.20192770932294e-06 0.000136007505069428 2.13331967360464e-05)
(8.53442963290162e-07 8.52218909447253e-05 2.86957573723027e-05)
(-1.43786200580838e-05 0.000518616199485022 1.40463263040348e-05)
(1.93902749061941e-06 0.000130837009033821 2.07112704452184e-05)
(1.36544708289334e-06 8.97340940608793e-05 2.98447801282265e-05)
(7.70050067761067e-07 8.07015566072625e-05 3.68934382905768e-05)
(-1.97951062232207e-05 0.000504501394475799 1.29637309880483e-05)
(2.20986901099269e-06 0.000121119316817549 1.94506474307484e-05)
(2.33024233144865e-06 8.2154317452842e-05 2.85419808232553e-05)
(1.01680851896807e-06 7.96323434697607e-05 3.76385494172442e-05)
(6.00112947705128e-07 7.88761059424381e-05 4.3770505926323e-05)
(-2.56506083727055e-05 0.00048655632604921 1.19154282664577e-05)
(2.15270920872339e-06 0.000109045705167232 1.76550374729583e-05)
(3.10751604244234e-06 7.19079623172353e-05 2.64538870377009e-05)
(1.58599368071565e-06 7.13100186834403e-05 3.56847639707487e-05)
(6.51408903061619e-07 7.57451666017142e-05 4.40186670362978e-05)
(3.65968127135077e-07 7.72440916722108e-05 4.9509479604181e-05)
(-3.18297001471516e-05 0.000465587318358218 1.07450061120993e-05)
(1.67597538344093e-06 9.57389898956401e-05 1.5298143999444e-05)
(3.68280271393997e-06 6.00401450440028e-05 2.35654306676375e-05)
(2.18200701717259e-06 6.11213341838745e-05 3.2711418794546e-05)
(8.37073844021216e-07 6.7393517188979e-05 4.13797681297645e-05)
(3.12306265333373e-07 7.30452015885183e-05 4.91623992535469e-05)
(1.44473976084042e-07 7.54549121636841e-05 5.42000508932467e-05)
(-3.85782002958565e-05 0.000443573624526012 8.23251067909189e-06)
(7.126620729599e-07 8.18290858026034e-05 1.22420610011554e-05)
(3.99313128154147e-06 4.7462905424668e-05 1.98812675365556e-05)
(2.7042250533817e-06 4.97178982623164e-05 2.87147764347946e-05)
(1.1770960169244e-06 5.75801295106695e-05 3.75715468088176e-05)
(2.67065675230065e-07 6.48412679172112e-05 4.58469088290212e-05)
(5.21251563921273e-09 7.06211711992117e-05 5.3210331531782e-05)
(-1.98106536986984e-08 7.33571485692857e-05 5.78866488978167e-05)
(-1.09253059459916e-06 0.000473652748811188 1.33806177539936e-05)
(-5.87746536469374e-06 0.000560985147924819 1.55876752868273e-05)
(8.98321520962792e-07 0.000124352810242148 2.11233177557122e-05)
(-1.01034768077213e-05 0.00055308265947832 1.54949786283714e-05)
(1.22224300608184e-06 0.000146541023814128 2.2572353536698e-05)
(8.75883424291116e-07 9.40574791768426e-05 3.05764350226726e-05)
(-1.52703474320671e-05 0.00054157609241291 1.46855180498739e-05)
(1.93088333383843e-06 0.000140873232691898 2.18227828760394e-05)
(1.36947291825097e-06 9.84218469529824e-05 3.16269874316228e-05)
(7.80528880918401e-07 8.92242147268403e-05 3.92973406022677e-05)
(-2.10834595141528e-05 0.000526556485962989 1.34483441813962e-05)
(2.13713599194791e-06 0.000130502975459611 2.039517167712e-05)
(2.32477930408432e-06 9.02436585981301e-05 3.01499415490524e-05)
(9.94918385228495e-07 8.77635205174285e-05 3.99132583534436e-05)
(6.00473734829276e-07 8.71479942450543e-05 4.66050574836167e-05)
(-2.73982338336318e-05 0.000507502886899377 1.20646000500627e-05)
(1.97827206258631e-06 0.000117713327661659 1.83850363177451e-05)
(3.06479147657411e-06 7.9323251915219e-05 2.78698624302263e-05)
(1.53281061682254e-06 7.88094795606346e-05 3.77586568658667e-05)
(5.99308168088053e-07 8.35365645424186e-05 4.67042162554898e-05)
(3.54014602294585e-07 8.52411530787701e-05 5.27056328196539e-05)
(-3.40905087308351e-05 0.000485453414976354 1.09223022996145e-05)
(1.3502387519928e-06 0.000103645166798386 1.60774313612184e-05)
(3.58301497392029e-06 6.67417724385844e-05 2.48744128064017e-05)
(2.08241297629309e-06 6.79363352292582e-05 3.46096653417371e-05)
(7.28565678965845e-07 7.45386795485152e-05 4.38633612990016e-05)
(2.32361239539267e-07 8.05132598382679e-05 5.22006363144197e-05)
(1.2152539493671e-07 8.31363750961592e-05 5.77078416399088e-05)
(-4.11228931245361e-05 0.000462187452917532 9.65031765128908e-06)
(2.28479472560576e-07 8.90420842472949e-05 1.34020590342673e-05)
(3.80441965593006e-06 5.34631331364714e-05 2.1294049329225e-05)
(2.54153063599e-06 5.5800704046348e-05 3.05536072452159e-05)
(1.01148495714748e-06 6.40082530754895e-05 3.990576983856e-05)
(1.20200386059307e-07 7.16335463549702e-05 4.87011251423375e-05)
(-8.96812361511901e-08 7.77322074391259e-05 5.65763501402541e-05)
(-5.01901862476289e-08 8.06819033514236e-05 6.16893025743287e-05)
(-4.88361451662322e-05 0.000439636008182653 7.15979223770001e-06)
(-1.46578309427948e-06 7.43804552729045e-05 1.01135924281218e-05)
(3.66960563188239e-06 4.01162981264798e-05 1.71649745357322e-05)
(2.87081524710471e-06 4.32288545264246e-05 2.57628548854395e-05)
(1.3087437493781e-06 5.24986595906859e-05 3.49186793058081e-05)
(1.8718409230122e-07 6.15474001734946e-05 4.40066884044978e-05)
(-3.19836506511779e-07 6.90594053056768e-05 5.24458419190807e-05)
(-3.32057682568715e-07 7.49256714785185e-05 5.99390921392658e-05)
(-1.48650223558819e-07 7.77776968244247e-05 6.47235803928025e-05)
(-1.13332049814558e-06 0.000497178119591151 1.4265722962102e-05)
(-6.17481732358231e-06 0.000586948919489217 1.65102387030337e-05)
(9.19433574551927e-07 0.000135163067067599 2.25812109351547e-05)
(-1.0650405065814e-05 0.000578166600398447 1.63544023299202e-05)
(1.26688045138071e-06 0.000157888576083987 2.39809648537745e-05)
(9.03844748622004e-07 0.00010367777556559 3.27091165819417e-05)
(-1.61127162351993e-05 0.00056566695124671 1.54265447820243e-05)
(1.9604072015898e-06 0.000151652129310409 2.30869765396282e-05)
(1.38693977401687e-06 0.00010785357785002 3.36406946674009e-05)
(7.93464059702431e-07 9.85105926158905e-05 4.20058259660508e-05)
(-2.23068002134093e-05 0.000549648162404122 1.40539319937554e-05)
(2.11298890405325e-06 0.000140524644923054 2.14838294354014e-05)
(2.33942632838424e-06 9.89966740514748e-05 3.19586080288201e-05)
(9.77024611814152e-07 9.66040164896476e-05 4.24606029367721e-05)
(6.0149335071559e-07 9.61581496981531e-05 4.97742012886375e-05)
(-2.90627456587038e-05 0.000529520185930167 1.25022377783146e-05)
(1.86533390163757e-06 0.000126939538069617 1.92714102289064e-05)
(3.05364273909334e-06 8.73035160673878e-05 2.94602936565637e-05)
(1.49307757234829e-06 8.69296529957148e-05 4.00666702803723e-05)
(5.52855789473926e-07 9.2001832412061e-05 4.96842715659877e-05)
(3.42436315227173e-07 9.39458374627896e-05 5.62488223668507e-05)
(-3.62727909350735e-05 0.000506231154762154 1.10214315666828e-05)
(1.10062156672756e-06 0.000112059941954843 1.67592255263471e-05)
(3.52574659667132e-06 7.39261709666833e-05 2.62440296719261e-05)
(2.00469090912839e-06 7.52920174977847e-05 3.66663498210121e-05)
(6.3246334867444e-07 8.22863134918504e-05 4.65821870674456e-05)
(1.58615549224777e-07 8.86308230336235e-05 5.55341911649913e-05)
(9.89872461399512e-08 9.14959077557257e-05 6.15581482924078e-05)
(-4.38520052513616e-05 0.000481828754472087 9.80571972848055e-06)
(-2.11097093126974e-07 9.66414295458725e-05 1.41428721654685e-05)
(3.66813334199869e-06 5.98596415575205e-05 2.25561753977489e-05)
(2.40868302469251e-06 6.23706863997388e-05 3.24093576197063e-05)
(8.60470861032165e-07 7.09991373654264e-05 4.23788281851774e-05)
(-2.19687534919612e-08 7.90369292365419e-05 5.17707988607992e-05)
(-1.861239978868e-07 8.54808048631464e-05 6.0212278314373e-05)
(-8.03076323261708e-08 8.86502118075161e-05 6.58015383419731e-05)
(-5.18272906119097e-05 0.000458058618555743 8.46319406249961e-06)
(-2.07138484397821e-06 8.12704959849974e-05 1.12380182253243e-05)
(3.42778185827728e-06 4.5776895242315e-05 1.85366015364399e-05)
(2.66894564376217e-06 4.90026888734072e-05 2.75504779154551e-05)
(1.09305641030884e-06 5.86806325271654e-05 3.72136923909252e-05)
(-1.91184329429282e-08 6.81724368197152e-05 4.68525577077208e-05)
(-4.88014818340004e-07 7.60779925982457e-05 5.58396666804407e-05)
(-4.35327413564341e-07 8.2265471103206e-05 6.38597214745993e-05)
(-1.82823561066716e-07 8.53122294111614e-05 6.90865063324095e-05)
(-6.04366547443407e-05 0.000436109784105277 6.14287036032365e-06)
(-4.55628304782875e-06 6.62903679281114e-05 7.93589810037524e-06)
(2.79250938572589e-06 3.20259896922843e-05 1.41351491093411e-05)
(2.70741734053754e-06 3.57906511073118e-05 2.2241583666595e-05)
(1.2938692017066e-06 4.60785069698753e-05 3.13674210780375e-05)
(5.8773906181232e-08 5.65201555855008e-05 4.09195675054473e-05)
(-6.30498516723778e-07 6.56930690372565e-05 5.02908352672582e-05)
(-7.9011882205234e-07 7.31630455657774e-05 5.89339662592355e-05)
(-6.0001794272663e-07 7.88414965468813e-05 6.65824557658369e-05)
(-2.24589014840031e-07 8.14341721655935e-05 7.14828943633562e-05)
(-1.16503489384036e-06 0.000522219534107361 1.52643583121217e-05)
(-6.46211260702478e-06 0.000614431221632075 1.75455556388452e-05)
(9.46868763934998e-07 0.000146904556578939 2.4243436974904e-05)
(-1.11964513606636e-05 0.000604648885401988 1.73211570610589e-05)
(1.33081297223442e-06 0.000170132777097379 2.55773282410113e-05)
(9.360164521309e-07 0.000114163066228054 3.51240138814736e-05)
(-1.69070835124575e-05 0.000591003302004172 1.62787178782312e-05)
(2.03225434582546e-06 0.000163254690387791 2.453161249965e-05)
(1.41985559950096e-06 0.00011810149846936 3.59168236828973e-05)
(8.09245332437024e-07 0.000108634689049668 4.50597414907963e-05)
(-2.34663529448809e-05 0.000573856463521121 1.47488237232318e-05)
(2.14538037013012e-06 0.000151279349666018 2.27372087884071e-05)
(2.37767988825524e-06 0.00010849705819588 3.40002086391248e-05)
(9.63490444599914e-07 0.000106228375386411 4.5322554102829e-05)
(6.03006791522893e-07 0.000105976537952774 5.33282993180412e-05)
(-3.06484743864763e-05 0.000552546560598478 1.30626233208377e-05)
(1.81986994873513e-06 0.000136783898048148 2.03090972875599e-05)
(3.07402401358905e-06 9.59338583980464e-05 3.12508434356908e-05)
(1.46039618539348e-06 9.5755285242848e-05 4.26465485731924e-05)
(5.06480672845115e-07 0.000101215625076019 5.30073273637217e-05)
(3.30311825215607e-07 0.000103424927626507 6.01944637507184e-05)
(-3.83436808239315e-05 0.000528057601163098 1.14135610433626e-05)
(9.35929505662904e-07 0.000121011763726913 1.75821325925326e-05)
(3.50783819590394e-06 8.16548248078336e-05 2.77800390655381e-05)
(1.942428729563e-06 8.32507836310657e-05 3.89515687876258e-05)
(5.40916438486887e-07 9.06972282500312e-05 4.95937808561101e-05)
(8.63981738109803e-08 9.74566673900158e-05 5.92216812554333e-05)
(7.55865678215586e-08 0.000100592805634298 6.5813368224557e-05)
(-4.64810130946257e-05 0.000502359199908428 9.85501335816465e-06)
(-5.49955214212478e-07 0.000104726924626739 1.47562143244445e-05)
(3.58914523896465e-06 6.67125426518682e-05 2.38552837244372e-05)
(2.30094863511957e-06 6.94577058353346e-05 3.44045424797671e-05)
(7.20902371274638e-07 7.85735126042407e-05 4.50742979696294e-05)
(-1.59063462801138e-07 8.70782689456369e-05 5.51283702847834e-05)
(-2.80744169523303e-07 9.39065961892279e-05 6.41932912541786e-05)
(-1.11227979409482e-07 9.73172173708973e-05 7.03047471536648e-05)
(-5.50579706814964e-05 0.000477455570638895 8.58058359565912e-06)
(-2.63694494074875e-06 8.8518326429617e-05 1.19196515756951e-05)
(3.24405251010642e-06 5.18062704410652e-05 1.97277720196479e-05)
(2.49909143793677e-06 5.52376988295587e-05 2.93319801867941e-05)
(8.91602818727553e-07 6.54069425974806e-05 3.96270130719939e-05)
(-2.2112046852878e-07 7.53987756290428e-05 4.98984554992567e-05)
(-6.58574478739765e-07 8.37344843855306e-05 5.94942641404933e-05)
(-5.43949887591994e-07 9.02603690836912e-05 6.80915436620435e-05)
(-2.18253075079864e-07 9.35040678622798e-05 7.37991516783215e-05)
(-6.38996012463212e-05 0.000454344918248729 7.31189163033138e-06)
(-5.30019968968704e-06 7.28474517705231e-05 9.02192151915254e-06)
(2.48500245663226e-06 3.7309414346871e-05 1.54414342043346e-05)
(2.45891717465251e-06 4.12015807153411e-05 2.39523101727849e-05)
(1.0280874063678e-06 5.19372371092455e-05 3.35857326177338e-05)
(-2.11880529167523e-07 6.28855407254147e-05 4.37061359144583e-05)
(-8.72014836629613e-07 7.25275154269066e-05 5.36622438621721e-05)
(-9.73655214143256e-07 8.03868568790698e-05 6.28721953949818e-05)
(-7.12742198427214e-07 8.63620169533857e-05 7.105453597633e-05)
(-2.60712933339841e-07 8.91143223717957e-05 7.63977821815561e-05)
(-7.33230321958511e-05 0.000433680939020432 5.18743746773534e-06)
(-8.62818001578451e-06 5.78242038501115e-05 5.80437596291022e-06)
(1.31212255151327e-06 2.33845525366591e-05 1.09096543820745e-05)
(2.15873072992182e-06 2.76721073720944e-05 1.83248066518896e-05)
(1.06014929629324e-06 3.87271198831722e-05 2.71810954856273e-05)
(-1.59202446890972e-07 5.01989482864129e-05 3.68702415801717e-05)
(-9.83253336289274e-07 6.07002426933687e-05 4.68317864856315e-05)
(-1.29123826465395e-06 6.97176471514071e-05 5.64990087925719e-05)
(-1.16542005583908e-06 7.69065642825015e-05 6.5361123177989e-05)
(-7.85122318451396e-07 8.21192825609917e-05 7.31717070877274e-05)
(-2.71979010176323e-07 8.41507321989569e-05 7.81633911310568e-05)
(-1.18612164302224e-06 0.000548929158392622 1.63827092966984e-05)
(-6.73463471290846e-06 0.000643579062738457 1.87060924429283e-05)
(1.00008340406659e-06 0.000159686778273266 2.61403466588989e-05)
(-1.17226590340063e-05 0.000632660031328496 1.83971431973008e-05)
(1.40764602347014e-06 0.000183371882803552 2.73797736598584e-05)
(9.72537285558269e-07 0.000125608277260583 3.78527554686973e-05)
(-1.76679760750169e-05 0.000617732358036905 1.72615515412381e-05)
(2.14557424375199e-06 0.000175763763981221 2.61752125434654e-05)
(1.46805553239198e-06 0.000129246344577327 3.84849798244961e-05)
(8.27710319073513e-07 0.000119680309573187 4.84990210165374e-05)
(-2.45548855745387e-05 0.0005992888565355 1.55396240228851e-05)
(2.24423662717371e-06 0.00016284725462169 2.41967330914966e-05)
(2.44416748809895e-06 0.000118818703694742 3.63075390999354e-05)
(9.55713982682531e-07 0.000116711050246608 4.85404801454535e-05)
(6.05209814098721e-07 0.000116679347799091 5.73164833128507e-05)
(-3.21619601449966e-05 0.000576657366609451 1.37091673743551e-05)
(1.84888763415565e-06 0.000147340639985117 2.15065087298429e-05)
(3.12908182014616e-06 0.00010530294545894 3.32722109644217e-05)
(1.43597109055041e-06 0.000105366199403861 4.55408168331998e-05)
(4.5899899275398e-07 0.000111251687600877 5.67239243991854e-05)
(3.17494948677877e-07 0.000113749484511475 6.46001858024625e-05)
(-4.0325226187488e-05 0.000550865399907092 1.19290492851279e-05)
(8.57399797673283e-07 0.000130558544696982 1.85438687761354e-05)
(3.53252001207895e-06 9.00116418962834e-05 2.95086628298842e-05)
(1.89231729302373e-06 9.19015825247394e-05 4.15032226724463e-05)
(4.48417988303352e-07 9.98518876954744e-05 5.29457434596214e-05)
(1.13663880805401e-08 0.000107063062148349 6.33194022422664e-05)
(5.0736567650807e-08 0.000110492975488516 7.05363574985177e-05)
(-4.89910434864548e-05 0.000523910876578446 1.01947055015372e-05)
(-7.82013339847444e-07 0.000113327956607123 1.54999183949953e-05)
(3.56010208065949e-06 7.40852834662151e-05 2.53050927645965e-05)
(2.21137449594241e-06 7.71250430264623e-05 3.66159765661935e-05)
(5.84411902691147e-07 8.67934488234435e-05 4.80539672696461e-05)
(-2.9787200661738e-07 9.58170901024149e-05 5.88361353740798e-05)
(-3.77116892840853e-07 0.000103067697561005 6.85850573948069e-05)
(-1.43963801599209e-07 0.000106741841615559 7.52681581302198e-05)
(-5.81718367356149e-05 0.000497695750263285 8.59277315881451e-06)
(-3.07822420399515e-06 9.62286360999319e-05 1.24515874887088e-05)
(3.13297759178839e-06 5.82650664743822e-05 2.0931793328021e-05)
(2.35874673623954e-06 6.19625632939136e-05 3.12302430602058e-05)
(7.00543633781879e-07 7.26932918180386e-05 4.22451106570304e-05)
(-4.21510942935426e-07 8.32446923332814e-05 5.32194344053168e-05)
(-8.30423734888394e-07 9.20564882782319e-05 6.34863407502513e-05)
(-6.54740310491772e-07 9.89518743683307e-05 7.27165445861197e-05)
(-2.55334515067623e-07 0.000102406552210689 7.89493976080189e-05)
(-6.76841480847675e-05 0.000473515493386145 7.3816876461518e-06)
(-6.00941484847063e-06 7.97161340289874e-05 9.6316657207586e-06)
(2.24233952638772e-06 4.29345294990293e-05 1.65407197826193e-05)
(2.24576279984212e-06 4.70447978950957e-05 2.56317946464073e-05)
(7.74686132709047e-07 5.8316918084246e-05 3.59002648849685e-05)
(-4.81797748351899e-07 6.98342850401309e-05 4.66737824083042e-05)
(-1.1183716919556e-06 7.99889864515471e-05 5.72791434852184e-05)
(-1.16578971798063e-06 8.82663703294363e-05 6.71110197171805e-05)
(-8.32289812446048e-07 9.45493476630168e-05 7.58776116523004e-05)
(-2.98994461964882e-07 9.74552632838364e-05 8.17017707117678e-05)
(-7.73050542932598e-05 0.000451762257924684 6.22536197974233e-06)
(-9.53573000753905e-06 6.40442503538952e-05 6.8670793933097e-06)
(9.27812823629489e-07 2.82726738151674e-05 1.21327748658738e-05)
(1.85434479933188e-06 3.26858236353628e-05 1.99339433659256e-05)
(7.41203864025831e-07 4.42126658187177e-05 2.92924956562095e-05)
(-4.93221884554377e-07 5.62338797049691e-05 3.95560902752446e-05)
(-1.30253205689084e-06 6.72659535113098e-05 5.01259917259576e-05)
(-1.56242671406739e-06 7.67451058621553e-05 6.04014581441748e-05)
(-1.36453574387197e-06 8.43005830067153e-05 6.98424789700545e-05)
(-9.03756627468238e-07 8.97651169165324e-05 7.81896379812309e-05)
(-3.09458038458769e-07 9.19007672381461e-05 8.3617510009422e-05)
(-8.75408080257483e-05 0.000432859977698952 3.91484826282191e-06)
(-1.37589903646233e-05 4.91439817070897e-05 3.70280749438219e-06)
(-8.29497724228282e-07 1.43484677598585e-05 7.57630106535451e-06)
(1.19630669827119e-06 1.90454425924337e-05 1.41435613342366e-05)
(5.68612354894394e-07 3.07056234609343e-05 2.25449746643895e-05)
(-5.15524574652347e-07 4.2959514824961e-05 3.21297612293989e-05)
(-1.3877813072991e-06 5.44680320901415e-05 4.23562358244711e-05)
(-1.82686558867039e-06 6.47502924700306e-05 5.27121559557164e-05)
(-1.80673773024899e-06 7.34067086962684e-05 6.26722234034164e-05)
(-1.44639678670685e-06 8.00716106173345e-05 7.17487118569764e-05)
(-9.11026268067903e-07 8.45582749975435e-05 7.97052014584111e-05)
(-2.99862907668185e-07 8.57917503817409e-05 8.47580771746011e-05)
(-1.19317454906187e-06 0.000577455475791646 1.7632312068977e-05)
(-6.97684794128531e-06 0.000674554940936126 1.99885908920819e-05)
(1.06078251205106e-06 0.000173626204255718 2.8279237526195e-05)
(-1.2212725969238e-05 0.000662333057297491 1.95922125548407e-05)
(1.50400461362857e-06 0.000197718687804751 2.94087086393028e-05)
(1.01290815630416e-06 0.000138119886787544 4.0923269948916e-05)
(-1.84410807593647e-05 0.000646009854957172 1.83710513111276e-05)
(2.29801081387177e-06 0.000189273304420214 2.8014632182995e-05)
(1.5282206841648e-06 0.000141383797129438 4.13735593131125e-05)
(8.48280305387168e-07 0.000131743340937472 5.23627934168036e-05)
(-2.55779225954219e-05 0.000626036458895718 1.64456442691799e-05)
(2.41169831533117e-06 0.000175310711248577 2.58962259750606e-05)
(2.54066348272362e-06 0.000130039210568735 3.89113703983155e-05)
(9.54086417223262e-07 0.000128135045009506 5.21542561501925e-05)
(6.07804100908107e-07 0.000128351896691455 6.17875445510605e-05)
(-3.36090795952968e-05 0.000601957012881909 1.44448029018773e-05)
(1.95741386078005e-06 0.000158689304518648 2.28857395891269e-05)
(3.22265756255295e-06 0.000115485196178865 3.55601185187485e-05)
(1.42259282507195e-06 0.00011583662460408 4.87923733482915e-05)
(4.10592769628635e-07 0.000122186411458843 6.08841648730654e-05)
(3.03869152873365e-07 0.000124996898677882 6.95243123799562e-05)
(-4.224470673418e-05 0.000574713239426217 1.25331241757209e-05)
(8.7079011203008e-07 0.000140794405747088 1.96526973236237e-05)
(3.60354645181256e-06 9.90859116425511e-05 3.14596621586709e-05)
(1.85543416219158e-06 0.000101328264107996 4.43636760153035e-05)
(3.54458115225231e-07 0.000109827138549043 5.66887566574115e-05)
(-6.77050982124365e-08 0.000117523642477344 6.78853066072939e-05)
(2.41605505066787e-08 0.000121266669494796 7.57917091003556e-05)
(-5.14210401633378e-05 0.000546384706299629 1.06634347497783e-05)
(-9.10027413418472e-07 0.000122498912865104 1.63739605528656e-05)
(3.58551655143225e-06 8.20629494455994e-05 2.69339496688286e-05)
(2.14085043199868e-06 8.54622316554836e-05 3.90817648735932e-05)
(4.4742652203074e-07 9.57432895304061e-05 5.13649650057277e-05)
(-4.43009823068562e-07 0.000105330050339113 6.29501854105559e-05)
(-4.77936854002659e-07 0.000113034410030541 7.34505997146108e-05)
(-1.79081164322999e-07 0.000116989575312391 8.07613731666698e-05)
(-6.11703936822032e-05 0.000518915122785999 8.88043260748101e-06)
(-3.39855000851764e-06 0.000104431032237975 1.31006316080536e-05)
(3.0855881468623e-06 6.52193558661471e-05 2.22690091043972e-05)
(2.24083006071017e-06 6.92439827602832e-05 3.33257026757732e-05)
(5.12235754179955e-07 8.0601963811619e-05 4.51320861636497e-05)
(-6.27769111264412e-07 9.17703934589545e-05 5.68802134717175e-05)
(-1.00897068646531e-06 0.000101102359352147 6.78846686353674e-05)
(-7.70370063022713e-07 0.000108397827381266 7.78066819463577e-05)
(-2.9491949362368e-07 0.000112078334867655 8.46123098596855e-05)
(-7.1298967336081e-05 0.000493475872549412 7.42234273773064e-06)
(-6.57716354798749e-06 8.70225835394963e-05 1.00756318886078e-05)
(2.08905930515145e-06 4.89639375896819e-05 1.76303250866012e-05)
(2.07041556722257e-06 5.33504661637591e-05 2.74029734127805e-05)
(5.31586699700398e-07 6.52299390744616e-05 3.83963267501682e-05)
(-7.53491502622552e-07 7.73793773546867e-05 4.98984273611482e-05)
(-1.37119135116976e-06 8.80978372320416e-05 6.12195598225761e-05)
(-1.36448681011179e-06 9.68310739143471e-05 7.17342005433316e-05)
(-9.56031880000346e-07 0.000103444932722547 8.11399380467543e-05)
(-3.39615852944731e-07 0.000106509218957312 8.7488119805342e-05)
(-8.15861293374552e-05 0.000470751854241485 6.30825779389728e-06)
(-1.04122923000715e-05 7.05363776240669e-05 7.42469616446952e-06)
(6.16421359782446e-07 3.34729244906261e-05 1.31226725866488e-05)
(1.59086429122686e-06 3.81038796797317e-05 2.14864117815404e-05)
(4.34077274899441e-07 5.01923439757297e-05 3.14755501077693e-05)
(-8.31046152969553e-07 6.28299203926356e-05 4.24011975917609e-05)
(-1.6320122958319e-06 7.44405851834217e-05 5.36466279656793e-05)
(-1.84517257962914e-06 8.44164041391273e-05 6.45887651576162e-05)
(-1.57464840686516e-06 9.23578503168601e-05 7.4662898206644e-05)
(-1.03072724419944e-06 9.80794996531614e-05 8.3596776520394e-05)
(-3.49386707834163e-07 0.00010030619751067 8.94995967391356e-05)
(-9.2098272913833e-05 0.000450910565895503 4.73737396870771e-06)
(-1.48599654859521e-05 5.50225343300118e-05 4.73758939890528e-06)
(-1.30751185399055e-06 1.88327579167486e-05 8.70358018535662e-06)
(8.28762276157667e-07 2.36415568324007e-05 1.56294842490905e-05)
(1.91191511219613e-07 3.57860464628146e-05 2.45229510708189e-05)
(-9.13151577099478e-07 4.86174634726498e-05 3.46818398997273e-05)
(-1.78294970938201e-06 6.06994446799597e-05 4.55286308918459e-05)
(-2.18641847692244e-06 7.15032756723237e-05 5.6521185886626e-05)
(-2.10041159420041e-06 8.05946734899216e-05 6.71049641504477e-05)
(-1.65626613907156e-06 8.75820962992045e-05 7.67661312022232e-05)
(-1.03332916328305e-06 9.22610757759551e-05 8.52574185327882e-05)
(-3.37924430970546e-07 9.3529667974367e-05 9.07353196470201e-05)
(-0.000102974811960945 0.000433576022383251 2.95146144373634e-06)
(-1.99963749282302e-05 4.03433002757664e-05 1.70729603934163e-06)
(-3.67938569106641e-06 5.04911737483441e-06 4.21896290055443e-06)
(-2.0742105332798e-07 1.0071490395284e-05 9.81154003396301e-06)