/*--------------------------------*- C++ -*----------------------------------*\
  =========                 |
  \\      /  F ield         | OpenFOAM: The Open Source CFD Toolbox
   \\    /   O peration     | Website:  https://openfoam.org
    \\  /    A nd           | Version:  12
     \\/     M anipulation  |
\*---------------------------------------------------------------------------*/
/*   Windows 32 and 64 bit porting by blueCAPE: http://www.bluecape.com.pt   *\
|  Based on Windows porting (2.0.x v4) by Symscape: http://www.symscape.com   |
\*---------------------------------------------------------------------------*/
FoamFile
{
    format      ascii;
    class       volScalarField;
    location    "100";
    object      k;
}
// * * * * * * * * * * * * * * * * * * * * * * * * * * * * * * * * * * * * * //

dimensions      [0 2 -2 0 0 0 0];

internalField   nonuniform List<scalar> 
10252
(
0.000479294031353963
0.000479345621019573
0.00048116316826629
0.00135963665025519
0.000479453966360353
0.000481254188402738
0.00135949350925212
0.00048360128711798
0.0013609601483647
0.0019887057550682
0.000479648105409674
0.000481374629773423
0.00135951009323119
0.000483717610986187
0.00136085886522297
0.00198833713500021
0.000481280115675334
0.00135973508926301
0.00198846310278069
0.00249321204119709
0.000479931044373249
0.000481571965365576
0.00135972826853628
0.000483846827525952
0.00136088792803115
0.00198815885925899
0.000481401997566053
0.00135965825670072
0.00198814994936404
0.00249261695970594
0.000472716724994885
0.00134974752408836
0.00198021136870987
0.00249165389988
0.00292448871308164
0.000480300456000795
0.000481861909337172
0.00136014328222796
0.000484046607780148
0.00136110951843694
0.00198824319622448
0.000481531474742805
0.00135969819306466
0.00198798550693721
0.00249222243408011
0.000472834817348893
0.00134967416011152
0.00197993132180993
0.00249112804807389
0.00292367588687003
0.000459670029794248
0.00132740799148056
0.00196050131169972
0.00247774141919606
0.00292102420667988
0.00330230985755663
0.00048075561635453
0.000482242337725411
0.00136074900729238
0.000484334030097959
0.00136152582315897
0.00198858397080285
0.000481724677710499
0.00135992154323816
0.00198807092509996
0.00249212699865873
0.000472963894409866
0.00134971694332722
0.00197977908402816
0.00249075027253472
0.00292306678451409
0.000459779484242245
0.00132731964434473
0.00196022301864599
0.00247725987566599
0.00292029330850275
0.00330129441167343
0.000444129162112287
0.00129401298355246
0.00192698994199621
0.00244939746846413
0.0029019584040554
0.00329654805264473
0.00363610341625533
0.00048129604842854
0.000482711841299084
0.00136153910767532
0.000484714506054018
0.00136213269884742
0.00198916987141862
0.000482005465920164
0.00136033448628007
0.00198840870305862
0.00249232568588259
0.000473147394009339
0.0013499328699086
0.00197986368544172
0.00249065525516483
0.002922780454686
0.00045990261837491
0.00132735879708476
0.00196006845499033
0.00247689893829015
0.00291970478693441
0.0033004828184556
0.000444220295925237
0.00129389915002838
0.00192669127284629
0.00244892138273959
0.00290128224690818
0.00329562609592438
0.00363490451925732
0.000426738855372149
0.00125246876849115
0.00188041199624203
0.00240585345918583
0.00286589248704731
0.00327259813515544
0.00362846772451442
0.00393157272104354
0.000481918261799501
0.00048326998028732
0.00136250205195803
0.000485186270530965
0.00136292451265022
0.0019899874010302
0.000482379842031514
0.00136093543057476
0.00198898993038674
0.00249280283348113
0.000473417513042319
0.00135033197607532
0.00198019352587511
0.00249084892988161
0.00292281316715341
0.000460074346196065
0.00132755805955402
0.00196014161060274
0.00247680331446487
0.00291941972929908
0.00330000949693377
0.000444330853073814
0.00129392349297827
0.00192651690666638
0.00244856022848779
0.00290071602825798
0.00329483911881609
0.00363390738642261
0.000426802229432475
0.0012523186652914
0.00188007968742569
0.00240535589221519
0.00286522655383561
0.00327174051074856
0.00362737215663152
0.00393021209317641
0.000407177454326337
0.00120429074065985
0.00182268447201578
0.00234813476581946
0.00281325405487171
0.0032297003980498
0.00360055177208849
0.00392279200969099
0.00419288498271315
0.000482617555965229
0.000483912143547401
0.00136361652454424
0.000485753202907435
0.0013638901589779
0.00199101530070138
0.000482845517539081
0.00136171986196725
0.00198980169836013
0.00249353821318152
0.00047377720876992
0.00135091443506374
0.00198076195154769
0.00249131862653567
0.0029231457873831
0.00046032641725214
0.00132793129877404
0.0019604517486237
0.00247698698229132
0.00291944717179892
0.00329987144265099
0.000444489169461755
0.00129409725813735
0.0019265636724182
0.00244845258144702
0.00290043232205628
0.00329436876388861
0.00363325873437159
0.00042688902305841
0.00125231291678135
0.00187987116481533
0.0024049733540014
0.00286466415775146
0.00327098135442648
0.00362640342715463
0.00392904927450322
0.000407213046986163
0.00120409419658203
0.00182231045352364
0.00234760091241653
0.00281256791931592
0.0032288583077466
0.00359952895280108
0.00392154245517818
0.00419138550856198
0.000384981611914586
0.00114941914869205
0.00175482361565881
0.00227758340760703
0.00274558230440183
0.00316911412298229
0.003552151722021
0.00389211593134558
0.00418349360725327
0.00442321821950505
0.000483372935490738
0.000484628815204561
0.00136485093535029
0.000486403950549196
0.00136500795831379
0.00199221890225455
0.00048340473331525
0.00136267659172542
0.00199082269012621
0.00249450165902383
0.000474225258580665
0.001351675810721
0.00198155653246974
0.00249204486148719
0.00292375244139103
0.000460663560030443
0.00132847944027397
0.00196099287225306
0.00247744016144639
0.00291977154799844
0.00330004678117556
0.000444720803773364
0.00129443303314525
0.00192683843156434
0.00244861386231261
0.00290044978785914
0.00329422622715472
0.00363295497359987
0.000427026052479431
0.00125245871604384
0.00187987727475161
0.00240483638897771
0.00286437019129119
0.00327051510300335
0.00362575920694647
0.00392824018277544
0.000407268947445616
0.00120404371398888
0.00182205805152312
0.00234718035850326
0.00281198595758334
0.00322810758312391
0.0035985930073276
0.00392041097371857
0.00419007788048372
0.000384989815443076
0.0011491739372691
0.00175440443756636
0.00227700550273848
0.00274486021143698
0.0031682545888903
0.00355114965122763
0.00389094585541784
0.00418211073430581
0.00442160214128318
0.000359868966599163
0.00108722684728918
0.00167678447035659
0.00219469261476184
0.00266399365532299
0.00309276498814438
0.0034850455184735
0.00383964231981585
0.00415101524308698
0.00441348279181057
0.00462503482005563
0.00048415678249303
0.000485400524018531
0.00136614639752457
0.000487127610272449
0.00136624225690856
0.00199353939348114
0.000484045557179188
0.0013637824885307
0.00199201729262408
0.00249564644442795
0.000474759929567686
0.00135260394665557
0.00198255549159376
0.00249299749312372
0.00292459542648333
0.000461084121300433
0.0013291976855962
0.0019617523349452
0.00247814392723421
0.00292036795756235
0.00330050469887834
0.000445030109490027
0.00129493238646841
0.00192733406942043
0.00244903507576827
0.00290075642644505
0.00329439351849447
0.0036329712314274
0.000427234165139828
0.00125275020404171
0.00188010121471257
0.0024049580024166
0.00286436517644039
0.00327036383624405
0.00362545170583489
0.00392777999638714
0.000407371904362585
0.00120414909434935
0.00182201223341595
0.00234699764521963
0.00281166326866966
0.00322763387908706
0.0035979554766761
0.00391960737178598
0.00418912425899461
0.000385017010840979
0.00114906876022833
0.00175410319718581
0.00227653643385345
0.00274424071146695
0.00316748744463145
0.00355022654612856
0.00388985107372883
0.00418083644477063
0.00442017009744479
0.000359849012457084
0.0010869320869929
0.00167631602036933
0.00219406724712147
0.00266322822855304
0.00309187148058724
0.0034840292833399
0.00383849744663082
0.00414971676203909
0.00441198706540972
0.00462332298365285
0.000331699957607073
0.00101713530765367
0.00158808198160478
0.00209922929843631
0.00256863220444721
0.00300167302041299
0.00340140233442976
0.00376742568209273
0.00409560813638552
0.00437980094501009
0.00461506088530527
0.00480039013564409
0.00048492629698237
0.000486198713982343
0.00136742310468226
0.000487904363519135
0.00136753706317096
0.0019948989901842
0.000484758951152179
0.00136499984678857
0.00199332899560838
0.00249690048332464
0.000475375252772057
0.00135367443155464
0.0019837222693294
0.00249412936744976
0.00292561825440059
0.000461587073176069
0.00133007342907337
0.00196270749918976
0.00247906771142399
0.00292119885462337
0.0033012013477828
0.000445415930644207
0.00129559045132767
0.00192803700175681
0.00244969708287441
0.00290132818921945
0.00329484121152916
0.00363327315344437
0.000427512979508767
0.00125319017563105
0.00188053385795156
0.00240532789803614
0.00286463824265637
0.0032705136644341
0.00362546056689609
0.00392764160482186
0.000407548444519036
0.00120439398432894
0.0018221730213413
0.00234706251118175
0.00281161783601687
0.00322746150454248
0.00359764068011364
0.00391914414073286
0.00418851949351987
0.000385085134278656
0.00114911384070522
0.00175399842120389
0.00227629570517937
0.00274387190880595
0.00316698726524809
0.00354958446803475
0.00388905619590657
0.00417988929525146
0.00441908872329513
0.000359847090356578
0.00108677034386658
0.00167596222730794
0.00219354435280817
0.00266256039697997
0.00309106910926666
0.0034830932350113
0.00383741921002165
0.00414848199066413
0.00441058979592263
0.00462178609529077
0.000331654969372031
0.00101679456296946
0.00158756243784009
0.00209855656022041
0.00256782094106645
0.00300073843957863
0.00340035478730486
0.00376626971156245
0.00409433828244363
0.00437839297363119
0.00461347178637987
0.00479860185621286
0.000300439524072264
0.000938768112115335
0.00148819424129381
0.00199070255782165
0.00245906337419317
0.00289576415433094
0.00330223395374932
0.00367780342404068
0.00401943957482349
0.00432225408052544
0.00458052701816591
0.00479021872168543
0.00495121041105103
0.000485627120626184
0.000486987041868778
0.00136856918944531
0.000488705480373961
0.00136881224392472
0.00199618082881192
0.000485525858402957
0.00136627199295811
0.00199467679667977
0.00249816303983792
0.000476059918415817
0.00135484840149259
0.00198499986964269
0.00249536912915422
0.00292673757121951
0.000462166254056451
0.00133108215894796
0.00196382060767227
0.00248016352923366
0.00292220756458766
0.00330207168294193
0.000445878743662309
0.00129639438319602
0.00192892351692265
0.00245056836322952
0.0029021272265369
0.00329552561058704
0.00363381149675957
0.00042786040941843
0.0012537748204297
0.00188116026640825
0.00240592580038398
0.00286516527842987
0.00327093630158574
0.00362575267015075
0.00392778719075102
0.000407793294232722
0.0012047697592678
0.00182252858511099
0.0023473624032332
0.00281183748900506
0.00322757802373348
0.00359763291309132
0.0039189987836892
0.00418823380227033
0.000385218487419164
0.00114929808632279
0.00175408723650087
0.00227629021796023
0.00274376836008898
0.00316677564093941
0.00354925039050063
0.00388858688419542
0.0041792818542347
0.00441835206951012
0.000359879046446872
0.0010867484915787
0.00167579558582814
0.0021932383371601
0.00266213302132295
0.00309052460533832
0.00348242745676407
0.00383662230166885
0.0041475450984262
0.00440951551072602
0.00462059329509478
0.00033162478525411
0.00101657871921899
0.00158715012686024
0.00209797885583846
0.0025670999270424
0.00299988999886788
0.00339938646671649
0.00376518175986526
0.00409312291859842
0.00437703716692081
0.00461197064386464
0.00479697850291072
0.000300375927948882
0.000938388576645224
0.00148762928282025
0.00198998643496056
0.0024582077781858
0.00289478676344049
0.00330114818439808
0.0036766188235362
0.00401816116654063
0.00432087719301559
0.00457902777750793
0.00478855428461507
0.00494936266856409
0.000266128264274499
0.000851922121123658
0.00137672289138237
0.00186864635204245
0.00233472346165534
0.00277443914825075
0.0031873594350796
0.00357184636530715
0.00392496967823293
0.00424301893716166
0.00452138526298902
0.00475505720870441
0.00494086585858499
0.00507946080950764
0.00048618714152524
0.00048771297939442
0.00136943488692308
0.000489494377955247
0.00136995547809383
0.00199722425072564
0.000486312164844372
0.00136751748327671
0.00199594416803896
0.00249929019778681
0.000476795501933601
0.00135606804928729
0.00198630521677828
0.00249661470089804
0.00292783440415134
0.000462809578085901
0.00133218414312224
0.00196503320214339
0.00248135922889483
0.00292331059765969
0.00330302273815286
0.000446411647379617
0.00129731937373868
0.00192995472219224
0.0024515996341846
0.00290309600890078
0.00329638193948066
0.00363451474271913
0.000428276120193094
0.00125449163461403
0.00188195549226634
0.00240671872044848
0.00286590753576615
0.0032715878424027
0.00362627912056608
0.00392816302421945
0.00040809993574203
0.00120527346252255
0.00182306240937487
0.00234787530638605
0.00281229692587138
0.00322795524228863
0.00359790029163233
0.00391913487745859
0.00418822640507034
0.000385415078088645
0.00114960948562788
0.00175435579262886
0.00227650497083768
0.00274391554086232
0.00316683894172001
0.00354921037883835
0.00388842566995815
0.00417898949484898
0.0044179279175296
0.000359968266244075
0.00108685411452105
0.00167580768496088
0.00219315328972864
0.00266195761096085
0.00309025588545182
0.00348205615354662
0.00383613545801321
0.004146932459846
0.00440877646147127
0.00461973771367075
0.000331620968336026
0.00101648889519745
0.00158691349945986
0.00209760494175604
0.00256660698715042
0.00299928875518203
0.00339867904910151
0.00376436388213383
0.00409218602962123
0.00437597420072701
0.00461078543069012
0.00479568993632825
0.000300323851322942
0.000938124471075753
0.00148716214966381
0.00198935723675849
0.00245743375081141
0.00289388793760624
0.00330013682361123
0.00367550164116906
0.00401693882537893
0.00431954289264069
0.00457756934637318
0.00478696721267185
0.00494766938518614
0.0002660498789754
0.000851515304528356
0.00137612307008962
0.00186789137795533
0.00233382911796711
0.00277342146596767
0.00318623435013565
0.00357062647920667
0.0039236650708346
0.00424163549329467
0.00451991874998043
0.00475348367677143
0.00493914220539862
0.00507756841442045
0.000228727573740553
0.000756459669917705
0.00125341296877704
0.00173270922313534
0.00219512887359403
0.00263704170367678
0.00305606790335712
0.00344934875026199
0.00381335216514297
0.00414463381955073
0.004439760758144
0.00469471673531002
0.00490524401540969
0.00506896678874391
0.00518720403063721
0.000486498940402131
0.000488289278051033
0.00136981635557858
0.000490220134477822
0.00137081458976123
0.00199781382825711
0.000487082015082979
0.00136862272067982
0.00199697003085037
0.00250008521955083
0.00047754530092393
0.00135724990664419
0.0019875202819691
0.0024977219889229
0.00292874274585029
0.000463498261177103
0.00133332060289456
0.0019662603004436
0.00248255093472968
0.0029243886363196
0.00330392079842932
0.000447002416699747
0.00129832504787788
0.00193107061276995
0.00245271712097776
0.00290414987360587
0.00329731642195991
0.003635280032285
0.000428754381244859
0.00125531559979633
0.00188287943541896
0.00240765582615798
0.00286680605862397
0.00327240271882559
0.00362696836328316
0.003928691623159
0.000408464943799346
0.00120589296825731
0.00182374834283075
0.00234856648268108
0.00281295590357805
0.00322854839614218
0.00359839377313639
0.00391949905926521
0.00418843963613961
0.000385671730497162
0.00115003114937894
0.00175478560625397
0.0022769160060508
0.00274428626880207
0.0031671477897916
0.00354943274399291
0.0038885374811187
0.00417897285189079
0.00441777319005392
0.000360113046442021
0.00108707744423367
0.00167598284907318
0.00219327212562759
0.00266201715013787
0.00309024695473411
0.0034819642830749
0.003835943240808
0.004146624861873
0.00440834603964253
0.00461918560633044
0.000331666467249769
0.00101651063102656
0.0015868445680563
0.00209743579428885
0.00256635089077999
0.00299894936780576
0.00339825287837904
0.00376384206360569
0.00409155737921231
0.0043752306223108
0.00460992783639542
0.00479472871313632
0.000300287841636754
0.000937970222991764
0.00148685504223295
0.00198891693146504
0.00245687341135125
0.00289322344645003
0.0032993755631204
0.00367464507618341
0.00401598343353564
0.00431848151603069
0.00457639620855342
0.00478568672451592
0.00494630022732795
0.000265987826540973
0.000851213787932482
0.00137561068399067
0.00186721363520624
0.00233300699480164
0.00277247331720867
0.00318517615169671
0.00356946951844135
0.00392241632916837
0.00424029643796176
0.00451848328556606
0.00475193998738264
0.00493748554165885
0.00507582004436383
0.000228638395573179
0.000756039721992108
0.00125279267347241
0.00173192729708263
0.00219420513860499
0.00263599052827366
0.00305490689022132
0.00344809308727451
0.00381201508012544
0.00414322629698572
0.00443828922027213
0.00469317691492316
0.00490361151944896
0.0050671979812352
0.00518527944851415
0.00018811654702431
0.000652162101075647
0.00111810635483406
0.00158268138909846
0.00203995752109524
0.00248304727412289
0.00290761978845852
0.00330953534756937
0.00368439448892989
0.00402832506680602
0.00433822487257435
0.00461123669682412
0.00484401548586035
0.00503302333721965
0.00517658533942148
0.00527658483400416
0.000486437337335599
0.000488635115927446
0.00136945731079623
0.000490778346417026
0.00137118494251764
0.00199766798223195
0.000487782352406421
0.00136943356467081
0.0019975383238907
0.00250028619890037
0.00047827797298862
0.00135827888367597
0.00198848247689518
0.00249849388809479
0.0029292373246264
0.000464194748184558
0.00133440593510656
0.00196738178834174
0.0024835929729697
0.00292527545842927
0.00330458171012158
0.000447631296985363
0.00129935111037454
0.00193218443408418
0.00245381484701619
0.00290516803790159
0.00329819561945975
0.00363596245094209
0.00042928271256831
0.00125620572280038
0.00188387111442613
0.00240866151231123
0.00286777435234575
0.00327328574260978
0.00362771742982984
0.00392926228535436
0.000408883714171837
0.00120660330943982
0.00182454519850505
0.00234938346169858
0.00281375368148932
0.00322929042694877
0.00359904093464125
0.00392001384233453
0.00418879079534611
0.000385984766297316
0.00115054953204487
0.00175534929960654
0.00227748683371418
0.00274483844645661
0.00316765588722707
0.00354986759265366
0.00388886881041346
0.00417917461864241
0.00441782636467874
0.000360310982319468
0.00108740805783718
0.00167630149541894
0.00219356893438797
0.00266228238048531
0.00309046648312843
0.00348211899474719
0.00383601085540025
0.00414658435702953
0.00440818226456361
0.00461889055371103
0.000331758490837011
0.00101663518987909
0.0015869238783324
0.00209745245013943
0.00256631238644796
0.00299885333508113
0.00339809051379653
0.00376359983700267
0.00409122000727299
0.00437478552698656
0.00460936955001384
0.00479405913651315
0.000300290049478888
0.000937910098761994
0.00148669760046744
0.00198866322693743
0.00245653275340674
0.0028928051057944
0.00329888132687636
0.00367407113456754
0.00401532202989824
0.00431772323960919
0.00457553465137752
0.00478472378290238
0.00494524622905668
0.000265929906383836
0.000851002954629931
0.00137524002028381
0.00186670844788029
0.00233238237021023
0.00277174458852459
0.00318435505704856
0.00356856244601864
0.00392142516547196
0.00423921871296317
0.00451731296632693
0.0047506720998194
0.00493612462514064
0.00507438373816652
0.000228577293037094
0.000755716751431884
0.00125224913055775
0.00173121196912608
0.00219334401346444
0.00263499908225042
0.0030538037289357
0.00344689308733025
0.00381072976351558
0.00414186336779047
0.00443685076220217
0.00469165712897154
0.00490199848646723
0.00506548626357093
0.00518348866247437
0.000188046644868687
0.00065174798398091
0.00111748374639985
0.00158188888036312
0.0020390157759254
0.0024819735958473
0.00290643067230773
0.00330824804307293
0.00368302504866232
0.00402688766598042
0.00433673109294641
0.00460969301108119
0.00484241718245437
0.00503134530239981
0.00517478322580615
0.00527463792015775
0.000146798893921182
0.00053895263672489
0.000970760106946934
0.00141846377667185
0.00186903397216862
0.00231210992798964
0.00274143345489735
0.00315159846895377
0.00353728450101563
0.00389391923732621
0.00421805098278675
0.00450718258865149
0.00475911429646348
0.00497116213664997
0.00514043761921228
0.00526586561101352
0.00534977807637069
0.000485895254654387
0.000488568746554017
0.00136803959544354
0.000491092540281359
0.00137080930897861
0.00199643080513081
0.000488316525841205
0.00136974169602535
0.00199736687355902
0.00249955414468915
0.000478941875508969
0.00135899835156418
0.00198897402832696
0.00249866810570103
0.00292901990211619
0.000464866300617466
0.00133532357418219
0.00196823308497253
0.0024842866907657
0.00292574550175626
0.00330475665827078
0.000448263229275098
0.00130031114842061
0.00193317419635208
0.00245474496798935
0.00290598274986274
0.00329883513975337
0.00363636247731208
0.000429842816398902
0.00125710082890519
0.00188484191128161
0.00240962774735794
0.00286868950364753
0.00327410215060189
0.00362838124792828
0.00392971998508427
0.000409347080986566
0.00120736367861651
0.00182539110651226
0.00235024900682802
0.00281460170439362
0.0032300841597251
0.00359973751343607
0.00392056842387815
0.00418916221815055
0.000386345655141418
0.00115114012177909
0.00175600465839492
0.00227816338438575
0.00274550944585953
0.00316829426390501
0.00355044093571229
0.0038893412641135
0.00417951208344786
0.00441800035642122
0.000360558557539565
0.00108782974833659
0.00167673477950525
0.00219400595728576
0.00266270931139557
0.00309086623622668
0.00348246882112064
0.00383628392391281
0.00414675347597238
0.00440822425220717
0.00461878860302702
0.000331896000674645
0.00101685396498182
0.00158712811175551
0.0020976274669434
0.00256646019278548
0.0029989671693035
0.003398157112835
0.00376360126613475
0.00409113630018885
0.00437459834312072
0.00460906592933577
0.00479363277751612
0.000300329851566502
0.000937934932917589
0.00148667066076678
0.00198857613319276
0.00245639081590932
0.00289261212927712
0.00329863410490575
0.00367376092494798
0.004014936695184
0.00431724957705972
0.00457496215928523
0.00478404841289185
0.00494447045739921
0.000265892968754875
0.000850865914323328
0.0013749982181464
0.00186637265980894
0.00233195835194933
0.00277124429749717
0.00318378505213887
0.00356792373140031
0.00392071455917651
0.00423842980084052
0.00451643786942634
0.00474970567500633
0.00493506930107001
0.00507324957896939
0.000228510402239339
0.000755462680883256
0.00125182676746516
0.00173064997430334
0.00219266256097318
0.0026342103473547
0.00305292251545499
0.00344593008229742
0.00380969153762328
0.0041407526294401
0.00443566595955357
0.00469039299952345
0.00490065043739501
0.00506405844918912
0.0051819975146891
0.000188011842776421
0.000651424403160287
0.0011169275598899
0.00158115216905266
0.00203812604292237
0.0024809495683512
0.00290528957844562
0.00330700759972639
0.00368170047414313
0.00402549118635502
0.00433527098712566
0.00460817161059032
0.00484082858430267
0.00502967711211273
0.00517302897635988
0.00527281540836475
0.000146775176585896
0.000538580601336198
0.000970158029505125
0.00141768053683038
0.00186809180476446
0.00231102775871682
0.00274022838524361
0.00315028811058956
0.00353588753622917
0.00389245270533873
0.0042165297058459
0.00450561826156714
0.00475751300630291
0.00496951839167679
0.00513872539943379
0.00526403970155539
0.00534781633618255
8.30225171077188e-05
0.000418021545903193
0.0008119419447544
0.00124009936298541
0.00168225627345325
0.00212403375218776
0.00255710872576376
0.0029748903360901
0.00337115686219816
0.00374057702380352
0.00407907620810214
0.0043838476169996
0.00465307070817943
0.0048851995804075
0.00507815512149192
0.00522960987210654
0.00533898020439415
0.00540892562818068
0.000488013716317094
0.00136524403158313
0.00049099278741128
0.00136936810853347
0.00199367907386993
0.000488546795694247
0.00136928828825788
0.00199609979321171
0.00249745988404179
0.000479438510485666
0.00135919904601561
0.00198871092889063
0.00249790463810786
0.0029277045146476
0.000465464023384649
0.00133591669778907
0.00196859442674418
0.00248436823247834
0.0029255001570296
0.00330411773546084
0.000448860966999414
0.00130108888890242
0.00193387369981061
0.00245530674810146
0.00290636688388613
0.0032989860473087
0.00363621164911193
0.000430405170120617
0.00125791464296122
0.00188566888466104
0.00241040467349701
0.00286938153343681
0.0032746660171861
0.00362876015044098
0.00392985199826638
0.000409834869257207
0.00120811340200159
0.0018261963016738
0.00235105337200058
0.0028153748379108
0.00323079262780418
0.00360033693668048
0.00392100760172721
0.00418939019315245
0.000386744029139733
0.00115176397735792
0.00175668942227466
0.00227886711914971
0.00274620879230746
0.00316896351425517
0.00355104644168652
0.00388984270273
0.00417986753627846
0.00441817115104981
0.000360852412885915
0.00108830306629441
0.00167723970300432
0.00219452739115649
0.0026632335492096
0.00309137520997834
0.00348293775664683
0.00383668240727406
0.0041470485407404
0.00440838464396189
0.00461878779084034
0.000332075421222823
0.00101715320553357
0.00158742691615621
0.0020979219405998
0.00256674867972514
0.00299924064560241
0.00339839920336397
0.00376379035385272
0.00409124788338629
0.00437460802420802
0.00460895299633968
0.00479338210714747
0.000300406387031868
0.000938036581777492
0.00148675267920879
0.00198862653552086
0.00245641429093492
0.00289260899402434
0.00329859684594976
0.00367367649111925
0.00401478868578762
0.00431702032235265
0.00457463568974942
0.00478361371962765
0.00494392232416384
0.000265881507415463
0.000850794045016443
0.00137486590432006
0.00186618393334081
0.00233171246249356
0.00277094970821249
0.00318344379120767
0.00356753186420649
0.00392026415088125
0.00423791031114813
0.00451583799314993
0.00474901663404131
0.00493428812558284
0.00507237900944807
0.000228448337980838
0.000755257530415129
0.00125151023918797
0.00173023532507833
0.00219216082795431
0.00263363036248608
0.00305227449394698
0.00344521953455053
0.00380891976854622
0.00413991745898913
0.00443476223053485
0.00468941407379798
0.00489959206128925
0.00506292323263339
0.00518079466194352
0.000187959455629032
0.000651145064911876
0.00111646971114854
0.00158054745233182
0.00203739628832655
0.00248010975085995
0.00290435329258088
0.00330598906581354
0.00368061038345459
0.00402433678569476
0.00433405574296058
0.00460689461484257
0.0048394849903034
0.00502826231605807
0.00517154642272423
0.00527127994293746
0.000146792721393552
0.00053828951985368
0.000969612524783544
0.00141694263477311
0.0018671908739702
0.00230998554328639
0.00273906123489039
0.00314901505081187
0.00353452698019224
0.00389102060782528
0.00421503886294925
0.00450407717601618
0.00475592387287381
0.0049678748585495
0.00513701431418959
0.0052622533522615
0.00534597038442685
8.31558782252664e-05
0.000417736975109932
0.000811390300319529
0.0012393487983887
0.00168133470430373
0.00212296092866663
0.00255590373061491
0.00297356989860658
0.00336974165524954
0.00373908684499539
0.00407752880292425
0.00438225797499588
0.00465145019423251
0.00488355352139379
0.0050764770089736
0.00522787265184398
0.00533713770926894
0.00540695408278942
2.87815836051514e-05
0.000288732226793145
0.000643765623785961
0.00104825723590239
0.00147954699685684
0.00191862225679772
0.002354359655221
0.00277892957359481
0.00318529242766238
0.00356738036360729
0.00392043465831933
0.00424106769727114
0.00452717568559047
0.0047776104298426
0.00499142898005615
0.00516707723309629
0.00530269138450368
0.00539806786128198
0.00545607596806536
0.000490359018443438
0.00136652976983085
0.00198892745704419
0.000488402016798102
0.00136775109960985
0.00199330807135677
0.00249347809880219
0.000479645978274486
0.00135861486890115
0.00198733549964419
0.00249577408186468
0.00292480561631767
0.000465897948462804
0.00133597441451126
0.00196817993593503
0.00248349605063703
0.00292415347536576
0.00330224155043834
0.000449378224949439
0.0013015276316477
0.00193406206756038
0.00245523447028401
0.00290602034730632
0.00329832003820776
0.00363515625924297
0.00043092358120363
0.00125853150852546
0.00188618539736217
0.00241078983750582
0.00286962117899891
0.00327472685419057
0.00362858552192235
0.00392937286686165
0.000410315073291962
0.00120876731135493
0.00182683772087233
0.00235164540203894
0.00281590094276139
0.0032312275852558
0.00360063792192499
0.00392111850888454
0.00418924995425877
0.000387156535743967
0.00115236044659242
0.00175731356254624
0.00227948722407846
0.00274680950095297
0.00316952428793402
0.00355153517176719
0.00389021629601238
0.0041800768371468
0.00441816643921525
0.000361183140379306
0.00108879106162028
0.00167775383678336
0.00219505397790526
0.00266376308248631
0.00309189189711237
0.00348341709215794
0.00383709198206213
0.0041473504416438
0.00440853947161036
0.00461875873257071
0.000332295935463574
0.00101750356535642
0.00158777803356328
0.00209827894717897
0.00256711196943022
0.00299960087995871
0.00339873863040166
0.00376408494209137
0.00409146934673727
0.00437472614042803
0.00460893898330107
0.00479321148835698
0.00030051696173589
0.000938202008649886
0.00148691608955353
0.00198877458425201
0.00245655630057344
0.00289274370129585
0.00329871401373648
0.00367375976947558
0.00401481796127664
0.00431697348544163
0.00457449093954314
0.00478335256690633
0.00494353136924315
0.000265898092471293
0.00085077992742481
0.00137482201597303
0.0018661115234987
0.00233160988205533
0.00277082351556745
0.0031832921553578
0.00356734663733171
0.00392003315505717
0.00423761891477086
0.00451547071628806
0.00474855966918899
0.00493373209389422
0.00507171963374771
0.000228394988142094
0.000755094818900033
0.00125127993933287
0.00172994511353483
0.00219181511069477
0.00263323469839664
0.00305183529043774
0.00344473755913882
0.00380839144085302
0.00413933601937084
0.00443411870749338
0.00468869884686835
0.00489879778031048
0.00506204770776423
0.0051798407082576
0.0001878896512931
0.000650886918134153
0.00111609196158684
0.00158006582282765
0.00203682471584895