/*--------------------------------*- C++ -*----------------------------------*\
  =========                 |
  \\      /  F ield         | OpenFOAM: The Open Source CFD Toolbox
   \\    /   O peration     | Website:  https://openfoam.org
    \\  /    A nd           | Version:  12
     \\/     M anipulation  |
\*---------------------------------------------------------------------------*/
/*   Windows 32 and 64 bit porting by blueCAPE: http://www.bluecape.com.pt   *\
|  Based on Windows porting (2.0.x v4) by Symscape: http://www.symscape.com   |
\*---------------------------------------------------------------------------*/
FoamFile
{
    format      ascii;
    class       volScalarField;
    location    "100";
    object      omega;
}
// * * * * * * * * * * * * * * * * * * * * * * * * * * * * * * * * * * * * * //

dimensions      [0 0 -1 0 0 0 0];

internalField   nonuniform List<scalar> 
10252
(
4.43344145600265
4.43344691999237
4.36395574079459
1.51814008028885
4.43398869053923
4.36403542696233
1.51790788208726
4.28681021371105
1.49682376528723
0.944310735994865
4.43489062273863
4.36469817021507
1.51779448599761
4.28693375205936
1.49661051389107
0.944049304986692
4.20973516723242
1.46787161972064
0.936370286610617
0.731082491421081
4.4361578206786
4.36565927259007
1.51779260719339
4.28769108583735
1.4965043336266
0.943857432700416
4.20972393564069
1.4676610674325
0.936126287583126
0.730824624708473
4.14512567753324
1.44055651550246
0.923618086491583
0.727807808358036
0.628399313640677
4.43780672975663
4.36694896068957
1.51789144344416
4.28868707632028
1.49650128671416
0.943732247587782
4.21042500732902
1.46755729098166
0.935937591898873
0.73061786088452
4.14508080199414
1.44032821018611
0.923381848259381
0.7275655544909
0.628147978502811
4.08705091705558
1.41863799738887
0.909866288681969
0.721465825715179
0.627014636545846
0.572095340872856
4.43984551137566
4.36861617587994
1.51808688705364
4.28996613833788
1.49659330045782
0.943665889412352
4.21141161862895
1.46755153506329
0.935811260380854
0.730462051710757
4.14559158530293
1.44020324356775
0.923194743298766
0.727362098540809
0.627939011246688
4.08695523850031
1.41839802958757
0.909629322805401
0.721232198223201
0.626777675868986
0.571849440125468
4.0232677253582
1.39964264218748
0.897205033194054
0.713530700651446
0.623467397789221
0.571482323676851
0.53881175867014
4.44227558027057
4.37067379769394
1.51837445387093
4.29160976923515
1.49677947680375
0.94365226755865
4.21267374087571
1.46763470768924
0.935741933207461
0.73035143414569
4.14657520746039
1.44018701547586
0.923066546299655
0.727206272288763
0.627774013608348
4.08727529133374
1.4182271754061
0.909438066994683
0.721031904877575
0.626572046545758
0.571641614627326
4.02311219058119
1.39938508189176
0.896963769812334
0.713299253813238
0.623238912920625
0.571250117281126
0.538570149700565
3.94709653120351
1.37933533578626
0.885275526302179
0.705141537085177
0.618361385521254
0.569187025210796
0.538467005580571
0.518191489558475
4.44508958522374
4.37312900411983
1.51874807053956
4.29365278554515
1.4970556897273
0.943685645897181
4.21428704258221
1.46780745564046
0.935724248095354
0.730280451130755
4.14780830947226
1.44025935864582
0.922993129455748
0.727094537106407
0.627648522530634
4.08821928544036
1.41819300802415
0.909305397874491
0.720876127069951
0.626407518846577
0.5714743998486
4.02336836579508
1.39916524066488
0.896761917916997
0.713099515899548
0.623037015370571
0.571045629732923
0.538364471257707
3.94685514844489
1.37906001243861
0.885027034934938
0.70490861762793
0.618135742554332
0.568963090679729
0.538238710885594
0.517953440075616
3.85670385575719
1.35525399665722
0.872716415103066
0.696538449586548
0.612355484735829
0.565503472850545
0.536701079108436
0.517918722503433
0.505036029960348
4.44825603208786
4.3759649746174
1.51919792559321
4.29608500266054
1.49741575122763
0.943759517509947
4.21629823644787
1.46806689825048
0.93575265537548
0.730243776918758
4.14937643414507
1.44041752403196
0.922969495064212
0.727021865836827
0.627557643348664
4.08940390328888
1.41825108629685
0.909226518557831
0.720762795817979
0.626281636582161
0.571344085587598
4.02405477824602
1.39910136725708
0.896620835592971
0.71294257169277
0.622873431739798
0.57087908912808
0.538197687755338
3.94702463327209
1.37880743475809
0.884811102098579
0.704706178165912
0.617935828367498
0.568762519608374
0.53803636154618
0.517750175595179
3.85637256069451
1.35495954835527
0.872459034638957
0.696302156307021
0.612129490067603
0.565282626028764
0.536480954485883
0.517693731333921
0.504801101370858
3.75087583542899
1.326675647595
0.858533048288217
0.687403826223213
0.605819135285452
0.560888651327111
0.533731502416718
0.516370076561364
0.504781473127477
0.496509987023616
4.45168416009812
4.37914157013466
1.51970215996388
4.29889637737243
1.49784914161284
0.943865139366089
4.21869333075093
1.46840677011037
0.935820747578186
0.730235754754368
4.15131666370306
1.44065877804775
0.922990235414745
0.726983055940402
0.627496609960684
4.09090884919447
1.41839247567917
0.909195691157979
0.720687398832632
0.626189987331931
0.571246266232591
4.02516794738161
1.3991372902005
0.896534101778566
0.712826737596212
0.622747087535942
0.570748695496875
0.538066603092299
3.94750458525421
1.37868042067038
0.88465674813128
0.704545879149706
0.6177725450752
0.568597326450098
0.537870383857179
0.517584937894044
3.8564379330317
1.35467864421805
0.872228319020515
0.696094625582385
0.611929268469272
0.565084565917623
0.53628260995414
0.517493798300555
0.504600293400278
3.75045720465835
1.32636115355457
0.858264204694595
0.687163226796721
0.605591385534359
0.560668030514619
0.533514646852736
0.516153213291361
0.504559413077142
0.496277916166191
3.62763755593943
1.2933464562002
0.842285299348277
0.677396224670174
0.598821150050442
0.555726904726625
0.529953801643743
0.513779549548728
0.5033397028869
0.496268851558316
0.490962456486983
4.45524506441066
4.3825834495133
1.52023910365437
4.30204046734533
1.49833813732722
0.943992948461151
4.2214563866452
1.46881675494713
0.935920153450177
0.730249673834267
4.15363628293259
1.44097651587317
0.923048998291771
0.726972505750994
0.627460553875176
4.09277254885776
1.418612701906
0.909207239396
0.720644864552496
0.626127920967766
0.571176702317407
4.02658531534934
1.39925623779933
0.896494399642016
0.712747591437766
0.622654121927482
0.570650522243649
0.537967225726099
3.94834328802976
1.37867753987453
0.884558273949668
0.704425997601382
0.617645212174118
0.568467019944483
0.537739399961798
0.517454889898229
3.85680131222498
1.35449392399608
0.872054203994711
0.695928549662397
0.611764874171906
0.564920362547467
0.536118204375983
0.51732945440892
0.504437078068554
3.75042673465396
1.32605571636033
0.858016788146542
0.686949290967375
0.605389161718533
0.560470608670896
0.533319085293533
0.515957347640862
0.504361941904997
0.496079535300811
3.62713446117219
1.29301422564187
0.842008154404432
0.677150813289851
0.598591124521146
0.555505351189373
0.529737549581152
0.513566105224605
0.503125743034614
0.49604949442078
0.490733047598664
3.48431215156567
1.25489136418126
0.823806363898545
0.666341665598201
0.591325720332252
0.550225750676497
0.525746254848595
0.510542246687931
0.500985633750278
0.494903753667764
0.490739630570394
0.487376541113156
4.45875241997758
4.38617988262312
1.52077023450518
4.30544446111157
1.49885777916433
0.944125338580431
4.22454265384947
1.4692795150667
0.936039896255957
0.730277610593294
4.15631425610366
1.44135991456962
0.923137437567823
0.726983589225943
0.627444029835327
4.09500124472601
1.41890502680732
0.909254603566672
0.720629600085268
0.626090600227199
0.571131146307133
4.02834151275975
1.39945084640711
0.896495146470238
0.712700029051087
0.622590045626112
0.570580408727962
0.53789567539228
3.94964424104842
1.37876375350074
0.884506657534372
0.704341801239505
0.617550230622607
0.568368224385778
0.537639860482324
0.51735630920586
3.85743574946018
1.35442054007818
0.871937996061339
0.695802573894877
0.611635550574583
0.564789872364299
0.535987617429587
0.517199605150798
0.504308827202856
3.75067840497432
1.32583646186174
0.857820646981954
0.686775179701635
0.605222207301791
0.560306373305104
0.53315605247858
0.515794718110625
0.504199665741337
0.495918479388423
3.62701245283659
1.29268836136971
0.841745781316274
0.676929764581681
0.598385977557159
0.555307235946523
0.529543114806099
0.513373199885779
0.502932381110512
0.495854445167288
0.490537004624892
3.48373009115711
1.25454402412172
0.823525309545437
0.666092200998414
0.591093357802314
0.550002916625159
0.52552955947215
0.510329664558979
0.500775200735298
0.494692461415789
0.490522801197941
0.48714959605124
3.3173052985835
1.21075231221452
0.803047492839973
0.654237972943724
0.583346670886894
0.544493434051242
0.521359550280639
0.507032925511259
0.498134911137418
0.49272771650832
0.489444629362469
0.487175220988331
0.485096523084305
4.46196806208529
4.38973612458295
1.5212424497682
4.30899142429085
1.49937169559327
0.94424127945288
4.2278799755019
1.46976963813859
0.936163913056641
0.730307947262747
4.15930987717414
1.44179163302243
0.923244036219168
0.727008014124812
0.627440520075902
4.09757527616417
1.41925789994373
0.909329245095761
0.720634896802299
0.62607259097284
0.571105129696874
4.03044306225831
1.39971298817309
0.896529232515855
0.712678303111463
0.622550022505496
0.570534146549016
0.537848236724789
3.95126756084569
1.37892392719672
0.884493946192468
0.704287875142583
0.617483172008698
0.568296942704301
0.537567990442531
0.51728564310319
3.85835057903642
1.35445511277816
0.871869734105945
0.695711588613906
0.611537645088327
0.564690012861477
0.535887835467895
0.517100979128581
0.504212062756957
3.75116994335753
1.32570406042867
0.85768004616755
0.686640758967378
0.605089707708209
0.560175030667802
0.533025759138753
0.51566545635458
0.504071683156855
0.495792297282842
3.6271504226491
1.29244351932112
0.841528261906863
0.676746459439407
0.598215380094515
0.555141959606679
0.52938064449973
0.513212184628931
0.502771908079402
0.495694360838476
0.490378084971371
3.48351937637566
1.25420125920776
0.823256355308755
0.665864592056334
0.590884990221063
0.549803445117241
0.525335100566204
0.510138184987212
0.500584916924348
0.494501539324062
0.490330077338709
0.486955742699563
3.31666399363616
1.21039348098475
0.802765167586189
0.653985904604272
0.583112421939454
0.544269359806134
0.521142119680513
0.506820203939137
0.497925511555722
0.492520015526102
0.489235818253948
0.486960739369814
0.484871821821937
3.12170417437301
1.16024926096756
0.780081187477805
0.641254143370982
0.575030569482107
0.538664890132935
0.516968845034879
0.50351371307026
0.495165319678397
0.490180236205544
0.487419284881763
0.485947168423157
0.484916935108282
0.483685877459287
4.46457318192005
4.39300767163666
1.52158677350777
4.31250110215486
1.49982728628213
0.944312251669293
4.23134054643315
1.4702507024431
0.936270911125433
0.730326139148453
4.16255604943312
1.44224612331735
0.923352952664721
0.727034492354309
0.627441593170306
4.10045021815302
1.41965354640591
0.909419247528063
0.720652183611607
0.626067313004617
0.571093283668498
4.0328728621561
1.4000300193557
0.896587661194726
0.712675503564131
0.622528537023857
0.570507217649201
0.537821117418957
3.95321211173283
1.37914682420188
0.88451208363504
0.704258123272056
0.617439114938038
0.568248973045979
0.537520096946306
0.517239600673055
3.85972425503385
1.35456709383602
0.871839504271267
0.695649664752336
0.611466612643595
0.564616880467769
0.535815257944605
0.517030123730701
0.504143496362548
3.75189900084939
1.32564759212872
0.857588459295728
0.686540849785171
0.604987845333214
0.560073501699924
0.532925489190547
0.515566824323084
0.503974948634844
0.49569771499338
3.62750448439865
1.29227554882443
0.841362110043184
0.676601575911272
0.5980786364727
0.555009015594508
0.52925018503063
0.513083523149989
0.502644638506886
0.495568493243297
0.490253982782136
3.48354442083255
1.25393629982185
0.82302761297246
0.665672303257399
0.590710269146436
0.54963648429604
0.525172403085086
0.509978097728475
0.500426214384018
0.494343311952937
0.490172146601402
0.486798830865635
3.31637854968749
1.21003878854676
0.802493772952688
0.653753654483973
0.582901203564967
0.544068396278354
0.520947097734794
0.506629089475984
0.497736844012614
0.492332241328456
0.489047218998981
0.486770189274934
0.484679958000906
3.12103626500309
1.15988385878529
0.779800968267979
0.641003303240919
0.574795382983441
0.538439921072392
0.51675072252475
0.503300569856751
0.494955970339089
0.489973675470297
0.487214093729823
0.485740650786697
0.484704589977763
0.483463158683264
2.89212292488715
1.10280760240537
0.755254461410089
0.627822109854685
0.566727263604298
0.533001882695891
0.512784801697925
0.500192157686178
0.492343592055312
0.487646493189532
0.485123700943199
0.484054704595233
0.483751136487512
0.483526360665454
0.48284877289835
4.46616117478145
4.39571828550146
1.52171476681479
4.31572956859255
1.50015411870805
0.944301367870461
4.23475729013552
1.47067124979629
0.936332522531348
0.730313305560944
4.16592280216744
1.44268639973945
0.923442808108708
0.727048408541796
0.627436526051432
4.10354372153766
1.42006596173591
0.909508536889849
0.720670146139495
0.626066345548682
0.571089171595756
4.03557475543934
1.40038299021264
0.896658056852364
0.71268274873627
0.622518854807337
0.570494303880069
0.537810038897195
3.95545053223717
1.3794183340359
0.884551307353293
0.704245289732433
0.617412368400901
0.56821971222161
0.537492373250446
0.517214976416955
3.86147318421006
1.3547394935696
0.871837827370268
0.695610194963295
0.611417327099444
0.564566218567056
0.535766202550128
0.516983770632832
0.504100191177305
3.7528736809938
1.32568052730462
0.857534786290217
0.686468950485686
0.60491183077368
0.559997830712181
0.532851750732035
0.515495546671783
0.503906276514103
0.495631646903725
3.62806890906819
1.29216558017085
0.841239749924003
0.676490415933226
0.597971817037814
0.554905190876241
0.529149038842287
0.512984779294475
0.502548054513401
0.495473984018305
0.490161577268331
3.48376096063299
1.25374306973689
0.822841546230176
0.665516510150037
0.590568605279222
0.5495013864297
0.525041262996381
0.509849710362439
0.500299747592356
0.49421823777182
0.490048384981631
0.48667665843588
3.3162964597091
1.20975950628903
0.802260554236849
0.653554605905035
0.582722613331106
0.543899564437678
0.520783718496842
0.506469255855694
0.497579302216261
0.492175880861753
0.488891171130328
0.486614269600638
0.484524836952551
3.12070782421554
1.15952324534882
0.779531454887551
0.640771288537711
0.574582382945993
0.538237776700937
0.516555054377624
0.50310933208626
0.494767905291211
0.489787634485043
0.487028674735566
0.485554208374573
0.484516008379339
0.483273029822353
2.891485145032
1.10244590601945
0.754980370123399
0.627575243186489
0.566492777145561
0.532776657221516
0.512566243590036
0.49997861198483
0.492134006671547
0.487440099803142
0.484919711686451
0.48385181031679
0.483546695987784
0.483315896549522
0.482627729078129
2.62565556888947
1.03886183150327
0.729595371303891
0.61485107761683
0.559112597233355
0.527987684141009
0.509152490238924
0.497326945326195
0.489895800596328
0.485397953459279
0.482951731211703
0.481973771488705
0.481976018934515
0.482416492873412
0.482706846446852
0.482383510171459
4.46620370097681
4.39752882254963
1.52151655040625
4.31839444277001
1.50026645847279
0.944163213122767
4.23786931251499
1.47096048993871
0.936311855665661
0.730245544958617
4.16921769804424
1.44306099840101
0.923485169308122
0.727030876851319
0.627411638975507
4.10673962358344
1.42045790673074
0.909575417673814
0.7206739965804
0.626058915185997
0.571084603507332
4.03846679327315
1.40074426788462
0.896723780602754
0.712688441264956
0.622512404550853
0.570488881518935
0.537809892491992
3.95792877649116
1.37971761701998
0.884598697541924
0.704240088684847
0.617395943183541
0.568203732724461
0.537480521875442
0.517208300351724
3.86348863249619
1.35495444171308
0.871853932671426
0.695585429948249
0.611383823424073
0.564533268477142
0.535736787746202
0.516958697922144
0.504079425656682
3.75410241979215
1.32578116873723
0.857508110655809
0.686417831606991
0.6048562311888
0.559943615211305
0.532800821865775
0.515448370134927
0.503862753133004
0.495591466877249
3.62883825109185
1.2921034072404
0.841154178900079
0.676406196100621
0.597889853580277
0.554826367881226
0.529073686874403
0.512912794314259
0.502479150594519
0.495407867716469
0.49009799185415
3.48415875756076
1.25359867805725
0.822690677419655
0.665392351527304
0.590456046114545
0.549394785673399
0.524938856510005
0.509750614863117
0.500203304244826
0.494123980399883
0.489956087865342
0.486586248604721
3.31637442225998
1.20954738255162
0.802066966703256
0.653389804317616
0.582576081294922
0.543762113490247
0.520651577256596
0.506340759765804
0.497453396709737
0.492051739023245
0.488768249313076
0.486492454313909
0.484404352179324
3.12053777575921
1.1592365874056
0.779299176996858
0.640570697739097
0.574401056263364
0.538067372886574
0.51639092110433
0.502949382356292
0.494610913218268
0.489632579097559
0.486874545580816
0.485400176650896
0.484361879660133
0.483119429769742
2.89117229838284
1.10208824896123
0.754717651681845
0.62734700804802
0.566279918267748
0.532574061411777
0.512370185976668
0.499787171761437
0.491946074410101
0.487254805245543
0.484736090883467
0.483668553640418
0.483362195062277
0.483129026270428
0.482439036155629
2.62516937035595
1.0385237654543
0.72933231098789
0.614610925711203
0.558881247270295
0.5277631202401
0.508933926500068
0.497113176321626
0.489685971871029
0.485191436029205
0.482747980255121
0.481772110640248
0.481775189306652
0.482213872084984
0.482497961728286
0.48216379292481
2.21608884473882
0.971875637034025
0.705856131852273
0.604217946262941
0.553448177245264
0.524473169467109
0.506653183650478
0.495322425972132
0.488112757556125
0.483673732760817
0.481180280447526
0.480106075699131
0.48007903152576
0.48074374286411
0.481645839677345
0.482256509343767
0.482152989665687
4.46383569132142
4.39783933635765
1.52087937099162
4.32019279623019
1.50006445444371
0.943845195512017
4.24036994813785
1.47103379245732
0.93616379600603
0.730093487968326
4.17219710068955
1.4432992333485
0.923442999732648
0.726957962975629
0.627349828524378
4.10985638471139
1.42077586113006
0.909591069903035
0.720644623524944
0.626031296649167
0.571069286659772
4.04142877715314
1.40107599530803
0.896762613307268
0.712677431590908
0.622498200526915
0.570482713143723
0.537814355768988
3.96057839892267
1.38001587617376
0.884636680655641
0.704230452529477
0.617380963753241
0.568194326610286
0.537479389122181
0.517215550180714
3.86573489578724
1.35518892759459
0.87187400289749
0.695565587461
0.61135876200156
0.564512375392877
0.535722595947483
0.516951415060347
0.504078394603346
3.75581687994451
1.3259241699351
0.857496295166907
0.686379131675824
0.604814722038275
0.559905863267712
0.532768678896439
0.515422001595833
0.503841640445149
0.495574842974582
3.62979895249226
1.2920793990611
0.841094613414451
0.676341232356882
0.597826956088577
0.554767919301845
0.52902028722148
0.512864284180571
0.502435031276641
0.495367529504145
0.49006082169901
3.48472739720593
1.2534852969621
0.822568101898198
0.665293472560179
0.590367303118239
0.549312358076444
0.524861531760905
0.509677637832408
0.500134000868379
0.49405775993418
0.489892483286193
0.486524880825355
3.31660018786692
1.20937751557891
0.801903005863965
0.653253533304598
0.582457555177606
0.543652539032715
0.520547685972913
0.506241074246321
0.497356951532477
0.49195778762772
0.488676268466372
0.486402170361287
0.484315640689557
3.1204788356068
1.1590133100082
0.779104809685387
0.640401185106199
0.574250737482153
0.537927844325637
0.516257762474187
0.502820567808095
0.494485261447283
0.489509180745061
0.486752631811179
0.485279223319993
0.484241758921435
0.483000324997128
2.89095110917715
1.10180238962616
0.754492175324573
0.627149527255815
0.566097935351911
0.532402887684289
0.512205589409025
0.499627069844435
0.491789300483639
0.487100480065339
0.484583348845589
0.483516460113783
0.483209946927086
0.482976413548281
0.482286641910785
2.62498275812348
1.03818418910036
0.729082103249221
0.614389942999101
0.558671644013923
0.527561210202588
0.508738010662072
0.496921731330608
0.489498081123587
0.485006425029342
0.482565188953545
0.481590681298517
0.481593861660311
0.482031049700793
0.482312500552969
0.481976195581108
2.21610753599928
0.971570874708632
0.705610212898421
0.603987121097914
0.553221689426652
0.524250484118611
0.50643514276988
0.495108717274255
0.487902804763949
0.483467063754788
0.480976473956603
0.479904694522323
0.47987944791815
0.480544711663197
0.481444737987674
0.482048861221768
0.481934215018113
2.28697684240109
0.91167834065228
0.691151797870435
0.599929490897862
0.552124659925845
0.523953931847776
0.506260957230546
0.494831482740016
0.487441391714415
0.482787576403149
0.480058822215801
0.478733822734127
0.478468021637453
0.47900367970256
0.480061043010234
0.481237275046527
0.482038375868729
0.482064976242198
4.39560192268306
1.51965959003166
4.32052643672735
1.49943019988356
0.943290061410053
4.24198637367653
1.47079607781952
0.93583600667407
0.729823133397584
4.17452758030971
1.44331524234299
0.923271151831484
0.726800452831601
0.627230443503664
4.11264223728874
1.42095006108198
0.909518098180419
0.720557830565445
0.625966337983891
0.571030458039851
4.04428724190903
1.40132387888046
0.896744977524856
0.712630151820669
0.622462262019656
0.570465431397242
0.537815581269531
3.96327952623874
1.38027393303877
0.884642289238082
0.704200693883895
0.617356063077425
0.56818303331353
0.537482590445358
0.517231860827836
3.86812655913347
1.35541274915837
0.871879483958357
0.695537978782964
0.61133283611386
0.564496525886948
0.535718298432004
0.516957854046694
0.504093947214744
3.75780510702688
1.32608207524954
0.857484369558077
0.686342461988119
0.60477953770392
0.55987860193405
0.532750685184566
0.515412830638316
0.503840109007193
0.495579526200905
3.63092217624827
1.29211689683832
0.841047996598281
0.676286446983415
0.59777638361229
0.554724555097988
0.528984604351828
0.512835821491804
0.502412890280871
0.495350631840279
0.490048086249775
3.48545521413596
1.2533846139883
0.822465572931438
0.665212123816073
0.590296272200246
0.54924920912533
0.524805255376462
0.509627388141509
0.500088916771888
0.494016980476252
0.4898551985758
0.486490356418191
3.31696177194731
1.20922849754328
0.801757062387864
0.653139257518069
0.582361600149167
0.543566312938757
0.52046821063922
0.506166906548562
0.497287076088686
0.491891373123302
0.488612639558704
0.486340804487461
0.484256112267565
3.12052404771064
1.15882588868583
0.778936842758664
0.640256886379508
0.574127080715789
0.537815540809438
0.51615242823225
0.502720198901071
0.494388662239358
0.489415453947689
0.486661058458698
0.485189289981154
0.484153181780369
0.482912955560146
2.89077004594084
1.10157728745432
0.754303834763496
0.62698206834192
0.565946000325125
0.532262133757636
0.512071754447556
0.499497989810682
0.491663746336844
0.486977560332372
0.484462285579422
0.483396551280205
0.483090693069369
0.4828576770386
0.482168579963251
2.62477692900658
1.03791174157846
0.728870131993054
0.614199912047951
0.558492617114541
0.527390551589544
0.508573579373826
0.496761733747096
0.489341494223276
0.48485251544076
0.482413280345068
0.481440012929031
0.481443549407621
0.481880301916652
0.482161088028562
0.481824664284438
2.2161126409609
0.971260019802306
0.705379317865509
0.603776957382381
0.553017727102624
0.524050777346162
0.50624010077697
0.494917657725408
0.48771510115585
0.483282230930394
0.48079405226709
0.479724137131436
0.479699952889688
0.480365039414255
0.481263289283203
0.481864469503796
0.481747342415145
2.28700604269846
0.911565382671404
0.690923518167931
0.599709944900825
0.551904291558713
0.52373419995734
0.506043940189678
0.494618133910449
0.487231494194046
0.482580833668239
0.479854919905273
0.478532427892353
0.478268740538507
0.47880589596602
0.479863506159566
0.481037352713087
0.481831587020288
0.481846730450175
2.38167602985973
0.941875803312685
0.704472952576943
0.611024537252539
0.559908767729539
0.529149061425239
0.509632744355144
0.496916794235239
0.488587345572814
0.483217662447337
0.479918283814806
0.478114933474973
0.477429673148546
0.477608487664422
0.478453647116347
0.479726927848472
0.48105423489039
0.481960474375877
0.48205849967563
4.3182110511833
1.49820888691454
0.942453925693136
4.2421467418199
1.47013161325041
0.935273180902953
0.72939579632449
4.17583826270134
1.44301383209753
0.92291740048933
0.726524157909721
0.627028989573253
4.1147477801644
1.4208913561245
0.909310511816138
0.720384119080898
0.625843244936331
0.57095291436848
4.04680034663319
1.40141646617844
0.896632811874761
0.712521860290554
0.622387133813805
0.570424220745267
0.537804052317929
3.96584395240221
1.38043692475773
0.884585037786772
0.704130575272255
0.617306791223004
0.568159215926309
0.537482201789047
0.517251299924814
3.8705200588002
1.35558426793903
0.871846463738417
0.695486236825639
0.611294152417772
0.564476875846426
0.535717286208349
0.516973082263074
0.50412242622294
3.75990152713734
1.32622049307213
0.857452603910343
0.68629443393758
0.60474084748754
0.559854406484399
0.532741213930507
0.515416617427929
0.503854974439688
0.495603118627922
3.63219703390571
1.29217293771911
0.840998106843585
0.676230799214116
0.597729890726721
0.554689918801872
0.52896169965061
0.512823582110762
0.50240977901709
0.495354895435431
0.490057985367278
3.48630178263557
1.2532829655822
0.822373739356294
0.665138789109745
0.590235780463864
0.549199710236183
0.524765521598977
0.509596237546255
0.500065116409911
0.49399924052858
0.489842234300638
0.486480968062351
3.31744413528261
1.20907896639062
0.801616145134484
0.653039580200622
0.582281900093926
0.543498272109426
0.520408884087598
0.506114688782953
0.497240749758126
0.491849877977918
0.488575015419318
0.486306188429031
0.484223732747738
3.12066703494724
1.15865040017711
0.778781611646117
0.640130595291141
0.574024419846095
0.537725741011719
0.516070889996095
0.502644811554012
0.494318113241025
0.489348743069366
0.48659736437947
0.485127946173573
0.484093664528163
0.482854828723348
2.89062954424996
1.10138209953103
0.754139895274915
0.626837988204729
0.565819417466455
0.532147970493218
0.511965374689105
0.499397078137735
0.491566965938771
0.486883954589535
0.484371073126868
0.483307079041322
0.483002479380357
0.482770442909162
0.482082167666452
2.62449301468916
1.03769492489715
0.728695790758207
0.614039733452016
0.558342780521814
0.527250017008467
0.508439797090432
0.496632727595608
0.489216111717375
0.484729942681341
0.482292825512885
0.481321007291427
0.481325348714807
0.481762426743768
0.482043393899182
0.481707294299242
2.21611501155134
0.971016981730692
0.705189068601496
0.603598991913213
0.552844798528402
0.523882423937329
0.506076750038369
0.494758265529978
0.487558917901033
0.483128699509962
0.480642669352694
0.479574352384154
0.479551073543092
0.480216211178142
0.48111372225394
0.481713915157494
0.481596323119963
2.28699910306706
0.911360743299334
0.690716570198118
0.599514283647349
0.551708138889955
0.523538447259185
0.505850582707549
0.494427946991385
0.487044264677474
0.482396285348805
0.479672751124643
0.478352284495099
0.478090133030235
0.478628046704602
0.479685179166903
0.480856938827664
0.481647897783257
0.481660195593013
2.38169099295276
0.942017757059096
0.704387212057258
0.610815286840266
0.559694787522163
0.528932708982652
0.509417179660381
0.496703954746967
0.48837764256867
0.483010956285611
0.4797143382701
0.477913477760512
0.4772304032382
0.477411017614179
0.478257353307673
0.479530545198655
0.480855119033866
0.481754138405435
0.481840340463371
3.68517227836365
1.24264824711338
0.807356335271033
0.659580193191042
0.586993071547446
0.545298756597886
0.519703207763667
0.503348525735587
0.492678934118881
0.485709217611443
0.481260271546225
0.478593514487874
0.477228667787268
0.476848247391901
0.477238642072089
0.478230474649939
0.479606021828868
0.48100536929631
0.481962121779679
0.482094198666618
4.23964775101847
1.46887609373135
0.934426458543051
0.941261155519926
0.728768034334275
4.17574671818203
1.44227903083446
0.92232704818429
0.72609041432962
0.626717397563514
4.11577229224856
1.4204970097836
0.908914953394819
0.720088857604508
0.625637512866387
0.570818939220978
4.04861967749039
1.40126291910374
0.896378701802837
0.712322304546366
0.622251640567341
0.570343719795241
0.537768493230724
3.96802385724682
1.38043210495741
0.884425738306972
0.703994535473122
0.61721512194395
0.568109740405218
0.537468579231212
0.517266801684581
3.87273550896843
1.35564709313937
0.871743515298507
0.695389310170205
0.611227610768188
0.564442316342026
0.535711358222338
0.516991081483468
0.504159428090146
3.76196071858567
1.32629375931676
0.857375786217899
0.686217907575605
0.604686125318729
0.559823915920518
0.532733274404242
0.515428203131668
0.503882487352813
0.495642903920041
3.63389140771132
1.29220838395232
0.840924141786865
0.67616015143673
0.597677066117859
0.554656097029709
0.52894554578324
0.512823032416301
0.502422344849985
0.495377872572764
0.490088734782529
3.4872055611549
1.25316425921727
0.82227648146131
0.66506188655005
0.590177087606017
0.549157079482807
0.52473702817706
0.509580067902474
0.500059440532319
0.494002140222657
0.489851763322746
0.486495287302599
3.31800979562746
1.20890466379411
0.801470567881846
0.652945239178128
0.582210936905792
0.54344243765718
0.520364892143624
0.506080534831716
0.497214841787451
0.49183077484642
0.488561331232183
0.486296597559327
0.484217015612151
3.12088850880423
1.15846420744265
0.77862442818302
0.640014731423968
0.573936290500147
0.537653036093088
0.516008632157097
0.502590617499414
0.494270423980887
0.489306334669799
0.486559184109552
0.485093050521148
0.484061204292621
0.482824039907318
2.89053586966069
1.10119014715556
0.753985388087946
0.626708697076603
0.565712170828885
0.532055472572068
0.511882230936034
0.499320683010776
0.491495791328233
0.486816899915449
0.484307251339503
0.483245741777193
0.482943004705135