/*--------------------------------*- C++ -*----------------------------------*\
  =========                 |
  \\      /  F ield         | OpenFOAM: The Open Source CFD Toolbox
   \\    /   O peration     | Website:  https://openfoam.org
    \\  /    A nd           | Version:  12
     \\/     M anipulation  |
\*---------------------------------------------------------------------------*/
/*   Windows 32 and 64 bit porting by blueCAPE: http://www.bluecape.com.pt   *\
|  Based on Windows porting (2.0.x v4) by Symscape: http://www.symscape.com   |
\*---------------------------------------------------------------------------*/
FoamFile
{
    format      ascii;
    class       surfaceScalarField;
    location    "100";
    object      phi;
}
// * * * * * * * * * * * * * * * * * * * * * * * * * * * * * * * * * * * * * //

dimensions      [0 3 -1 0 0 0 0];

internalField   nonuniform List<scalar> 
29323
(
1.01241523751213e-05
-1.18176728324079e-07
-1.1209801635335e-07
1.03703824756296e-05
-1.26123986812487e-07
-1.20103543940486e-07
1.26702049227263e-05
-2.49989315161816e-07
-1.38877973709222e-07
2.9549513916309e-06
-2.14821314361275e-08
-1.64697267753391e-07
1.06292380180312e-05
-1.31933683644468e-07
-1.26918933816694e-07
1.29616261043385e-05
-2.67768058181656e-07
-1.49767158664624e-07
3.03504602275187e-06
-2.33139001735697e-08
-1.76881102896089e-07
1.43385636642304e-05
-3.87594336068563e-07
-1.61909152448171e-07
3.83220822871789e-06
-4.34877164965554e-08
-2.08178986760715e-07
2.19799691468457e-06
-1.07356930025998e-08
-2.13193453595409e-07
1.09051789791879e-05
-1.40909092396328e-07
-1.35028881601377e-07
1.32713931229517e-05
-2.84996239787419e-07
-1.56694089986277e-07
3.12231659133523e-06
-2.49158957797152e-08
-1.89270336302675e-07
1.4662587732579e-05
-4.15739344788834e-07
-1.76044197424412e-07
3.93033211278158e-06
-4.78834322237234e-08
-2.23317529028064e-07
2.26206209017999e-06
-1.28327801464403e-08
-2.28113547922598e-07
1.6155419334563e-05
-5.362364049338e-07
-1.84478319876649e-07
4.47892566854497e-06
-6.26937922296422e-08
-2.46574059414504e-07
2.77513739714182e-06
-2.22864525903166e-08
-2.68613116731333e-07
2.03731325014823e-06
-7.61163027679947e-09
-2.62451117035086e-07
1.12027643815592e-05
-1.52796632918131e-07
-1.44785256149059e-07
1.36020060103956e-05
-3.06593561065383e-07
-1.64919886653756e-07
3.21821429779044e-06
-2.81682246210053e-08
-2.02754520781092e-07
1.500777836941e-05
-4.46893004281703e-07
-1.83286951415871e-07
4.03942516818035e-06
-5.29730164182929e-08
-2.37725168062388e-07
2.33196408306601e-06
-1.45155400395432e-08
-2.44656203345926e-07
1.6515965891811e-05
-5.75077111494432e-07
-2.01201197996641e-07
4.58998889120264e-06
-7.01655822245594e-08
-2.64821052592949e-07
2.8520584569739e-06
-2.64883123503467e-08
-2.86581204111922e-07
2.09910395279415e-06
-9.44636915508269e-09
-2.80457584878165e-07
1.75402196096448e-05
-6.92917991237737e-07
-1.98600323213083e-07
5.0975884383351e-06
-8.34175608633736e-08
-2.80699133823082e-07
3.28139888275052e-06
-3.10145237763054e-08
-3.21504928450218e-07
2.49039316804586e-06
-1.60994717950618e-08
-3.27864372885103e-07
2.00684886793474e-06
-7.45745227710654e-09
-3.11654754272525e-07
1.15257953265366e-05
-1.67091954582802e-07
-1.55935289078104e-07
1.39580192143331e-05
-3.32884420150318e-07
-1.75911618772191e-07
3.3243087009313e-06
-3.2845912211757e-08
-2.18030800258561e-07
1.53763052532177e-05
-4.83282073890953e-07
-1.91831038491394e-07
4.16033282853608e-06
-6.06806242935975e-08
-2.53312206349592e-07
2.40924418816024e-06
-1.71577440916341e-08
-2.62876316824286e-07
1.68982980719302e-05
-6.20328538106118e-07
-2.0888818317217e-07
4.71477776044095e-06
-7.9776125081299e-08
-2.81271333151252e-07
2.93689933423569e-06
-3.09262129041628e-08
-3.06154274122866e-07
2.166575674446e-06
-1.13524153504073e-08
-3.00774856199442e-07
1.79251889625013e-05
-7.42785064947734e-07
-2.17254737013664e-07
5.22187743123099e-06
-9.39098346203633e-08
-3.01745828451082e-07
3.36984493639905e-06
-3.72836845343348e-08
-3.4247083980616e-07
2.56348808535975e-06
-2.00424498465132e-08
-3.49078999531658e-07
2.06857533540452e-06
-9.31207154704953e-09
-3.32871663205041e-07
1.83094867313461e-05
-8.52501225055588e-07
-2.03721738574272e-07
5.48766771797129e-06
-1.0773862035681e-07
-2.98720570677858e-07
3.70668857105665e-06
-3.96949115825785e-08
-3.65538695318717e-07
2.92242119290863e-06
-2.42307844619222e-08
-3.91687696564385e-07
2.37973277524861e-06
-1.50191268396999e-08
-3.86156101075564e-07
2.00935999323122e-06
-7.43289633295543e-09
-3.60786509592673e-07
1.1878092407776e-05
-1.8380819702827e-07
-1.68484973895818e-07
1.43438850270465e-05
-3.64113186100889e-07
-1.88840308134831e-07
3.44227911702778e-06
-3.86745338298405e-08
-2.35229552903852e-07
1.57731222801904e-05
-5.25908696179611e-07
-2.03787755840198e-07
4.29367818069522e-06
-7.08480128050661e-08
-2.71252049691072e-07
2.49527594415318e-06
-2.08776952176892e-08
-2.83184707323507e-07
1.73055342149635e-05
-6.72817911497879e-07
-2.17699914965027e-07
4.85398508893396e-06
-9.25512803902765e-08
-2.9916471647605e-07
3.03119201079354e-06
-3.70450513914532e-08
-3.27715870977746e-07
2.24103368277927e-06
-1.38729967958624e-08
-3.23461089824496e-07
1.83323531884581e-05
-8.01754847910697e-07
-2.25735308732166e-07
5.36133859167142e-06
-1.07932081678926e-07
-3.20192085487758e-07
3.46795555733574e-06
-4.5066983912618e-08
-3.65239390561126e-07
2.643518998526e-06
-2.44361810292114e-08
-3.73100379875077e-07
2.13601082507866e-06
-1.12694071224695e-08
-3.56940721294212e-07
1.87033191242901e-05
-9.12893018693479e-07
-2.23723509422703e-07
5.61924204637068e-06
-1.21272482491328e-07
-3.21465762324875e-07
3.80505254546717e-06
-4.79574398927209e-08
-3.89434900137376e-07
3.00653814766078e-06
-3.01919307678553e-08
-4.16437411830388e-07
2.4511758661153e-06
-1.88520375535317e-08
-4.10981602297573e-07
2.07100436292818e-06
-9.24199707719382e-09
-3.8527385906436e-07
1.86064850666611e-05
-1.00991688965999e-06
-2.02899507719451e-07
5.65189814187335e-06
-1.35760719835941e-07
-3.02087436998975e-07
3.91523112825577e-06
-5.00850988806209e-08
-3.85956656827094e-07
3.26182497072347e-06
-3.29213368324205e-08
-4.43591687971507e-07
2.75270107293609e-06
-2.39267693721273e-08
-4.58084320772711e-07
2.33652440832604e-06
-1.60865867449026e-08
-4.42192039324448e-07
2.02105791146244e-06
-7.7760044224712e-09
-4.0915779825989e-07
1.22639562017858e-05
-2.03229670308022e-07
-1.82629584760979e-07
1.47642788633471e-05
-4.00666838483692e-07
-2.035313891394e-07
3.57398330182065e-06
-4.56689736339738e-08
-2.54519120310135e-07
1.62029266628058e-05
-5.75769349755988e-07
-2.18139967824103e-07
4.44097128679551e-06
-8.3343187919186e-08
-2.91461415087484e-07
2.59155291439494e-06
-2.56033740191117e-08
-3.05902618825265e-07
1.77436056419782e-05
-7.33215527861084e-07
-2.30761759407285e-07
5.00780341699712e-06
-1.08636430709188e-07
-3.19817038910864e-07
3.13599776520854e-06
-4.5144646357391e-08
-3.51789276917055e-07
2.32384555435956e-06
-1.71762086517573e-08
-3.48820061139755e-07
1.87643744632347e-05
-8.69996018007464e-07
-2.34839835578068e-07
5.51710512486291e-06
-1.25958755139709e-07
-3.40058141383491e-07
3.5775097456362e-06
-5.51741470573068e-08
-3.9058886903695e-07
2.73193626385398e-06
-3.00479387655195e-08
-3.9995719563015e-07
2.21027969881493e-06
-1.37434706722759e-08
-3.83986085321756e-07
1.91184791565319e-05
-9.84333147645316e-07
-2.32581531549158e-07
5.7665079852022e-06
-1.3954449515373e-07
-3.41387168226217e-07
3.91392377394388e-06
-5.89149517347505e-08
-4.15214392789464e-07
3.0989240358148e-06
-3.74502021215076e-08
-4.4460997189197e-07
2.52927440216645e-06
-2.31403535731359e-08
-4.39327083803965e-07
2.13832999751295e-06
-1.11844067594194e-08
-4.13081642002222e-07
1.89965170559747e-05
-1.07954613839439e-06
-2.23380897256685e-07
5.78474837310837e-06
-1.5229577663399e-07
-3.25548137434406e-07
4.01764204281333e-06
-6.05367166042703e-08
-4.11296108273632e-07
3.35459404903287e-06
-4.10476086014539e-08
-4.71347097889823e-07
2.8341290339249e-06
-2.9801558441627e-08
-4.8691483151466e-07
2.40682376660441e-06
-1.98618056158713e-08
-4.70660310409355e-07
2.08219659972591e-06
-9.54823328219582e-09
-4.36863946518516e-07
1.86618373716317e-05
-1.16165722490309e-06
-1.99758759962363e-07
5.67759827657515e-06
-1.66413615976221e-07
-2.97187320874952e-07
3.9450090677995e-06
-6.29351667027453e-08
-3.86449524896395e-07
3.3986797130809e-06
-4.299978690288e-08
-4.65661066746802e-07
3.0346792390172e-06
-3.45244925424578e-08
-5.15476175437562e-07
2.67571764468674e-06
-2.66307895002739e-08
-5.20928152713299e-07
2.32728153652363e-06
-1.79721566783307e-08
-4.95745952196183e-07
2.03845885691296e-06
-8.4023962894529e-09
-4.56179911740901e-07
1.26883682893109e-05
-2.25728037845675e-07
-1.98682722118632e-07
1.52244299575476e-05
-4.43240599815878e-07
-2.20135702126015e-07
3.72154040371875e-06
-5.40354232803738e-08
-2.76148880892794e-07
1.66709827624732e-05
-6.33849384685891e-07
-2.34869687169669e-07
4.60435718695582e-06
-9.84587631839438e-08
-3.14125196684104e-07
2.69974495731373e-06
-3.13691595431585e-08
-3.31341300735397e-07
1.8217686015982e-05
-8.03026300542855e-07
-2.46824746727491e-07
5.17786431311317e-06
-1.28305007778401e-07
-3.43237099897591e-07
3.25288093769381e-06
-5.52557781677739e-08
-3.7869124996106e-07
2.41645888515953e-06
-2.13121819907559e-08
-3.77203432432489e-07
1.92282012616728e-05
-9.48281050546121e-07
-2.48758136836079e-07
5.68906836144224e-06
-1.48271868234912e-07
-3.63088397757926e-07
3.6994004776461e-06
-6.79658689337749e-08
-4.18885216702926e-07
2.83013451488262e-06
-3.72557608806682e-08
-4.29907142513687e-07
2.29267584388689e-06
-1.69074241842081e-08
-4.14308515471541e-07
1.95570039582922e-05
-1.06683872645986e-06
-2.41678557072768e-07
5.93091481966102e-06
-1.62805091013469e-07
-3.62399582241305e-07
4.03547531097399e-06
-7.29986124453087e-08
-4.43783762991441e-07
3.20117621533195e-06
-4.66348754488093e-08
-4.76253066368614e-07
2.61529288153413e-06
-2.84934385269666e-08
-4.71225036956322e-07
2.21234210802281e-06
-1.35962476747214e-08
-4.44401623228033e-07
1.94069520221818e-05
-1.16219221547429e-06
-2.32574097152309e-07
5.93300947196533e-06
-1.74504533194961e-07
-3.45881066117667e-07
4.1306205248685e-06
-7.45638267889202e-08
-4.38715349404948e-07
3.45623154785505e-06
-5.1307199539246e-08
-5.02993575139539e-07
2.9232853851221e-06
-3.68703247242839e-08
-5.20035357619851e-07
2.48363085596926e-06
-2.41139836832657e-08
-5.03204008474445e-07
2.14890501147311e-06
-1.14742701997329e-08
-4.68315548048701e-07
1.90415942429518e-05
-1.23899267661955e-06
-2.20308387418091e-07
5.80807463214453e-06
-1.85532955406202e-07
-3.20621456279478e-07
4.04641627140188e-06
-7.55121707013123e-08
-4.11979423179168e-07
3.4943396988841e-06
-5.326313763658e-08
-4.94739151626534e-07
3.12362897532726e-06
-4.25840679110174e-08
-5.47513091249749e-07
2.75525157727384e-06
-3.25032614862183e-08
-5.53806640056131e-07
2.39654915248747e-06
-2.17366271705092e-08
-5.2773897160956e-07
2.09872891576174e-06
-1.01391574890917e-08
-4.8699461794124e-07
1.86418247772609e-05
-1.30572008024108e-06
-1.96122604503956e-07
5.64237124359764e-06
-1.99164919663024e-07
-2.89013148054474e-07
3.88348940138153e-06
-7.78839532026579e-08
-3.76716340130397e-07
3.38051121992686e-06
-5.44214833396853e-08
-4.63623588148469e-07
3.13320763206114e-06
-4.62258091703701e-08
-5.38660988297627e-07
2.92798588673911e-06
-3.9143709177869e-08
-5.82833112403717e-07
2.65460314097474e-06
-3.02193630649596e-08
-5.80808789552843e-07
2.3362931070962e-06
-1.99423828356078e-08
-5.46953427156904e-07
2.06118046667917e-06
-9.38090185427251e-09
-5.01267922882122e-07
1.31571095434321e-05
-2.51763995230529e-07
-2.16972695916253e-07
1.57303002087225e-05
-4.92738071145897e-07
-2.38856695071492e-07
3.88733841682898e-06
-6.40572233177632e-08
-3.00421855575436e-07
1.71831480441561e-05
-7.01359935617534e-07
-2.54044736938857e-07
4.78634370127376e-06
-1.1665961218593e-07
-3.39494894704778e-07
2.82172233398016e-06
-3.83372960999708e-08
-3.59788721028068e-07
1.8733471342557e-05
-8.83950696485127e-07
-2.65684921391249e-07
5.36628820544723e-06
-1.52054176616076e-07
-3.69697903493767e-07
3.38367854321911e-06
-6.75451072150286e-08
-4.08746134803779e-07
2.52045646988875e-06
-2.6371945943764e-08
-4.08966646362654e-07
1.97295668941127e-05
-1.0382407267314e-06
-2.66149373294385e-07
5.8788253328216e-06
-1.75410786685495e-07
-3.89475372087483e-07
3.83521265744891e-06
-8.37792780285485e-08
-4.50524499924067e-07
2.93967791307733e-06
-4.62237033041009e-08
-4.6332231245356e-07
2.38459107596524e-06
-2.08391321163217e-08
-4.48279222470948e-07
2.00266095292712e-05
-1.16196125507878e-06
-2.55922788158034e-07
6.11215158230558e-06
-1.91329804124066e-07
-3.86935230037864e-07
4.17064875934251e-06
-9.05954902136557e-08
-4.75632212294607e-07
3.3147609514335e-06
-5.81690553738593e-08
-5.11555662931417e-07
2.71061222813403e-06
-3.52386082667028e-08
-5.06894457588649e-07
2.29424407222965e-06
-1.66369732969115e-08
-4.7957315778705e-07
1.98388095573827e-05
-1.25705831567088e-06
-2.41638111693663e-07
6.09830039834237e-06
-2.02573501720997e-07
-3.67199435757874e-07
4.25660252061748e-06
-9.24875683410367e-08
-4.68891201690751e-07
3.56862977638459e-06
-6.42445919350269e-08
-5.38571131950882e-07
3.02159586134839e-06
-4.56181815663074e-08
-5.57437924616794e-07
2.56806923734701e-06
-2.93436390957151e-08
-5.39915338004814e-07
2.22210914337696e-06
-1.38387288254754e-08
-5.03766805456146e-07
1.94400461431707e-05
-1.33100813854872e-06
-2.29634032893439e-07
5.95306828219071e-06
-2.11236496320805e-07
-3.40835782622089e-07
4.15794091696932e-06
-9.23461277117679e-08
-4.39622526437673e-07
3.59875698978525e-06
-6.64443328303586e-08
-5.27994038919615e-07
3.2208139481182e-06
-5.25926911541747e-08
-5.8445479889224e-07
2.84225431653073e-06
-3.95204846377837e-08
-5.91630636947404e-07
2.47216675694985e-06
-2.59958507283273e-08
-5.64299318006471e-07
2.16439774029808e-06
-1.20525941407227e-08
-5.21931505231464e-07
1.90083305457977e-05
-1.38890119761626e-06
-2.16600354698456e-07
5.76894382403081e-06
-2.20307289151795e-07
-3.12106048542653e-07
3.98132458618677e-06
-9.22402186521748e-08
-4.0172824476917e-07
3.47451309127905e-06
-6.66715055424952e-08
-4.92571167413355e-07
3.22431876607627e-06
-5.64664830149694e-08
-5.71966727043023e-07
3.01437936924e-06
-4.72561156970266e-08
-6.1915273102041e-07
2.73280593078803e-06
-3.6141737611415e-08
-6.17603770117816e-07
2.40441251134141e-06
-2.37110569636133e-08
-5.82285887771056e-07
2.12032566649569e-06
-1.1183361666694e-08
-5.34956311603645e-07
1.86366942988273e-05
-1.44116112154372e-06
-1.92751074804178e-07
5.59042227764174e-06
-2.34109510500925e-07
-2.79722159930899e-07
3.78890250950145e-06
-9.46195775665196e-08
-3.63167859791658e-07
3.28987851573259e-06
-6.68247014322005e-08
-4.49756693998089e-07
3.09538344769341e-06
-5.83920766802415e-08
-5.34641575813033e-07
3.01032962488333e-06
-5.24545717739429e-08
-6.070986824288e-07
2.8970434899443e-06
-4.43200547593893e-08
-6.47088664345309e-07
2.66291977273311e-06
-3.35467513947124e-08
-6.38219864078367e-07
2.35540253666202e-06
-2.17093338454508e-08
-5.96152614732043e-07
2.08713985160937e-06
-1.02341457381135e-08
-5.44251119912628e-07
1.36763109424289e-05
-2.81799009341687e-07
-2.37401231224247e-07
1.62886650147258e-05
-5.5030875024305e-07
-2.59814709906933e-07
4.07395714821959e-06
-7.60014435591889e-08
-3.27588807662723e-07
1.7746061388804e-05
-7.79944817166018e-07
-2.75704050976495e-07
4.9895953973784e-06
-1.38404557168408e-07
-3.67759980664584e-07
2.95953321367487e-06
-4.67404613433985e-08
-3.91492127274276e-07
1.92973430815958e-05
-9.7799888677993e-07
-2.87232252561919e-07
5.5753930260856e-06
-1.80484525368719e-07
-3.99325258190502e-07
3.53047323779789e-06
-8.2381096322034e-08
-4.42245161198153e-07
2.63759418582265e-06
-3.24920881240106e-08
-4.44433950931958e-07
2.02743393648465e-05
-1.14223528297626e-06
-2.86486476344463e-07
6.08875126879933e-06
-2.08206537527438e-07
-4.19458504689941e-07
3.98690556868133e-06
-1.03039219192677e-07
-4.8589615433556e-07
3.06232013319237e-06
-5.71707592755984e-08
-5.00589006826579e-07
2.48754481508283e-06
-2.56370427673345e-08
-4.86283102920026e-07
2.05331448838068e-05
-1.2707937373562e-06
-2.73983255952662e-07
6.31162022938908e-06
-2.25906959228847e-07
-4.15119928399982e-07
4.32102723210818e-06
-1.12284919601003e-07
-5.11347452525329e-07
3.44135167656257e-06
-7.24039126729496e-08
-5.50934202030134e-07
2.81675120171441e-06
-4.35748300556904e-08
-5.46724860137831e-07
2.38535464008699e-06
-2.03879622586084e-08
-5.19001649231659e-07
2.02991022400569e-05
-1.366477039673e-06
-2.55776896587316e-07
6.28014874316877e-06
-2.36886959715824e-07
-3.92212903489185e-07
4.39648756393176e-06
-1.14765119256556e-07
-5.02649997985943e-07
3.69339502499124e-06
-8.02883422634179e-08
-5.78276907706325e-07
3.1305303807717e-06
-5.64513253479205e-08
-5.99276166069793e-07
2.66142945524895e-06
-3.58453778559724e-08
-5.81045659536238e-07
2.30292427502277e-06
-1.67846381579388e-08
-5.43603417802565e-07
1.9857947344631e-05
-1.43637020357289e-06
-2.38585839120998e-07
6.11429584066865e-06
-2.43519519172245e-07
-3.61919260661238e-07
4.28209280426405e-06
-1.13804119456134e-07
-4.70033788863057e-07
3.7140447797507e-06
-8.30065574678312e-08
-5.65415938342289e-07
3.32786135877818e-06
-6.49691628077189e-08
-6.26266403844513e-07
2.93798931238397e-06
-4.80851915016011e-08
-6.34430817853131e-07
2.55516476583518e-06
-3.11783182508208e-08
-6.05573184950806e-07
2.23633270813071e-06
-1.43844714483463e-08
-5.6131700785372e-07
1.93912681539773e-05
-1.48813030483839e-06
-2.25816724247202e-07
5.90877780272599e-06
-2.48765098330796e-07
-3.31938327215835e-07
4.08848896726268e-06
-1.11479452186217e-07
-4.28865637997376e-07
3.57675737581517e-06
-8.24866725853537e-08
-5.25823367198221e-07
3.32359020964049e-06
-6.93335114481306e-08
-6.10523087068892e-07
3.10871908425017e-06
-5.72102159032863e-08
-6.61104147026466e-07
2.81827026028586e-06
-4.31821571155048e-08
-6.59908029077326e-07
2.47869398608243e-06
-2.79825194598852e-08
-6.22650284670487e-07
2.18464506326218e-06
-1.30881027269234e-08
-5.73162584253849e-07
1.89889842879102e-05
-1.52796116038311e-06
-2.1322834610279e-07
5.7124696050043e-06
-2.56609970734842e-07
-3.02344796010584e-07
3.88221425085814e-06
-1.10316263300868e-07
-3.87341421112571e-07
3.38005836316266e-06
-8.07658641230498e-08
-4.77812248158201e-07
3.18460089694785e-06
-7.06375075003826e-08
-5.67616000438745e-07
3.09860152665982e-06
-6.27932754930257e-08
-6.44700569420391e-07
2.98187010395631e-06
-5.25390147204733e-08
-6.87581430566989e-07
2.73987757899634e-06
-3.95169243934859e-08
-6.78755300899957e-07
2.42211968184361e-06
-2.55024647419075e-08
-6.34683348393142e-07
2.14483868024543e-06
-1.20073677852715e-08
-5.80647533004365e-07
1.86903239747194e-05
-1.56657187851556e-06
-1.90924482231779e-07
5.54658951422828e-06
-2.71785333762939e-07
-2.7030193130527e-07
3.68640907474907e-06
-1.13214357504521e-07
-3.48226811926423e-07
3.17533940606551e-06
-8.0136943433523e-08
-4.31489147611361e-07
2.99567072068725e-06
-7.0744605364012e-08
-5.17371636844875e-07
2.96619259885002e-06
-6.57042474576889e-08
-6.01566449064081e-07
2.97549684807363e-06
-5.89847574362915e-08
-6.7261355478026e-07
2.90448734733491e-06
-4.88274607205015e-08
-7.08964156447181e-07
2.6850938368307e-06
-3.6159822464065e-08
-6.93479606180959e-07
2.37914490748955e-06
-2.30098795140553e-08
-6.43396572295265e-07
2.11260866617301e-06
-1.07040508735678e-08
-5.85156467277309e-07
1.42524101536866e-05
-3.16300693177802e-07
-2.59797495207385e-07
1.69069225203624e-05
-6.17304082697624e-07
-2.82747284836668e-07
4.28421007539491e-06
-9.01752145466977e-08
-3.57477598392758e-07
1.83671715100494e-05
-8.7160066690263e-07
-2.9981951047424e-07
5.21695882083072e-06
-1.64167589065146e-07
-3.99010715641323e-07
3.11538478020664e-06
-5.67990054105292e-08
-4.26640841640453e-07
1.99164730289244e-05
-1.08755221831623e-06
-3.11518941575963e-07
5.80792792516623e-06
-2.14390498817269e-07
-4.32251196711835e-07
3.69558633088624e-06
-1.00204294563175e-07
-4.79408472079196e-07
2.76979525758108e-06
-3.98301936018184e-08
-4.83862801733884e-07
2.08690439225883e-05
-1.26292365750438e-06
-3.09777790388724e-07
6.32171917567799e-06
-2.4758208966809e-07
-4.5310190598931e-07
4.15679092201445e-06
-1.26303280855866e-07
-5.25287496119563e-07
3.20003137030179e-06
-7.04027339252364e-08
-5.42045081086602e-07
2.6032206091573e-06
-3.14280894891375e-08
-5.28681490189616e-07
2.10823781067847e-05
-1.39630358623741e-06
-2.95160934668517e-07
6.53169644263772e-06
-2.67644369095836e-07
-4.47124336536011e-07
4.48862280509749e-06
-1.38755318220306e-07
-5.51336753810171e-07
3.58287265812913e-06
-8.97573812383549e-08
-5.94829788548865e-07
2.93538938075287e-06
-5.3730206950488e-08
-5.91133418353749e-07
2.487121486586e-06
-2.49453036210405e-08
-5.63104466224145e-07
2.07940410016324e-05
-1.49176631199932e-06
-2.73966128311013e-07
6.47968669152378e-06
-2.7840958741064e-07
-4.21018324903502e-07
4.55176504957158e-06
-1.42158501996263e-07
-5.40523154477607e-07
3.8322492458825e-06
-1.00015976700661e-07
-6.22588244921841e-07
3.25173833061623e-06
-6.9740196027966e-08
-6.45976117110006e-07
2.76515169341532e-06
-4.38174579997408e-08
-6.27016917020251e-07
2.39258711428141e-06
-2.03922369493956e-08
-5.88272101181616e-07
2.03010717895235e-05
-1.55706062521636e-06
-2.52536193678864e-07
6.29118271557975e-06
-2.82844827337394e-07
-3.86703766332342e-07
4.41961931034652e-06
-1.4038340722599e-07
-5.04121006613728e-07
3.84178951484797e-06
-1.03458859165546e-07
-6.07222541515323e-07
3.44635899528314e-06
-8.01679711332444e-08
-6.73056738541396e-07
3.04383309854766e-06
-5.8574445088241e-08
-6.82390329896865e-07
2.64674469856495e-06
-3.75504111420692e-08
-6.51859117925523e-07
2.31557144859028e-06
-1.72592750222743e-08
-6.05582663590518e-07
1.97912307629934e-05
-1.6016286973173e-06
-2.34704945508387e-07
6.06359284357702e-06
-2.84424320530228e-07
-3.52496160704154e-07
4.20746010529991e-06
-1.35957204613311e-07
-4.58737590848712e-07
3.68936178841271e-06
-1.02332211217465e-07
-5.63310896507235e-07
3.43271313428588e-06
-8.52508520071407e-08
-6.54255435419723e-07
3.21241682968714e-06
-6.93647934984604e-08
-7.08683589209057e-07
2.91215159031662e-06
-5.16930324353593e-08
-7.07796813606051e-07
2.56009736150359e-06
-3.31381874417312e-08
-6.68222150566387e-07
2.25496189264413e-06
-1.54061349335967e-08
-6.16227426129793e-07
1.93553094095386e-05
-1.63193540239595e-06
-2.22519583129046e-07
5.8466489313285e-06
-2.87020278315538e-07
-3.21740411756923e-07
3.98384687330467e-06
-1.31392970047364e-07
-4.13657077350523e-07
3.47773017763239e-06
-9.8804601491744e-08
-5.10217988715727e-07
3.28150909486592e-06
-8.60899411996242e-08
-6.05973071773127e-07
3.1947692676817e-06
-7.56017095829411e-08
-6.88298147859365e-07
3.0744340051603e-06
-6.25333618451556e-08
-7.34316177662211e-07
2.82387988630583e-06
-4.65800234909386e-08
-7.25312373603945e-07
2.49479380942923e-06
-2.97722815978645e-08
-6.78639803120461e-07
2.20748217066601e-06
-1.39029244363612e-08
-6.21902981986082e-07
1.9028595309628e-05
-1.65495773481056e-06
-2.11275494875258e-07
5.66412679074208e-06
-2.94932610328019e-07
-2.92444427826859e-07
3.77491020796368e-06
-1.29756540815218e-07
-3.71404535579483e-07
3.26093215252291e-06
-9.5385527860754e-08
-4.58313368616046e-07
3.08111104672391e-06
-8.47022039204085e-08
-5.4918618807391e-07
3.05257302587153e-06
-7.80879531300381e-08
-6.38700760567094e-07
3.06217836185504e-06
-6.94791242350586e-08
-7.14441321983704e-07
2.98799360311388e-06
-5.71306776862344e-08
-7.53473720983052e-07
2.7605663171729e-06
-4.21485302206931e-08
-7.37581241611084e-07
2.44414316110607e-06
-2.67749484889428e-08
-6.8491364158407e-07
2.16847753382895e-06
-1.24520052652879e-08
-6.24064295877479e-07
1.88232418380052e-05
-1.67965991282994e-06
-1.91966845485071e-07
5.52789575907668e-06
-3.13102167876583e-07
-2.62128287120428e-07
3.58824483607158e-06
-1.34006863778547e-07
-3.32977675921256e-07
3.05528690634547e-06
-9.4555598363606e-08
-4.11489613596309e-07
2.87591426065799e-06
-8.33353215390322e-08
-4.95090491596916e-07
2.86438814549347e-06
-7.86767217311311e-08
-5.81419814599558e-07
2.93045120154214e-06
-7.33301336684949e-08
-6.65884406673937e-07
2.9833949650467e-06
-6.4539634264037e-08
-7.35903517903075e-07
2.92863498654856e-06
-5.22118848792721e-08
-7.68685904157886e-07
2.71250300700645e-06
-3.79086502442692e-08
-7.46621434615794e-07
2.4027951332385e-06
-2.37095470487359e-08
-6.8850016953968e-07
2.13393545175455e-06
-1.08642285052534e-08
-6.23855923249117e-07
1.48923849401859e-05
-3.56410219526504e-07
-2.83564312742509e-07
1.75929201713404e-05
-6.95033471909664e-07
-3.07264795682553e-07
4.52118685688903e-06
-1.06906591223217e-07
-3.89866799430621e-07
1.90546844393372e-05
-9.78760297171595e-07
-3.26056506147598e-07
5.47171225403198e-06
-1.9457167212944e-07
-4.33102593097491e-07
3.29181602828692e-06
-6.86472897501557e-08
-4.6526137329554e-07
2.05991892674367e-05
-1.21545792102177e-06
-3.38859698588648e-07
6.06722396271598e-06
-2.54749963187025e-07
-4.68531995718106e-07
3.88155974969941e-06
-1.21462546321666e-07
-5.20319887248449e-07
2.91917615512884e-06
-4.86287793711908e-08
-5.27392950614373e-07
2.15211034237892e-05
-1.40342074489921e-06
-3.36192400496595e-07
6.58091225254195e-06
-2.94608824708734e-07
-4.90493127284505e-07
4.34746865231231e-06
-1.54229146776911e-07
-5.68903601084456e-07
3.35502279080147e-06
-8.62842765256992e-08
-5.87945338488898e-07
2.73349453150189e-06
-3.83584171077736e-08
-5.75778112458757e-07
2.1680706249207e-05
-1.54173016217309e-06
-3.19519764185869e-07
6.77524834768839e-06
-3.17780047211265e-07
-4.83133084590433e-07
4.67586328010768e-06
-1.70763793358797e-07
-5.95881540857293e-07
3.74152490694362e-06
-1.10727499548105e-07
-6.43614167268685e-07
3.06839977057973e-06
-6.59819464332324e-08
-6.40501005938994e-07
2.60115950504664e-06
-3.04287599250142e-08
-6.1229057068367e-07
2.13290317579049e-05
-1.63593805180495e-06
-2.95353003242985e-07
6.69915812281501e-06
-3.2849595223266e-07
-4.53779512795166e-07
4.72443863755658e-06
-1.75583663392854e-07
-5.82968532277273e-07
3.98720197180044e-06
-1.24052521232312e-07
-6.71992982734228e-07
3.38707196650888e-06
-8.58848844638693e-08
-6.98008178029632e-07
2.88083716909366e-06
-5.34800942006195e-08
-6.78283605040371e-07
2.49247043798394e-06
-2.47542987658966e-08
-6.38233280520928e-07
2.0774997429619e-05
-1.69515170966077e-06
-2.70541218211722e-07
6.48461740603112e-06
-3.30420909095491e-07
-4.15387092461997e-07
4.57186297074118e-06
-1.73004640662812e-07
-5.42415327191816e-07
3.98369765026285e-06
-1.28536799197796e-07
-6.53908330907455e-07
3.57804414947385e-06
-9.8725849030275e-08
-7.25286221056443e-07
3.16135275349445e-06
-7.13438905671131e-08
-7.3596867317375e-07
2.74826409677775e-06
-4.53031439757186e-08
-7.03624678494347e-07
2.40327393337142e-06
-2.07515252112963e-08
-6.55222829383694e-07
2.02141928521101e-05
-1.73124036677366e-06
-2.48784062568721e-07
6.23267370275232e-06
-3.27743413405327e-07
-3.76719080080963e-07
4.33885525220271e-06
-1.66213151069579e-07
-4.92267951801226e-07
3.81382004260601e-06
-1.26788339892248e-07
-6.05247896977737e-07
3.5532926662682e-06
-1.0473031347695e-07
-7.03237829699508e-07
3.32695338432596e-06
-8.41496117642506e-08
-7.62017359595345e-07
3.01573634336447e-06
-6.20221092711391e-08
-7.6150297434301e-07
2.64974483085009e-06
-3.94226918965352e-08
-7.19342725545218e-07
2.33225801551291e-06
-1.82678191406172e-08
-6.64610765669518e-07
1.97356242667596e-05
-1.75072453410134e-06
-2.31220006427009e-07
5.99436379658556e-06
-3.25129916611543e-07
-3.41712423659499e-07
4.09624600952321e-06
-1.58209730998315e-07
-4.42641661217493e-07
3.58492866323993e-06
-1.21426370564756e-07
-5.46839671161703e-07
3.38774330821693e-06
-1.05207884755958e-07
-6.49586368317837e-07
3.30026769260377e-06
-9.12641423791822e-08
-7.37853538380267e-07
3.17601458951936e-06
-7.46266133626817e-08
-7.87329848694059e-07
2.91600433718382e-06
-5.50555677343645e-08
-7.78003358044324e-07
2.57431162689553e-06
-3.48917413549857e-08
-7.28253863104163e-07
2.27583783103487e-06
-1.61953000904404e-08
-6.68387615099346e-07
1.93781120679119e-05
-1.76076452363406e-06
-2.20689241899206e-07
5.79244276591363e-06
-3.26423078528844e-07
-3.11433874730855e-07
3.87063292586126e-06
-1.5208233336334e-07
-3.96774082419073e-07
3.35313442817059e-06
-1.15150464651952e-07
-4.89511733407108e-07
3.17356450689322e-06
-1.02347941196202e-07
-5.86411108660958e-07
3.14642888972406e-06
-9.34831352464565e-08
-6.81946488027002e-07
3.15657554664283e-06
-8.23453968459916e-08
-7.62882692704399e-07
3.07902122291036e-06
-6.71522042500771e-08
-8.0477110040694e-07
2.84283801827771e-06
-4.91930893783505e-08
-7.88162668284984e-07
2.51483918200057e-06
-3.10079218828702e-08
-7.3223050696775e-07
2.2290307779152e-06
-1.43219404356091e-08
-6.68134119111149e-07
1.91475705231628e-05
-1.76702369751269e-06
-2.12263407220239e-07
5.64149003821228e-06
-3.36114861230548e-07
-2.83689226975005e-07
3.6720388173072e-06
-1.50921141316982e-07
-3.55072849985677e-07
3.13607639921099e-06
-1.1068537967249e-07
-4.36892713082395e-07
2.95692396306027e-06
-9.86483740443254e-08
-5.25375050691351e-07
2.94712101293325e-06
-9.2820208730283e-08
-6.1718576792916e-07
3.01533705340728e-06
-8.59180139522949e-08
-7.07147072051649e-07
3.06879821265225e-06
-7.51511699699413e-08
-7.81823559930802e-07
3.01058177429425e-06
-6.05366323780669e-08
-8.17031750781922e-07
2.786082921968e-06
-4.3858464026583e-08
-7.94077276094394e-07
2.46563892628046e-06
-2.74166960971702e-08
-7.3279227062347e-07
2.18750825062742e-06
-1.25730500223722e-08
-6.65064002276814e-07
1.90343922345069e-05
-1.77785563268158e-06
-1.96318316028702e-07
5.54805029292543e-06
-3.59082547113122e-07
-2.56692791748311e-07
3.504009150533e-06
-1.57883682443922e-07
-3.1857592793346e-07
2.9383504908827e-06
-1.10458916101782e-07
-3.9092214985451e-07
2.75135185426809e-06
-9.63642897817572e-08
-4.70748648731593e-07
2.74382632523502e-06
-9.14343450350149e-08
-5.55679570973785e-07
2.82847671623253e-06
-8.71147735881972e-08
-6.43237898976864e-07
2.93898346071534e-06
-7.98103958599008e-08