/*--------------------------------*- C++ -*----------------------------------*\
  =========                 |
  \\      /  F ield         | OpenFOAM: The Open Source CFD Toolbox
   \\    /   O peration     | Website:  https://openfoam.org
    \\  /    A nd           | Version:  12
     \\/     M anipulation  |
\*---------------------------------------------------------------------------*/
/*   Windows 32 and 64 bit porting by blueCAPE: http://www.bluecape.com.pt   *\
|  Based on Windows porting (2.0.x v4) by Symscape: http://www.symscape.com   |
\*---------------------------------------------------------------------------*/
FoamFile
{
    format      ascii;
    class       volVectorField;
    location    "100";
    object      U;
}
// * * * * * * * * * * * * * * * * * * * * * * * * * * * * * * * * * * * * * //

dimensions      [0 1 -1 0 0 0 0];

internalField   nonuniform List<vector> 
10252
(
(1.4179402676898e-06 0.00140407432071712 2.79275279767222e-05)
(2.14548736450682e-06 0.00143521684567914 3.06016770085611e-05)
(6.40732786641846e-06 0.00135892129996473 2.75581037821664e-05)
(2.06175543824293e-06 0.000925599784767092 5.13334967131218e-05)
(2.45644443586507e-06 0.00147106761979007 3.38619453786762e-05)
(7.96840397222988e-06 0.00137963736095599 3.11765688297197e-05)
(2.30975772718349e-06 0.000949218720022773 5.60742813296807e-05)
(1.24185262718215e-05 0.00133632445994201 2.75088267113358e-05)
(7.90347365909151e-06 0.000860280504409974 5.07899413837179e-05)
(1.19918640502278e-06 0.000930608641635421 7.90530689317292e-05)
(2.02953902344993e-06 0.00151175287588306 3.76242180921141e-05)
(8.29542020714733e-06 0.00141091966448196 3.49315737418961e-05)
(2.27103870805149e-06 0.000976980160743366 6.13234238693406e-05)
(1.39523506876124e-05 0.00135152589859801 3.18147709737136e-05)
(8.57015488145793e-06 0.000876873103520588 5.5820667686199e-05)
(1.14017936011534e-06 0.000956961247228607 8.5713517671915e-05)
(1.80225224233319e-05 0.00134278461878752 2.72865049290773e-05)
(1.4873637696952e-05 0.000835730447917244 5.0474728703349e-05)
(3.95121524035796e-06 0.000909903246483263 7.92870588769624e-05)
(6.71895736947719e-07 0.000951284284203234 0.000108568430434849)
(1.39234876987254e-06 0.00155869238622257 4.19268068764901e-05)
(7.10729374578142e-06 0.0014481731142726 3.86833749280817e-05)
(1.92302562743296e-06 0.00100888640628876 6.71906380095912e-05)
(1.37692596747894e-05 0.00138078557518847 3.59111106706251e-05)
(8.37661468753704e-06 0.00090044758904509 6.1367328008576e-05)
(9.276567485852e-07 0.000986725972990729 9.33217252075581e-05)
(1.9184735331339e-05 0.0013558431447827 3.18309673038543e-05)
(1.54503246776416e-05 0.000848240357095118 5.60419275231412e-05)
(3.67927957240712e-06 0.000932547563727579 8.5983246041246e-05)
(5.05711522834234e-07 0.000979450546123081 0.000117233665636524)
(2.3785093223381e-05 0.00133404504529488 2.62903013580075e-05)
(2.18355526481058e-05 0.000821636297091544 5.03504323173789e-05)
(7.58993449552952e-06 0.000896873045558499 8.00339831716186e-05)
(1.48120474453069e-06 0.000941524178912436 0.000108938871797303)
(1.62084825376501e-07 0.000982407001409814 0.000138168651208164)
(6.51877403445401e-07 0.00161256869947454 4.67220586903485e-05)
(5.3991702819628e-06 0.00149176484880367 4.33192011660551e-05)
(1.4054245173715e-06 0.00104546547593691 7.39558887518013e-05)
(1.19567543231008e-05 0.00141665805899054 3.97649328629057e-05)
(7.35737717126356e-06 0.000929775877444788 6.7490813806228e-05)
(5.49815302554837e-07 0.00102041470778336 0.000101853208065068)
(1.83764985535805e-05 0.00138378643652407 3.61222407380555e-05)
(1.48929599644894e-05 0.00086946536239746 6.19541133569522e-05)
(2.98727452326654e-06 0.000960199655289902 9.36400554557663e-05)
(2.28788408728991e-07 0.00101080794922511 0.000127146310732459)
(2.43961899198523e-05 0.00134496458060182 3.09360630398471e-05)
(2.2155025167822e-05 0.000832007706297494 5.58677952289074e-05)
(7.0046623240005e-06 0.000916989716889784 8.66127224046763e-05)
(9.4582575888544e-07 0.000967530343679139 0.000117581028177888)
(-5.76435720812463e-08 0.00101188753401471 0.000148816151934026)
(2.93189199545734e-05 0.00130778336485074 2.4654473860395e-05)
(2.89454196988884e-05 0.000795580814577028 4.88020954226036e-05)
(1.08832896198591e-05 0.0008815441765889 7.91292686349951e-05)
(2.87451088869859e-06 0.00093047869340633 0.000109187032907627)
(-2.8996403376466e-07 0.000974054374898309 0.000138294748313002)
(-3.59268653557422e-07 0.00101896228834531 0.000167439369259862)
(-2.36209986650215e-07 0.00167431091716687 5.21463856881739e-05)
(3.24147798902185e-06 0.00154206221479467 4.87207907214332e-05)
(7.40597642794472e-07 0.00108734413759077 8.16040104127966e-05)
(9.24470108622086e-06 0.00145893176410257 4.45618273965963e-05)
(5.868198758921e-06 0.000963990379101712 7.4688599460676e-05)
(3.28138965304033e-08 0.00105848540298798 0.000111476992767025)
(1.57346707331208e-05 0.00141860784210601 3.99606063321672e-05)
(1.32613807354948e-05 0.00089747011088073 6.83258654004168e-05)
(1.82172608337258e-06 0.000992732334828898 0.000102378182996195)
(-1.60643015981985e-07 0.00104590348556261 0.000138355546954876)
(2.27809541932089e-05 0.00137111956947165 3.53936393998661e-05)
(2.11676588520042e-05 0.000851580409948297 6.17900087701559e-05)
(5.71639781382387e-06 0.000943076850092308 9.41098767417927e-05)
(4.95390675816961e-08 0.000997653597480809 0.000127588203256135)
(-3.70155872752273e-07 0.00104451548509874 0.000161010687215536)
(2.96468405205875e-05 0.00131647735463368 2.9515869003017e-05)
(2.89880563797353e-05 0.000804118641501111 5.4179199675422e-05)
(1.00582787461234e-05 0.000899980286016447 8.58909312483276e-05)
(1.90528115131042e-06 0.000954781800856995 0.000117767497594715)
(-9.85782284395296e-07 0.00100197533702309 0.000148874150023792)
(-6.10680955287595e-07 0.00104942983638973 0.000180059218799577)
(3.45003753161739e-05 0.00126727495010349 2.22073792191565e-05)
(3.5849575708177e-05 0.000758745026036191 4.58132213174785e-05)
(1.45467858978055e-05 0.00085372565532 7.63031312497487e-05)
(4.19319634937385e-06 0.000913792718967948 0.000108060891182873)
(-4.8541661341327e-07 0.000961953244887915 0.000138013856816289)
(-1.69894064391902e-06 0.00100966604172739 0.000167013159417496)
(-8.22112290250767e-07 0.00105731934283151 0.000196062548569611)
(-1.3332337993404e-06 0.00174512473553945 5.83804313482938e-05)
(5.16138551852804e-07 0.00159997218006618 5.49618548693629e-05)
(-8.76447508151205e-08 0.00113537745852455 9.02320550872089e-05)
(5.55910117431595e-06 0.00150759432126782 5.02091021436738e-05)
(3.95313381264444e-06 0.00100336804431674 8.27767024583078e-05)
(-6.23676889828531e-07 0.00110157432681286 0.000122352673947787)
(1.16866341236073e-05 0.00145997105010971 4.48735189869996e-05)
(1.08714663399574e-05 0.000930466825195747 7.56590944926801e-05)
(2.44929487681376e-07 0.00102979908353796 0.000112322033751397)
(-6.66720136449633e-07 0.00108524146884845 0.000151027494652851)
(1.91293448526046e-05 0.00140416791571206 3.92162639321166e-05)
(1.89015965944706e-05 0.000878460680851414 6.81974220239256e-05)
(3.71071458359331e-06 0.000974711773862249 0.000103000917289257)
(-1.18957574968665e-06 0.00103208179008181 0.000139024668913876)
(-7.75017299521199e-07 0.00108078905458514 0.000174838201717773)
(2.74414676616705e-05 0.00134041360628383 3.39616061299907e-05)
(2.75352542260239e-05 0.000821891523115413 6.01678950925845e-05)
(8.2207165081781e-06 0.000924730965422326 9.35518684089278e-05)
(3.33773605263708e-07 0.000983800882515003 0.000127827590456305)
(-1.98674495769956e-06 0.0010336608368107 0.000161143505757637)
(-9.44701826159845e-07 0.00108302579718537 0.000194501596956787)
(3.48487326489918e-05 0.00127348604335732 2.70937020327811e-05)
(3.572727239968e-05 0.000765437858461458 5.1108759546558e-05)
(1.32704457925405e-05 0.000870560412621521 8.30052639403683e-05)
(2.69758651435374e-06 0.000936760350588139 0.000116593008486065)
(-1.70753519272038e-06 0.000988522344796959 0.000148508470099536)
(-2.48590761574285e-06 0.0010388305315066 0.000179506153554106)
(-1.09646287146523e-06 0.00108846668057199 0.000210606904299245)
(3.90089201753901e-05 0.00121720922808452 1.91552137554484e-05)
(4.22606855607959e-05 0.00071410477142523 4.16870906573001e-05)
(1.81023466896047e-05 0.000815230314212739 7.18256318833439e-05)
(5.56045133796635e-06 0.000884815778384862 0.00010441713135327)
(-7.01867243012758e-07 0.000943152118307171 0.000136202591736765)
(-3.06230909004141e-06 0.000995813306230977 0.000166015404977289)
(-2.83622632137498e-06 0.00104641431266961 0.000194975501979075)
(-1.18484784525396e-06 0.00109486321109287 0.000223865990298055)
(-2.67163260567597e-06 0.00182655293430993 6.56383483892837e-05)
(-2.91195928774496e-06 0.0016667607874717 6.22031108277105e-05)
(-1.12087421216572e-06 0.00119055454681291 0.000100056764277131)
(7.56922223921874e-07 0.00156364769479908 5.68469763514533e-05)
(1.53447001929544e-06 0.0010486748427864 9.19355357113672e-05)
(-1.43689707724858e-06 0.00115052906254445 0.000134677691500281)
(6.28725078844153e-06 0.00150755360674927 5.07294261587284e-05)
(7.70944111668438e-06 0.000968535302276253 8.39354629463841e-05)
(-1.76117257097809e-06 0.00107184419418216 0.000123591710172733)
(-1.30572610237034e-06 0.00112947591631749 0.000165351687943437)
(1.3799386393915e-05 0.00144373995244147 4.40827619009791e-05)
(1.55308812593465e-05 0.000910398219987245 7.56024764954964e-05)
(1.02667120699136e-06 0.00101095333721731 0.00011316341805716)
(-2.78257111665564e-06 0.00107084120479313 0.000152004953878917)
(-1.28555357459629e-06 0.00112121736057084 0.000190475875515784)
(2.29994182321601e-05 0.00137089944702122 3.76278088650035e-05)
(2.45997120712536e-05 0.000847160752673715 6.65509183384231e-05)
(5.35730454214302e-06 0.000955335235367331 0.000102548723883877)
(-1.83031752304902e-06 0.00101752049405617 0.000139420519630152)
(-3.28092418661927e-06 0.00106937836682198 0.000175162598006587)
(-1.36368811701929e-06 0.00112020159694945 0.000210885421517816)
(3.2319880118171e-05 0.00129462290655938 3.15922248760688e-05)
(3.39041388652216e-05 0.000781212732280089 5.70471749981711e-05)
(1.07917963990292e-05 0.000893749246114404 9.07492049586309e-05)
(4.01597486370086e-07 0.000964643775181637 0.00012664091012469)
(-3.45725625349926e-06 0.00101926377223985 0.000160799146642657)
(-3.54723365007298e-06 0.0010715891674865 0.000193971090129411)
(-1.44706681761376e-06 0.00112270704648621 0.00022722861080229)
(3.96994184193752e-05 0.00122075444369451 2.39595029970857e-05)
(4.21296781912036e-05 0.00071889259622706 4.6818517387318e-05)
(1.64251403852264e-05 0.000830375008545175 7.83148747926931e-05)
(3.51429868397084e-06 0.000906401249866435 0.000112766638657945)
(-2.53882164592529e-06 0.000968551684509242 0.000146558350694255)
(-4.4413145739531e-06 0.00102377881433345 0.000178362177380761)
(-3.68444663800791e-06 0.00107638320534949 0.000209330548701632)
(-1.47364091202117e-06 0.00112636361889896 0.000240255385733127)
(4.25462027294966e-05 0.001161989744783 1.54240270191982e-05)
(4.78280425577879e-05 0.000663944966121684 3.65783713075906e-05)
(2.13109672628761e-05 0.000768801985339187 6.5847636916895e-05)
(6.90768165647172e-06 0.000845333134744467 9.8524929042689e-05)
(-9.67404179264605e-07 0.000912677415005325 0.000131569685281697)
(-4.50446676003785e-06 0.000974905338900847 0.000163399311907377)
(-5.06728434613351e-06 0.0010307218141719 0.000193244582633068)
(-3.74072954567626e-06 0.00108239232922943 0.000222162804820887)
(-1.44352294250774e-06 0.00112968207712492 0.00025076992351163)
(-4.26775328910507e-06 0.00192045885924576 7.4167572112648e-05)
(-7.13925193126259e-06 0.0017439935778639 7.06125257037634e-05)
(-2.41810719551904e-06 0.00125405969325902 0.0001113806909072)
(-5.33027586838906e-06 0.0016283890570132 6.46116146900218e-05)
(-1.50464376117488e-06 0.00110090742594482 0.000102398709346178)
(-2.43712183330458e-06 0.00120631984272066 0.000148645643447717)
(-6.94325270264205e-07 0.00156227737034795 5.76471668550022e-05)
(3.6371763862119e-06 0.00101237344517036 9.34772421615585e-05)
(-4.25420190149261e-06 0.00111966293200798 0.000136379679736542)
(-2.0988950570264e-06 0.00117941245076529 0.000181537588137535)
(6.6821104003178e-06 0.00148934239178511 5.00580892764371e-05)
(1.0995845845665e-05 0.000947244605009973 8.40811559416701e-05)
(-2.40937735230664e-06 0.00105209706493218 0.00012471183252469)
(-4.78153339424178e-06 0.00111446707404062 0.000166700068147701)
(-1.92242111608831e-06 0.00116644511823602 0.000208139810306073)
(1.64437773050154e-05 0.00140773560849792 4.23086112959242e-05)
(2.02799542645452e-05 0.000877425548595245 7.39571951002892e-05)
(1.51359107396611e-06 0.000990520781600347 0.00011277366724069)
(-4.61072758271934e-06 0.0010555942319923 0.000152605728747151)
(-4.89680469365993e-06 0.00110930374526009 0.000191053105281384)
(-1.88334732073167e-06 0.00116145668364281 0.000229413580231773)
(2.74483084841738e-05 0.00132202313919824 3.51575460546968e-05)
(3.04060914424314e-05 0.000804422112487675 6.33285232846572e-05)
(7.10500047079598e-06 0.000922832656773904 9.96481326894116e-05)
(-2.74822372374003e-06 0.000997404729839614 0.000138247092375261)
(-5.73485539028545e-06 0.00105430149891941 0.000174929918204105)
(-4.87909785244439e-06 0.00110822105196088 0.000210482650809874)
(-1.87826689078829e-06 0.00116045910164682 0.000246078848610525)
(3.71682648842369e-05 0.00123881989033672 2.83725156726643e-05)
(4.0082468593098e-05 0.000732497715431671 5.26290906088e-05)
(1.34106943785096e-05 0.000851737701118797 8.58703082439853e-05)
(4.8357957020703e-07 0.00093286895008921 0.000122644878353704)
(-5.09739362169332e-06 0.000998246730842276 0.000158761536383002)
(-6.30486713350945e-06 0.00105564866402844 0.000192790287305639)
(-4.78678959157911e-06 0.0011098262757097 0.000225914209432437)
(-1.83586274176911e-06 0.00116089834317409 0.00025895958130246)
(4.39379402933755e-05 0.00116268305380824 2.00886785631734e-05)
(4.78899746278645e-05 0.00066676710960288 4.14713422772685e-05)
(1.93905245717611e-05 0.000782156467944486 7.20080002762687e-05)
(4.37265730484656e-06 0.000865385416621518 0.000106530703789428)
(-3.43415347615672e-06 0.000936796714072683 0.000141635486022526)
(-6.55676427529888e-06 0.00100177782239526 0.00017553659131073)
(-6.54939077158518e-06 0.00105957494609556 0.000207391874189124)
(-4.6265236764938e-06 0.00111278996329203 0.000238307759661377)
(-1.7382848223174e-06 0.00116119681053395 0.000268909621765295)
(4.47108501642215e-05 0.0011048738534165 1.07709989866876e-05)
(5.22624390803164e-05 0.000610102957983394 3.0518725819679e-05)
(2.40189069451911e-05 0.000716675546882716 5.85739837090434e-05)
(8.14007438751971e-06 0.000798038994060659 9.07934711038969e-05)
(-1.19503943769885e-06 0.000872220776663675 0.000124378992328763)
(-6.03571782947088e-06 0.000943028662331324 0.000157794067620027)
(-7.49123685571412e-06 0.00100795005234205 0.000189842695984003)
(-6.6249040126267e-06 0.00106508345078898 0.000219780493058142)
(-4.42884509888394e-06 0.00111601366553382 0.000248565338634838)
(-1.61391622226256e-06 0.00116045324418063 0.000276735870709226)
(-6.13273678400392e-06 0.00202889071434126 8.39875974150693e-05)
(-1.22637723976234e-05 0.00183345935000266 8.02319206864685e-05)
(-4.00610481484109e-06 0.00132722406751841 0.000124424333654684)
(-1.29054814398292e-05 0.00170336300474253 7.36229403391009e-05)
(-5.27618543393203e-06 0.00116118617365831 0.000114365672449823)
(-3.66742504335302e-06 0.00127003585316808 0.000164436463320789)
(-9.58672147231543e-06 0.0016254199508802 6.57366741523681e-05)
(-1.51203519355733e-06 0.00106291488103345 0.000104411726134912)
(-7.32847025835927e-06 0.00117419255441359 0.000150888487300573)
(-3.07381012849808e-06 0.00123596449384781 0.000199795022744632)
(-2.56576140699637e-06 0.00154171926401926 5.70812297414329e-05)
(5.11025739605324e-06 0.000989629611146497 9.39270931504263e-05)
(-6.70887912623169e-06 0.001098878848126 0.000137847488623159)
(-7.25673140910148e-06 0.00116372601308761 0.000183321073660786)
(-2.70800403707977e-06 0.00121723939677275 0.000228063343862725)
(7.69534424364832e-06 0.00145025996178825 4.82554385734389e-05)
(1.4430642347407e-05 0.000912339482460131 8.24552680435006e-05)
(-3.44676259022623e-06 0.00103046924648145 0.000124452749874834)
(-8.10100428892902e-06 0.00109845682849091 0.00016755309457858)
(-6.89847422178508e-06 0.00115399327486367 0.000209019385108436)
(-2.52368601867195e-06 0.00120741398672364 0.000250326863524103)
(1.99936811643617e-05 0.00135531659284903 3.97151063460771e-05)
(2.52610965642197e-05 0.000832425385395447 7.06615872198408e-05)
(2.13580531300526e-06 0.000956368408658151 0.000109836182735553)
(-6.8042713793878e-06 0.00103446324700499 0.000151473528118339)
(-8.58468867851228e-06 0.00109354373513881 0.00019097684753972)
(-6.51768456552973e-06 0.00114896283543929 0.000229184181247209)
(-2.40578801904019e-06 0.0012022062360906 0.000267385687595184)
(3.22331501495305e-05 0.0012625753701469 3.17162082688927e-05)
(3.61850589473317e-05 0.000753322656602575 5.87153786127762e-05)
(8.97024959906239e-06 0.000878876421702326 9.45546803378433e-05)
(-3.63052773988638e-06 0.000964198514236432 0.000134089625368205)
(-8.42844436553717e-06 0.00103233807242227 0.000172848993217621)
(-8.66062626490018e-06 0.00109158552216615 0.000209345113095166)
(-6.14538637131018e-06 0.00114701811381621 0.000244820567857317)
(-2.27616461203085e-06 0.00119885861535885 0.00028015679229332)
(4.1781005407746e-05 0.00117747920255418 2.4255871914457e-05)
(4.58288724465204e-05 0.00067807556298438 4.70795373758882e-05)
(1.59648803300852e-05 0.000801499180531854 7.9255939835758e-05)
(6.81082299781022e-07 0.000890166970996064 0.000116082214200668)
(-6.80568322344694e-06 0.00096515637100244 0.000153573981441808)
(-9.2847369886281e-06 0.00103263569358622 0.000189808423233779)
(-8.48651278224747e-06 0.00109215311080221 0.000223876431243896)
(-5.75423127715037e-06 0.00114654979209614 0.00025691951382119)
(-2.10498300265353e-06 0.00119566101910008 0.000289587527241147)
(4.72372774144017e-05 0.00110259308960072 1.53435399795426e-05)
(5.27366199029029e-05 0.000610881040984053 3.50970718360393e-05)
(2.20235278613804e-05 0.000728147144881191 6.43125489435448e-05)
(5.22941255512531e-06 0.00081641511288373 9.83288818984715e-05)
(-4.23483724445844e-06 0.000894888380992753 0.000134001256092599)
(-8.77512842123037e-06 0.00096867538593968 0.000169568283643726)
(-9.68536261112316e-06 0.00103575097467614 0.000203718904751593)
(-8.17131876518192e-06 0.00109442099906718 0.000235664831495538)
(-5.33236030483358e-06 0.00114647908978917 0.000266418380185713)
(-1.91097266765576e-06 0.00119162783385035 0.000296525031447978)
(4.50843257936094e-05 0.00104813124776055 5.20747039314116e-06)
(5.53276709427459e-05 0.00055423628887265 2.34907674172846e-05)
(2.6071940921589e-05 0.000660726032295415 5.00845851279584e-05)
(9.16836061770796e-06 0.000745162278434161 8.15194670418747e-05)
(-1.37984930410338e-06 0.000824330351070956 0.00011511761684007)
(-7.48645325803138e-06 0.000901802958838812 0.000149456642206357)
(-1.00174826402595e-05 0.000974903542597304 0.000183348125143861)
(-9.8142066510969e-06 0.00104080051791962 0.000215664990028299)
(-7.81100649275099e-06 0.00109747392687612 0.000245628718869351)
(-4.92068620937152e-06 0.00114600497503826 0.000274137627081861)
(-1.71483164166327e-06 0.00118626429218566 0.000301698403750492)
(-8.44410087419793e-06 0.00215382355567541 9.50788156348484e-05)
(-1.84874596861504e-05 0.00193701540061585 9.05285729878042e-05)
(-5.90139428931779e-06 0.00141141826538688 0.000138994515146382)
(-2.22911856955646e-05 0.00179026868433435 8.38800334606671e-05)
(-9.88774300177532e-06 0.00123072823917206 0.000127978825624403)
(-5.17670309608191e-06 0.00134286736567232 0.000182186987673346)
(-2.07778731586691e-05 0.0016984148446641 7.50924245018536e-05)
(-7.92095067789273e-06 0.0011211764241341 0.00011688158982291)
(-1.11029751394919e-05 0.00123647775392215 0.000167299708521421)
(-4.26339090304396e-06 0.00130014917615123 0.00022031191956762)
(-1.44149027223146e-05 0.0016020845332745 6.52642938117919e-05)
(-2.34718238311796e-06 0.00103844941422288 0.000105202734417903)
(-1.2028607901196e-05 0.00115219327857977 0.000152765014987555)
(-1.02932441985861e-05 0.00121950495631694 0.000202081816910293)
(-3.66779634886184e-06 0.00127446585138444 0.000250475289395719)
(-3.75468165650378e-06 0.00149904311918814 5.52743912750717e-05)
(6.78921976953671e-06 0.000952458016774522 9.22540502519615e-05)
(-9.69998015322926e-06 0.00107584717650383 0.000137769566010109)
(-1.24225733599472e-05 0.00114683210824807 0.000184479938841332)
(-9.35837506912694e-06 0.00120418262106341 0.000229295066375065)
(-3.30611730405043e-06 0.00125880310405316 0.000273879925583802)
(9.96960675897206e-06 0.00139385754698359 4.55700159646466e-05)
(1.82424744591769e-05 0.000864741297241551 7.90715389889223e-05)
(-4.30416374031794e-06 0.000994413650616841 0.000121448543713246)
(-1.19124333209847e-05 0.001076163796215 0.000166490068068201)
(-1.21099055949852e-05 0.00113746654493187 0.000209135993881389)
(-8.52533645251398e-06 0.00119436409322874 0.000250305695869425)
(-3.04951791237339e-06 0.00124854294848793 0.000291413317552655)
(2.44260073969339e-05 0.00129180607824141 3.61626659760927e-05)
(3.04032308509888e-05 0.000778609393074183 6.58369505226441e-05)
(2.99915958257904e-06 0.000910223942460691 0.000104529503624382)
(-8.93482823610729e-06 0.000999668733092192 0.000147152405518458)
(-1.26120032188591e-05 0.00107055496419124 0.000188872509529789)
(-1.15616901123891e-05 0.00113161240674446 0.000228123442880062)
(-7.79790084063291e-06 0.00118822040169474 0.000266216081914334)
(-2.80931507872853e-06 0.00124070932984694 0.000304099855200217)
(3.70602501963884e-05 0.00119731626194321 2.74199800824892e-05)
(4.1765020156516e-05 0.000696262670055121 5.2864088051319e-05)
(1.09328856676473e-05 0.000826372812808178 8.7613982130592e-05)
(-4.30015593173269e-06 0.000919654840946331 0.000127193339563818)
(-1.118187480905e-05 0.000997861782109976 0.000167407026079247)
(-1.27393791066221e-05 0.00106761707168307 0.000206247896971998)
(-1.08914791725371e-05 0.0011286298615318 0.000242753642469883)
(-7.1288424347091e-06 0.00118393586174778 0.000278109913322758)
(-2.54761116443767e-06 0.00123344001542896 0.000313003553148912)
(4.58786829282709e-05 0.00111403580148881 1.94098107831713e-05)
(5.090932859135e-05 0.000619792003576537 4.04576795184874e-05)
(1.83736493791051e-05 0.000745317983441835 7.11547359398553e-05)
(1.00756357447666e-06 0.000839295969425544 0.000107422160220966)
(-8.34859069331815e-06 0.00092164327852625 0.000145504804635325)
(-1.23731898127156e-05 0.000998242518037268 0.000183494999884793)
(-1.25232977706208e-05 0.00106733218738875 0.000219982510566225)
(-1.01503218588e-05 0.0011273309298729 0.000254121892347141)
(-6.46950990046696e-06 0.00118018668778907 0.000286958803528889)
(-2.2765986686879e-06 0.00122564232496635 0.000319059061998102)
(4.92151177117303e-05 0.00104282888546673 9.63734057137413e-06)
(5.64322173930967e-05 0.0005529419071113 2.77050750597402e-05)
(2.41921135871376e-05 0.000670234258420166 5.53191933597716e-05)
(6.02895851556079e-06 0.000761741891848631 8.84723652573231e-05)
(-4.88457007593425e-06 0.000845390803605479 0.000124160057121579)
(-1.08594074284339e-05 0.000926048497222389 0.000160706774949582)
(-1.2940170176753e-05 0.00100151496195944 0.000196797940567019)
(-1.2099719438875e-05 0.00106911538326217 0.000231226058201457)
(-9.39446756909381e-06 0.00112692390949273 0.000263177823537828)
(-5.83060094050377e-06 0.00117617998404838 0.000293608430154473)
(-2.01012918595399e-06 0.00121673923168493 0.000323030778173003)
(4.32978361490042e-05 0.000993338508141077 -1.21434152978225e-06)
(5.67358642406835e-05 0.000497947662765734 1.57546030584495e-05)
(2.73750113526953e-05 0.00060269804347567 4.04153259294019e-05)
(9.91989373113753e-06 0.000688566919213801 7.08503487871223e-05)
(-1.54128908438676e-06 0.000771147663207648 0.000104137428160643)
(-8.77425080765161e-06 0.000853608190448154 0.00013888716509913)
(-1.24268251885648e-05 0.000933149711730939 0.000173998590869321)
(-1.31101679402003e-05 0.00100687905282997 0.000208369591487755)
(-1.15670648713254e-05 0.00107210174015878 0.000240875791875616)
(-8.66117726169016e-06 0.00112666832808819 0.000270721085096558)
(-5.23298034329028e-06 0.00117141805640365 0.000298778931688965)
(-1.76006975296104e-06 0.00120653433853109 0.000325545747302617)
(-1.12587236310599e-05 0.00229727723057741 0.000107473808948294)
(-2.59160926502354e-05 0.00205673015392876 0.00010106758742546)
(-8.17318799524329e-06 0.00150814308895002 0.000154992316372983)
(-3.38088922430457e-05 0.00189088534504919 9.46823732258249e-05)
(-1.5493491456535e-05 0.00131084745913714 0.000143240696177549)
(-6.9981775641201e-06 0.00142610479330935 0.000201946430905222)
(-3.47191322912587e-05 0.00178290061060209 8.57941743450508e-05)
(-1.58006913390557e-05 0.00118831297754631 0.000131021072097282)
(-1.57108272299493e-05 0.00130766879677515 0.000185748287747854)
(-5.7008687518645e-06 0.0013730960974313 0.000243237345954733)
(-2.93795421266202e-05 0.00167183228587669 7.47666847537133e-05)
(-1.16447836580444e-05 0.00109470475841749 0.000118022273818481)
(-1.85548145074491e-05 0.00121303881931941 0.000169640439450994)
(-1.39899195673396e-05 0.00128279612227309 0.000223172073093143)
(-4.82976673767737e-06 0.00133909414733123 0.00027557852129004)
(-1.84597123183716e-05 0.00155523188341688 6.35092309521685e-05)
(-2.9577946217376e-06 0.000998597124984137 0.00010351492206185)
(-1.74635172299439e-05 0.00112748859983567 0.000152906985347448)
(-1.77205134649236e-05 0.00120157215401159 0.000203597895705927)
(-1.23552635147725e-05 0.0012607159623772 0.000252109886887294)
(-4.25496648441736e-06 0.00131645353374328 0.000300323189116668)
(-3.23212315913587e-06 0.00143800491341167 5.25054818635998e-05)
(9.00108479945586e-06 0.00090182690435223 8.8762117867749e-05)
(-1.2468604770183e-05 0.0010375735874908 0.000134694328793032)
(-1.82531577013428e-05 0.00112317871446688 0.000183517846775747)
(-1.64336335848311e-05 0.00118677081721633 0.000229641072253973)
(-1.09709492155635e-05 0.00124512910227194 0.000274101259939256)
(-3.83014196099504e-06 0.00130016655960997 0.000318439523102355)
(1.37217494984064e-05 0.00132556780339455 4.18273484270355e-05)
(2.24472908292656e-05 0.000807781569918937 7.40844239646935e-05)
(-4.76537602683592e-06 0.000945742335724175 0.000115911027547143)
(-1.56346901716118e-05 0.00103954057761691 0.000161995593530855)
(-1.77970441087568e-05 0.00111330201254381 0.00020702282909945)
(-1.51100054919795e-05 0.00117621164621293 0.000249345796535252)
(-9.80487968144921e-06 0.00123396602078529 0.000290354825590653)
(-3.45399314233724e-06 0.00128701673589082 0.00033107828580803)
(2.94168375566218e-05 0.0012220081942531 3.17554166485536e-05)
(3.56358756527694e-05 0.000718525543234988 5.96456060724993e-05)
(4.15236317063467e-06 0.000855126003852248 9.72391669196184e-05)
(-1.07268050786158e-05 0.00095303350018826 0.000139905088858752)
(-1.6687142881514e-05 0.00103452707750917 0.000183169239479606)
(-1.70073310232282e-05 0.00110659882545995 0.000224921716151822)
(-1.3819826706828e-05 0.00116908603374733 0.000264141838866111)
(-8.78744638679579e-06 0.00122521796816104 0.000302067948158909)
(-3.07975371698725e-06 0.00127497702488427 0.000339433042279926)
(4.18424936177561e-05 0.00112978653946536 2.2319737483292e-05)
(4.69478503082369e-05 0.000635198268825803 4.58580308242932e-05)
(1.29697100431643e-05 0.000767699153916559 7.90767417578243e-05)
(-4.68146904272353e-06 0.000866635008382848 0.000118057722236876)
(-1.36746502367444e-05 0.000952578435920701 0.000158891479520532)
(-1.6926092168693e-05 0.00103186521262366 0.000199595000834749)
(-1.60558065381651e-05 0.00110284353943982 0.000238672618368279)
(-1.25778460478001e-05 0.00116398772817358 0.000275219242385035)
(-7.845691764109e-06 0.0012173858308119 0.000310315087180664)
(-2.71482838536204e-06 0.00126283392300187 0.000344555953373983)
(4.92424418643347e-05 0.00105084601934041 1.38017307592807e-05)
(5.51008793413802e-05 0.000559411549246942 3.27725276328623e-05)
(2.05396678915595e-05 0.000685129102214667 6.16746868827765e-05)
(1.44901780604614e-06 0.000782559216058273 9.6990725144507e-05)
(-9.61317624000406e-06 0.000870326978509409 0.000135082533521648)
(-1.52595727768437e-05 0.000954066891328132 0.00017410717320077)
(-1.66875221112993e-05 0.00103183734081936 0.000212645397878596)
(-1.50019704675606e-05 0.00110104104950668 0.000249404071708187)
(-1.13895091580293e-05 0.00115979743604304 0.000283516408886541)
(-6.9631082230088e-06 0.00120946034439477 0.000315968927011472)
(-2.37018303414904e-06 0.00124991868359584 0.000347294604420423)
(4.95452024332892e-05 0.000984974366612346 3.04094931300232e-06)
(5.87219620989249e-05 0.000494586854282415 1.94417401941053e-05)
(2.57938183587921e-05 0.000610204482609631 4.50649772211135e-05)
(6.71784624692523e-06 0.000703266718818923 7.71203350893519e-05)
(-5.3732282050935e-06 0.000790476735468277 0.000112477325613137)
(-1.26765132950694e-05 0.000876298327584236 0.000149468229852612)
(-1.60266788479062e-05 0.000958401656046785 0.000186855398046279)
(-1.61514542996998e-05 0.00103403704597907 0.000223449020223267)
(-1.39033616207215e-05 0.00110055815157779 0.000258056239914371)
(-1.02559934256859e-05 0.0011558682775524 0.00028985102605822)
(-6.1377448280345e-06 0.0012009409662014 0.000319765651720618)
(-2.04990877871814e-06 0.00123595087855487 0.000348305702668974)
(3.88418975808151e-05 0.000941256828148564 -8.64721811880809e-06)
(5.6099287553982e-05 0.00044273810277341 7.16073830222224e-06)
(2.78144461739936e-05 0.000544234990620102 2.95994810531603e-05)
(1.03487631111522e-05 0.000630001230171773 5.88860551819937e-05)
(-1.6994098831913e-06 0.000714483757689559 9.16603690167024e-05)
(-9.86622678920602e-06 0.000800478405908518 0.000126476828167389)
(-1.45812459402546e-05 0.000884922159858777 0.000162298984869099)
(-1.62580591279205e-05 0.000964862381498738 0.000198120623489218)