/*--------------------------------*- C++ -*----------------------------------*\
  =========                 |
  \\      /  F ield         | OpenFOAM: The Open Source CFD Toolbox
   \\    /   O peration     | Website:  https://openfoam.org
    \\  /    A nd           | Version:  12
     \\/     M anipulation  |
\*---------------------------------------------------------------------------*/
/*   Windows 32 and 64 bit porting by blueCAPE: http://www.bluecape.com.pt   *\
|  Based on Windows porting (2.0.x v4) by Symscape: http://www.symscape.com   |
\*---------------------------------------------------------------------------*/
FoamFile
{
    format      ascii;
    class       volScalarField;
    location    "300";
    object      k;
}
// * * * * * * * * * * * * * * * * * * * * * * * * * * * * * * * * * * * * * //

dimensions      [0 2 -2 0 0 0 0];

internalField   nonuniform List<scalar> 
10068
(
0.000130655286254229
0.000130666800092927
0.000382473714761048
0.000133490627160963
0.000130530517449063
0.000382462422574471
0.000133507122399461
0.000564252706764678
0.000383112383472092
0.000137075392373717
0.000130239372083162
0.000382159634185098
0.000133370334444662
0.000564173788168238
0.000383111649451524
0.000137096309847015
0.000709907572887598
0.000563874747465094
0.000383174094374379
0.000137975238728268
0.000129782487908183
0.000381559050836535
0.000133075590522697
0.000563694572170948
0.000382810646172845
0.000136959486097752
0.0007097603082912
0.000563808112368048
0.000383182068718891
0.000138000927717893
0.000835668164053723
0.000709016075189978
0.000561198379847238
0.000380208106580404
0.000134618621554298
0.00012915332476586
0.00038064283660612
0.000132611786257469
0.000562812434928006
0.000382210128170664
0.00013666048671436
0.000709118833142285
0.000563332517159467
0.000382884441237525
0.000137866752087975
0.000835456658991828
0.00070888394414418
0.000561141774119801
0.000380222867435027
0.000134647616302402
0.000948310958527509
0.000834188692672896
0.000704572557280875
0.000554829481935124
0.000372645483645392
0.000127945183865508
0.000128343725969909
0.000379394224986312
0.000131971898499746
0.000561507983269851
0.000381293623364213
0.000136187704551813
0.000707986147758755
0.000562452682998653
0.000382285539827737
0.000137568538004047
0.000834667133902632
0.000708247736289983
0.000560672473058614
0.000379931539142872
0.000134519610770226
0.000948039054644959
0.000833994908500462
0.000704452684320215
0.000554779484671598
0.000372666362993747
0.000127976847571209
0.00105122201501211
0.000946132603660122
0.000828244242401938
0.000695535647153316
0.000543739671078844
0.00036079476415395
0.000119592591986738
0.000127342544890459
0.00037779532216416
0.000131148291239738
0.000559758377198711
0.000380044040817475
0.000135534577927232
0.000706340330956591
0.000561150120033675
0.000381369396533147
0.000137094667624938
0.000833306814586472
0.000707117851683949
0.000559797954640653
0.000379339366895021
0.000134230040146914
0.000947112962827371
0.000833212067134254
0.000703825333566306
0.000554318860312318
0.000372385269433826
0.000127858189550349
0.00105089319996729
0.000945880957795729
0.000828064993757382
0.000695423348170029
0.000543695117701064
0.000360821990572076
0.000119626663790459
0.00114641390104718
0.00104844343174832
0.00093874504928849
0.000816903048886674
0.000681332888312066
0.000528045679195821
0.000345795024779809
0.000110421749396819
0.000126137583834218
0.000375821487496821
0.000130129184674456
0.000557534713048979
0.000378443166997345
0.000134693795992023
0.000704152636599626
0.000559401559395488
0.000380119765968983
0.000136439450694724
0.000831351930793774
0.00070547444939685
0.000558500888032213
0.000378430117517203
0.000133768232890717
0.00094554304272185
0.000831855640241504
0.000702703279759656
0.000553454909624883
0.000371806175127266
0.000127584564704453
0.00104984009871321
0.000944963027698858
0.000827293367012653
0.000694807293175397
0.000543246432083191
0.000360554740158743
0.000119519774466953
0.00114603149185852
0.00104813732176034
0.000938510195973146
0.000816732693714835
0.000681226162987957
0.000528006699135195
0.000345828903965288
0.000110458649126593
0.00123524390534788
0.00114323124171785
0.00103981795514549
0.000925331453352757
0.000799894986358301
0.000662193773236608
0.000508456928482924
0.00032844499081378
0.000100578608548761
0.000124714289049314
0.000373447560335851
0.000128903774933467
0.000554805177761369
0.00037646736689757
0.000133652867846327
0.000701388872079619
0.000557179310623708
0.00037851827953967
0.000135595043500676
0.000828770175303046
0.000703289414352123
0.000556758365580811
0.000377189182329028
0.000133128384651969
0.000943304567631854
0.000829904626241035
0.000701068500877575
0.000552170874187164
0.000370915330909192
0.000127145854124969
0.00104807587492743
0.00094339854245319
0.000825947274962642
0.000693699437897394
0.000542400065754646
0.000359996452131991
0.000119266694088101
0.00114485970263999
0.00104709378301395
0.000937605808206843
0.000815975040022388
0.000680624395728342
0.000527573605938456
0.000345578483181913
0.00011036515493733
0.00123481083972012
0.00114287372290876
0.00103953082010629
0.000925106993731769
0.000799730977495649
0.00066209259938368
0.000508423963865586
0.000328486127203768
0.000100618722474187
0.00131861890109306
0.00123181038276384
0.00113366302805686
0.00102464805175098
0.00090582366480188
0.000777617002877833
0.000638680675240896
0.000485536570659861
0.000309013227308229
9.0055145205746e-05
0.000123058835295708
0.000370641593524185
0.000127455272586977
0.00055153175268865
0.000374089830769679
0.000132401625660458
0.000698009715549278
0.000554451182717527
0.000376541500079122
0.00013454966404809
0.00082552263951943
0.000700528905608289
0.000554543317809734
0.000375598072162747
0.000132302385789432
0.000940361920593533
0.000827327362583376
0.000698893699396822
0.000550444408703013
0.000369697722197288
0.000126535870081033
0.00104557445940351
0.00094116564110402
0.000824007971097196
0.000692082532615177
0.000541139797970179
0.000359134724091545
0.00011885728620691
0.00114291400150872
0.00104533626177897
0.000936054297752702
0.000814646710570488
0.000679538189645416
0.000526752200798381
0.000345046897682757
0.000110134969168261
0.00123352741991582
0.00114171259335142
0.00103850295119025
0.000924219203839666
0.000798990247653474
0.000661508744655719
0.000508009884409388
0.000328255245265444
0.000100540041193817
0.00131813765690241
0.0012314041480587
0.00113332647876646
0.00102437286017388
0.000905606639370083
0.000777459222473768
0.000638585640400297
0.000485510112264062
0.000309062283345454
9.00990639580553e-05
0.00139708886065586
0.00131501480656131
0.00122153927564453
0.00111708041645825
0.00100299318129265
0.000880740650339003
0.000750608776710297
0.000611213253251731
0.000459553619768754
0.000287540611412497
7.89405604231817e-05
0.000121157306807952
0.000367371951959858
0.000125770762822379
0.00054767470199481
0.000371279999736379
0.000130920829262964
0.000693970035759172
0.000551180107806361
0.000374162649088171
0.000133290478938753
0.000821563552017504
0.00069715356765356
0.00055182382013601
0.000373633423950999
0.000131278785712277
0.000936671913133347
0.000824085141609524
0.000696145626455304
0.000548248983365306
0.000368134983034924
0.000125746832870139
0.00104229779443733
0.000938229672001816
0.000821444829616792
0.000689930013971589
0.000539443650165873
0.000357954593924626
0.000118285557226235
0.0011401674053501
0.00104284200384902
0.000933836295264164
0.000812729868620511
0.000677950563418286
0.000525526700504698
0.000344222646143979
0.000109758172776777
0.00123141150212728
0.00113977456662519
0.00103676071931716
0.000922688925309305
0.000797687657743627
0.00066045179066198
0.000507219953032431
0.000327754675724347
0.000100334297343362
0.00131674880382392
0.00123013230734662
0.00113218277936748
0.00102336398411638
0.000904738453668613
0.000776739084240644
0.000638023422317503
0.000485118222004137
0.000308853851353451
9.00367147671511e-05
0.00139656137655487
0.00131456213244817
0.00122115578888779
0.00111675726696393
0.00100272663079869
0.000880530868673996
0.000750457933866496
0.000611124998957079
0.000459534213570579
0.000287598961545408
7.89887182977149e-05
0.00147094198373208
0.00139334620673188
0.00130418580642265
0.00120381351670361
0.00109361578900295
0.000975450674477178
0.000850630110727152
0.00071922496304235
0.000580021071186901
0.00043062482298225
0.000264055954103643
6.7420498888477e-05
0.00011899559113907
0.000363604823548756
0.00012383580558894
0.000543189405566749
0.000368006016566726
0.000129199894140559
0.00068922016500072
0.000547325487157719
0.000371351067264207
0.000131801985337127
0.000816841237379882
0.000693118505851399
0.000548563329901836
0.000371268619788004
0.000130044935942356
0.000932183886045862
0.000820132542978315
0.000692785306684064
0.000545553198636125
0.000366204495019874
0.000124768275048698
0.0010381987655103
0.000934547734130014
0.000818219761679189
0.000687209298416676
0.000537285696614413
0.000356437990341594
0.000117544252553278
0.00113657912406594
0.0010395738189243
0.000930918402304783
0.000810194788275101
0.00067583550388287
0.000523875564144763
0.000343090918574138
0.000109229321790792
0.0012284346276741
0.00113703606446637
0.00103428414569212
0.000920497791246277
0.000795805576252173
0.000658904977799361
0.000506038844715458
0.000326974084479287
9.9992510678985e-05
0.00131447203416134
0.00122802457352586
0.00113026182849596
0.00102164602717697
0.000903237876607245
0.000775470192136259
0.000637002843860238
0.000484365460218934
0.000308388128702401
8.98564183510953e-05
0.0013950723908909
0.0013131855749654
0.00121990281810952
0.00111563460668646
0.00100173987009518
0.000879686067017745
0.000749762399461976
0.000610588083169431
0.000459167609548894
0.000287415735626992
7.89426508028958e-05
0.00147036968203249
0.00139284888955481
0.00130375746936987
0.00120344474540001
0.00109330245786184
0.000975192517070587
0.000850428393888248
0.000719081891159612
0.000579940253939066
0.0004306131718246
0.000264125237480993
6.74731224853416e-05
0.00154029950110216
0.00146707127499741
0.00138203534093394
0.00128549345776533
0.00117880395054667
0.00106392626351851
0.000942593162702828
0.000815820957116302
0.000683664233722676
0.000545244730842615
0.000398824322371274
0.000238631141734486
5.57518618992956e-05
0.000116559290160411
0.000359304651954591
0.000121635482349055
0.000538028507218236
0.000364234027232976
0.000127223039840994
0.000683705928825773
0.000542843015808176
0.00036807544810601
0.000130072541551833
0.000811298243576466
0.000688374034624526
0.000544721321925964
0.000368474454708567
0.000128588689750968
0.000926839975199822
0.000815417929898256
0.000688768325318922
0.000542321153040138
0.000363879759677491
0.000123588923476
0.00103322210410565
0.000930069332584578
0.000814287913854321
0.000683882128047576
0.000534635338044081
0.000354563321018874
0.000116624576250563
0.00113209883064602
0.0010354850844239
0.000927258444003124
0.000807004199159101
0.00067316121938726
0.000521773585658225
0.000341634394779152
0.000108541836951574
0.00122455394024608
0.00113345748592403
0.00103103740468034
0.000917613442861103
0.000793314972695877
0.000656842873389279
0.000504445573874433
0.000325898926282686
9.95097804537555e-05
0.00131127810933608
0.00122505644123202
0.00112754304364706
0.00101920012077463
0.000901086728502312
0.000773635062494941
0.000635507455706435
0.000483237070710467
0.000307656265281469
8.95513530601885e-05
0.00139264337888886
0.00131091750658749
0.00121781345245643
0.0011137404058018
0.00100005517027397
0.000878223537688327
0.00074853485884287
0.000609610560959466
0.000458457321487666
0.000286988001582904
7.87878195244794e-05
0.0014687852338889
0.00139137285474858
0.00130240098827686
0.00120221454011502
0.00109220414895354
0.000974231820973921
0.0008496112544304
0.000718415060236292
0.000579432267801919
0.000430274911287344
0.00026396957622394
6.74435288128478e-05
0.00153968330817655
0.0014665306214829
0.00138156380852564
0.00128508101815379
0.00117844608731347
0.00106362248563784
0.000942344322593708
0.000815628321178633
0.000683529776231995
0.000545172078816311
0.000398821289401554
0.000238712847758455
5.58100355846392e-05
0.00160519032981223
0.00153630509152806
0.00145531908230242
0.0013624858554826
0.0012591278178122
0.00114722118883274
0.00102862522285275
0.000904750677919801
0.000776494857453175
0.000644068656162723
0.00050699186764609
0.000364220754136922
0.000211368860366532
4.42359554834574e-05
0.000113835995160376
0.000354435205560724
0.000119155194327504
0.000532142649082991
0.000359928301670283
0.000124974615248693
0.000677369512545929
0.000537685455380401
0.000364302259728382
0.000128085273899056
0.000804872049246812
0.000682866068901873
0.000540253879908536
0.000365219803046254
0.000126895401420735
0.000920575892466268
0.000809883943545191
0.00068404537893032
0.000538513012947442
0.000361133751317802
0.0001221967253574
0.00102730472280034
0.00092473683359844
0.000809598154233125
0.000679904873044274
0.000531457500842702
0.000352305321390396
0.000115515724313792
0.0011266671407331
0.00103052076184482
0.000922806532475677
0.000803114101705277
0.000669890407836204
0.000519191180921732
0.000339832364878177
0.00010768839645898
0.0012197160529846
0.00112898893428688
0.00102697473630053
0.000913994652480894
0.000790179494438024
0.000654234594723345
0.000502415831256342
0.000324513025637473
9.8881079177004e-05
0.00130712178387584
0.00122118616378189
0.00112398837273164
0.00101599159188298
0.000898253433991095
0.000771205343780692
0.000633512552603286
0.000481712786546015
0.000306644600924212
8.91178069832298e-05
0.00138924400323044
0.00130773266016256
0.00121486648677187
0.00111105529279035
0.00099765385748365
0.000876125211224506
0.000746758127111562
0.000608176422964243
0.00045738928029161
0.000286309216165988
7.85205895327834e-05
0.00146621171121568
0.00138895291175336
0.00130015234096066
0.00120015390848096
0.00109034626552915
0.000972589189482413
0.00084819491154979
0.000717236296692592
0.000578504255852754
0.000429612154836528
0.000263581795417131
6.7315382410654e-05
0.00153800754057658
0.00146495973833035
0.00138010892116199
0.00128374879252041
0.00117724219731539
0.00106255272436022
0.000941414250092527
0.000814843323366281
0.000682895777863007
0.000544696646703997
0.000398514426775221
0.000238585710748904
5.57988158837817e-05
0.00160453071590991
0.00153572192273396
0.0014548055491737
0.00136203129402085
0.00125872728501988
0.00114687398658112
0.00102833204111548
0.000904512338413421
0.000776312346682757
0.000643943716384531
0.000506928235946164
0.00036422735368563
0.000211463364734834
4.43037233018831e-05
0.00166559964176398
0.00160107657270599
0.00152413880168383
0.00143498422392056
0.0013348979500873
0.00122584802208436
0.00110972665572675
0.000988062644647638
0.000862101083314327
0.000732790847569261
0.000600561348217693
0.000465350931011756
0.000326873703487809
0.000182354944060218
3.31396716567736e-05
0.000110814606050766
0.000348960304972109
0.000116382812447457
0.000525480527803482
0.000355052437749976
0.000122440117464944
0.000670149828595069
0.00053180327332365
0.000359995152262913
0.000125824847188011
0.000797495790274113
0.000676536790506395
0.000535114099176329
0.000361470348771753
0.000124949406677718
0.000913322036628092
0.000803468173263446
0.0006785628051447
0.000534085470450831
0.000357935562396787
0.000120577000567671
0.00102037646342081
0.000918486169150276
0.000804093648760843
0.000675229013895596
0.000527713483155368
0.000349637959115097
0.000114206404352058
0.001120216185697
0.00102461795956521
0.000917505655004062
0.00079847427244786
0.000665980492198444
0.000516094453873912
0.000337661506206619
0.000106658982474282
0.00121385784550445
0.00112357129057221
0.00102204179057503
0.000909592488279896
0.000786356225579445
0.000651043978931707
0.000499921199686496
0.000322796786769951
9.80994687776892e-05
0.0013019470021911
0.00121636084624777
0.00111954884172947
0.00101197574072954
0.000894697793755877
0.00076814570270757
0.00063098829657937
0.000479769407817713
0.00030533835936397
8.85517918512876e-05
0.00138482726147734
0.00130358721514234
0.00121102182463459
0.00110754248789711
0.000994502113812073
0.000873360257313187
0.000744404647126821
0.00060626183922025
0.000455944179943915
0.000285367244150255
7.81392488218485e-05
0.0014626178450138
0.00138556300489551
0.00129698973510092
0.00119724297291019
0.00108770963726948
0.00097024602804924
0.000846161577638837
0.000715528866231405
0.000577140753800181
0.000428611674763893
0.000262959529415274
6.7087634788785e-05
0.00153529671021694
0.00146239565447944
0.00137770929318553
0.00128153054535164
0.00117522050212547
0.00106074051608685
0.000939822328046529
0.000813481199433028
0.000681773113840063
0.000543824487609858
0.000397904001210988
0.000238237896298146
5.56968290111382e-05
0.00160276729269522
0.00153406030006172
0.00145325680026859
0.0013606019924377
0.00125742311895623
0.00114570089659233
0.0010272956952289
0.000903617726581219
0.000775564051613391
0.000643346712196734
0.000506489042315364
0.000363954867349421
0.00021136222189545
4.43125856187565e-05
0.00166489636928926
0.00160045121368997
0.00152358398972809
0.00143448865234826
0.00133445621864121
0.00122545919500555
0.00110939129661398
0.000987781421237968
0.000861874477858916
0.000732619572065678
0.000600446945646701
0.000465297369910043
0.000326891244091417
0.000182469672302522
3.32162882831959e-05
0.00172149614580621
0.00166137224654122
0.00158852069131115
0.00150307318190891
0.00140627406587995
0.00130007318047312
0.00118636248365678
0.00106669796958166
0.000942422420273811
0.000814781928702835
0.000684837254535714
0.000553246133648429
0.000420383749350745
0.000286807119109326
0.000151627480987474
2.26568557855635e-05
0.000107485859014745
0.000342842727268229
0.000113306330305225
0.00051799042028374
0.000349569819240268
0.000119606498251347
0.000661984571168556
0.000525145374159767
0.000355117796734784
0.000123277064404969
0.000789099182573666
0.000669325422742861
0.000529252649279637
0.000357190534156708
0.000122736340603596
0.000905003540726042
0.000796103865754989
0.000672263241441905
0.00052899212248312
0.000354250213514628
0.00011871582533254
0.00101236094849441
0.000911247685963142
0.00079771250761596
0.000669801698145499
0.000523360890229386
0.000346530643736759
0.000112682008003139
0.00111267043629511
0.00101770669022282
0.000911292371883151
0.000793028807652689
0.000661384093505323
0.000512445933198201
0.000335096560538755
0.000105442869772652
0.00120690708358302
0.00111713690706097
0.00101617634929431
0.000904350950090428
0.000781796173079645
0.000647229746236705
0.000496929240623817
0.000320728669190065
9.71566077692784e-05
0.00129568718537435
0.00121051765376742
0.00111416608073357
0.00100709927121736
0.000890372072725135
0.000764414511628629
0.000627899831367963
0.00047737985585986
0.000303719305649252
8.78479821700327e-05
0.00137933436776474
0.00129842552429505
0.00120622755384151
0.0011031541622962
0.000990556361564061
0.000869889589456142
0.000741440241160905
0.000603838183178264
0.000454100135271636
0.000284149000526701
7.76408137921763e-05
0.00145795485037216
0.0013811574830285
0.00129287116259479
0.00119344300774542
0.00108425840816089
0.000967169312112783
0.000843481276242854
0.000713266143010684
0.00057531895475685
0.000427255422192898
0.000262092478990167
6.67606056908268e-05
0.00153151867525181
0.00145881158570805
0.00137434255544976
0.00127840589946614
0.00117236133692919
0.00105816675524387
0.000937550221542777
0.000811524605895181
0.000680145600230404
0.000542540731478537
0.000396977956031208
0.000237674528359162
5.55097751700535e-05
0.00159992587753399
0.00153135927113853
0.00145071385298517
0.00135823422622306
0.00125524609745806
0.00114372809529488
0.00102553835006685
0.000902085105601917
0.000774264147609435
0.000642287407107285
0.000505678993582219
0.000363401372213456
0.000211058999109766
4.42390385942312e-05
0.00166304847325453
0.00159870248059653
0.00152194542295512
0.00143296670825279
0.00133305655535281
0.00122418787834413
0.00110825420946196
0.00098678367607728
0.000861020279414899
0.00073191259230704
0.000599891155458004
0.00046489818506361
0.000326656108147418
0.00018240578767695
3.32469525636622e-05
0.00172074860795923
0.0016607044593435
0.00158792483135123
0.00150253725578247
0.0014057921905323
0.00129964414384861
0.00118598669809319
0.0010663759953196
0.000942154576267
0.000814568367311141
0.000684678430476281
0.000553143445107538
0.000420341564643531
0.000286837173054399
0.000151771275788506
2.27415448208033e-05
0.00177284670056106
0.00171716212187409
0.00164845208232565
0.00156677291866914
0.00147332245047575
0.00137002651606072
0.00125876136752249
0.00114107583312723
0.00101832903089238
0.000891842294725185
0.000762920854362592
0.00063274180244667
0.000502189564343323
0.000372100990847795
0.000243998601531259
0.000119182680149877
1.31868856417098e-05
0.000103842844573626
0.00033604736481202
0.000109916889416998
0.000509620626446094
0.0003434434249836
0.000116462184144199
0.000652809989277817
0.000517659973673084
0.000349633547218935
0.000120429170020007
0.000779609833468097
0.000661169447098582
0.000522618778621133
0.000352344620628389
0.000120242508971824
0.000895542110050092
0.000787720883371828
0.000665086446527278
0.000523184332380111
0.000350044019228597
0.000116599766167744
0.00100317668082358
0.000902946821362583
0.00079038853054017
0.000663566423478636
0.000518354117779386
0.000342949599481091
0.000110930692531374
0.00110394768148048
0.00100971076614178
0.000904097602048357
0.000786716758134782
0.00065604955368373
0.00050820439627504
0.000332107096391856
0.000104026294826767
0.00119878334200748
0.0011096104467269
0.00100930910940916
0.000898207659057195
0.000776444678979791
0.00064274594046067
0.000493403850320147
0.000318284117931774
9.60423724432499e-05
0.00128826609026801
0.00120358458871382
0.00110777316683148
0.00100130107013853
0.000885221610584631
0.0007599641895736
0.000624207394524158
0.000474513285101121
0.000301767394299197
8.69993149192298e-05
0.00137269556437579
0.00129218132668721
0.00120042163291566
0.00109783308076351
0.000985764603391744
0.00086566685517035
0.000737824738299593
0.000600872070978834
0.00045183159717783
0.000282637966428639
7.70214253307552e-05
0.00145216148161379
0.00137567808905916
0.00128774199486272
0.00118870331832388
0.00107994594957948
0.000963316659626406
0.000840116166238082
0.000710415282519907
0.000573011615339707
0.000425523070820691
0.000260969717593093
6.63329668370397e-05
0.00152662307067195
0.0014541601520882
0.00136996493442526
0.00127433431322381
0.00116862695801488
0.00105479641915188
0.000934565805096119
0.000808944574804779
0.000677987679346255
0.000540823756481688
0.000395719791552962
0.000236888802657721
5.52398254702449e-05
0.00159597366493935
0.00152759137680956
0.00144715378909507
0.00135490712569018
0.00125217606042807
0.00114093596258921
0.00102304114303488
0.000899896578901492
0.000772395841704339
0.000640750201847827
0.000504483857132533
0.000362556365409971
0.000210562552624292
4.40930323785356e-05
0.00166008293644089
0.00159587125319663
0.00151926630732255
0.00143045695419188
0.00133073206383308
0.00122206264139411
0.0011063400620345
0.000985090338713431
0.000859555556275433
0.00073068287967335
0.000598902415828808
0.000464156407439857
0.000326163952525154
0.000182155266169741
3.31997426353174e-05
0.00171881895434205
0.00165887176358646
0.00158620001622425
0.00150092662864103
0.0014043013386013
0.0012982792116017
0.00118475377669897
0.00106528045358022
0.000941200753886982
0.00081375959151152
0.000684017428132205
0.000552633161515115
0.000419986265486322
0.000286642628696036
0.000151757293287076
2.27944735223778e-05
0.00177205375418303
0.001716451174707
0.00164781488751934
0.00156619681747107
0.00147280104615973
0.0013695582819484
0.00125834652371335
0.00114071481343569
0.00101802204576859
0.00089158930670421
0.000762721736713068
0.000632596778755099
0.000502099957332027
0.00037207136166971
0.000244048311862501
0.000119366690614059
1.32745255086988e-05
0.00181962314471746
0.00176841382032
0.00170390431141128
0.00162606954024892
0.00153605449006409
0.0014357558342153
0.00132702600050281
0.00121138972939556
0.00109019115392455
0.000964757437165115
0.000836444534559951
0.000706617782417083
0.000576560436656188
0.000447381497672293
0.000320453960747944
0.000198512493882542
8.52824486049596e-05
5.61548406620115e-06
9.98818393222137e-05
0.000328539388804039
0.00010620731828158
0.000500320402758464
0.000336637188806782
0.000112996182673895
0.000642563021356149
0.000509295381058818
0.00034350540752791
0.000117268501290846
0.00076895463616571
0.000652005360647056
0.000515161045287357
0.00034689592988142
0.000117454903037237
0.0008848569006627
0.0007782469763593
0.000656970318092829
0.000516612075908129
0.000345281516552406
0.000114215391816639
0.000992737907563078
0.000893505365063761
0.000782052232381119
0.000656463871028417
0.000512645730370873
0.000338862362614286
0.000108939882431326
0.00109396002879536
0.00100054880479347
0.000895847494796041
0.00077947299577692
0.00064992161180774
0.000503325586856448
0.000328661553732054
0.000102399077474017
0.00118939907755729
0.00110090988398621
0.001001364591289
0.000891094642135011
0.00077024220097437
0.000637542415205862
0.000489305189756184
0.000315433467048633
9.47439679732319e-05
0.0012795988067186
0.00119548143540569
0.00110029550427849
0.000994513002421284
0.000879185458743961
0.000754741681960416
0.000619866690455175
0.000471135128115646
0.000299458615741959
8.59950680384728e-05
0.00136483091317382
0.00128477862560755
0.00119353283385505
0.00109151350033327
0.000980067169067334
0.000860638976173521
0.000733512187408769
0.000597325458727017
0.0004491094065633
0.000280814282086283
7.6272757149498e-05
0.00144516501406751
0.00136905538313905
0.00128153680356798
0.00118296305855762
0.00107471641183078
0.000958637552923681
0.000836021452972402
0.000706937703633588
0.000570187008263355
0.000423390754853871
0.000259576773940499
6.58008364316676e-05
0.00152054620947824
0.00144838067333276
0.00136451926800455
0.00126926243927137
0.00116396793886997
0.00105058414640332
0.000930828022846177
0.000805704673903948
0.000675268002213373
0.000538647869042203
0.000394110991681602
0.000235871245517196
5.48853226556379e-05
0.00159085850690213
0.00152270762910757
0.00144253118318118
0.0013505784540616
0.00124817349978585
0.00113728762325789
0.00101976998517856
0.000897021080738542
0.000769931322290855
0.000638710828272834
0.000502883357609854
0.000361405159994647
0.000209867057947275
4.38777523583196e-05
0.00165596600788723
0.00159192945480011
0.0015155232030166
0.00142693804174947
0.00132746209302394
0.00121906334701867
0.00110362945872065
0.000982682975677032
0.000857462969310573
0.000728914251626409
0.000597465734358165
0.000463058507436043
0.000325406294199011
0.000181732068583026
3.3090565284768e-05
0.0017157351017827
0.00165591668911072
0.00158339143829782
0.00149828194394633
0.00140183673114093
0.00129600913062337
0.00118269065646579
0.00106343466299787
0.000939580585302462
0.000812371350720785
0.000682865831034699
0.000551722119257057
0.000419318778191581
0.000286217116062749
0.000151564529175192
2.27711633726116e-05
0.00177004433828871
0.00171453716422157
0.00164600691759777
0.00156450100838166
0.00147122286978515
0.00136810390869991
0.00125702220913238
0.00113952618900948
0.00101697373871679
0.000890684791214528
0.000761963436920377
0.000631986471725046
0.000501639549137412
0.000371764132505134
0.000243904260616628
0.000119415509776883
1.3345721262113e-05
0.00181878297437529
0.00176765843937241
0.00170322497748105
0.00162545294720159
0.00153549371237709
0.00143524899035179
0.00132657307400092
0.00121099098705592
0.0010898466840459
0.000964467089067713
0.000836207955560579
0.00070643460679157
0.000576430701564683
0.000447306537751168
0.000320439547091738
0.000198590386031668
8.55213879067041e-05
5.68908221336631e-06
0.00186180543334064
0.00181509965562787
0.00175484593230772
0.0016809346811973
0.00159445258872005
0.00149726202510614
0.00139118625138924
0.00127771706948645
0.00115816743069216
0.00103384382734475
0.00090609584416904
0.000776311444720164
0.000645900475422657
0.000516236585140454
0.000388697904442277
0.000265448156561294
0.000150720245480141
5.08021274245293e-05
1.19668974327e-06
9.5599581969596e-05
0.000320286781381534
0.00010217232322596
0.000490041796250478
0.000329117257209586
0.000109203879981241
0.00063118229379176
0.000500001063946464
0.000336697855836601
0.000113784478715538
0.000757060723580936
0.000641770055518103
0.000506828127265532
0.000340808416944042
0.000114361720701393
0.000872866134323104
0.000767608983664817
0.000647851868297305
0.000509224626432194
0.000339927553524918
0.000111550451776211
0.000980956578914768
0.000882842722839337
0.000772631956947567
0.00064843284775582
0.00050618682549249
0.00033423509326674
0.000106696785598207
0.00108261564960659
0.000990135393914626
0.00088646459762826
0.000771229135787878
0.000642942281684444
0.000497763578255424
0.000324728939040695
0.000100549090271288
0.00117866089003382
0.00109094763119201
0.000992262164019406
0.000882939299878937
0.000763125085717578
0.000631565512005624
0.000484590782677888
0.000312147651335618
9.32520523424981e-05
0.00126959292831954
0.00118612086657746
0.00109165184534684
0.000986660824997767
0.000872197227070761
0.000748689184295525
0.000614829345665486
0.000467207221578509
0.000296765502914194
8.48245310701575e-05
0.0013556513657922
0.00127613272685392
0.00118548172843161
0.00108412207877683
0.000973397491886582
0.000854746754143352
0.000728451410723789
0.000593155932547616
0.000445900739959086
0.000278656815736821
7.53861329465912e-05
0.00143688208626535
0.00136120967488271
0.00127418039723388
0.00117615224630421
0.00106850558468565
0.000953074022942118
0.000831145865164411
0.000702789343497897
0.00056680899991196
0.000420831118700546
0.00025789539661365
6.5157147344666e-05
0.00151321271388047
0.00144140075563675
0.00135793698418215
0.00126312609942558
0.00115832488641225