/*--------------------------------*- C++ -*----------------------------------*\
  =========                 |
  \\      /  F ield         | OpenFOAM: The Open Source CFD Toolbox
   \\    /   O peration     | Website:  https://openfoam.org
    \\  /    A nd           | Version:  12
     \\/     M anipulation  |
\*---------------------------------------------------------------------------*/
/*   Windows 32 and 64 bit porting by blueCAPE: http://www.bluecape.com.pt   *\
|  Based on Windows porting (2.0.x v4) by Symscape: http://www.symscape.com   |
\*---------------------------------------------------------------------------*/
FoamFile
{
    format      ascii;
    class       volScalarField;
    location    "300";
    object      nut;
}
// * * * * * * * * * * * * * * * * * * * * * * * * * * * * * * * * * * * * * //

dimensions      [0 2 -1 0 0 0 0];

internalField   nonuniform List<scalar> 
10068
(
5.29647053005026e-05
5.29693438618117e-05
0.000461565911998456
5.60492658951559e-05
5.29139468214639e-05
0.000461689247907955
5.60559272084643e-05
0.00112778836504127
0.000471953238376615
5.99371590334918e-05
5.27959404232514e-05
0.000461530013453264
5.59984007542595e-05
0.00112808122363558
0.000472097926576798
5.99460307676632e-05
0.00187994929404776
0.00113927067014755
0.000485216023348802
6.22600659990351e-05
5.26108050744108e-05
0.000461084426129512
5.58746717596142e-05
0.00112780570372949
0.000471933786636815
5.98862117000504e-05
0.0018804160137609
0.00113958682203035
0.000485385374293635
6.22717026951315e-05
0.00263030740885299
0.00188801324923897
0.00115292211262996
0.00049321016792104
6.1547763949416e-05
5.23557677260307e-05
0.000460338610339745
5.56799823998713e-05
0.00112697275161293
0.000471481107601902
5.97554829083295e-05
0.00187998958245102
0.00113931377077823
0.000485221838379955
6.22111855155034e-05
0.00263092005576445
0.00188850489674702
0.00115326685079023
0.000493401650917527
6.15610848314197e-05
0.00333743905951425
0.00263286592093058
0.00189468735463407
0.0011596918942231
0.000490933336127222
5.85241288677203e-05
5.20275130840246e-05
0.000459281601198108
5.54113105199399e-05
0.00112556126338429
0.000470726342089756
5.95487694348776e-05
0.00187871915045226
0.00113848114709047
0.00048476132634939
6.20766301414641e-05
0.00263031648484003
0.00188808684735537
0.0011530023717004
0.000493245763692483
6.15025871056638e-05
0.00333815902113375
0.00263350391696576
0.00189520848456549
0.00116006110567485
0.000491142216209559
5.85386516723596e-05
0.00398523392845519
0.00333426943673315
0.00262954072507088
0.0018927391126376
0.00115315717527142
0.000479805607921173
5.45604176821932e-05
5.16217252543758e-05
0.000457899927486734
5.5065457668214e-05
0.00112355112808225
0.000469652278024788
5.92631973706779e-05
0.00187657555779238
0.00113706535776549
0.000483989717335255
6.18628028751223e-05
0.0026285776614827
0.0018868181873593
0.00115216991141103
0.000492785559556091
6.137020769556e-05
0.00333735640430058
0.00263291155672902
0.00189480440241287
0.00115981033805828
0.000490999672846217
5.84843998713546e-05
0.0039860241662971
0.00333501535983811
0.0026302089346058
0.00189328193920865
0.00115354568173751
0.000480028933924851
5.45759036760264e-05
0.00457071193832868
0.00397776478846225
0.00332072807025788
0.00261493119898984
0.00187657487997466
0.00113366001872021
0.00046378478012377
5.03094065674509e-05
5.11333199800744e-05
0.000456167193555703
5.46373595784491e-05
0.00112090436040547
0.000468246070410046
5.88956012205087e-05
0.00187351827043286
0.0011350406172905
0.000482892119168428
6.15671511931323e-05
0.00262566720711348
0.00188467158424922
0.00115074586754015
0.000492002518295808
6.11590655624939e-05
0.0033351358214454
0.00263117692607146
0.00189354114431087
0.00115898397954369
0.000490543038555886
5.83592561468013e-05
0.00398500501980142
0.00333422614240031
0.00262963363375883
0.00189289459398326
0.00115331288896386
0.00047990285547956
5.45272180843982e-05
0.00457154196934201
0.00397858265517249
0.00332150503800852
0.00261561726552365
0.00187713240163938
0.00113406451979784
0.000464022120084427
5.03261161070973e-05
0.0050969585558843
0.00456064584234492
0.00395587405485868
0.00329278185227202
0.00258500575699278
0.00184557609467903
0.00110494190082959
0.000445198644045878
4.58190556076301e-05
5.05563380769185e-05
0.00045406224272674
5.41231406022967e-05
0.00111757905691013
0.000466483767777381
5.84402036302743e-05
0.0018694941720489
0.00113237444170873
0.000481453096665103
6.11861663319904e-05
0.00262153058961956
0.00188160664537113
0.00114870370605132
0.000490889822806948
6.08665234575128e-05
0.00333145662784326
0.00262826851027855
0.00189139364062468
0.00115755871119605
0.000489768079256595
5.81585742322365e-05
0.00398230221314448
0.00333201371259549
0.00262790887167617
0.00189164333681916
0.00115250113187597
0.000479461941000654
5.44118323835682e-05
0.00457029529118177
0.00397757930737021
0.00332073530419801
0.00261505995928171
0.00187676426334745
0.0011338535723814
0.00046391474248333
5.02836525791034e-05
0.00509780447342951
0.00456150553207492
0.00395672450145347
0.00329357292276967
0.00258569961088833
0.00184614377784809
0.00110536090489938
0.000445451712245332
4.58372379402779e-05
0.00556894224236764
0.00508534362250855
0.0045327539390959
0.00391619416889177
0.00324765452017556
0.00253888493699062
0.00180198142734533
0.00106967841366893
0.000424427766827292
4.10310529776245e-05
4.98851860929267e-05
0.000451548374465807
5.35148898391364e-05
0.00111351817484311
0.000464338967508117
5.78936739208643e-05
0.00186443826898425
0.0011290228532185
0.000479648692671825
6.07145639742559e-05
0.00261609766048041
0.0018775714769438
0.00114601178397432
0.000489430427101307
6.04889368895321e-05
0.00332624930895506
0.00262413209454254
0.00188832176135183
0.00115550960906423
0.000488663408915507
5.78795373672327e-05
0.00397786735547056
0.00332834167423307
0.00262500747737679
0.00188950434397203
0.00115109186718004
0.000478709188594404
5.42249900864388e-05
0.00456711532309316
0.00397488756019955
0.00331853761744198
0.00261335246859131
0.00187553453051477
0.00113306769532157
0.000463496799166248
5.01789054667503e-05
0.00509632403663838
0.00456027651968076
0.00395574303378733
0.00329282208115785
0.00258516095767339
0.00184579800620172
0.00110517536715933
0.00044536634075276
4.58015279458476e-05
0.00556978583243208
0.00508622120431691
0.0045336482675205
0.00391705584771369
0.00324844600131789
0.00253958013720687
0.00180255608263419
0.00107011197974128
0.000424698414305546
4.10510209709621e-05
0.00599163056554102
0.00555618876624963
0.00505308693670577
0.00448353867180025
0.0038565394146224
0.00318449721938392
0.00247742395876263
0.0017475837656577
0.00102861677765866
0.000401170789986375
3.59670484116412e-05
4.91143117431387e-05
0.000448594778358167
5.28075669684448e-05
0.00110866659835546
0.000461778032406165
5.72457621406396e-05
0.00185827008940718
0.00112493209735953
0.000477452602405755
6.01465778275821e-05
0.00260927832965295
0.00187250007122293
0.00114262586738605
0.000487598754980532
6.00209969143171e-05
0.00331942588040484
0.00261869744830508
0.0018842744097245
0.00115280476470362
0.000487211263023825
5.75186523283716e-05
0.00397162001096544
0.00332314260289942
0.00262087627218816
0.00188643792088918
0.00114905892992892
0.000477632540704782
5.39641176584054e-05
0.00456194840100071
0.00397046483999096
0.00331488076215994
0.00261046939465023
0.00187342038942541
0.00113169154369198
0.000462775816074204
5.00071223672449e-05
0.00509267844179151
0.00455711015498587
0.00395307030172971
0.00329064688900057
0.00258347997173965
0.00184460040478351
0.00110442407100209
0.000444974852145595
4.57079262807555e-05
0.00556807068251305
0.00508476027426552
0.00453244327533281
0.00391609434138371
0.0032477129322993
0.00253906196594987
0.00180223591585748
0.0010699559043529
0.000424640436822359
4.10227736552422e-05
0.00599245770594076
0.00555706569345555
0.0050540012656883
0.00448444215196667
0.00385739477999079
0.00318528026904534
0.0024781153084277
0.00174816274468067
0.00102906565343849
0.000401464100027697
3.5988951644076e-05
0.00636948055156771
0.00597782961685345
0.00552038997222422
0.00499602202716554
0.0044108159031796
0.00377612484445436
0.00310324122398532
0.00240121892896485
0.00168284228283896
0.000981497505616777
0.00037514526168531
3.07136686531113e-05
4.82380648120235e-05
0.000445166728243922
5.19951671186907e-05
0.00110295757067782
0.000458769404998665
5.64932407428932e-05
0.00185089988046104
0.00112004251909396
0.000474826937797216
5.94744724032272e-05
0.00260096695846795
0.00186631272371581
0.0011384930349282
0.000485366132732061
5.94567856476885e-05
0.00331087610934533
0.00261187576960195
0.00187918573675342
0.00114939973854971
0.000485387079018719
5.70710241211475e-05
0.00396345433456169
0.00331632875433859
0.00261544559067926
0.00188239335608268
0.00114636999874159
0.000476212645870315
5.36258528953499e-05
0.00455470061790107
0.00396423188017718
0.00330969923997484
0.00260635831862432
0.00187038198692435
0.00112969821884062
0.000461739013132946
4.97661185217071e-05
0.00508680550557613
0.00455195799841577
0.00394867000339993
0.00328701841748242
0.00258063155504785
0.00184252872034048
0.00110309395784561
0.000444290534282184
4.55521170361192e-05
0.00556397207224059
0.00508112919217955
0.00452929933890125
0.00391344902573016
0.00324556919284663
0.00253741751835795
0.00180107970017797
0.0010692452143028
0.00042427890153456
4.09407388169101e-05
0.00599050996583625
0.00555537130871837
0.00505256627158399
0.00448325831283587
0.00385645060664369
0.00318456546132598
0.00247761992420314
0.00174787130314483
0.00102894375102548
0.000401438226457771
3.59679960768647e-05
0.00637028011957879
0.00597869146058944
0.00552130554183281
0.00499694394686941
0.00441170724953024
0.00377696238453427
0.00310400856673038
0.00240190113200079
0.00168342289098277
0.000981963674032318
0.000375466626154948
3.07376994231666e-05
0.00670646725800181
0.00635463446744391
0.00593884097682636
0.0054565071633872
0.00491160354571991
0.00431383690231048
0.00367443300294605
0.0030034640185364
0.00230997541817556
0.00160726079572207
0.00092772838989816
0.0003461839837735
2.54011579741322e-05
4.72504556491926e-05
0.000441226147250666
5.10713803466132e-05
0.00109631892128482
0.00045527797177754
5.56289244660261e-05
0.00184222558560791
0.00111428838262707
0.000471742559408871
5.86940586957149e-05
0.0025910409526606
0.00185891873442255
0.00113355156050418
0.000482699993366492
5.87909325922666e-05
0.00330046640122219
0.00260356094619542
0.00187297659711468
0.00114524149940355
0.00048315756530654
5.65315841767386e-05
0.00395323895377324
0.0033077899815631
0.0026086275434196
0.00187730540943988
0.00114298143715731
0.000474426189981359
5.3206347900607e-05
0.00454525140560873
0.003956084255097
0.00330290621813457
0.00260095042058429
0.00186636900180319
0.00112705512863912
0.000460367005477558
4.94527715998722e-05
0.005078601514623
0.00454472900788519
0.00394246505134176
0.00328187248813322
0.00257656372178888
0.00183954300020584
0.00110115751174707
0.000443299267771098
4.5332105932378e-05
0.00555742355528641
0.00507527327555307
0.00452417499727033
0.00390908649576199
0.00324198625627774
0.00253462164307348
0.00179906558673191
0.00106796972133645
0.000423634016210924
4.08016458149957e-05
0.00598597585049409
0.00555128882865205
0.00504896013892078
0.0044801462600676
0.0038538420151423
0.00318246301893844
0.00247602159783656
0.00174676404506054
0.00102827860047553
0.000401107957427647
3.58975439134058e-05
0.00636810478649456
0.00597676573426215
0.00551963881508115
0.00499553143616567
0.00441054092051369
0.00377603496638193
0.00310331345992426
0.00240143066575301
0.00168316294020119
0.00098187984668507
0.000375475972813371
3.07242454484859e-05
0.0067072302471873
0.00635546985833831
0.00593974313590979
0.00545742908329316
0.00491250838652314
0.00431470199673942
0.00367524339048182
0.00300420810023972
0.00231064246394549
0.00160783992678991
0.000928213057890724
0.000346536265101213
2.54276897523416e-05
0.00700619900283078
0.00669058807640795
0.00631263693370162
0.00586876434903373
0.00536147187235173
0.00479907463707439
0.00419197628193163
0.00355038320885132
0.00288403230743995
0.00220257578486396
0.00151971451750772
0.000866530477760522
0.000314157320021795
2.01812853544886e-05
4.61464625145079e-05
0.000436735410388026
5.00299066543667e-05
0.00108867372340786
0.000451264999911608
5.46458280836721e-05
0.00183213534332724
0.00110759733911977
0.00046816606027173
5.77974003267127e-05
0.00257936128702075
0.00185021614128954
0.00112773614235325
0.000479569699166865
5.80167203276881e-05
0.00328804137117116
0.0025936301899409
0.00186555590062226
0.0011402702493517
0.000480499900685872
5.58947676809582e-05
0.00394081503002339
0.0032973933811687
0.00260031655510053
0.00187109567662547
0.00113883986168461
0.000472241908466547
5.27005118092639e-05
0.00453344955895366
0.00394589102264537
0.00329439250332748
0.00259415896835086
0.00186131732839796
0.00112372012448121
0.000458635848456347
4.90640475303734e-05
0.00506793138672836
0.00453530358143798
0.00393435254409211
0.003275123557615
0.00257120867037328
0.00183559365048482
0.00109858277905693
0.00044198304992445
4.50456633305585e-05
0.00554830962477718
0.00506709097091594
0.00451698210664083
0.00390293141055629
0.0032369008569373
0.00253062286514931
0.0017961538312912
0.00106610177602697
0.000422692062555322
4.06040209159095e-05
0.0059787831425698
0.00554475857532858
0.00504313639504237
0.00447506796974854
0.00384953630095876
0.00317894444008864
0.00247329523828918
0.00174481979048105
0.0010270638421592
0.000400503238679338
3.57757004197371e-05
0.00636315468257519
0.00597224890235362
0.00551558383468802
0.00499196138023972
0.00440747123047724
0.00377347349172056
0.00310126243575126
0.00239988724683133
0.00168211094894909
0.000981262626101027
0.000375173796252859
3.06659425045266e-05
0.00670483438919253
0.00635331777803623
0.00593784680068868
0.00545578638970367
0.00491111421841251
0.00431355204588166
0.00367433363153453
0.00300353423152613
0.00231019847303227
0.00160761309106829
0.000928167513217632
0.000346579622884876
2.54225994941197e-05
0.00700691798097528
0.00669138782873935
0.00631351413363793
0.00586967188598808
0.00536237258186493
0.00479994596550303
0.00419280396213411
0.00355115703439208
0.00288474461998776
0.00220322052154312
0.00152028743421999
0.000867029136618803
0.000314542563451633
2.02122052562838e-05
0.00727198250581341
0.00698933041613372
0.00664574431618032
0.00623681992237488
0.00576397902774632
0.00523447385671746
0.00465786899444982
0.00404383210509588
0.00340216094588444
0.00274308107145154
0.00207712850725631
0.00141846147856596
0.000796772019567811
0.000278792950099098
1.5158632438782e-05
4.49216836265121e-05
0.000431655451601095
4.88659004501873e-05
0.00107993819875573
0.000446690937201251
5.35375930196654e-05
0.00182050417955369
0.00109989073076554
0.000464053497176182
5.67774387301398e-05
0.0025657728516154
0.00184009200389093
0.00112097417114181
0.000475936015847416
5.71270958418097e-05
0.00327342635284321
0.00258194445210277
0.00185682166880939
0.0011344200854326
0.000477381438356759
5.51538010618408e-05
0.00392599671380091
0.00328498424030513
0.00259039024781033
0.0018636739932933
0.00113388948213005
0.000469638206472322
5.21032431305765e-05
0.00451911171543603
0.00393349381272347
0.00328402637196095
0.0025858796380447
0.00185514976676172
0.00111964177110331
0.000456520141816306
4.85950874125424e-05
0.00505462538165149
0.00452353113153433
0.00392420286135046
0.00326666403477349
0.00256448128127227
0.00183061828360824
0.00109532901139884
0.0004403181932795
4.46896598010264e-05
0.00553648256648385
0.00505644846016724
0.00450760277325445
0.00389488265160051
0.00323022900784305
0.00252535474466221
0.0017922961531173
0.00106361111583963
0.000421437410926771
4.03460640189211e-05
0.00596880801082175
0.0055356687992918
0.00503499663484202
0.00446793751424219
0.00384345946667681
0.00317394748597459
0.0024693902279189
0.00174199961078965
0.00102527321580994
0.000399613068351756
3.56019099740141e-05
0.00635535287492781
0.00596507642469003
0.00550908963788774
0.00498619135453508
0.00440246115358079
0.00376924551588146
0.00309782725900596
0.00239724609914899
0.00168024694255904
0.000980111993435804
0.0003746074764802
3.05621159844324e-05
0.0066994899783808
0.00634838633183767
0.00593336005455091
0.00545177184140712
0.00490759262513583
0.00431053650312505
0.00367183047169818
0.0030015447404439
0.00230871799721069
0.00160662084869044
0.000927596152777084
0.000346296465319538
2.53761699071886e-05
0.00700430994242017
0.00668901645066734
0.00631139325563497
0.00586780142845009
0.00536074974952837
0.00479856896361757
0.00419167123375274
0.00355026637393922
0.0028840931724976
0.00220280355521694
0.00152009252641169
0.000867017690116805
0.000314603771062087
2.02162600732242e-05
0.00727264991232235
0.00699008675946454
0.00664658721719167
0.00623770179057606
0.0057648619929821
0.00523533501830659
0.00465869414465951
0.00404461158243029
0.0034028879693439
0.00274375186850363
0.00207774192224595
0.00141901922145496
0.000797281000484038
0.000279234508804709
1.51936684258223e-05
0.00750683839489745
0.00725419282780246
0.00694183314821318
0.00656460405620082
0.00612305114090523
0.00562359185160797
0.00507505980125765
0.00448648349660312
0.00386714535610914
0.00322725402837114
0.00257794283020925
0.00193084173707518
0.00130086739082802
0.000716557511747334
0.000239338054888821
1.03587669869967e-05
4.35723050946673e-05
0.000425938877588498
4.75741849085145e-05
0.0010700242872798
0.000441513943672904
5.2298574184234e-05
0.00180720067618913
0.00109108461544658
0.000459363876665384
5.56277563508832e-05
0.00255010375411041
0.00182842209070198
0.00111318482526804
0.000471756291959043
5.61153363079228e-05
0.0032564218599464
0.00256834831613354
0.00184666056819722
0.00112761572417199
0.000473754264070212
5.43025502363934e-05
0.00390857118560209
0.00327038680699324
0.00257870992623252
0.0018549385886222
0.00112806361599425
0.000466579825992496
5.1407644257064e-05
0.00450202236848309
0.00391870718665431
0.00327165421697793
0.00257599129310456
0.00184777802869879
0.00111476578994015
0.000453997741878031
4.80411285570798e-05
0.00503847693928441
0.00450922891968765
0.00391185909532076
0.00325636404618703
0.00255627913618201
0.00182454170961634
0.00109134835962017
0.000438283324141065
4.4260186056009e-05
0.00552175518722255
0.00504317671939524
0.0044958880226777
0.00388481269669626
0.00322186528274816
0.00251873431406606
0.0017874323057561
0.00106045890485244
0.000419846819902234
4.00254164542085e-05
0.00595588958688347
0.00552387252051916
0.00502440894871034
0.00445863916153473
0.00383551247204094
0.00316739010435127
0.00246424199107681
0.00173825724895343
0.00102287914909435
0.000398424435094258
3.53747608800627e-05
0.00634456712992086
0.00595512769701903
0.00550004824799309
0.00497812553590326
0.00439542652103004
0.00376327854864339
0.00309294713883345
0.00239345796922244
0.00167753378536795
0.000978405314448853
0.000373769022745347
3.04131020660516e-05
0.0066911157993191
0.00634060663611709
0.00592622778757816
0.00544533896438931
0.00490190248213723
0.00430561888026955
0.00366770206398346
0.00299821199617969
0.0023061769244598
0.00160484569621463
0.000926510518545094
0.000345764480580104
2.52909108912041e-05
0.00699859399871505
0.00668369217364893
0.0063064946934596
0.00586335977047918
0.00535679036326858
0.004795109738463
0.00418872278946403
0.00354783337335256
0.00288217529733295
0.00220139316177862
0.00151916192102051
0.000866488053255957
0.000314349826838097
2.01827140358834e-05
0.00726983853139954
0.00698750439437066
0.00664424891430864
0.00623560893114606
0.00576301357534505
0.00523373128036645
0.00465733557747379
0.00404349790857946
0.00340201791591525
0.00274312346429458
0.00207735092122535
0.00141885215275522
0.000797297040434069
0.000279348805335232
1.52076959613629e-05
0.00750744769215737
0.007254898552015
0.00694263384281928
0.00656545117554719
0.00612390580322678
0.00562443043004513
0.00507586762831004
0.00448725071618081
0.00386786536255386
0.00322792307940936
0.00257856076703346
0.00193141181468359
0.0013013994654917
0.000717082577390053
0.00023986677899143
1.03974773413058e-05
0.00771350047571222
0.00748820970644034
0.00720426440961585
0.00685580031639324
0.00644258853685641
0.00597034774550849
0.00544726816461739
0.0048817425603953
0.00428242400906551
0.00365895680853349
0.00302239031325668
0.00238497572211853
0.00175971656900717
0.00116286483311072
0.00062255563224643
0.000194113140478031
5.95047708205504e-06
4.20954363346954e-05
0.000419540981983784
4.61510409710485e-05
0.00105883541213186
0.000435686896321028
5.09237085143242e-05
0.0017920795565235
0.00108108885117623
0.000454054264528055
5.43426602239994e-05
0.00253216590789579
0.00181507274283959
0.00110428281836033
0.000466990200270831
5.49751057898191e-05
0.00323680786762306
0.00255266988733659
0.00183494818055022
0.00111977631506172
0.0004695825865007
5.33346679665872e-05
0.00388829848946714
0.00325340269584724
0.00256512047845953
0.0018447757919769
0.00112128398665477
0.000463019559923234
5.06087192944418e-05
0.00448193372634139
0.0039013187770599
0.00325710088762784
0.00256435627198
0.00183910106476522
0.00110902472162135
0.000451027856575796
4.73955745199166e-05
0.0050192424347246
0.00449218201708725
0.00389713730657842
0.00324407191081905
0.00254648311184626
0.00181727752696596
0.00108658695238489
0.000435854742207361
4.37527007330851e-05
0.00550389918291421
0.00502706992955965
0.00448165688489772
0.00387256705144987
0.0032116823818965
0.0025106616422836
0.00178148980538313
0.00105660006499571
0.000417901513657634
3.96387951183649e-05
0.00593982452728118
0.00550918343535334
0.00501120614662752
0.0044470264867309
0.00382557056672508
0.00315916959027741
0.00245777022367662
0.00173353506476905
0.00101984475107388
0.000396916761356857
3.50926828367722e-05
0.00633062477633328
0.00594224318812618
0.00548831467715369
0.00496763451011913
0.00438625416503868
0.00375547607130035
0.00308654246783457
0.00238846076069806
0.00167392802686014
0.000976118571317015
0.000372650089000255
3.02182198128996e-05
0.0066795722977931
0.0063298498210805
0.00591633328602348
0.00543638274638624
0.00489395010195173
0.00429871697140183
0.00366187792754001
0.00299347719378204
0.00230252801611745
0.00160225369043432
0.000924893356489118
0.000344984853676406
2.51678947687125e-05
0.00698968576869883
0.00667534219502462
0.00629875954229816
0.00585629670825465
0.00535044950124364
0.00478952795137366
0.00418392308662902
0.00354382724211402
0.00287896429676879
0.00219896645542177
0.00151748292873125
0.00086546874590627
0.00031387103240669
2.01160995456717e-05
0.00726377495781333
0.00698181027066636
0.00663896048545262
0.00623076042436375
0.00575863436321176
0.00522984356704539
0.00465395401672195
0.00404063063695274
0.00339966759487994
0.00274128732659587
0.00207601683359438
0.00141798432685607
0.000796813585263033
0.000279140613323855
1.51860924187706e-05
0.00750444182937875
0.0072521139913311
0.00694008643894726
0.00656314326977979
0.0061218377353039
0.00562260405344305
0.00507428509041166
0.00448591328401575
0.00386677314386605
0.00322707515417148
0.00257795538924452
0.00193104431929136
0.0013012568078175
0.000717139261176365
0.000240074665747825
1.04216715320196e-05
0.00771404525435041
0.00748885810167892
0.00720501575918333
0.00685660504198622
0.00644340649554707
0.00597115430121706
0.00544804781919165
0.00488248473239524
0.00428312153413529
0.00365960557374977
0.00302298918899171
0.00238552739700801
0.00176022903269406
0.0011633647521969
0.000623132908966217
0.000194753903432794
5.99002041360797e-06
0.00789441335004183
0.00769411956690638
0.00743608811807055
0.00711378743900027
0.00672627179116004
0.00627863612220099
0.00577848758359952
0.00523359356767122
0.00465194189173839
0.00404248907381742
0.00341562899932295
0.00278340949465234
0.00215933652040111
0.00155812403557149
0.000998360981173628
0.000509561679171756
0.000141290286495133
2.45538889161428e-06
4.04897563331481e-05
0.000412414654003798
4.45934519956267e-05
0.00104627029774269
0.000429160694458008
4.9407897526278e-05
0.00177498619821669
0.00106980611836487
0.000448076570127165
5.29164396540364e-05
0.00251175647530966
0.00179989886286908
0.00109417710134152
0.000461592427566656
5.37006046566143e-05
0.00321434053974634
0.0025347212823066
0.00182154991955091
0.00111081666142318
0.000464823900849488
5.22439820866138e-05
0.00386490843561636
0.00323381156379656
0.00254945058018647
0.00183306154111115
0.00111347232420597
0.000458923654028442
4.97004631050087e-05
0.00445856381438
0.00388108858914324
0.0032401692882196
0.00255082055518914
0.0018290055263669
0.00110234124971319
0.000447569870110678
4.66542044818964e-05
0.00499664067775797
0.00447214309668784
0.00387982660797897
0.00322961438156047
0.00253495748558764
0.00180872597382721
0.001080976195464
0.000432989240104545
4.31611061762419e-05
0.00548264454872441
0.00500788518815159
0.00446469632105805
0.00385796440351387
0.0031995314453734
0.00250102028520111
0.00177438420687562
0.00105198100136499
0.000415574927901699
3.9181337965498e-05
0.00592036428292704
0.00549137407111989
0.00499518446756771
0.00443292145643931
0.00381348256614172
0.00314916191733727
0.00244987808964466
0.00172776338151965
0.00101612736034672
0.000395066669595615
3.475162146321e-05
0.00631330736788441
0.00592622044394979
0.00547370465928315
0.00495455402066721
0.00437480103795439
0.00374571675404825
0.00307851384684081
0.00238217734159535
0.00166937492646118
0.000973218034425277
0.000371233366587029
2.99758877365543e-05
0.00666467508042668
0.00631594472452779
0.00590351933295392
0.00542476099525993
0.00488360909348217
0.00428972072568574
0.0036542646530718
0.00298726376280067
0.00229771230472636
0.00159880492329377
0.000922725445232232
0.000343950462042094
2.50063446554448e-05
0.00697743747381074
0.00666383005203699
0.0062880630189579
0.0058464987542895
0.00534162463850754
0.00478173231869257
0.00417719248019717
0.00353818012527918
0.00287440394386907
0.00219547924659637
0.00151502616572988
0.000863950645641485
0.000313165808255001
2.00178731205814e-05
0.00725437044302147
0.00697292806642529
0.00663065953113474
0.00622310262013404
0.00575167592835244
0.0052236279594733
0.00464851038639537
0.00403597573217351
0.00339580767911235
0.00273821806655636
0.00207371894621234
0.00141640985312566
0.000795871593475426
0.000278726188483152
1.51361629736338e-05
0.00749805317006675
0.00724607347677913
0.00693443119035487
0.00655791006825542
0.00611705941273549
0.00561830669849849
0.00507048711169528
0.00448262615069111
0.00386400239553534
0.00322482091392105
0.00257621145329002
0.00192979310064244
0.00130045775169981
0.000716715413772223
0.000239919601733505
1.04110028341127e-05
0.00771085239436997
0.00748588000129182
0.00720226802736888
0.00685409057571509
0.00644112658535501
0.00596911206212019
0.0054462467448753
0.00488092733298808
0.00428180899790503
0.00365853784308758
0.00302216513289864
0.00238494480303041
0.00175988365326752
0.00116325519334378
0.000623284860112742
0.000195092245945553
6.02214187329269e-06
0.00789488679109533
0.00769470402074933
0.00743678337877014
0.00711454293630431
0.00672704603704042
0.00627940327755579
0.00577923107219058
0.00523430175427493
0.00465260657438353
0.00404310520860668
0.00341619443695036
0.00278392488517077
0.00215980685484415
0.00155856658595335
0.00099883030353598
0.000510202486324271
0.000142057997533682
2.48758136619033e-06
0.00805173750798814
0.00787436668431823
0.00764004499273239
0.0073416210627903
0.00697747648207908
0.00655212597025071
0.00607263284827744
0.00554615590295654
0.00497999708894633
0.00438237810932079
0.00376290179123142
0.00313281418788848
0.00250518808442723
0.00189485200954188
0.00131878465824085
0.000799768808908258
0.0003715111683673
8.09368274037452e-05
5.02454011077871e-07
3.8753843626445e-05
0.000404517957684372
4.28992972054871e-05
0.00103223094109809
0.000421889730823905
4.77499366706861e-05
0.00175575581575879
0.00105713465160927
0.000441382440842068
5.13440224050215e-05
0.00248865260050213
0.00178274456218155
0.00108276988157726
0.000455516498391332
5.22864050743059e-05
0.00318875323789192
0.00251429818754867
0.00180632035842828
0.00110064523872819
0.000459436583549475
5.10250018596113e-05
0.00383810305716274
0.00321137025826747
0.00253151270146503
0.00181966153618263
0.00110454402332096
0.000454253051207626
4.86771249648e-05
0.00443159757567636
0.00385774785947945
0.00322064031688851
0.00253521411761913
0.00181736896036069
0.00109463961778994
0.000443591458397333
4.58113095832165e-05
0.00497035140866977
0.00444883138960511
0.00385968864992682
0.00321279662863511
0.0025215502625621
0.00179877563690137
0.0010744430652844
0.000429652984699605
4.24814190878863e-05
0.00545767877186551
0.00498534199795087
0.00444476101444793
0.00384079667560945
0.00318524231586266
0.00248967731381848
0.00176601756843982
0.00104653411558675
0.000412827898000448
3.86479226738624e-05
0.00589721421031804
0.00547017523597177
0.00497610324097545
0.00441611430269624
0.0037990708930844
0.00313722190766191
0.00244045243036078
0.001720860088777
0.0010116742319699
0.000392854917912771
3.43477438934812e-05
0.00629234755254405
0.00590681179503635
0.00545599302859942
0.00493868372684709
0.00436089314168042
0.0037338535673973
0.00306874123766681
0.00237451450593903
0.00166380790293017
0.000969661238961349
0.000369495774112702
2.9682693475763e-05
0.00664619222396908
0.00629867386687815
0.0058875857098752
0.00541029274392368
0.00487071913437457
0.00427849125490078
0.00364474501441739
0.00297947624632225
0.00229165635293922
0.00159444830959898
0.000919976093537889
0.000342639496254613
2.48045524604284e-05
0.00696165580232035
0.00664897367573734
0.00627423654766136
0.00583381181950007
0.0053301770407027
0.00477160013697172
0.00416842475378228
0.00353080238506539
0.00286842134500188
0.00219087609347427
0.00151175598878507
0.000861918188707242
0.000312225491799179
1.9888156943497e-05
0.00724147102405959
0.00696071405066146
0.00661921382534058
0.00621251421134588
0.00574202758205912
0.00521498474984154