/*--------------------------------*- C++ -*----------------------------------*\
  =========                 |
  \\      /  F ield         | OpenFOAM: The Open Source CFD Toolbox
   \\    /   O peration     | Website:  https://openfoam.org
    \\  /    A nd           | Version:  12
     \\/     M anipulation  |
\*---------------------------------------------------------------------------*/
/*   Windows 32 and 64 bit porting by blueCAPE: http://www.bluecape.com.pt   *\
|  Based on Windows porting (2.0.x v4) by Symscape: http://www.symscape.com   |
\*---------------------------------------------------------------------------*/
FoamFile
{
    format      ascii;
    class       volScalarField;
    location    "300";
    object      omega;
}
// * * * * * * * * * * * * * * * * * * * * * * * * * * * * * * * * * * * * * //

dimensions      [0 0 -1 0 0 0 0];

internalField   nonuniform List<scalar> 
10068
(
2.46683683998502
2.46683818538162
0.828643764235187
2.38166593315721
2.46684523249578
0.828397941488819
2.3816771757778
0.500317900286222
0.811759200529886
2.28698514551086
2.46684443991464
0.828027697106196
2.38168113103689
0.500118055639664
0.811508858404618
2.2869956207504
0.377620596010375
0.494943618088635
0.789697940578791
2.21611134704557
2.46684094122156
0.827525349401762
2.38168004091763
0.499815323071067
0.811153295255471
2.28699532346001
0.377448555584067
0.494747834450679
0.789438843880541
2.21610975363103
0.317707413681405
0.375535540058191
0.486761745394121
0.770884566680858
2.18722197064603
2.46684043373594
0.826875756359418
2.38167794855079
0.499401990085834
0.810658416653643
2.28699493440643
0.377192958812984
0.494448967095931
0.78909152670434
2.2161087422714
0.317553038968748
0.375367808346827
0.48656715809988
0.770615312551075
2.18721968060057
0.284143303178555
0.316836754215746
0.371867451143122
0.478428352132974
0.759055163344669
2.18619544350155
2.46684337501648
0.826060142615344
2.38167798706467
0.498869321054574
0.810011230031205
2.2869944390832
0.376845122161193
0.494037766401378
0.788605689126706
2.21610834368018
0.317325743389924
0.375113961141152
0.486271743076954
0.770268225516363
2.18721873502843
0.284000566972083
0.316686412777911
0.371701947335744
0.478232984415818
0.758774853177637
2.18619397466643
0.263779249570827
0.283760092461851
0.31497676932903
0.367475708886294
0.471522601375535
0.751960290162395
2.19192955382687
2.46684015814959
0.825060891006815
2.38167985509075
0.498204632800417
0.809203018062261
2.28699401889327
0.376398556414928
0.493507357515862
0.787970039183655
2.21610824685199
0.317018145134974
0.374767349828018
0.485864063187593
0.769785882599188
2.1872182804528
0.283791374995761
0.316460332670418
0.371450125759707
0.477939230340319
0.75842264267752
2.1861930674093
0.263644462783962
0.283621169841222
0.314828598923259
0.36731103475307
0.471325172733629
0.751667170605519
2.19193189178483
0.250817359858906
0.263576025105705
0.282692538933364
0.312399442555983
0.363072582705181
0.465788393765472
0.745593731401722
2.19485294959253
2.4668373554342
0.823867855483845
2.38168875067277
0.49739722026534
0.808214293535746
2.28699246124887
0.375845086601123
0.492847172932768
0.787173264752329
2.21610790901664
0.316625019553685
0.374322218943988
0.485338165259781
0.769162968571795
2.18721838962744
0.283509606008209
0.316153441450068
0.371105366192291
0.477534564233395
0.757948122598641
2.18619244192416
0.263447622649552
0.283412998201309
0.314604040803246
0.367060741461203
0.471031267647798
0.751307761647814
2.19192870397235
0.250688170325049
0.263444903022858
0.28255570448746
0.312252371354234
0.362907892055463
0.46558788315617
0.745285384029463
2.19485741541291
0.242349215086678
0.250673102283698
0.262854160856908
0.281018146621004
0.309436442914867
0.358800580017142
0.460166211545761
0.737749306307261
2.1951261809074
2.46683786431622
0.82245896089756
2.38167581369062
0.496434837724399
0.807032083219732
2.28700209006612
0.375175746769471
0.492045113436977
0.786199698707029
2.21610621533224
0.316139807250281
0.373770690107977
0.484684050941799
0.768378493105093
2.18721847560258
0.283150787480771
0.31576097457146
0.370662397197248
0.477013277034245
0.757328512450615
2.18619276355117
0.26318340970407
0.283131650655281
0.314298293926694
0.366717881957528
0.470628662092299
0.750834260964833
2.19192570555882
0.250500160208238
0.263249001993183
0.282348854189474
0.31202918966589
0.362658437727476
0.465292537580851
0.744918088466075
2.19485159244767
0.242224048834382
0.250547481499796
0.262725094892108
0.280882499165623
0.309289978668828
0.358635447210635
0.459961955965747
0.737422526783004
2.19513057495491
0.236780854191881
0.242227561046544
0.250104692045776
0.261643832650143
0.278916263775777
0.3062828848792
0.354432440617214
0.453908917348812
0.728070242948955
2.19480463381858
2.466841259577
0.820823669142125
2.38167868737284
0.495305568556488
0.805639536946983
2.28697915840407
0.374380706060896
0.491089424042178
0.78503601871954
2.21610195710443
0.315554977931457
0.373103721594966
0.483889716985809
0.767418720546776
2.18721625131301
0.282709392246051
0.315276568700176
0.370113671144948
0.476365063851593
0.756548813461928
2.18619352947123
0.262847995161423
0.282773144473182
0.313906904341712
0.366277291091225
0.470110000252081
0.750214812349945
2.19192822382158
0.250248553113973
0.262985114911399
0.282068310099265
0.311724775116007
0.362317077392814
0.464890317651222
0.744442892169778
2.19484598445933
0.242042580308429
0.250360386793243
0.262530437978415
0.280676933360057
0.309067891994065
0.358386314446709
0.459664501675553
0.737045472970917
2.19512417386355
0.236658589137678
0.242105897205878
0.249981121580544
0.261516021215728
0.278781497061266
0.306136912587782
0.354266725208954
0.453700286937674
0.727721773698694
2.19480689705106
0.233173398355162
0.236675689377079
0.24174119522291
0.249151506930065
0.260075957603263
0.276571335964109
0.302979542139083
0.349747614542357
0.446768543689119
0.716753608661944
2.19480229569329
2.46684321754498
0.81893942971075
2.38168069544908
0.493994049074089
0.804022655217632
2.28699600402422
0.373449500002747
0.489967447013119
0.783664487747824
2.21609414455545
0.314862367376031
0.372311637456041
0.482943573996272
0.766272309218503
2.18721434933317
0.282178890832504
0.314692765345192
0.369450236580503
0.475578346092504
0.755596208408921
2.18619226598453
0.262436434391911
0.282332052552671
0.313423734776679
0.365731629083446
0.469465608869375
0.749435106319259
2.19192979258896
0.249929921412526
0.26264985231588
0.281710372790509
0.311334762355797
0.361878501613947
0.464372737813561
0.743821596089595
2.19485080486594
0.24180036422918
0.250109066461379
0.262267210088198
0.280397428357784
0.308764792632197
0.358045996818207
0.4592619505044
0.736568986188698
2.19511812299403
0.236482056156233
0.241925330004728
0.249795245211169
0.261322607400409
0.278577101033398
0.305915765214522
0.354017704732036
0.453400200915321
0.727330288336753
2.19479832163044
0.233053188705922
0.23655688180838
0.241621583512105
0.249029250265649
0.259949185393227
0.276437485652684
0.302834146302353
0.349581296602172
0.446554806328543
0.716375291154469
2.19480464668431
0.230935940823313
0.233085634090938
0.236248854335409
0.240954405356493
0.247939567873281
0.258320557359148
0.274110212300781
0.299524943088968
0.344667517034576
0.438742656520195
0.703876554157695
2.19513011128507
2.46684006920216
0.816783466686946
2.38167915310776
0.49248440738562
0.802159020538426
2.2869973901579
0.37237031147738
0.488664919257234
0.782076663524932
2.21611020680488
0.314052908177283
0.37138390423198
0.481832837858715
0.764924857237531
2.18721773344657
0.281552028906991
0.314001359683084
0.368662497343639
0.474641832896617
0.754458680194392
2.18619302824926
0.261942910873757
0.281801897024652
0.312841438795402
0.365072101532903
0.468684366482209
0.748484933007558
2.19193255131371
0.249539809400186
0.262238398344608
0.281269787617276
0.310853186411735
0.361335549961221
0.46373053918984
0.743040784546732
2.19485314578327
0.241494318256811
0.249790543950999
0.261932282211876
0.280040350960765
0.308376286686697
0.35760906765003
0.45874500636716
0.735946546796369
2.19512323872234
0.236247058233707
0.241683398921628
0.249544519786617
0.261060261794609
0.278298758380508
0.305613950611523
0.353678320730223
0.452997547933628
0.726852378440224
2.19479230096309
0.23288040564943
0.236381242943121
0.241442220158564
0.248844596683693
0.259756955883069
0.276234254783214
0.302613969212052
0.349332403404553
0.446251419566203
0.71596503941118
2.19480258600432
0.230817115484981
0.232968852588604
0.236132099463034
0.240836150694461
0.2478184512307
0.258194924329604
0.273977463530022
0.299380304034669
0.34450063441902
0.438522506699599
0.703458627430693
2.19512597727103
0.22967375249083
0.23086635156019
0.232711289345296
0.235589071776705
0.240003888663593
0.246631082169257
0.25652751375439
0.271626679088319
0.29596169220824
0.339238493400606
0.429893411384182
0.689318838882553
2.19485513046577
2.46683949517432
0.814332183605758
2.38167602918766
0.490759118330003
0.800025588347485
2.28699441993872
0.371130405617594
0.487165642459948
0.780246430526083
2.216110871224
0.313116719650219
0.370308837001613
0.480543930162017
0.763361217676259
2.18721976470029
0.280820909086245
0.313193332804375
0.367739952746858
0.473543050371982
0.753128556409184
2.18619246702189
0.261360903347236
0.281175448794689
0.312151850082395
0.364289222525397
0.467755048912923
0.747351913756712
2.19192973869256
0.249072873999673
0.261744952244074
0.280740167223648
0.310272811343252
0.360679596980493
0.462953029004224
0.742091398198184
2.19485851733039
0.241120303831709
0.249400455771392
0.261521000504352
0.279600577468826
0.307896508045641
0.357068507404166
0.458104829230189
0.735166849973158
2.19512811962
0.235950723620615
0.241377434222697
0.249226222311774
0.260725906648418
0.277942797184121
0.305227040339177
0.353243072622419
0.452481995562335
0.72623125978696
2.19479756934893
0.232651018592717
0.236146514269155
0.241200845114365
0.248594653198889
0.259495632240399
0.275957185507618
0.302313541811149
0.348994223165577
0.445849326510978
0.715488177854641
2.19479693971644
0.23064715219572
0.232796953504879
0.235957647213863
0.240657987138558
0.247634965560263
0.258003919361848
0.273775519425336
0.299161275185524
0.344252035238288
0.438215442286546
0.70302654586941
2.19512400803879
0.229555755719319
0.230750936464411
0.23259655795099
0.235473699894298
0.239886834706765
0.246511227528949
0.25640324258094
0.271495280607741
0.295818062247868
0.339071116304943
0.42966567428801
0.688853871293195
2.19485278168063
0.229110010886598
0.229621832039745
0.230540596202013
0.232158896566861
0.234847416491229
0.239050499437973
0.245379542648264
0.254831837775766
0.269239306179077
0.292416115980547
0.333609939107207
0.420320765956462
0.672812145048437
2.19192953800729
2.46684120423287
0.811555914932154
2.38167932534217
0.488799019982986
0.797598532438334
2.28699279764478
0.369715870070929
0.485452101038549
0.778147522092771
2.21610787293245
0.312043160954961
0.369073673968674
0.479060535189718
0.761557295385289
2.18722121319523
0.279976979772116
0.312258835776293
0.366671070377551
0.472267879700988
0.751579242373025
2.18619256197444
0.260683314231635
0.280444801909162
0.311345998488182
0.36337258513177
0.466665699650302
0.746027226881225
2.1919279405079
0.248523144700685
0.26116300625909
0.280114325036741
0.309585538705759
0.359901236407002
0.462028907030057
0.740963372187253
2.19485350026034
0.240673355637515
0.24893348681389
0.261027634100216
0.279071807949279
0.307318306578092
0.356415808341105
0.457330881963794
0.734220522015364
2.1951298275127
0.235589192434143
0.241003402305435
0.248836135764001
0.260315000446849
0.277504154032387
0.30474921980727
0.352705064325071
0.451845027724472
0.725456255484047
2.19480250903702
0.23236233362251
0.235850243504076
0.240895028729768
0.248276741336911
0.25916208589465
0.275602555419332
0.301928421464195
0.348561167337841
0.445336756603212
0.714873660223309
2.1948022990897
0.23042213875937
0.232567820675724
0.235723430180479
0.240417306358112
0.247385906455726
0.257743745018055
0.273499882425888
0.298862497660917
0.343915635418803
0.437815670758357
0.702559182037016
2.1951186532329
0.229387849318945
0.230581845503588
0.232425821596125
0.235300413326874
0.239709798013195
0.246328944929432
0.256213600750066
0.271294834869336
0.295600480146914
0.338823221663389
0.429356146493116
0.688400860855444
2.19485091981598
0.228992364441318
0.229507235574969
0.230427226165949
0.232045559015361
0.23473327632563
0.238934770271093
0.245261178534106
0.254709191864354
0.269109556979103
0.292273837361282
0.333442363947612
0.420086636426113
0.672288552666261
2.19192921999986
0.229043406035762
0.229074385868233
0.229340571826248
0.23008267703425
0.23159313100576
0.234187438057641
0.238247717367979
0.24433819678184
0.253398089340013
0.267141520240047
0.289130569495181
0.328067373026033
0.410247467858013
0.654087357644441
2.18619138570763
2.46684000030144
0.808423254421429
2.38167743508778
0.486583888234462
0.794850327554354
2.2869933173867
0.368112216451687
0.483505550550015
0.775762179260633
2.21610643245199
0.310820885711693
0.367664654308501
0.477365235481982
0.759493580514485
2.18721790135656
0.279011023368466
0.311187242083806
0.365443174507868
0.470800435666795
0.749789442230666
2.18619566097493
0.259902526111118
0.279601392871511
0.310414096656111
0.36231069185142
0.465401162522506
0.744483635054729
2.19192506051579
0.247884154284272
0.260485463648356
0.279384374875225
0.308782458665254
0.358990149545153
0.460946051847767
0.73964207770374
2.19485112906194
0.240147934584986
0.248383675916275
0.26044570749416
0.278446904425226
0.306633638280769
0.355641580094167
0.456411904079898
0.733098908236683
2.19512677461546
0.23515778954542
0.240556362005822
0.248369010768259
0.259821882005531
0.276976583265006
0.304173385672323
0.352055822628368
0.451075962513775
0.724516503393729
2.19480620983895
0.232010689398382
0.235488657722642
0.240520880640586
0.247886745140608
0.258751815242104
0.275165314225422
0.301452819692323
0.34802639189192
0.44470505316354
0.714108888698962
2.19480496633137
0.230139517631492
0.232279170667543
0.23542723396278
0.24011171809948
0.247068537194197
0.257411204433666
0.273146791893863
0.298479520515401
0.343485674148104
0.437308876571733
0.701960174116206
2.19512401637889
0.229166207453303
0.23035706682585
0.232197149763197
0.235066797113224
0.239469856586342
0.246080856830197
0.255954716670749
0.271020847522906
0.2953037636748
0.338489624389681
0.428962539376347
0.687959364755044
2.19484773371416
0.228825866626545
0.22934018945471
0.230259269452286
0.231875943490658
0.234561055394697
0.238758868587481
0.245080216920823
0.254521106701806
0.268910886447458
0.292058141395806
0.333196192675834
0.419777902455934
0.671836263061632
2.1919279559253
0.22892568587254
0.228960135798453
0.229228014308949
0.22997070083015
0.231481034631136
0.234074646745707
0.238133533167386
0.244221577549961
0.253277359003121
0.267013785202534
0.28899014801494
0.327900681593982
0.410007568088237
0.653463904170017
2.18619278453803
0.229323725281784
0.229022344177816
0.228833026866979
0.228966312216368
0.229668842137426
0.231181994493677
0.23376325208282
0.237758139618545
0.243699766491843
0.252469102692257
0.265652615143574
0.286531062088228
0.323156497206964
0.40025694296323
0.633528508694155
2.18721550682668
2.46683894233312
0.804910622879209
2.38167675438085
0.484092208411985
0.791752614497827
2.28699348150497
0.366303853186075
0.481305818746997
0.773064262938254
2.21610707480946
0.309438069451782
0.36606723696162
0.475440050264968
0.757150546256451
2.18721562907691
0.277913482849835
0.30996725045202
0.364042668706677
0.46912446425094
0.747750976362984
2.18619244981568
0.259010492689406
0.278636057366234
0.309345576057642
0.361091036788991
0.463946255165856
0.742703872803821
2.19193097897411
0.247149024421665
0.259704704063819
0.278541774724874
0.307853838549639
0.357934818594564
0.459689324719689
0.738101822164526
2.19484581107146
0.239538078297613
0.247744553882253
0.259768136973499
0.277718012256448
0.305833647825846
0.354735516774128
0.455335123971567
0.731783874776937
2.19512425108949
0.234651327601882
0.240030782405852
0.24781891255156
0.259240110102044
0.27635298021079
0.303491522452248
0.351285936449692
0.450163465717975
0.723405040247718
2.19480495026294
0.231591661941218
0.235057112464467
0.240073522309748
0.247419475389095
0.258259194510446
0.274639233184795
0.300879639193599
0.347381369208627
0.443943095011461
0.713181661309196
2.19480815871563
0.229795795444653
0.231927433515804
0.235065422029078
0.239737427097422
0.246678770074582
0.257001787035253
0.27271118398777
0.298006546253412
0.342955211856231
0.436685508432235
0.701215090178123
2.19512648022011
0.228888382922271
0.230074450195101
0.231908493009751
0.234770674117164
0.239164557271657
0.245764147888916
0.255623331772077
0.270669521344462
0.294923426306385
0.338064109688697
0.428465676411947
0.687388502024284
2.19485076709353
0.228606756989724
0.229118761210467
0.230034896325162
0.231647771822138
0.23432802337483
0.238519691451625
0.244833187015002
0.25426366197956
0.268638811916092
0.291764060259162
0.332867080582514
0.419395709898044
0.671414395969971
2.19192713703308
0.228760028998109
0.228794486610197
0.229062071963853
0.229803812919586
0.231312409371341
0.233903464424413
0.237958848149632
0.244042088901179
0.253091047929786
0.266817225631241
0.288776994454143
0.327657948124362
0.409704403229163
0.652967845908826
2.18619261248582
0.229205540753458
0.228908019517689
0.228720809321322
0.228855141194046
0.229558101594503
0.23107124534887
0.233652014776448
0.2376457351657
0.243585153037725
0.252350612846756
0.265527358994134
0.286393321663591
0.322991960416026
0.400005776319922
0.632731537175176
2.18721754078353
0.22983685632007
0.22931544243442
0.228816155071348
0.228532461034893
0.228684858895962
0.229471812105315
0.231081218967472
0.233743549359725
0.237792668062918
0.243742230748724
0.252423008046413
0.26530324672849
0.285380937582839
0.319986450920876
0.3919305984765
0.613985636708431
2.21610560966242
2.46684328790383
0.800988173367552
2.38167735990941
0.481302967965554
0.788280363452887
2.28699337777883
0.364275116526757
0.478832034119923
0.770025907767533
2.21610737353675
0.307882603994122
0.364266087795586
0.473265335593224
0.754501101787675
2.18721741858098
0.276674472713677
0.308587055176853
0.362455165533801
0.46722218120078
0.745436541497638
2.18619090758736
0.257998886541517
0.277539212257719
0.308129203745952
0.35970030957938
0.46228620398463
0.740680587096472
2.19192846762193
0.246310576837028
0.258812679465973
0.277577401879871
0.306789180088202
0.356722948103715
0.458244425365078
0.736333890578763
2.19485249161929
0.238837505380083
0.247009235713555
0.258987310430513
0.276876617950932
0.304908630796633
0.353686176669871
0.454085933240041
0.73025273585379
2.19511872030849
0.234064260164355
0.239420697459693
0.247179379252449
0.25856261669211
0.275625515018053
0.302694786415889
0.350385049994668
0.449094506825579
0.72210170204461
2.19480220474518
0.231100356259869
0.234550426909925
0.239547445822705
0.246869022264481
0.257677798957873
0.274017215737486
0.300200861411637
0.3466166235633
0.443039586860704
0.712083726226231
2.194800143637
0.229386756113334
0.23150821087364
0.234633411277095
0.239289608746874
0.246211438951112
0.256509864884548
0.272186815828095
0.297436447024685
0.342315563241108
0.435933792599151
0.700307675474391
2.19513152157042
0.228551021324574
0.229730592856306
0.231556416482082
0.234408497832664
0.238790125291393
0.24537470742297
0.255214898909518
0.270235756759763
0.294453606905285
0.33753940447164
0.427854507524099
0.686664356806578
2.19485284636983
0.228332677283781
0.228840909151912
0.229752188407412
0.231359029978859
0.234031936968477
0.238214699689138
0.244517196385448
0.253933534966753
0.268289482634862
0.29138698331118
0.332447797323377
0.418913296551595
0.670856915369818
2.19192752941128
0.228542726899216
0.228575568703375
0.228840992599909
0.229579835648704
0.231084659990618
0.233670974232317
0.237720454061074
0.243796186096421
0.252835176465476
0.26654735261944
0.288486300369673
0.327335358119913
0.409335330819548
0.652557376014673
2.18619390161759
0.22904021290606
0.228743200337089
0.228556233438623
0.228690212440142
0.229392120360013
0.230903545627882
0.233481910375449
0.237472368753992
0.243407285317483
0.252166296920483
0.265333306769385
0.286183572274465
0.322754327172922
0.399702880896299
0.632125396548432
2.18721857164121
0.229717832311608
0.229200654011884
0.228703856118437
0.228421617969901
0.228574907881034
0.229362400109012
0.230972004188475
0.233634076900857
0.237682269264421
0.243629890909433
0.252307133446107
0.265181099805652
0.285246946849612
0.319823478377774
0.391647284794153
0.612910388495755
2.21610688980994
0.230495043017708
0.229839659358327
0.229139876283956
0.228580001046172
0.228366402333436
0.22867320326759
0.229649364354294
0.231464234608991
0.234351842584422
0.238654309151681
0.244887408651745
0.253867705695005
0.26700814403356
0.287128294961577
0.320980053097861
0.38957500533636
0.603597393143493
2.2870039387159
2.46684219337824
0.796623945377588
2.38167967557201
0.478194214093525
0.784408248830722
2.2870064975705
0.362010150840454
0.476063253253068
0.766622114230215
2.21610716929442
0.306142193211987
0.362245553957262
0.470820532302992
0.751519975555333
2.18721751437057
0.275284118070616
0.307034537403297
0.360665557963297
0.465074115152579
0.742822208413524
2.18619230875787
0.256859360085916
0.276300998817249
0.306753242623718
0.358124294414299
0.460402759212221
0.7383850443091
2.19192892028298
0.245361527689041
0.25780107354219
0.276481694352547
0.305577353997417
0.355341524363096
0.456596890470538
0.734324572944957
2.19485207413089
0.238039745954071
0.246170540652324
0.258095191478317
0.275913634526379
0.303848173136449
0.352481483890477
0.45265121638146
0.728501860629313
2.19512372056358
0.233390801710155
0.238719816946711
0.24644352608908
0.257781798483022
0.27478569089086
0.301773514763686
0.34934186635185
0.447855168015703
0.720588744980289
2.19479661756823
0.230531576766261
0.233963049861131
0.238936688245312
0.246228928497646
0.257000563676082
0.273291433963872
0.299407627877173
0.345721795655631
0.441981413048516
0.710802261232822
2.19479707530322
0.228907754661054
0.231016614398263
0.234126041381235
0.238762773323907
0.245660637479711
0.255929002610146
0.271566572237553
0.296761156816373
0.341557189595548
0.435042035676928
0.699228025559621
2.19512552922416
0.228150088508274
0.229321302909446
0.231136579902042
0.233975734669312
0.238341750248487
0.244907352619178
0.254723757367633
0.26971326868993
0.293887098408429
0.336906561391185
0.427116206362351
0.685770980264969
2.19485588205261
0.228000395972488
0.228503370766803
0.229407876293875
0.23100636993563
0.233669264363471
0.237840085446032
0.244128081244277
0.253526120484824
0.267857732359807
0.290920913628776
0.331930476836078
0.418316904811504
0.670146779805497
2.1919287875397
0.228271497974057
0.228301430853024
0.22856296510179
0.22929688434396
0.230795703645318
0.233374841484995
0.237415723959788
0.243480893069648
0.252506340269161
0.266200219963893
0.288113167625459
0.326924093625999
0.408867833538349
0.652009305519604
2.18619245461413
0.228824077779569
0.228526069245266
0.22833760907458
0.228469425221154
0.22916840209568
0.230676109399605
0.233249908818005
0.237234743038725
0.243162526604047
0.251912082067536
0.265065909152227
0.285897031693909
0.322439370016823
0.399345556915441
0.631730496716748
2.18722093687263
0.229552356569696
0.229036153922544
0.228540080894363
0.228258000255334
0.228410798994421
0.229197223047939
0.230805225693307
0.233465100229606
0.237510299785527
0.243453759238102
0.252125017467049
0.264989978351708
0.285041314069845
0.319589488731614
0.391320688541207
0.612097673068003
2.21610874385065
0.230374801121493
0.229724032868034
0.229027106308255
0.228469061435722
0.228256756966187
0.228564550947339
0.2295414489281
0.231356739428881
0.234244324471022
0.23854612712393
0.244777623461931
0.253754909320492
0.266889930584222
0.286998670305484
0.32081480303245
0.38923837369434
0.602017411138202
2.28699341886412
0.231230269428622
0.230507382802306
0.229690523285795
0.228959608078497
0.228514218975189
0.228515451611326
0.229091118489711
0.230378859131119
0.232563877047809
0.235909317168659
0.240797101396717
0.247800028396641
0.257825142725893
0.272441637943675
0.294739480030627
0.331906112872356
0.405695059296654
0.627676288460233
2.38169009876714
2.46684129943592
0.791773950444594
2.38167825306219
0.474740464308473
0.780102555629538
2.28699528408552
0.359493209776999
0.472977650657193
0.762825669263711
2.21611929462718
0.304205063988516
0.359989910575167
0.468084803510825
0.748180182600663
2.18721712726033
0.273732731636567
0.30529751302617
0.358658343894776
0.4626600911122
0.739879160032785
2.18619201784897
0.255583699631016
0.274911533656549
0.305205641077934
0.356348054218991
0.458276732122068
0.735790529921989
2.19192866619306
0.24429466600233
0.256661510803931
0.275244830346247
0.304206706024561
0.353776418387183
0.454728268706737
0.732045067355263
2.19485299997024
0.237138341562306
0.245221168359192
0.257083473310268
0.274819542578403
0.302641235056001
0.351108553534548
0.451015785140386
0.726511073939956
2.19512564186184
0.23262507402677
0.237921664564837
0.245604171247535
0.256889626900441
0.273824450569169
0.300717358084949
0.34814452395774
0.446432863124165
0.718860097274414
2.19480182119916
0.229879959832608
0.233289185776371
0.238234954345365
0.245492304878731
0.256219880934177
0.272453393257212
0.298490313378532
0.344685739657759
0.440755260802523
0.709312275425538
2.19479140115805
0.228353897216693
0.230447443073532
0.23353776123885
0.2381509550633
0.245019896147677
0.255252115740164
0.270842603137285
0.295971804653167
0.340669736520508
0.433998082826657
0.697965754095437
2.19512246750347
0.227681153792567
0.228841941351563
0.230644113070744
0.233467237210814
0.237813935572162
0.244356149890041
0.254143432916033
0.269094894709875
0.293215763392209
0.336155903101446
0.426238874244368
0.684707731768442
2.19485247127043
0.22760603268739
0.228102131724083
0.228997823536804
0.230585496586164
0.233235478892451
0.237391009411769
0.243660608810406
0.253035697560544
0.267337202177305
0.290358486494715
0.331305811858695
0.417593293183405
0.669272198531548
2.19192962612906
0.227943217250661
0.227968931631628
0.228224859187303
0.228951773709601
0.230442202279726
0.23301149318678
0.237040783726622
0.243091969147343
0.252099849814109
0.265770551967195
0.287651350691599
0.326415422556017
0.408287647652561
0.651322966594123
2.18619251269182
0.228554922695803
0.228254753148501
0.228063215430596
0.228191000737522
0.228884990917648
0.23038675810217
0.232953579536164
0.236930133290945
0.24284779633565
0.251584447507433
0.264721054986429
0.285528350629657
0.322036783151603
0.398890908219091
0.631215135358349
2.18721956662607
0.229336808958654
0.228820170968378
0.228323191144245
0.228039568196818
0.228190111011666
0.228973590597771
0.230577978679833
0.23323349046652
0.237273351421958
0.24321006385304
0.251872432844891
0.264725191917044
0.284759204810792
0.31928104473851
0.390964769356405
0.611725880861054
2.21611060402013
0.230208719813792
0.229559376624515
0.228863622543686
0.228306190420111
0.22809387250409
0.22840112250591
0.229377028806689
0.231190880591808
0.234076487351346
0.238375573324622
0.244603280135577
0.253575142529729
0.266702002423334
0.286796536826376
0.320576659480443
0.388850971856737
0.600798220588628
2.2869949506994
0.231108416002477
0.230390542196654
0.229576907801066
0.228848180310702
0.228404450295397
0.228407067696433
0.228983913186871
0.230272599276547
0.232458255002641
0.235803911334434
0.240691330206678
0.247693118130048
0.257716025421781
0.272328093111766
0.294613513196537
0.331730958795918
0.405241256787591
0.624163448356778
2.38167839879971
0.231989610909873
0.231250751085503
0.230380896563637
0.229558427179186
0.22898058434726
0.228802383449872
0.229141092552388
0.23011923118057
0.231900338290381
0.234714921476141
0.238893999500305
0.244927867579128
0.253579273756557
0.266124540306888
0.284920732996454
0.314893793858109
0.368211416196267
0.481763515475594
0.870245217879951
3.68517097144455
0.786376113645454
2.38166679421881
0.470916490519186
0.775323052091159
2.2869951238892
0.356708922559357
0.469551026096845
0.758604970700988
2.21610777521966
0.302060360610717
0.357483566716972
0.465036516299738
0.744455222654882
2.18721681852282
0.272011323897417
0.3033642100392
0.356417959291159
0.459959354124295
0.736582210734102
2.18619178594854
0.254164214351654
0.27336115215269
0.303474318412584
0.354356267918172
0.455887771816004
0.732870405219417
2.19192789519596
0.243103188369739
0.255385788395323
0.273856936285376
0.302665269474104
0.352012825263082
0.452619084691943
0.729465989035673
2.19485476217458
0.236127080548091
0.244153912317338
0.255943780106543
0.273584539147705
0.301276225425632
0.349553299854104
0.449161009170131
0.724249078447435
2.1951289591526
0.231761323889715
0.237019770940798
0.244654008178837
0.255877800253663
0.272732290297638
0.299515319232564
0.346780094314359
0.444811499298028
0.716889208961183
2.19480406508422
0.229140135279764
0.232522948479411
0.237435760358547
0.244651959891336
0.255327713426071
0.271494043316328
0.29743860441825
0.343496682747184
0.439348162646053
0.707604549439186
2.1947967792038
0.227720184935729
0.229795322113213
0.2328627666569
0.23744784475863
0.244282302768961
0.254471569210764
0.270006398078285
0.295058782207098
0.339642151366915
0.43278797137302
0.696496909040625
2.19511687630462
0.227139585799212
0.228287608077627
0.230073812722405
0.232877445400181
0.237200691336413
0.243714590882502
0.253466795032098
0.268372741269933
0.292430703540446
0.335277193693079
0.425211053953578
0.683467066220661
2.19484997655282
0.227145347888669
0.227632768173953
0.22851740702964
0.23009154798793
0.232725417742181
0.236861934357467
0.243108787394105
0.252455725731333