/*--------------------------------*- C++ -*----------------------------------*\
  =========                 |
  \\      /  F ield         | OpenFOAM: The Open Source CFD Toolbox
   \\    /   O peration     | Website:  https://openfoam.org
    \\  /    A nd           | Version:  12
     \\/     M anipulation  |
\*---------------------------------------------------------------------------*/
/*   Windows 32 and 64 bit porting by blueCAPE: http://www.bluecape.com.pt   *\
|  Based on Windows porting (2.0.x v4) by Symscape: http://www.symscape.com   |
\*---------------------------------------------------------------------------*/
FoamFile
{
    format      ascii;
    class       surfaceScalarField;
    location    "300";
    object      phi;
}
// * * * * * * * * * * * * * * * * * * * * * * * * * * * * * * * * * * * * * //

dimensions      [0 3 -1 0 0 0 0];

internalField   nonuniform List<scalar> 
28770
(
1.78212608571253e-06
5.96773796496727e-08
2.02283079043939e-08
1.70711692992976e-06
5.56124781081652e-08
1.93959194899563e-08
5.03126259815349e-07
9.86756469155783e-08
2.40981755640108e-09
2.18993140543204e-06
6.7093346534904e-08
4.66977507924581e-08
1.63494283402118e-06
5.26291214759368e-08
1.95390196094746e-08
4.63298074895028e-07
9.34803392250432e-08
1.95539235687743e-09
2.10302930444881e-06
6.20245656549033e-08
4.42633402559386e-08
3.82880057813485e-07
1.33396983329442e-07
1.89163031295354e-09
6.17025247311376e-07
1.14394469294892e-07
4.1614424546665e-09
2.41841551692742e-06
7.65338775061679e-08
7.42912060379842e-08
1.56618272126809e-06
5.0320250459791e-08
1.84393878643512e-08
4.2524447649298e-07
8.8889031245944e-08
1.79152568577604e-09
2.01986402952175e-06
5.96515493853919e-08
4.30513504798485e-08
3.47868055604948e-07
1.27202723645661e-07
1.28913922264707e-09
5.69671639873313e-07
1.08131161753841e-07
3.19774911570265e-09
2.32264143392308e-06
7.00671406448019e-08
6.9962927891687e-08
3.6251739796163e-07
1.6694954909267e-07
1.88741027296548e-09
4.61277813302371e-07
1.55910774827023e-07
3.03146268371531e-09
6.94799139957444e-07
1.33165065060299e-07
3.71875720113726e-09
2.70072618374706e-06
8.64011680855561e-08
1.03328344197858e-07
1.50087506436037e-06
4.81655436358901e-08
1.71422208346304e-08
3.89669065916745e-07
8.4490329871102e-08
1.40311503635977e-09
1.94031574891537e-06
5.7249348067441e-08
4.07335592980495e-08
3.14605301056786e-07
1.21211876604044e-07
9.39629943354691e-10
5.25448215700147e-07
1.03067529070074e-07
2.5940632562482e-09
2.23110934629548e-06
6.76598732954796e-08
6.69113726707577e-08
3.2878459463474e-07
1.59583115375664e-07
1.35240036201384e-09
4.20306066460485e-07
1.48517703963879e-07
1.8729030719192e-09
6.4046586403526e-07
1.25494728019051e-07
2.09892272051299e-09
2.59497593226129e-06
7.85518086197652e-08
9.71600704604339e-08
3.59240706191362e-07
1.99498702073419e-07
2.20390589430681e-09
4.26733175612434e-07
1.95236943320594e-07
3.12456654977431e-09
5.26846993678188e-07
1.83617800195745e-07
1.91268847100644e-09
7.76919806142967e-07
1.51030339407113e-07
1.53090904067118e-09
2.9525266425853e-06
9.39612943557469e-08
1.33982733630389e-07
1.43902562168618e-06
4.57967405002672e-08
1.60447043082292e-08
3.56485166895163e-07
8.02948216747571e-08
1.05197102415404e-09
1.86455929507048e-06
5.45221497992477e-08
3.83698823173908e-08
2.83312370596214e-07
1.15229174410403e-07
5.53476439610154e-10
4.8427264361298e-07
9.81250646825292e-08
1.69993118973042e-09
2.14354079448751e-06
6.51162029868072e-08
6.3178770087219e-08
2.96860294246499e-07
1.52209157899913e-07
9.26181080234843e-10
3.81709967406311e-07
1.41598535799276e-07
1.0039220813744e-09
5.90157000768818e-07
1.19664512122083e-07
8.96775088820982e-10
2.49372640303362e-06
7.57598224605791e-08
9.23932705880755e-08
3.26292402405881e-07
1.90860562271167e-07
1.67041746956188e-09
3.88064459913984e-07
1.86555383292264e-07
1.98270814054872e-09
4.79350485108612e-07
1.74652145751296e-07
2.11523554759528e-10
7.164036452489e-07
1.41952656160182e-07
-7.89243828461322e-10
2.83858429653052e-06
8.50223936502768e-08
1.26070426466182e-07
3.57292144530411e-07
2.30941206987398e-07
2.57295108596609e-09
4.13746640504161e-07
2.32679501561735e-07
3.95395543320514e-09
4.87275917777743e-07
2.30140630010788e-07
3.35852350233805e-09
5.83794312121694e-07
2.08617501443633e-07
-9.10299606632836e-10
8.33989334615114e-07
1.63056842275605e-07
-1.07223170364777e-09
3.13990800370957e-06
9.88747323206021e-08
1.65595026779243e-07
1.38048338379064e-06
4.33777071451845e-08
1.51582588823231e-08
3.25515813993561e-07
7.61447167481478e-08
6.19579794996995e-10
1.79243347340591e-06
5.19448709358918e-08
3.62117273096791e-08
2.54026665143583e-07
1.09363345766998e-07
2.17058881343701e-10
4.45827236029823e-07
9.32664122681249e-08
7.48970230496789e-10
2.06000042182855e-06
6.22112162879868e-08
5.96870332795402e-08
2.66814921770057e-07
1.4475523637363e-07
5.18919660091906e-10
3.45498250910126e-07
1.34726712925443e-07
1.6288801643793e-10
5.43452527527177e-07
1.13924691663392e-07
-4.05480945225632e-10
2.39686236680865e-06
7.26628728441395e-08
8.7368500917842e-08
2.95170355253306e-07
1.82089361006178e-07
1.24168652830106e-09
3.51536308806237e-07
1.77988055201893e-07
1.06362451824487e-09
4.34799169619183e-07
1.66431415773045e-07
-1.21271115554175e-09
6.60324539328443e-07
1.35257232975885e-07
-2.52126811235336e-09
2.72960932080003e-06
8.16014312839915e-08
1.19756675546365e-07
3.25130359894912e-07
2.2095962089146e-07
2.06266940403988e-09
3.76560146093285e-07
2.22568540172377e-07
2.84282296202538e-09
4.42626318506075e-07
2.19642109569945e-07
1.64130397547487e-09
5.30993497485025e-07
1.98151630455028e-07
-3.18902209893732e-09
7.69417305086332e-07
1.52878869796143e-07
-4.07797671386074e-09
3.02070078529944e-06
8.91744494090952e-08
1.56097897283751e-07
3.54415207832837e-07
2.61149736019622e-07
3.07351756195804e-09
4.06525566290835e-07
2.68001943160473e-07
5.33498706144082e-09
4.69218198464163e-07
2.73193705991713e-07
5.73193468257438e-09
5.35830346912267e-07
2.60731663621757e-07
2.87724458541213e-09
6.1337808131037e-07
2.23989865214761e-07
-4.15453748580622e-09
8.67269532261706e-07
1.69645135678756e-07
-3.35701591797797e-09
3.27034415546071e-06
1.02164034598599e-07
1.97216221739187e-07
1.32520234275484e-06
4.10128189367749e-08
1.42658982514385e-08
2.96653996442545e-07
7.20095888686346e-08
2.26234925789636e-10
1.72399925284765e-06
4.92911904877188e-08
3.42898948380847e-08
2.26736467736832e-07
1.03580558933933e-07
-1.46826049349597e-10
4.09948070473451e-07
8.85478730522777e-08
-1.08095910534128e-10
1.98050039011649e-06
5.92223591391016e-08
5.64840458467049e-08
2.38664628902766e-07
1.37350124585547e-07
1.63269214557141e-10
3.11622048856396e-07
1.27965794180995e-07
-6.07220319918656e-10
4.99948591812416e-07
1.08254928890091e-07
-1.79769049813267e-09
2.30420398897186e-06
6.97924800875624e-08
8.25432366765997e-08
2.65884004129933e-07
1.7320180922756e-07
8.39418100122019e-10
3.1716738086213e-07
1.69376172233365e-07
2.37116453606698e-10
3.93095439684791e-07
1.58292583357568e-07
-2.50196453332769e-09
6.08187143128685e-07
1.2873245233946e-07
-4.34206720154335e-09
2.6248699003699e-06
7.87910865251655e-08
1.13307981639205e-07
2.94793913366556e-07
2.10790303374542e-07
1.6352564879343e-09
3.4144932890902e-07
2.12400248234527e-07
1.93931608045517e-09
4.00527574773721e-07
2.09424791550111e-07
1.68244439848237e-10
4.81437089695384e-07
1.88691097905121e-07
-5.09168391166957e-09
7.09307571765651e-07
1.45487928817554e-07
-6.3007322731056e-09
2.90674469999392e-06
8.52923124968482e-08
1.48415852870043e-07
3.23019956083378e-07
2.4979397733627e-07
2.56075700425349e-09
3.704822690164e-07
2.56358608120488e-07
4.31534409049565e-09
4.26642614231908e-07
2.61030371535875e-07
4.02908516574969e-09
4.86475315424765e-07
2.48591674209395e-07
5.54929350961932e-10
5.5764448038026e-07
2.12448851141238e-07
-7.02610151983273e-09
8.00636952615888e-07
1.58705709109485e-07
-6.97801129754377e-09
3.14831724887169e-06
9.17998876515e-08
1.8631853562155e-07
3.51497505877661e-07
2.90150665401411e-07
3.6791681338179e-09
4.01671668839461e-07
3.01440544126826e-07
6.89091186497533e-09
4.59299037021196e-07
3.13302327020212e-07
8.60239728176104e-09
5.12582307951668e-07
3.0810649199666e-07
7.57518912606476e-09
5.57273908862227e-07
2.78626998505536e-07
2.25069734936915e-09
6.22444490200577e-07
2.31251585658044e-07
-7.15608848535299e-09
8.87599957855936e-07
1.73442774460589e-07
-5.45780048863638e-09
3.37179855691907e-06
1.04986580738152e-07
2.27932145853347e-07
1.27318633399998e-06
3.8602025361688e-08
1.34074969265403e-08
2.69823260864723e-07
6.79380559450973e-08
-9.73876606589446e-11
1.65921985010397e-06
4.66053657559314e-08
3.24389817215201e-08
2.01363873723944e-07
9.7870202659902e-08
-4.87654715520738e-10
3.76476954070085e-07
8.38483112495186e-08
-8.60827040403499e-10
1.90507735087428e-06
5.61990213868789e-08
5.35107537112048e-08
2.12401878056008e-07
1.3001866146608e-07
-1.75987101302938e-10
2.80051454632715e-07
1.21309551035588e-07
-1.33917965845642e-09
4.59339369459808e-07
1.02749942736451e-07
-3.02920456996753e-09
2.21595841051688e-06
6.65780114875218e-08
7.81457332957424e-08
2.38431181094677e-07
1.64317656812949e-07
4.84780076592416e-10
2.84974381719738e-07
1.60824698472625e-07
-5.0362514309455e-10
3.54107335739783e-07
1.50292278716027e-07
-3.65820734743335e-09
5.59797457984677e-07
1.22340865238141e-07
-5.95765399497591e-09
2.52455490303988e-06
7.55830510387856e-08
1.07264301556101e-07
2.66268936304631e-07
2.00489698526629e-07
1.23673535447251e-09
3.08410272707062e-07
2.02146078692899e-07
1.10813387589628e-09
3.6096265239609e-07
1.9921716174667e-07
-1.12382591204644e-09
4.35051286289453e-07
1.79387116647401e-07
-6.7734930885199e-09
6.5364628735328e-07
1.38488699699965e-07
-8.38087398898334e-09
2.79682884762137e-06
8.24958892528849e-08
1.40727794841918e-07
2.93450614247355e-07
2.38231138413785e-07
2.1283102484675e-09
3.36501571355792e-07
2.4461465209098e-07
3.40111457600113e-09
3.86498485033852e-07
2.48954215437452e-07
2.55333869409428e-09
4.39901664643893e-07
2.36880205678204e-07
-1.44838143708868e-09
5.05276808870557e-07
2.02127093194714e-07
-9.36464071782843e-09
7.38392253620868e-07
1.508638788909e-07
-9.62902044051509e-09
3.0315852113243e-06
8.76385619650074e-08
1.77498167093403e-07
3.20733609006135e-07
2.77383808046111e-07
3.17378025702696e-09
3.6651895768157e-07
2.88284200964296e-07
5.78710028749549e-09
4.18264863917807e-07
2.99469306299866e-07
6.91024886083217e-09
4.65806441131393e-07
2.94164437599561e-07
5.23075785007384e-09
5.05582033390893e-07
2.65386494168825e-07
-6.92352793761269e-10
5.65681347987826e-07
2.19029698599301e-07
-1.05900478427073e-08
8.20095148123582e-07
1.6190272718966e-07
-9.57726015142605e-09
3.24822646343829e-06
9.39060711363471e-08
2.15970329663948e-07
3.49312433723289e-07
3.18134630666468e-07
4.2885250118879e-09
3.9821764962078e-07
3.33369074165384e-07
8.4087316804653e-09
4.54268297067199e-07
3.51135198392345e-07
1.14552789604536e-08
5.00616360389739e-07
3.51920648670375e-07
1.22764939887467e-08
5.30672358916864e-07
3.28043625459869e-07
9.42893012281927e-09
5.60037155609046e-07
2.86300794104445e-07
1.71489195517461e-09
6.23054316958663e-07
2.34740025930386e-07
-9.96805747086781e-09
9.04403569792491e-07
1.76412042105203e-07
-7.61274604898452e-09
3.47038582809585e-06
1.07988685782617e-07
2.57142868440612e-07
1.22431930017069e-06
3.62816514052461e-08
1.25805402910934e-08
2.44885586591776e-07
6.39433820732142e-08
-4.06999580765504e-10
1.59798033785887e-06
4.39739673318587e-08
3.06621293738329e-08
1.77822923517455e-07
9.22644731011379e-08
-7.86184994383583e-10
3.45288942075158e-07
7.91948883460011e-08
-1.50301222870544e-09
1.83364283268735e-06
5.31286227168347e-08
5.07361479497793e-08
1.87970620446104e-07
1.22786533780907e-07
-4.85553625521069e-10
2.50676849245815e-07
1.14731301205626e-07
-1.99753303190124e-09
4.21458833142897e-07
9.7268551201221e-08
-4.05599428811083e-09
2.13220848112514e-06
6.31800016952128e-08
7.40730953913616e-08
2.1279485929404e-07
1.55499378684809e-07
1.55283495664352e-10
2.54932966803477e-07
1.5236386968639e-07
-1.19020884280687e-09
3.1778220108626e-07
1.4243369076884e-07
-4.69847772816496e-09
5.14617972399408e-07
1.16107137039221e-07
-7.38447676252695e-09
2.42893136648757e-06
7.20814719867153e-08
1.01682926216037e-07
2.39532857366096e-07
1.90172748645127e-07
8.8066062828132e-10
2.7744656771732e-07
1.91902373978402e-07
3.69947045279618e-10
3.23914923133965e-07
1.89093384116913e-07
-2.25742914420667e-09
3.91709483447376e-07
1.70250576378903e-07
-8.22772467842748e-09
6.01945247244288e-07
1.31562969076486e-07
-1.02356477300734e-08
2.69138549864564e-06
7.91836633916278e-08
1.33512741959015e-07
2.65676693121126e-07
2.26535515604697e-07
1.72802598546757e-09
3.0454806182341e-07
2.32773800712774e-07
2.56165933664778e-09
3.48738287051743e-07
2.36837260455393e-07
1.24708858056533e-09
3.96118761538542e-07
2.25231404870991e-07
-3.18694953797001e-09
4.56294531730452e-07
1.92053377706288e-07
-1.1357863827556e-08
6.80857542068228e-07
1.43579400860569e-07
-1.19342978057542e-08
2.91868708257879e-06
8.48178042392976e-08
1.68799187469339e-07
2.91807017820537e-07
2.64420378043702e-07
2.73720943946827e-09
3.33419922620955e-07
2.74995780285134e-07
4.84587067370627e-09
3.79598226650901e-07
2.85610072656361e-07
5.41150397750628e-09
4.21664188559817e-07
2.80398534692157e-07
3.17645133186962e-09
4.56761226702953e-07
2.52696773938587e-07
-3.19968308557116e-09
5.12292596661482e-07
2.08202713491273e-07
-1.33161305597294e-08
7.56869320097444e-07
1.53747492119168e-07
-1.25163797683103e-08
3.12993105545471e-06
8.94678327793104e-08
2.06316730741022e-07
3.18993467784288e-07
3.03931022527479e-07
3.77164542798055e-09
3.63704512726449e-07
3.18661322608187e-07
7.30947926094879e-09
4.14237434796766e-07
3.35560193163024e-07
9.72666380745491e-09
4.55646730863822e-07
3.36140072068805e-07
9.90372929218707e-09
4.81903790505274e-07
3.12954820266519e-07
6.43025486797255e-09
5.07769182775795e-07
2.72426496776245e-07
-1.8225980480934e-09
5.66219798446334e-07
2.22024863888475e-07
-1.38804176504708e-08
8.3653628808921e-07
1.64261095734448e-07
-1.20688827353908e-08
3.34561674465728e-06
9.61839267137623e-08
2.44535022852567e-07
3.47862413069908e-07
3.45314200984985e-07
4.88552101315704e-09
3.95761263105001e-07
3.64219512100758e-07
9.71753466972651e-09
4.51601344287297e-07
3.87348032538199e-07
1.39805946920049e-08
4.95729083479262e-07
3.93309362469409e-07
1.65145858996383e-08
5.18152610747594e-07
3.73751045830606e-07
1.59901920928357e-08
5.3167092435647e-07
3.36139853594207e-07
1.12050439309285e-08
5.5602783557313e-07
2.89395108450971e-07
1.21743552140237e-09
6.22436936347035e-07
2.3716212912861e-07
-1.27623330204991e-08
9.23257400678713e-07
1.79305056160932e-07
-9.76700316238505e-09
3.58206385068931e-06
1.11513075959775e-07
2.84501228630313e-07
1.17837182451776e-06
3.4023761216825e-08
1.19230662301114e-08
2.21788991013581e-07
6.00616129932679e-08
-6.85517765151989e-10
1.54020538775541e-06
4.14090469384194e-08
2.8944918847896e-08
1.56025824794192e-07
8.67884925085099e-08
-1.04860697913617e-09
3.16254339960479e-07
7.46343976628384e-08
-2.03521854074579e-09
1.76624477814723e-06
4.99732454318802e-08
4.80770198749917e-08
1.65299828985215e-07
1.15692011534244e-07
-7.57193912364159e-10
2.23389609718711e-07
1.08264075907001e-07
-2.56961477125435e-09
3.86159005260389e-07
9.18398500238208e-08
-4.91701117806724e-09
2.05285343907581e-06
5.97630102509136e-08
7.03242198838446e-08
1.88927656321615e-07
1.46797855579635e-07
-1.44586080389457e-10
2.26966339732769e-07
1.44016711663867e-07
-1.80469040513541e-09
2.83984760240486e-07
1.34672277915796e-07
-5.60484512486967e-09
4.72430055098631e-07
1.09883192922533e-07
-8.57406299628463e-09
2.33808110001337e-06
6.83779698826189e-08
9.65292562598143e-08
2.1455884871365e-07
1.7992063232628e-07
5.52442241126857e-10
2.48526764779613e-07
1.81735385089532e-07
-2.9690761699575e-10
2.89345743656388e-07
1.7908337645015e-07
-3.27198305854876e-09
3.51323225531349e-07
1.61286076158182e-07
-9.49139776455921e-09
5.53673900285784e-07
1.2478369627846e-07
-1.18211318498406e-08
2.59079037478165e-06
7.54394980202005e-08
1.26836560478161e-07
2.39662775125976e-07
2.14820080722577e-07
1.36630827187538e-09
2.74603253685209e-07
2.20920179296145e-07
1.8070143494978e-09
3.13357262459404e-07
2.24751211389681e-07
9.18851745734836e-11
3.551137641914e-07
2.13691798376336e-07
-4.69447828757541e-09
4.10522534588424e-07
1.82157909065307e-07
-1.30516874495088e-08
6.27433749994729e-07
1.36307245115537e-07
-1.39415049092173e-08
2.81024234181169e-06
8.13722994705214e-08
1.60578570285111e-07
2.64676466935788e-07
2.51335973486891e-07
2.32996850704818e-09
3.023248895158e-07
2.61604802480689e-07
3.99124087281162e-09
3.43245198797901e-07
2.7168277607253e-07
4.06863541429873e-09
3.8013517459239e-07
2.66635211272314e-07
1.37125665059464e-09
4.10852251558383e-07
2.40124904791166e-07
-5.34986486247093e-09
4.6238241715573e-07
1.97700070815172e-07
-1.55697033855036e-08
6.9844959622546e-07
1.46275557067541e-07
-1.4977510291539e-08
3.0152413367531e-06
8.66709518703256e-08
1.96801112396305e-07
2.90535221047285e-07
2.89546718357372e-07
3.33167645342878e-09
3.31262084633429e-07
3.0382258534977e-07
6.35227911642012e-09
3.76568539174607e-07
3.19938146250736e-07
8.18605900572689e-09
4.13247692021059e-07
3.20416903574873e-07
7.79086313324734e-09
4.35845536205284e-07
2.98118012765178e-07
3.81190533846267e-09
4.58363334458005e-07
2.59201106529736e-07
-4.793776906289e-09
5.12692609349503e-07
2.10856604253772e-07
-1.68997354823387e-08
7.72793432334353e-07
1.55776068805022e-07
-1.50843849588704e-08
3.22618458470292e-06
9.12583175488764e-08
2.34483978795378e-07
3.17807554740823e-07
3.2962169927533e-07
4.36414490197895e-09
3.61677471274876e-07
3.47905901678806e-07
8.61046265212809e-09
4.12231792980837e-07
3.70005008612499e-07
1.22340059994979e-08
4.51851199034528e-07
3.75642013105634e-07
1.41016417698142e-08
4.71317409168518e-07
3.56755418646126e-07
1.29377815448216e-08
4.82512193805535e-07
3.20433105284788e-07
7.58124964034033e-09
5.03975508625241e-07
2.7510256272671e-07
-2.84980754816531e-09
5.65878903070451e-07
2.23971062144903e-07
-1.70326399707396e-08
8.55196022743225e-07
1.66463241242245e-07
-1.42909003167556e-08
3.4560717222627e-06
9.86733767471803e-08
2.7185204674731e-07
3.46607197993106e-07
3.72005717265054e-07
5.2956382012256e-09
3.93896710807459e-07
3.9440223326464e-07
1.07706306982258e-08
4.49906485745443e-07
4.22455920450025e-07
1.60250316535465e-08
4.93877149201681e-07
4.33070120192458e-07
2.00641406389445e-08
5.14023968007209e-07
4.17038028493051e-07
2.16130700428445e-08
5.19245492009795e-07
3.82347505652014e-07
1.95263974765824e-08
5.26598835338595e-07
3.38933027372311e-07
1.28814374837972e-08
5.51459235331475e-07
2.91176660448716e-07
7.17269113401276e-10
6.23137926858742e-07
2.39317405557132e-07
-1.55228785971209e-08
9.47739444199238e-07
1.82329564514716e-07
-1.15500037310456e-08
3.7139715499377e-06
1.15807061782459e-07
3.09638632238398e-07
1.13522966950327e-06
3.18622867470624e-08
1.12783636283622e-08
2.00423043994637e-07
5.63031313636359e-08
-9.16160835024521e-10
1.48570718347305e-06
3.89082553463041e-08
2.75035144541771e-08
1.35898104645235e-07
8.14640012067389e-08
-1.27566619174724e-09
2.89313140500735e-07
7.02066382411507e-08
-2.54726461925087e-09
1.70251106320321e-06
4.71616812523094e-08
4.55123170405125e-08
1.44313441750312e-07
1.08765295817954e-07
-9.90637895719234e-10
1.98089768959006e-07
1.01942382888318e-07
-3.05861027511701e-09
3.5325192548728e-07
8.65102041196128e-08
-5.66511700411682e-09
1.97789485153668e-06
5.63325561702264e-08
6.66957436974362e-08
1.66768375616663e-07
1.38260281238456e-07
-4.0942517467691e-10
2.00989942713101e-07
1.35822787538514e-07
-2.34067676763161e-09
2.52586985708633e-07
1.27044214225023e-07
-6.37823517364821e-09
4.33064343776853e-07
1.03735883258814e-07
-9.52885572802575e-09
2.252113604159e-06
6.44984666522742e-08
9.17845322732133e-08
1.91299190900809e-07
1.69802316430956e-07
2.54989377572289e-10
2.21589216461099e-07
1.71700505906819e-07
-8.91624785160837e-10
2.57165651818757e-07
1.69209227176179e-07
-4.16291148061366e-09
3.13727238637625e-07
1.52441438333404e-07
-1.05695166314125e-08
5.08577641871396e-07
1.18028389449623e-07
-1.31339239063957e-08
2.49509399356251e-06
7.15381217288963e-08
1.20682044973646e-07
2.1537017781023e-07
2.03180867707469e-07
1.03201620895144e-09
2.46626855250031e-07
2.09141167380537e-07
1.12207013208948e-09
2.80317366653165e-07
2.12768040794996e-07
-9.42464930215798e-10
3.16847574189633e-07
2.02296403308153e-07
-6.01690248071148e-09
3.67850265548534e-07
1.7245590259584e-07
-1.44923167742756e-08
5.77511727953425e-07
1.29169665464627e-07
-1.56337779705979e-08
2.70666277951713e-06
7.74336806695418e-08
1.52976744991724e-07
2.39291838677354e-07
2.38246427828679e-07
1.95809336967182e-09
2.73200836257927e-07
2.4819877259951e-07
3.21133628266022e-09
3.09180390622977e-07
2.57758152976759e-07
2.86429051351309e-09
3.41216429657038e-07
2.52922612474926e-07
-2.21787572829868e-10
3.67838914781736e-07
2.27679886481276e-07
-7.20512136186879e-09
4.15721868570809e-07
1.87372626018055e-07
-1.74583033524629e-08
6.44212429665213e-07
1.38743246758004e-07
-1.7077389470321e-08
2.90494179310573e-06
8.30801619447243e-08
1.87795737794503e-07
2.63885324617277e-07
2.75069431491845e-07
2.91632572608328e-09
3.00827724156676e-07
2.88895522114827e-07
5.47308186497033e-09
3.41194266752625e-07
3.04252274268203e-07
6.7954542313635e-09
3.73375833991312e-07
3.04669040645693e-07
5.90619859621187e-09
3.92493652475795e-07
2.83325329727482e-07
1.52139010864283e-09
4.11886475228931e-07
2.46139265744624e-07
-7.31263275307636e-09
4.62659252741375e-07
2.00083171552946e-07
-1.93445132278889e-08
7.13896506118463e-07
1.48143755335979e-07
-1.75570532173318e-08
3.1101208378751e-06
8.84166015809261e-08
2.2444352896548e-07
2.89654586694399e-07
3.13781838604535e-07
3.91789569205724e-09
3.29702987882815e-07
3.31490619900112e-07
7.63807591862178e-09
3.75242310063472e-07
3.52619554244123e-07
1.06598546052193e-08
4.10535112026138e-07
3.57992783334481e-07
1.19261301640771e-08
4.27128397043345e-07
3.39875351626281e-07
1.02219771815786e-08
4.36048856751053e-07
3.05038459170514e-07
4.43703289535186e-09
4.54712852953241e-07
2.6154043184027e-07
-6.21630730821922e-09
5.12495109320038e-07
2.12474417138795e-07
-2.02168516803868e-08
7.90998204323192e-07
1.57540918555387e-07
-1.71732339343765e-08
3.33550809286139e-06
9.31738511550764e-08
2.61858074695802e-07
3.16694647975712e-07
3.54756247465149e-07
4.77789487834708e-09
3.6008279358203e-07
3.76421397321636e-07
9.66224898604325e-09
4.10967362148788e-07
4.03285934736749e-07
1.42681258988209e-08
4.50664380658006e-07
4.13465366915648e-07
1.76233289385383e-08
4.6829038975661e-07
3.98081853327024e-07
1.85080772559105e-08
4.72058830348901e-07
3.64729275924408e-07
1.58274262409686e-08
4.77741993107071e-07
3.22851188377216e-07
8.6882649931413e-09
4.99866677925065e-07
2.76506324659672e-07
-3.79397469266274e-09
5.66970128865969e-07
2.25592491929407e-07
-1.99957871329588e-08
8.79380307963077e-07
1.68604045616618e-07
-1.58710590857214e-08
3.58664650028106e-06
1.01590472794004e-07
2.97575890412266e-07
3.44875613347661e-07
3.98430251388819e-07
5.54770381069445e-09
3.92041903111458e-07
4.24163258454352e-07
1.15099357662979e-08
4.48444712410209e-07
4.56869934341622e-07
1.7568962656983e-08
4.92837788611199e-07
4.71729927975649e-07
2.28535353469799e-08
5.1304853871843e-07
4.58712262289893e-07
2.6198980362397e-08
5.15758505966609e-07
4.26187679714699e-07
2.65074992833849e-08
5.14220803109366e-07
3.84922739009383e-07
2.28972544605868e-08
5.2099306071076e-07
3.40129881768309e-07
1.45110703767449e-08
5.48021085416888e-07
2.92496018016535e-07
2.94615944937227e-10
6.26084540829738e-07
2.41267446102733e-07
-1.80276645707398e-08
9.80737094597269e-07
1.85531333649345e-07
-1.22786497971117e-08
3.86740743840199e-06
1.21055816671333e-07
3.32003325776608e-07
1.09482370383573e-06
2.9890499589496e-08
1.05142498837739e-08
1.80683595215717e-07
5.26758950434447e-08
-1.07535246836234e-09
1.43438318028731e-06
3.65059444516653e-08
2.60802788788587e-08
1.17356049149822e-07
7.63069116174925e-08
-1.46256059531898e-09
2.64360150119232e-07
6.59115860807497e-08
-2.97037031323048e-09
1.64236789289316e-06
4.4497870314786e-08
4.31459463175752e-08
1.24935360618965e-07
1.02029444839486e-07
-1.18776625381944e-09
1.74698526407773e-07
9.57937420802936e-08
-3.47325377431926e-09
3.22738360646317e-07
8.13800062428579e-08
-6.25748607367147e-09
1.90692228524867e-06
5.31160859183337e-08
6.33594558643792e-08
1.46245867014293e-07
1.29924308830168e-07
-6.36978642879726e-10
1.76922257585023e-07
1.27816893100288e-07
-2.79832633272997e-09
2.23472692023432e-07
1.19590382647087e-07
-7.02617426024438e-09
3.96389970801847e-07
9.77335124393556e-08
-1.03975136975095e-08
2.17049899273161e-06
6.11105618058545e-08
8.71950536932918e-08
1.69693563950512e-07
1.59875151206744e-07
-9.47013259500406e-12
1.96562215497688e-07
1.61851778679969e-07
-1.41279003763617e-09
2.27279186121516e-07
1.59518476222291e-07
-4.92998235317413e-09
2.78787105137449e-07
1.43758648330819e-07
-1.14626915109753e-08
4.66375948766648e-07
1.11360457650235e-07
-1.41936676235719e-08
2.40443892213227e-06
6.74718507660672e-08
1.14965170592802e-07
1.9274872934692e-07
1.91696011154682e-07
7.27662310774825e-10
2.20561222234057e-07
1.97513264202592e-07
5.07029612330359e-10
2.49544187889561e-07
2.00948203214e-07
-1.85850619343442e-09
2.81220431198605e-07
1.91066825702933e-07
-7.16279202989638e-09
3.28107338096561e-07
1.62899659188964e-07
-1.57000168648738e-08
5.30831355207441e-07
1.2209799914775e-07
-1.70174249817539e-08
2.60805757307926e-06
7.33179194596679e-08
1.45962150008297e-07
2.15606490440869e-07
2.25253321806011e-07
1.61265117377259e-09
2.46000152263194e-07
2.34879763191044e-07
2.49349175293328e-09
2.77357378180407e-07
2.43936170212028e-07
1.77624120071006e-09
3.04865102210903e-07
2.39339936597693e-07
-1.63616378893755e-09
3.27683393067636e-07
2.15405964325068e-07
-8.81310491541816e-09
3.72184040408262e-07
1.77257463234658e-07
-1.90446415827117e-08
5.9349144418413e-07
1.31360904473706e-07
-1.884635130226e-08
2.79942331690764e-06
7.9033843434969e-08
1.79442516816876e-07
2.38987026028108e-07
2.60611316557264e-07
2.53331026885465e-09
2.72352357504225e-07
2.73968406604359e-07
4.66340487236105e-09
3.08065121294866e-07
2.88565378879512e-07
5.53287940993826e-09
3.36005383287395e-07
2.88940359070023e-07
4.21584393471368e-09
3.51846688529358e-07
2.68602127489697e-07
-4.98375108589633e-10
3.68311795060549e-07
2.33217593991842e-07
-9.47731151657656e-09
4.1584175220779e-07
1.89480429479308e-07
-2.13789905234961e-08
6.59172053709649e-07
1.40396421403995e-07
-1.96735807922163e-08
2.99829176617519e-06
8.47234517388471e-08
2.14886146492561e-07
2.63340494955413e-07
2.97886181393517e-07
3.49728235118772e-09
2.99758928971434e-07
3.15017185287419e-07
6.73859285419286e-09
3.40553485695019e-07
3.35188897814763e-07
9.2250721198096e-09
3.71719790742291e-07
3.40317972520588e-07
9.96130045245172e-09
3.85549644635112e-07
3.23006707391778e-07
7.80279968375223e-09
3.92287307150981e-07
2.89721670599912e-07
1.69995003618022e-09
4.08341673860631e-07
2.4818387639483e-07
-9.04344134587702e-09
4.62578405553783e-07
2.01464311278761e-07
-2.27502158921701e-08
7.3165053973067e-07
1.49713286594432e-07
-1.95095579460323e-08
3.21803153218278e-06
9.0266441744487e-08
2.51642875444331e-07
2.88738105811281e-07
3.37409612197832e-07
4.32872188970989e-09
3.28427232221908e-07
3.58383299789636e-07
8.68036339963174e-09
3.74448634355537e-07
3.84104489625973e-07
1.26716691510858e-08
4.100370913879e-07
3.93880349420295e-07
1.53992826979184e-08
4.25196065365043e-07
3.79190221444562e-07
1.5704987376319e-08
4.27503479274903e-07
3.47269065811066e-07
1.25456242337452e-08
4.31512133848319e-07
3.07130232314858e-07
5.07587261706569e-09
4.50945992223788e-07
2.62642745107826e-07
-7.46598734030197e-09
5.13771654674103e-07
2.13715865388839e-07
-2.31978453214317e-08
8.14579019097303e-07
1.59114743018101e-07
-1.83141648463919e-08
3.46490829226994e-06
9.51634821222759e-08
2.88431938914222e-07
3.15049773912687e-07
3.79547334488491e-07
5.03470114341378e-09
3.58392542358423e-07
4.04440354595544e-07
1.0408166391739e-08
4.09780901997518e-07
4.35798546817422e-07
1.58133820461845e-08
4.50051015097232e-07
4.50117978733489e-07
2.04016812504751e-08
4.6796125531025e-07
4.37732726775101e-07
2.30596969842653e-08
4.69658526701434e-07
4.06594824794684e-07
2.27419428327193e-08
4.67339200233573e-07
3.66956285675366e-07
1.86029808245111e-08
4.7263746088849e-07
3.23732240084977e-07
9.81680018351413e-09
4.9695538853946e-07
2.77420982789312e-07
-4.55768949722996e-09
5.70316970159014e-07
2.26899220274893e-07
-2.25261412235473e-08
9.11886292166745e-07
1.70620522230876e-07
-1.60506035580614e-08
3.73876860157842e-06
1.04885607183557e-07
3.21334115139857e-07
3.42086780657375e-07
4.24729224119668e-07
5.66222041092441e-09
3.89562542560673e-07
4.53694949446101e-07
1.19551921290899e-08
4.46595320114431e-07
4.90866206879462e-07
1.86279445779882e-08
4.91677041138332e-07
5.0967746464342e-07
2.49116083864265e-08
5.12561908033641e-07
4.9928498274326e-07
2.97494123050585e-08
5.15327016373349e-07
4.68435370947048e-07
3.21352928262518e-08
5.10976914745904e-07
4.28606984326383e-07
3.12012010322125e-08
5.08410880780003e-07
3.85606391829689e-07
2.61862548152144e-08
5.16265298718067e-07
3.4067173370272e-07
1.62008494354764e-08
5.46072627905127e-07
2.93337306351059e-07
1.42910335030324e-10
6.32017298928791e-07
2.42909384042123e-07
-1.98838947829668e-08
1.02510303539358e-06
1.88876903718748e-07
-1.10303151432491e-08
4.03718398176745e-06
1.2758318936572e-07
3.50407521375959e-07
1.05701517238132e-06
2.79575170371725e-08
9.84988265374697e-09
1.62538318624492e-07
4.9200984479691e-08
-1.16801391633751e-09
1.38602804794194e-06
3.41894484110292e-08
2.4669289704981e-08
1.00314560789519e-07
7.13248451071214e-08
-1.60820763720832e-09
2.41260734324132e-07
6.17549601189521e-08
-3.23090357041007e-09
1.58581581693411e-06
4.16166104864586e-08
4.10122332138914e-08
1.07088434926359e-07