/*--------------------------------*- C++ -*----------------------------------*\
  =========                 |
  \\      /  F ield         | OpenFOAM: The Open Source CFD Toolbox
   \\    /   O peration     | Website:  https://openfoam.org
    \\  /    A nd           | Version:  12
     \\/     M anipulation  |
\*---------------------------------------------------------------------------*/
/*   Windows 32 and 64 bit porting by blueCAPE: http://www.bluecape.com.pt   *\
|  Based on Windows porting (2.0.x v4) by Symscape: http://www.symscape.com   |
\*---------------------------------------------------------------------------*/
FoamFile
{
    format      ascii;
    class       volVectorField;
    location    "300";
    object      U;
}
// * * * * * * * * * * * * * * * * * * * * * * * * * * * * * * * * * * * * * //

dimensions      [0 1 -1 0 0 0 0];

internalField   nonuniform List<vector> 
10068
(
(-2.77579259585281e-06 -9.61521436029987e-05 2.28636807649903e-05)
(-2.28037428772364e-06 -7.35996473548582e-05 2.08960230017379e-05)
(-1.34424020659174e-06 -0.000130414046269848 4.02381467726517e-05)
(-9.36955508406878e-06 -2.73381878971398e-05 2.37963501543978e-05)
(-2.07427870614494e-06 -5.17123949569299e-05 1.84588677980525e-05)
(-1.20868449999388e-06 -0.0001099854399688 3.77763778820751e-05)
(-8.20084719658298e-06 -4.28044535611766e-06 2.18252008869533e-05)
(-5.75313558095622e-07 -0.000160794359374602 6.08272304640649e-05)
(-5.08131606077641e-06 -8.46700718607684e-05 4.04633656493346e-05)
(-1.61827814942587e-05 -2.43219743520723e-06 2.49939757039073e-05)
(-2.28303281002855e-06 -3.35055816208465e-05 1.69987803599427e-05)
(-1.2017225136708e-06 -9.02770756886773e-05 3.5401910221334e-05)
(-7.59225304401063e-06 1.61379588859211e-05 1.97591549693035e-05)
(-5.77189643228147e-07 -0.000140899718374106 5.75421362817618e-05)
(-4.78956215743856e-06 -6.3376713591722e-05 3.78040160764264e-05)
(-1.51735978848568e-05 2.11301042819773e-05 2.26764634902843e-05)
(-1.63098831962636e-07 -0.000175169404457271 8.18380706461609e-05)
(-2.26936439583875e-06 -0.000138686062540257 6.09601703413289e-05)
(-9.55492048455393e-06 -6.47729504719678e-05 4.14108511959946e-05)
(-2.36349079090473e-05 8.12427617060774e-06 2.61739672722769e-05)
(-2.43532747308389e-06 -1.77323298315781e-05 1.60317718346718e-05)
(-1.30687990146409e-06 -7.27424979314117e-05 3.32846628494795e-05)
(-8.00243177127348e-06 3.24263544696818e-05 1.79087587678727e-05)
(-6.45543500649234e-07 -0.00012215286269243 5.44697638446433e-05)
(-4.77735626927973e-06 -4.41329127903558e-05 3.53220999575562e-05)
(-1.452907377529e-05 4.12723609336428e-05 2.04755155939887e-05)
(-2.08872395604583e-07 -0.000155806797705886 7.78473759391783e-05)
(-2.31781145406867e-06 -0.000118230621897149 5.74538835889147e-05)
(-9.34528945763184e-06 -4.29437334741684e-05 3.8532433405654e-05)
(-2.29599358293268e-05 3.1859640298978e-05 2.35442636015492e-05)
(1.34490109742724e-07 -0.000184272408050898 0.000102076644341909)
(-7.81605609681931e-07 -0.000161418505340257 8.19599544189431e-05)
(-4.64527645850963e-06 -0.000125481311560844 6.1975017696756e-05)
(-1.45258749227796e-05 -5.29006493298318e-05 4.2536008004067e-05)
(-3.21979824678828e-05 1.63227487137404e-05 2.71876700855035e-05)
(-2.53426520456797e-06 -3.21149353738069e-06 1.49784391346891e-05)
(-1.36543264436764e-06 -5.66232352693359e-05 3.13809308498925e-05)
(-8.36181442459322e-06 4.59199500174482e-05 1.6004536946625e-05)
(-7.29733542457545e-07 -0.00010497555967362 5.14853237514612e-05)
(-4.98667501029748e-06 -2.77281399860313e-05 3.31329442142383e-05)
(-1.47331523693555e-05 5.69773658425573e-05 1.8720046429474e-05)
(-2.88258661154978e-07 -0.000137635904376609 7.3931747095439e-05)
(-2.50216546466061e-06 -9.96477198216208e-05 5.42830506077504e-05)
(-9.33204893809973e-06 -2.3770344595725e-05 3.59645720959562e-05)
(-2.22053250711236e-05 5.21099087424796e-05 2.09919284880592e-05)
(6.95260367792995e-08 -0.000165326680914296 9.73155713790392e-05)
(-9.40050556739734e-07 -0.000141767031960318 7.77611528314289e-05)
(-4.81819875180822e-06 -0.000104690698512659 5.82351966935285e-05)
(-1.45144585676667e-05 -3.09667580025532e-05 3.94382311273236e-05)
(-3.169639606817e-05 4.00275961809773e-05 2.42840246465892e-05)
(3.65310465993881e-07 -0.000190561114298545 0.00012133864642642)
(2.29742640378419e-07 -0.000174265566314123 0.00010198655805382)
(-1.8801278871875e-06 -0.000151897280079722 8.29857957223705e-05)
(-7.40965497763202e-06 -0.000116003375800027 6.31511458293482e-05)
(-2.01190357586339e-05 -4.33368639274899e-05 4.35280351557521e-05)
(-4.17205944392898e-05 2.40037729907817e-05 2.80039164785371e-05)
(-2.4948456876798e-06 9.9320685165116e-06 1.40561451345292e-05)
(-1.41573404835149e-06 -4.17892098426139e-05 2.95356991036681e-05)
(-8.46324681886931e-06 5.83379517072275e-05 1.48243987303233e-05)
(-7.82912300198377e-07 -8.88739465789902e-05 4.86038317195643e-05)
(-5.1322686690422e-06 -1.2829685760892e-05 3.10798232299571e-05)
(-1.49161254788231e-05 6.96603866813816e-05 1.66716596395625e-05)
(-3.70628652906339e-07 -0.00012079930645577 6.99850694978285e-05)
(-2.71388513087598e-06 -8.29845881451421e-05 5.12139267327368e-05)
(-9.51938890251433e-06 -7.83302133576577e-06 3.3674040478058e-05)
(-2.2166230545609e-05 6.77481666385814e-05 1.8858361666228e-05)
(-1.28320647312614e-08 -0.000147556750002229 9.25258214961895e-05)
(-1.16622723363031e-06 -0.000123696667459603 7.37288789544265e-05)
(-5.09285465066696e-06 -8.61574728321711e-05 5.4938242850709e-05)
(-1.45075290136954e-05 -1.17751880078106e-05 3.67311257123043e-05)
(-3.08272873027152e-05 6.03424790093128e-05 2.11590362061262e-05)
(2.9088681176152e-07 -0.000171913144170708 0.00011577911518858)
(2.09377809246501e-08 -0.00015513959199741 9.70203328087491e-05)
(-2.20159765695154e-06 -0.000132064511989771 7.85631486739786e-05)
(-7.77301447914013e-06 -9.51411539158801e-05 5.91910636201498e-05)
(-2.02967747489799e-05 -2.14764827763685e-05 4.02183921294866e-05)
(-4.12355995343153e-05 4.75218333617998e-05 2.48619385192439e-05)
(5.50484861380547e-07 -0.000195169749549861 0.000139606415326731)
(9.85342554464023e-07 -0.00018265280416626 0.000120892540591247)
(3.75077390039758e-08 -0.000166912098654053 0.000102888395650846)
(-3.2410746945723e-06 -0.000144404698569272 8.40944558696376e-05)
(-1.05494389460073e-05 -0.00010834195759541 6.40767286160353e-05)
(-2.62633593481865e-05 -3.51610915911836e-05 4.42815015967283e-05)
(-5.19938590658397e-05 3.20486954281952e-05 2.84961119720688e-05)
(-2.45695590742343e-06 2.19448174514265e-05 1.32310078803075e-05)
(-1.44773642847024e-06 -2.81608844627001e-05 2.77054276607105e-05)
(-8.39563107397561e-06 6.95556387657375e-05 1.38100351058101e-05)
(-8.28692312624633e-07 -7.39555707408309e-05 4.57750610843821e-05)
(-5.23110000830974e-06 8.30277875081517e-07 2.91639684336739e-05)
(-1.49363220937705e-05 8.13437655972303e-05 1.52581929566978e-05)
(-4.31872738432831e-07 -0.000104993223715207 6.6097469095688e-05)
(-2.86069728111873e-06 -6.74275211530563e-05 4.82459180885253e-05)
(-9.68310597490037e-06 6.52213997086633e-06 3.15035073792362e-05)
(-2.21992397759635e-05 8.00531478251827e-05 1.68948678340512e-05)
(-9.71274578850905e-08 -0.000131011592346226 8.76851062955343e-05)
(-1.39330493463402e-06 -0.000107154521811682 6.96831896126137e-05)
(-5.37976805860105e-06 -6.97951497397666e-05 5.1752126498999e-05)
(-1.46540545313102e-05 3.96015193986691e-06 3.43330195958739e-05)
(-3.05811894166131e-05 7.59688305855141e-05 1.8968198538711e-05)
(2.05890633773947e-07 -0.000154427427019867 0.000110139586394093)
(-2.21672270928185e-07 -0.000137440293276619 9.21026349655997e-05)
(-2.56552800062569e-06 -0.000114036300463829 7.4388512277104e-05)
(-8.1403346836284e-06 -7.66518020356979e-05 5.57455351882909e-05)
(-2.03216752584651e-05 -2.28981357086851e-06 3.73453895756561e-05)
(-4.02355274271845e-05 6.7843671815919e-05 2.12880550236805e-05)
(4.70024499689759e-07 -0.000176716038527779 0.000133234770688148)
(7.48013653558629e-07 -0.000163874773092607 0.000115134829727421)
(-3.58160754794549e-07 -0.000147673623382416 9.76979996184031e-05)
(-3.7717753590809e-06 -0.000124551299695599 7.94711259256325e-05)
(-1.111832978174e-05 -8.75353619692832e-05 5.99267829840673e-05)
(-2.65681557009236e-05 -1.345901107335e-05 4.07758561949103e-05)
(-5.14200476154627e-05 5.52989984494778e-05 2.50676718150205e-05)
(7.02067262781575e-07 -0.000198695297850065 0.000156991152361176)
(1.58167245342418e-06 -0.000188549544314922 0.00013881001709883)
(1.48014958714621e-06 -0.000176661969918406 0.000121556366189709)
(-3.14344118141493e-07 -0.000160822973906526 0.00010385680029954)
(-4.84543953874454e-06 -0.00013808685942887 8.48867550152663e-05)
(-1.39803004019778e-05 -0.000102009084351442 6.46888438532446e-05)
(-3.28249714865287e-05 -2.77351687375925e-05 4.48122263652177e-05)
(-6.29039786675461e-05 4.09443908004167e-05 2.87565135668827e-05)
(-2.46122890546124e-06 3.2787277196216e-05 1.22503633726239e-05)
(-1.46149071254133e-06 -1.56417376520648e-05 2.59138342949622e-05)
(-8.30379960216549e-06 7.96235955527982e-05 1.28179634804503e-05)
(-8.6516820963059e-07 -6.01727877882297e-05 4.29827454054626e-05)
(-5.27657755803134e-06 1.33089959442587e-05 2.7286861554171e-05)
(-1.48132188358991e-05 9.18752644532259e-05 1.41678844786095e-05)
(-4.84406075276229e-07 -9.02824036540504e-05 6.22680569964865e-05)
(-2.98093047256431e-06 -5.30346450246368e-05 4.535363545415e-05)
(-9.77330870864235e-06 1.96786220222743e-05 2.95062913642632e-05)
(-2.20820877887321e-05 9.14083762655634e-05 1.57389569553643e-05)
(-1.65229785168027e-07 -0.000115481256786552 8.28683827485066e-05)
(-1.56995322132746e-06 -9.16642243564666e-05 6.57022098929921e-05)
(-5.59792375189918e-06 -5.455916901812e-05 4.86768925412709e-05)
(-1.4779040518509e-05 1.79911115527503e-05 3.20829549685923e-05)
(-3.03819506550956e-05 8.80732057780954e-05 1.74259566824388e-05)
(1.20438117337925e-07 -0.000138114439387373 0.000104437788786839)
(-4.61636011470834e-07 -0.000121095941750409 8.71636298763946e-05)
(-2.90838895363527e-06 -9.76914160659271e-05 7.0215022352546e-05)
(-8.4882932720112e-06 -6.04979456187e-05 5.24529229724731e-05)
(-2.0405428225122e-05 1.32923343777098e-05 3.48650090776429e-05)
(-3.97448423066101e-05 8.34792456697546e-05 1.90665497275633e-05)
(3.8283961445657e-07 -0.000159423482518019 0.000126762584340057)
(4.93464937570064e-07 -0.000146446676940046 0.000109370430687752)
(-7.64444434570778e-07 -0.000130012121737101 9.26251855519629e-05)
(-4.27890833297596e-06 -0.000106582525995319 7.51570044811051e-05)
(-1.15877588899554e-05 -6.9124098944467e-05 5.6350105073854e-05)
(-2.65963729814865e-05 5.65960631459349e-06 3.77440932589629e-05)
(-5.02213721603601e-05 7.54784344969354e-05 2.12450274790421e-05)
(6.1830650063777e-07 -0.000180356452612199 0.000149796432477132)
(1.32852834343071e-06 -0.000170001066354793 0.000132249600930572)
(1.04066879468226e-06 -0.000157808754838048 0.00011558367919774)
(-9.34436260231266e-07 -0.000141592354754967 9.84764118970413e-05)
(-5.59444325361452e-06 -0.000118314182560237 8.00960810545041e-05)
(-1.47252430804622e-05 -8.13332852473485e-05 6.03702341750233e-05)
(-3.31780300441904e-05 -6.26541002472765e-06 4.11039430209256e-05)
(-6.21033014745202e-05 6.38425507110619e-05 2.50113892065823e-05)
(8.24801162636724e-07 -0.000201403837036606 0.000173692658831791)
(2.06576275728651e-06 -0.000192900009153562 0.000155930212555969)
(2.60727054098771e-06 -0.000183434780549586 0.000139229809434752)
(1.90202173724585e-06 -0.00017153492584571 0.000122337645012179)
(-8.0811307406701e-07 -0.000155465456810661 0.000104486976760794)
(-6.62845901518091e-06 -0.00013273830775547 8.53224834333538e-05)
(-1.76184966824984e-05 -9.63685179622276e-05 6.50194987571434e-05)
(-3.97070145191549e-05 -2.04828612278685e-05 4.51630540549098e-05)
(-7.43849792697526e-05 5.10301300387837e-05 2.89092530900986e-05)
(-2.42833699321353e-06 4.25159341015771e-05 1.13427220286059e-05)
(-1.46694144380801e-06 -4.1877682551994e-06 2.4169163842794e-05)
(-8.15824804985599e-06 8.86319327956178e-05 1.1853616452679e-05)
(-8.9132333692958e-07 -4.74583088018132e-05 4.0249993733102e-05)
(-5.27655414434744e-06 2.4704423818617e-05 2.54469049016295e-05)
(-1.45872649237966e-05 0.00010128187890403 1.30839755147945e-05)
(-5.28474104025815e-07 -7.66417284605253e-05 5.85017357020834e-05)
(-3.07104545582466e-06 -3.97735870962483e-05 4.2503018304266e-05)
(-9.79162458813101e-06 3.16798733725208e-05 2.7556805577868e-05)
(-2.18134849800332e-05 0.000101617702319996 1.46148948529153e-05)
(-2.24637843219579e-07 -0.000100994647493017 7.81046990867251e-05)
(-1.71914828145825e-06 -7.72623773790058e-05 6.17900204603299e-05)
(-5.76817759023287e-06 -4.04591347707e-05 4.56917568321251e-05)
(-1.48242345495835e-05 3.08434837307816e-05 3.00238645086165e-05)
(-3.00596949059048e-05 9.91526005792133e-05 1.62716754000726e-05)
(4.81773467172679e-08 -0.000122809418362015 9.87427760560897e-05)
(-6.61374975923528e-07 -0.000105786041517095 8.22574112013774e-05)
(-3.18818822036463e-06 -8.24123069816862e-05 6.61133498337552e-05)
(-8.75622772584373e-06 -4.55019969489638e-05 4.92794283426651e-05)
(-2.044233191343e-05 2.70592661283855e-05 3.25612131403565e-05)
(-3.92944235628914e-05 9.53728692863772e-05 1.78193148913089e-05)
(2.9621951399599e-07 -0.000143283045126788 0.000120224497307582)
(2.44345732264383e-07 -0.000130289847529518 0.000103579174467032)
(-1.14502369651447e-06 -0.000113812035868634 8.7555931139708e-05)
(-4.73287186800606e-06 -9.04006126668168e-05 7.08651085844124e-05)
(-1.19784710062621e-05 -5.31583895743263e-05 5.29723990972859e-05)
(-2.65809327565731e-05 2.10883647719947e-05 3.52030477103615e-05)
(-4.94412626182755e-05 9.11496006509251e-05 1.90869500556055e-05)
(5.29535675928915e-07 -0.000163188823614197 0.000142498202628718)
(1.06546202275767e-06 -0.000152766808452287 0.000125660733242872)
(6.05680495643371e-07 -0.00014042055888688 0.000109664786973751)
(-1.51422281004074e-06 -0.000123992302334073 9.3260463784111e-05)
(-6.24765046979497e-06 -0.000100446708379578 7.56637970997176e-05)
(-1.52764813890731e-05 -6.30466718067054e-05 5.66850289727771e-05)
(-3.31466843620117e-05 1.27218690468578e-05 3.79252962582817e-05)
(-6.05730464383184e-05 8.38153422374791e-05 2.10377328600813e-05)
(7.39090605727868e-07 -0.000183123604953188 0.00016565847453494)
(1.80244574456085e-06 -0.000174497088785671 0.000148556096346919)
(2.14331940587803e-06 -0.000164840276908159 0.000132464718744632)
(1.22985552957224e-06 -0.000152706716603403 0.000116183751639523)
(-1.66064441792564e-06 -0.00013632942837979 9.89527465779445e-05)
(-7.57745900857062e-06 -0.000113114295646615 8.03884901691216e-05)
(-1.84909895555164e-05 -7.58907268801782e-05 6.05362239697974e-05)
(-4.00154638604338e-05 6.81179564077633e-07 4.12216656551943e-05)
(-7.31709370712471e-05 7.34957582405936e-05 2.48998002462091e-05)
(9.16905229756094e-07 -0.000203366732115598 0.000189915817125381)
(2.45401467498407e-06 -0.000196150355344833 0.000172450050918253)
(3.5005754874226e-06 -0.000188343828726845 0.000156155936164746)
(3.63529182096076e-06 -0.000178943870464914 0.000139836703848013)
(2.25492293929253e-06 -0.000166860681077118 0.000122799537246907)
(-1.42284417391384e-06 -0.000150756714917777 0.000104740467655109)
(-8.53241731007723e-06 -0.000127904713334661 8.54212006847594e-05)
(-2.14156547139078e-05 -9.08918723696911e-05 6.50816127576821e-05)
(-4.68370776684949e-05 -1.29040967132747e-05 4.53250150665125e-05)
(-8.6368668447489e-05 6.2736387888525e-05 2.89571006548024e-05)
(-2.34978990642903e-06 5.1236534667946e-05 1.0447242735503e-05)
(-1.4619964740124e-06 6.25814517180123e-06 2.24831868726746e-05)
(-8.02461626529135e-06 9.6608672987131e-05 1.09642389728257e-05)
(-9.09012769285035e-07 -3.57632754353359e-05 3.7588614247685e-05)
(-5.24467547932812e-06 3.50758446575226e-05 2.36608989372189e-05)
(-1.43061458546476e-05 0.00010970424626779 1.18841791284793e-05)
(-5.6407419906893e-07 -6.40243735248595e-05 5.48176693255232e-05)
(-3.13192037976972e-06 -2.7570324705323e-05 3.97115721855227e-05)
(-9.75161333714213e-06 4.26160858029815e-05 2.56476687551779e-05)
(-2.14399517563038e-05 0.000110758469576133 1.35021015848514e-05)
(-2.76234494671963e-07 -8.75316212698559e-05 7.34166023176167e-05)
(-1.84200393853046e-06 -6.3929600960481e-05 5.7947810271785e-05)
(-5.89188141729581e-06 -2.74804500422219e-05 4.27535694780383e-05)
(-1.47911055857726e-05 4.25697818787115e-05 2.80075014340713e-05)
(-2.96009853560257e-05 0.000109110903015089 1.50833514026391e-05)
(-1.5994909611641e-08 -0.000108521380537476 9.30977250620116e-05)
(-8.34821585126733e-07 -9.15182109089101e-05 7.74115877955927e-05)
(-3.42221435703364e-06 -6.82067490896254e-05 6.20916289453039e-05)
(-8.96020119790138e-06 -3.1612550412191e-05 4.61977264264669e-05)
(-2.04045785702846e-05 3.96684563454825e-05 3.04419804120209e-05)
(-3.87248909622618e-05 0.000106161738901272 1.66299685169544e-05)
(2.21141888592528e-07 -0.000128152311479287 0.000113687349309343)
(2.88177034414174e-08 -0.000115156392911836 9.78048032288093e-05)
(-1.47186531641078e-06 -9.86581091787527e-05 8.25280425467224e-05)
(-5.10908765576664e-06 -7.52956309155232e-05 6.66460964577116e-05)
(-1.22717196519458e-05 -3.83727138785896e-05 4.97100142043483e-05)
(-2.65030644212076e-05 3.46255239872353e-05 3.28364669843803e-05)
(-4.87063366601685e-05 0.000102757810905712 1.78946093033218e-05)
(4.41920950933528e-07 -0.000147171270659332 0.000135137740003419)
(8.0960346476191e-07 -0.000136762822540287 0.000119043230087643)
(1.97774197458763e-07 -0.000124382195072666 0.000103747669990091)
(-2.03837071933261e-06 -0.000107921423463276 8.80687310415857e-05)
(-6.80513445055106e-06 -8.44284277370886e-05 7.12724344227726e-05)
(-1.56883593862941e-05 -4.72712178507996e-05 5.32314197236651e-05)
(-3.30071378682564e-05 2.79865805599216e-05 3.53430155771117e-05)
(-5.94530695173581e-05 9.94626158724857e-05 1.89963234607904e-05)
(6.49052459149153e-07 -0.000166033123837864 0.000157528264887823)
(1.53316546886316e-06 -0.000157395023492646 0.000141149097467719)
(1.68901760614414e-06 -0.000147651542690215 0.000125727331087013)
(6.02635967057519e-07 -0.000135382121759022 0.000110122942257356)
(-2.41762380703547e-06 -0.000118834630666208 9.36177783026585e-05)
(-8.36328368019227e-06 -9.53909140049667e-05 7.58575694503762e-05)
(-1.90838341258921e-05 -5.77746635630745e-05 5.67475516878252e-05)
(-3.98416832692391e-05 1.94969527622419e-05 3.78694253835921e-05)
(-7.11466885337765e-05 9.32330921446657e-05 2.0716271556906e-05)
(8.29710909403472e-07 -0.000185108289483254 0.000181015610327601)
(2.18475093368622e-06 -0.000177833229579767 0.000164242361117629)
(3.02176326228711e-06 -0.000169921095980592 0.000148583893128414)
(2.93092264758811e-06 -0.000160389519119659 0.000132898924578386)
(1.33962629793524e-06 -0.00014813375960381 0.000116502779390113)
(-2.49406549827625e-06 -0.000131777038685115 9.90802924211106e-05)
(-9.64905145180974e-06 -0.000108486831216797 8.03550019111836e-05)
(-2.23577450236882e-05 -7.06758787858381e-05 6.04177929444346e-05)
(-4.69906995565253e-05 7.88554273744298e-06 4.11073544363813e-05)
(-8.44992976168052e-05 8.46987049033855e-05 2.46751464772182e-05)
(9.82128827909807e-07 -0.000204544564153972 0.00020583409136748)
(2.74794982214525e-06 -0.000198474815181806 0.000188547509442286)
(4.198477073514e-06 -0.000191944822799954 0.000172537196464363)
(4.9998822319555e-06 -0.000184259684402989 0.000156626586539257)
(4.64288122324422e-06 -0.000174732838198342 0.000140156294551156)
(2.51974328493385e-06 -0.000162603840730744 0.00012288224583161)
(-2.12994657841714e-06 -0.000146384773566606 0.000104615642308049)
(-1.05282993218452e-05 -0.000123180562868674 8.51672437245893e-05)
(-2.53331421455491e-05 -8.52147261869079e-05 6.48263828161286e-05)
(-5.41322398601715e-05 -4.579182278668e-06 4.52258076887342e-05)
(-9.87032957543874e-05 7.67026693936573e-05 2.88095794370363e-05)
(-2.26115264917654e-06 5.90406376496975e-05 9.62530141759163e-06)
(-1.44401080052295e-06 1.5746057550013e-05 2.08533106471662e-05)
(-7.78212485810944e-06 0.000103628583837985 1.0105936082559e-05)
(-9.18725213673372e-07 -2.5037855501406e-05 3.50078339592164e-05)
(-5.19129985163344e-06 4.44692278113833e-05 2.19404891106476e-05)
(-1.40530283004516e-05 0.000117012656680284 1.11293739342194e-05)
(-5.91697408229695e-07 -5.23855481176483e-05 5.12321878371779e-05)
(-3.16712226379186e-06 -1.63736212977887e-05 3.69974963070886e-05)
(-9.66215383921701e-06 5.25511757537493e-05 2.37926684938431e-05)
(-2.10154770441692e-05 0.000118921937066719 1.23887035731882e-05)
(-3.19223081471131e-07 -7.50567032744185e-05 6.88275603827101e-05)
(-1.93950613058979e-06 -5.16147017252215e-05 5.41939120036942e-05)
(-5.97130803383199e-06 -1.55509420247934e-05 3.98790870643416e-05)
(-1.4685552166211e-05 5.32508499554484e-05 2.60387727751142e-05)
(-2.90080037097488e-05 0.000118074622612225 1.37443026526403e-05)
(-7.25458396543542e-08 -9.52280808511226e-05 8.75375535529149e-05)
(-9.84427619202569e-07 -7.82741691853598e-05 7.26477919785647e-05)
(-3.61316164762538e-06 -5.50637722474138e-05 5.81471429764378e-05)
(-9.10452247985662e-06 -1.88285637300296e-05 4.31702896275578e-05)
(-2.02834775561142e-05 5.11690423540507e-05 2.83651682580917e-05)
(-3.80305607270378e-05 0.000115870378893523 1.54051993716939e-05)
(1.53695366621706e-07 -0.000114027133180231 0.000107202794563237)
(-1.61937744477126e-07 -0.000101038587022005 9.20873467061398e-05)
(-1.75509947795813e-06 -8.4537410814352e-05 7.75693013185534e-05)
(-5.42260444593067e-06 -6.12453438779754e-05 6.25155912646417e-05)
(-1.24874338476773e-05 -2.46641990383911e-05 4.65402790915826e-05)
(-2.63502782700113e-05 4.70154075596062e-05 3.06457225539404e-05)
(-4.78533095622742e-05 0.000113222509077886 1.66405343577911e-05)
(3.64677868963729e-07 -0.000132172996616519 0.00012778206074366)
(5.83354365484944e-07 -0.000121779080887709 0.000112437748046411)
(-1.6280760499376e-07 -0.000109375608351985 9.78569398883906e-05)
(-2.49308052250072e-06 -9.29033064384554e-05 8.29235561844787e-05)
(-7.26615322588118e-06 -6.94894108154393e-05 6.69528525378137e-05)
(-1.59843985557424e-05 -3.26790294126909e-05 4.98867207323579e-05)
(-3.27915374920156e-05 4.13017885206333e-05 3.2907626086965e-05)
(-5.83902000692488e-05 0.00011072581322636 1.77900566235446e-05)
(5.60822144790801e-07 -0.000150102410960818 0.000149347321244708)
(1.27222491043282e-06 -0.00014150735563577 0.000133717852280053)
(1.26166048993293e-06 -0.000131755265086997 0.000118991178505536)
(2.93404539906063e-08 -0.000119455738863296 0.000104085438893355)
(-3.08274864639937e-06 -0.000102904736392781 8.83226618462743e-05)
(-9.00986414361126e-06 -7.95472852027448e-05 7.13819561884788e-05)
(-1.94924855903695e-05 -4.22026842205692e-05 5.3221539244523e-05)
(-3.95360428043108e-05 3.4580239620095e-05 3.52533905917401e-05)
(-6.96152545001976e-05 0.000108820276136627 1.87217433850142e-05)
(7.39502163188621e-07 -0.00016806537100273 0.000172036098998242)
(1.91135967876055e-06 -0.000160819181847982 0.000156009946071641)
(2.55480378641332e-06 -0.000152875295279336 0.000141034582291572)
(2.27157071246307e-06 -0.000143271143779074 0.000126023900710434)
(5.14531575732159e-07 -0.0001309159308117 0.000110324798607242)
(-3.41843704851145e-06 -0.000114430142089229 9.3647664438752e-05)
(-1.05419089926314e-05 -9.09473507191868e-05 7.57328740854447e-05)
(-2.29420779530566e-05 -5.27649068823667e-05 5.65128422916559e-05)
(-4.65777294287573e-05 2.65159910688465e-05 3.75350485454189e-05)
(-8.18046597918358e-05 0.000104182305732339 2.01801750326954e-05)
(8.94682235626519e-07 -0.000186290661496089 0.000196032384080123)
(2.47556465827566e-06 -0.00018020595094026 0.000179478625470131)
(3.7118461349361e-06 -0.000173633053707173 0.000164137902133114)
(4.2782032972119e-06 -0.000165892833903709 0.000148889270199746)
(3.69025308028846e-06 -0.000156286174233022 0.000133084241404531)
(1.37308038191227e-06 -0.000144034334811717 0.000116472584628866)
(-3.39488480224907e-06 -0.000127611768719432 9.8845910911354e-05)
(-1.17748375592361e-05 -0.00010401859809499 7.99655959153619e-05)
(-2.62813776377431e-05 -6.53180048216192e-05 5.99523521856407e-05)
(-5.40054824489554e-05 1.57720003140753e-05 4.0657369138823e-05)
(-9.58732096643202e-05 9.80601036924346e-05 2.41025727898839e-05)
(1.02303523707937e-06 -0.000204843393733108 0.000221578101283256)
(2.95644923834811e-06 -0.000199901459827862 0.000204370464430248)
(4.72565740168254e-06 -0.000194486393223374 0.000188534186154001)
(6.05633408383473e-06 -0.000188110519194287 0.000172907054681214)
(6.51036018211811e-06 -0.000180347708082182 0.000156836089276992)
(5.58054988632175e-06 -0.00017078379403487 0.000140096930505011)
(2.69751164612003e-06 -0.000158543422175124 0.000122555907126139)
(-2.91308640334005e-06 -0.000142052757382059 0.000104073672189684)
(-1.25965902010819e-05 -0.000118294524344247 8.44830166794237e-05)
(-2.93191834600825e-05 -7.90647214201565e-05 6.41431239097651e-05)
(-6.14600289535865e-05 4.90661148761426e-06 4.47191680093926e-05)
(-0.000111033529496682 9.38260795310099e-05 2.82025909741396e-05)
(-2.27386745562853e-06 6.60113014940088e-05 9.07517336730567e-06)
(-1.41791574717888e-06 2.43293257925886e-05 1.92806903506129e-05)
(-7.54213867474595e-06 0.000109762433711265 9.24084087149545e-06)
(-9.20525206325267e-07 -1.52387137508388e-05 3.25150142539137e-05)
(-5.10400907102751e-06 5.29344685963462e-05 2.02727284365655e-05)
(-1.36369649693981e-05 0.000123542783521664 1.04915563923788e-05)
(-6.12048085975662e-07 -4.16800769427841e-05 4.7754544489987e-05)
(-3.17838707335701e-06 -6.13735405292614e-06 3.43677779032518e-05)
(-9.53429996562991e-06 6.15190662954373e-05 2.20315243399087e-05)
(-2.05099639011453e-05 0.000126036227906914 1.15599681468105e-05)
(-3.55246182290334e-07 -6.35272284655797e-05 6.43566722540079e-05)
(-2.01312823035491e-06 -4.02723621413848e-05 5.05432601753106e-05)
(-6.00793764167821e-06 -4.62160142291722e-06 3.70871567394488e-05)
(-1.45225991911599e-05 6.29387438101363e-05 2.41411465835207e-05)
(-2.84465783444442e-05 0.000125898523320641 1.29920436861885e-05)
(-1.21572556417012e-07 -8.28948278318399e-05 8.20910119635785e-05)
(-1.11095937162708e-06 -6.60132421241492e-05 6.79893769161848e-05)
(-3.76293525835622e-06 -4.29341006458384e-05 5.42972738553209e-05)
(-9.18893502361461e-06 -7.08550647026241e-06 4.02175383093901e-05)
(-2.00744213911576e-05 6.16445676242692e-05 2.63384754111597e-05)
(-3.72111373961984e-05 0.000124613861838996 1.40650069620041e-05)
(9.33274270425601e-08 -0.000100881716157124 0.000100813019176706)
(-3.29645204125837e-07 -8.79153897161813e-05 8.64599948764266e-05)
(-1.9976158716162e-06 -7.14356533659675e-05 7.269982547059e-05)
(-5.67747463919548e-06 -4.82483007029725e-05 5.8471073440533e-05)
(-1.26294657515939e-05 -1.20448504891715e-05 4.34369994289143e-05)
(-2.61067330965654e-05 5.83115156132196e-05 2.85149329799521e-05)
(-4.68683570117453e-05 0.000122665551244292 1.53118646262922e-05)
(2.94462017859875e-07 -0.000118180258691703 0.000120487897107068)
(3.79984684507842e-07 -0.000107798424765461 0.000105891925298493)
(-4.82515180669415e-07 -9.53776465649124e-05 9.20312008590384e-05)
(-2.8874756992722e-06 -7.89064569026169e-05 7.78550299878841e-05)
(-7.6466414399549e-06 -5.55840289058592e-05 6.27286281488084e-05)
(-1.619006616395e-05 -1.91340888506333e-05 4.66421338406392e-05)
(-3.24950694417708e-05 5.34742115566581e-05 3.06528734017076e-05)
(-5.72113569297576e-05 0.000120810832508966 1.65164179273985e-05)
(4.81975990090882e-07 -0.000135207032039499 0.000141183247607521)
(1.03794149047873e-06 -0.000126645525852078 0.000126302591440615)
(8.77092556953762e-07 -0.000116884891663359 0.000112276978288292)
(-4.812814916885e-07 -0.000104564725612508 9.80816288990866e-05)
(-3.65968609261089e-06 -8.80254781361969e-05 8.30774728391435e-05)
(-9.53997825970481e-06 -6.47724087386872e-05 6.69765961314712e-05)
(-1.97706008803129e-05 -2.78027448994874e-05 4.9801966074563e-05)
(-3.91571920746504e-05 4.76630641160835e-05 3.27712131921436e-05)
(-6.81802925599102e-05 0.000119667574603382 1.75207528207749e-05)
(6.51259684843119e-07 -0.000152200578075014 0.000163025055726264)
(1.64707324742969e-06 -0.000145019321262612 0.000147764939583053)
(2.11405630431502e-06 -0.000137094429866018 0.000133491521167866)
(1.66337649761106e-06 -0.000127481400354818 0.000119171665119773)
(-2.25081608630563e-07 -0.000115118245520326 0.000104185101023465)
(-4.21449252276962e-06 -9.86591078161546e-05 8.82664496944653e-05)
(-1.12573476475164e-05 -7.52959120604893e-05 7.11813482465136e-05)
(-2.33148870723764e-05 -3.74097170787963e-05 5.29157918848422e-05)
(-4.60511850898539e-05 4.14175016269575e-05 3.48728472466368e-05)
(-7.97857836598026e-05 0.000119714581079215 1.82058141184439e-05)
(8.04912984576312e-07 -0.000169283562567889 0.00018617677437775)
(2.20100179405633e-06 -0.000163252636750524 0.000170402418110505)
(3.2379249444822e-06 -0.000156688453114566 0.00015576872893462)
(3.59874625807805e-06 -0.000148926476668066 0.000141207095357963)
(2.82005133600534e-06 -0.000139277885364823 0.000126095810320272)
(3.58039657576432e-07 -0.000126964337150382 0.000110200259650993)
(-4.46703387636632e-06 -0.00011045092317189 9.33281207650898e-05)
(-1.27407050145864e-05 -8.66958792257391e-05 7.5249261871554e-05)
(-2.67985847182399e-05 -4.76327199627739e-05 5.59054420705107e-05)
(-5.3243312932525e-05 3.42371655635917e-05 3.68019124609445e-05)
(-9.22677173611959e-05 0.000117292537784225 1.91116434035344e-05)
(9.36150784525674e-07 -0.00018659455341891 0.000210832657386309)
(2.68401029905222e-06 -0.000181661685057588 0.00019440517316366)
(4.236892629698e-06 -0.000176246072464186 0.000179279126690837)
(5.32729325695377e-06 -0.000169870865533943 0.000164348180024105)
(5.53805861166346e-06 -0.000162096350485407 0.00014897137274709)
(4.38940156596535e-06 -0.000152495102772675 0.000132921928692964)
(1.34069957181396e-06 -0.000140176259528271 0.000116053748864515)
(-4.34298504734782e-06 -0.000123528207303338 9.82005334481966e-05)
(-1.39313298995168e-05 -9.94310535554812e-05 7.91329009339757e-05)
(-3.02024558879814e-05 -5.95387040331965e-05 5.90046148268769e-05)