/*--------------------------------*- C++ -*----------------------------------*\
  =========                 |
  \\      /  F ield         | OpenFOAM: The Open Source CFD Toolbox
   \\    /   O peration     | Website:  https://openfoam.org
    \\  /    A nd           | Version:  12
     \\/     M anipulation  |
\*---------------------------------------------------------------------------*/
/*   Windows 32 and 64 bit porting by blueCAPE: http://www.bluecape.com.pt   *\
|  Based on Windows porting (2.0.x v4) by Symscape: http://www.symscape.com   |
\*---------------------------------------------------------------------------*/
FoamFile
{
    format      ascii;
    class       volScalarField;
    location    "500";
    object      k;
}
// * * * * * * * * * * * * * * * * * * * * * * * * * * * * * * * * * * * * * //

dimensions      [0 2 -2 0 0 0 0];

internalField   nonuniform List<scalar> 
10068
(
1.81334688285532e-05
1.81970258884498e-05
0.000107837499236692
1.86486117865312e-05
1.82263088672724e-05
0.000108018038746128
1.87147013334395e-05
0.000178893339339975
0.000108110778864776
1.9355089308595e-05
1.81999453313409e-05
0.000108054649116916
1.8745987688409e-05
0.000179057152998352
0.000108295086273427
1.94243720215606e-05
0.000233932327500872
0.000178779715425131
0.00010836536551077
1.95888469699018e-05
1.8124957344664e-05
0.000107909498368104
1.87201097411816e-05
0.000178998210214409
0.000108332197807377
1.94585874672085e-05
0.000234077570572581
0.000178947468235287
0.00010855224467265
1.96602488369181e-05
0.000280522008483768
0.000233608770602303
0.000177968620868582
0.00010766633701353
1.90599487882162e-05
1.80056919845433e-05
0.000107591479858245
1.864368333424e-05
0.000178700464805318
0.000108187863410106
1.94331326713652e-05
0.000233935947909034
0.000178889274974392
0.000108590696624895
1.96971773744329e-05
0.000280653683127013
0.00023375935303176
0.000178138270064123
0.000107855063695042
1.91312310166563e-05
0.000321869760296581
0.00027997063860426
0.000232102655550732
0.000175938147083392
0.000105436534059534
1.79716604934568e-05
1.78430362161504e-05
0.000107106685863089
1.85214042802201e-05
0.000178159386699216
0.000107869496165102
1.93544665438294e-05
0.000233500059272531
0.000178592469000482
0.000108447798219799
1.96732647615238e-05
0.000280442416561335
0.000233619212107313
0.000178081560921817
0.00010789654215424
1.91700900578451e-05
0.000321990120399621
0.000280108900848364
0.000232255801022791
0.00017610792500367
0.000105626480535912
1.80415805232384e-05
0.000359515999829348
0.000321053574284662
0.00027789435347273
0.000229035016275193
0.000172296879374037
0.000101807783143052
1.66383408775752e-05
1.76371119031241e-05
0.000106456651661235
1.83546781555379e-05
0.000177374456869477
0.000107383842584404
1.92280340430411e-05
0.000232763288220703
0.000178052115226078
0.000108129645241741
1.95947395984873e-05
0.000279884307443235
0.000233184258557287
0.00017778729221539
0.000107757673699514
1.91491237088142e-05
0.000321717096257996
0.000279899769957888
0.000232118147073792
0.000176053828616826
0.000105672659389959
1.80818420917593e-05
0.000359625781633727
0.000321181648575833
0.000278035973576142
0.000229187930131061
0.000172465654747991
0.000101998448755862
1.67062727109197e-05
0.000394338494337135
0.000358472310653998
0.000318438357685378
0.00027395312134315
0.000224186151349814
0.000167084023221741
9.72034972351994e-05
1.52081708426065e-05
1.73876425941368e-05
0.00010563927679627
1.81435832553926e-05
0.000176343684621819
0.000106732997785655
1.9055911882207e-05
0.000231721535655915
0.000177267606391173
0.000107643798307589
1.94678666561139e-05
0.000278972948763304
0.000232448524482827
0.000177250085805172
0.000107443828341177
1.90742729623878e-05
0.000321048549309225
0.000279343116549624
0.000231686807628439
0.000175764733801914
0.000105541272851529
1.80644626179835e-05
0.000359296028483875
0.000320911431354373
0.000277830338521873
0.000229053619936569
0.000172415476361718
0.000102050687908659
1.67477341771753e-05
0.000394437879582948
0.000358590861963291
0.000318570590881665
0.000274094636224496
0.000224336972818925
0.000167250792011828
9.73941746848341e-05
1.52738916431098e-05
0.000426908159739594
0.000393139305862723
0.000355395978978913
0.000313722433513582
0.000268038044247153
0.000217628386708402
0.000160560760930664
9.19048012491408e-05
1.36986429147098e-05
1.70938013542955e-05
0.000104652116645466
1.78877741258609e-05
0.000175064046668633
0.000105915060575199
1.8837649325686e-05
0.000230371042147123
0.000176237563063319
0.000106993039697373
1.92943580727564e-05
0.000277703538332322
0.000231408120350712
0.000176469375788663
0.000106963173196598
1.89516698217194e-05
0.000319978729669644
0.000278433572105813
0.000230956135151695
0.000175234884343673
0.000105237459496264
1.79953114035304e-05
0.000358525839652364
0.000320245132322412
0.000277278594513936
0.000228629059334554
0.000172134837931949
0.000101929372812645
1.67341558869263e-05
0.000394054975813117
0.000358264530694885
0.000318304909869537
0.000273893389354154
0.000224206913606036
0.000167205606467146
9.74533465314823e-05
1.53163487692043e-05
0.000426997013645432
0.0003932484161842
0.000355519491003904
0.000313854939046204
0.000268177164496367
0.000217775752258327
0.000160724504805548
9.20949440989543e-05
1.37619046224158e-05
0.000457599434831513
0.000425609764690978
0.000389709906130145
0.000350026096218997
0.00030686856704082
0.00026028118256116
0.000209561346384482
0.000152932224209192
8.59950132350206e-05
1.21063354476561e-05
1.67558214615191e-05
0.000103490641293874
1.75863655493427e-05
0.000173531209220359
0.000104926276619013
1.85732476993571e-05
0.000228707806450081
0.0001749588919864
0.000106174603071623
1.90739774045349e-05
0.000276071521032179
0.000230059451884756
0.00017544414765664
0.000106317844190412
1.87829714403503e-05
0.000318502777152164
0.00027716655263969
0.000229922383673029
0.000174463700187654
0.000104768630600334
1.78802758141408e-05
0.000357309853383071
0.000319178098966742
0.000276375999419923
0.00022790859117993
0.000171617682096388
0.000101639707440415
1.66711625584076e-05
0.000393189821817376
0.000357497247915466
0.000317644971448029
0.000273350307526513
0.000223792513301693
0.000166936386354048
9.73435925311866e-05
1.5306363089609e-05
0.000426563554624326
0.000392869421670844
0.000355198663593593
0.000313594840394389
0.000267981134914178
0.000217650813278961
0.0001606850230232
9.21613846805129e-05
1.38050435118612e-05
0.000457677326811578
0.000425709216975782
0.000389824760871112
0.000350150381075202
0.000306998821152553
0.000260416367878998
0.000209704064816734
0.000153091950068835
8.61844020922411e-05
1.21667139327196e-05
0.000486638616552011
0.00045623159800526
0.000421914595034309
0.000383812915295154
0.000342369903404805
0.000298052914200455
0.000250871921841216
0.000200136586965697
0.000144293048471266
7.94789793329198e-05
1.04481268323696e-05
1.63741087170144e-05
0.000102152240216765
1.7239863394763e-05
0.000171741119028626
0.000103763037463261
1.82616259746039e-05
0.000226726779744578
0.000173427395124878
0.000105185252715019
1.88069425041772e-05
0.000274071998903619
0.000228398238967789
0.000174171366886084
0.00010550550543253
1.85686951837321e-05
0.000316615829146557
0.000275537568107784
0.000228582119247004
0.000173450373247692
0.000104137107169913
1.77211800796226e-05
0.000355643578753249
0.000317705804687505
0.000275118185255554
0.000226888532015505
0.000170863307187476
0.000101188503597503
1.65648939457924e-05
0.00039183752278256
0.000356284959193894
0.000316586849809739
0.000272460767994151
0.000223087959480113
0.00016643679591161
9.70700029745478e-05
1.52494337410571e-05
0.000425608766520411
0.000392007681796749
0.000354439057253012
0.00031294552795025
0.000267450387018964
0.000217249679505447
0.000160429408187491
9.20637386116814e-05
1.37983319090913e-05
0.000457195245789622
0.000425280080300352
0.000389452097902267
0.000349836295908042
0.000306745181366207
0.000260226407165852
0.000209584971215649
0.000153058595418365
8.62585100140284e-05
1.22103714095377e-05
0.00048670476583214
0.000456320900522943
0.000422020535062851
0.000383929096181312
0.000342492293499823
0.000298179288300204
0.000251001936760086
0.000200273558262094
0.000144447924283724
7.96674519348471e-05
1.05049827114245e-05
0.00051414422514112
0.000485213420463293
0.000452323273326053
0.000415588883765509
0.00037548083301051
0.000332631708761641
0.000287467664221625
0.000239937474693419
0.000189437003537683
0.000134681157697316
7.23612000562456e-05
8.75687870458963e-06
1.59490660312349e-05
0.00010063416732916
1.68484130067175e-05
0.000169688972496293
0.000102422882003717
1.79034624703954e-05
0.000224422676057454
0.000171638533093224
0.000104021913511354
1.84924861134298e-05
0.000271699389326444
0.000226419835578361
0.000172647010416732
0.000104524140890226
1.83089295339135e-05
0.000314312632460291
0.000273541663872557
0.000226931124193261
0.0001721920907478
0.000103342102354226
1.75191478490388e-05
0.000353522075615185
0.000315823487551801
0.000273500771489452
0.000225565581147785
0.00016987114021678
0.000100578912308109
1.64176383435703e-05
0.000389993756341135
0.000354623439175538
0.000315126296901049
0.000271220514647456
0.000222089571749739
0.000165706098897028
9.66400224209691e-05
1.51523610160244e-05
0.000424127963774882
0.000390659650566226
0.000353237442813028
0.000311903235277662
0.00026658018464095
0.000216566372657503
0.00015995108300012
9.18072664340554e-05
1.37474980885576e-05
0.000456154920826702
0.000424329008930795
0.00038859908432088
0.000349089119109469
0.000306110477658922
0.00025971131200979
0.000209199741155397
0.000152818187914875
8.61731319889821e-05
1.22065753099392e-05
0.000486175388618204
0.000455843479479541
0.000421598435578906
0.000383564211942698
0.000342185949628174
0.000297933018459714
0.000250818883919675
0.000200160940241801
0.000144421071293768
7.97499500039696e-05
1.05483091890316e-05
0.0005141974768484
0.000485291751540892
0.000452419763829389
0.000415696706586345
0.000375595552821612
0.000332750524674442
0.000287588912467835
0.000240061223537913
0.000189567228423494
0.000134830445494881
7.25480652096145e-05
8.80925542423243e-06
0.000540164017963876
0.000512665744790547
0.00048111919811689
0.00044563264545963
0.00040667854095992
0.000364939325692034
0.000321012843764881
0.000275230572620908
0.00022755004015326
0.000177511992978441
0.000124118294095826
6.46622472328904e-05
7.07498580579291e-06
1.5481198831474e-05
9.89334129736878e-05
1.64123077300033e-05
0.00016737013469637
0.000100902582160432
1.7498699970613e-05
0.000221789914322019
0.000169587906359079
0.000102681592171955
1.81309937335329e-05
0.000268947685146573
0.000224118806437357
0.000170866469632415
0.000103370359919645
1.80032565839143e-05
0.000311587189604538
0.000271173476201105
0.000224964928561424
0.000170685078991642
0.000102381650668732
1.72741471884005e-05
0.000350939744745671
0.000313525789469699
0.000271518924880233
0.000223935748008105
0.000168638751905839
9.9811366185275e-05
1.62306730492724e-05
0.000387653782558104
0.000352507898797222
0.000313258677946533
0.000269625274011205
0.00022079415765639
0.000164744068462533
9.60581200736429e-05
1.50177963453376e-05
0.000422117166335745
0.000388821417742044
0.000351589877625901
0.000310463852582259
0.000265366297329247
0.00021559720413084
0.000159249545664104
9.14009799215594e-05
1.36598413693386e-05
0.000454552087194227
0.00042285287995868
0.000387263088891078
0.000347905791972131
0.000305090833452227
0.000258866204876573
0.000208542252450104
0.000152364030992905
8.59346748451376e-05
1.21616823735853e-05
0.000485052949831875
0.000454807157498005
0.000420656909132777
0.00038272514343905
0.000341455519452463
0.000297316474822367
0.000250322418327702
0.000199793923472628
0.000144197166550153
7.96766072510462e-05
1.0546593818589e-05
0.000513621659149908
0.000484767352802008
0.000451950000706314
0.000415283306769633
0.000375239603202972
0.000332452938578821
0.000287350975941622
0.000239885927135998
0.000189461705667792
0.000134810435518082
7.26384953799506e-05
8.85019491237056e-06
0.000540202838278858
0.000512731917662223
0.000481205385573086
0.000445731562683185
0.000406785366065614
0.000365050871646081
0.000321126837130054
0.000275345625084658
0.000227666547428459
0.000177634582644521
0.00012426084952847
6.48454489572031e-05
7.12164275288438e-06
0.000564703656930397
0.000538633940277817
0.000508399641472746
0.000474102453057
0.000436212535812867
0.000395428433570914
0.000352404428524649
0.000307631434377609
0.000261407851532142
0.000213760732681351
0.000164397231320966
0.000112621901073767
5.64115327787817e-05
5.44829922446434e-06
1.49713686166388e-05
9.70470327879908e-05
1.59320120876482e-05
0.000164780083437699
9.91990122581013e-05
1.70475433127799e-05
0.000218822922191708
0.000167270911681737
0.00010116103909808
1.77223005226687e-05
0.000265810636547589
0.000221489598757147
0.000168825416717914
0.000102040956619343
1.76514690842406e-05
0.000308432896043848
0.00026842692284528
0.00022267807046281
0.000168924779242675
0.000101252161072391
1.69856345505656e-05
0.000347890454214486
0.000310806923660889
0.00026916735729369
0.000221994612150659
0.000167162541273144
9.88835089885612e-05
1.60036607068577e-05
0.000384811884784061
0.000349932765883025
0.000310978744140212
0.000267670423820294
0.00021919803681741
0.00016354864289097
9.53250493714671e-05
1.48468555744735e-05
0.00041957178506123
0.000386488328966274
0.000349491736708516
0.000308622862541924
0.000263804529289473
0.000214339116859942
0.000158325002270686
9.08506152573163e-05
1.3538509847497e-05
0.000452382932472586
0.000420848086435154
0.000385440529585709
0.000346282518512656
0.000303682159878724
0.000257686837301725
0.000207608845904367
0.000151696078883848
8.55539297394424e-05
1.20836317068626e-05
0.000483333448315026
0.000453209253120194
0.000419193846535623
0.000381409471657522
0.000340297822285829
0.000296325641023592
0.000249507538659827
0.000199166277173918
0.000143769686887429
7.9456514673137e-05
1.05072073880384e-05
0.000512419913688569
0.00048364914136839
0.000450923923772042
0.000414357003230979
0.000374419186194574
0.000331743077881653
0.000286755844020697
0.000239410879254833
0.00018911504527052
0.00013460414730013
7.25758900035905e-05
8.8495461219894e-06
0.0005395810405882
0.000512161387048901
0.000480689221955668
0.000445271337281267
0.000406381994728649
0.000364705018649876
0.000320839099960476
0.000275117052346348
0.000227499899755829
0.000177536805927472
0.000124247911889616
6.4940025439153e-05
7.15945238667285e-06
0.000564726153796744
0.000538686391390803
0.000508474316125234
0.000474191599281345
0.000436310930857901
0.000395532527790617
0.000352511564502471
0.000307739558487501
0.000261515776117992
0.00021386917516788
0.000164511271527831
0.000112756578969095
5.65873288516701e-05
5.49053582725614e-06
0.000587745630952704
0.000563123587725406
0.000534204872907578
0.000501081359788072
0.000464219979413112
0.000424325444049535
0.000382071842037081
0.000338001351038449
0.0002925523598107
0.000246050155659259
0.000198612497626452
0.000150118922925403
0.000100201993903906
4.76320600915598e-05
3.9193233642388e-06
1.44205198050298e-05
9.49721477508486e-05
1.54084524843194e-05
0.000161914290592981
9.73092095208589e-05
1.65504448748102e-05
0.000215516004105752
0.000164682802747488
9.94568398343012e-05
1.72664957219017e-05
0.000262281874484339
0.000218526599561921
0.000166519233009535
0.000100532344642681
1.72536983097963e-05
0.000304843017172134
0.000265295752563082
0.000220065045158168
0.000166906878620322
9.99503374796626e-05
1.6653324559485e-05
0.000344367242173912
0.00030766027732961
0.00026644003863365
0.000219736813195401
0.000165437978449355
9.77918516424561e-05
1.5736118201775e-05
0.000381461635558732
0.000346891897729679
0.000308280792616427
0.00026535069486919
0.000217296761268497
0.00016211630128291
9.44380968253897e-05
1.46390307770156e-05
0.000416486161132959
0.000383654735141774
0.000346937548172004
0.000306375207970961
0.0002618905042744
0.000212788722091701
0.000157175637441499
9.01566683120818e-05
1.33841163466492e-05
0.000449643077037292
0.000418310176834178
0.000383126903576983
0.000344214817792969
0.00030188002931046
0.000256169170148588
0.000206396685892339
0.000150815007924339
8.50379594689667e-05
1.19756636080843e-05
0.000481013415203376
0.000451046439468435
0.0004172060150814
0.000379613757272368
0.000338709078475869
0.000294956404540619
0.000248369979156631
0.000198274416381121
0.000143139159430403
7.910282102237e-05
1.04387491151512e-05
0.000510588524328805
0.000481934828871496
0.000449339922072544
0.0004129159298902
0.000373131736426211
0.000330617600977989
0.000285799391880956
0.00023863096934252
0.000188520956408142
0.000134205588951145
7.23739411253127e-05
8.8157000826644e-06
0.000538302390997971
0.000510964093155623
0.00047958188413269
0.000444261610050281
0.000405476014886041
0.000363907392092074
0.000320153329901399
0.000274546465860216
0.00022704896052737
0.000177212563001237
0.000124060165980656
6.4885567050266e-05
7.15943275083943e-06
0.0005640584975896
0.00053807018212595
0.000507912576221908
0.000473685761193219
0.000435861755010756
0.000395140508935954
0.000352177049665718
0.000307462857465837
0.000261297676730392
0.000213712141245663
0.00016442206484581
0.000112750196906709
5.66784591915269e-05
5.52638922382317e-06
0.000587749478206797
0.000563160377845568
0.000534266451541531
0.000501159518420813
0.000464309088208375
0.00042442158001965
0.000382171981099115
0.000338103054281528
0.000292653708523064
0.000246150185914834
0.000198712219028389
0.000150223852223373
0.00010032835731113
4.77985629787501e-05
3.95811237104925e-06
0.000609260366531816
0.000586117647369466
0.000558539368345191
0.000526603043027078
0.000490770876435815
0.000451749958013794
0.000410221533795309
0.000366743701329267
0.000321797010811608
0.000275826026601896
0.000229203480318701
0.000182139344712567
0.000134689634382004
8.68497855644836e-05
3.83189307615059e-05
2.52327103243416e-06
1.38306690279e-05
9.27055468269076e-05
1.48431096472306e-05
0.000158768578256606
9.5229798581335e-05
1.60082318906836e-05
0.000211863886024604
0.000161819121572849
9.75655193253601e-05
1.67638781414309e-05
0.000258355029236759
0.000215224187018816
0.000163943076832717
9.88409810822898e-05
1.68097925705146e-05
0.000300810504644937
0.000261773595765286
0.000217120260900097
0.000164626666609099
9.84727372520146e-05
1.62773644004272e-05
0.000340362809901806
0.000304079046689834
0.000263330760880216
0.00021715691641225
0.000163460927164196
9.65330363777478e-05
1.54276391059367e-05
0.000377595956165671
0.000343378426908073
0.000305158285536771
0.00026266018362292
0.000215085132812488
0.000160442607732661
9.33938159254527e-05
1.43938814502589e-05
0.000412853598040264
0.000380314163928129
0.000343921294329192
0.000303715227871832
0.000259618927214786
0.000210941533555949
0.000155797977328683
8.93162770707316e-05
1.31962456108298e-05
0.000446326923700166
0.000415233517737275
0.000380316676665532
0.000341697357859475
0.000299679592939726
0.000254308870645264
0.000204902512788851
0.000149719163081737
8.43866521790978e-05
1.18381704972922e-05
0.000478088602472373
0.000448314441326246
0.000414689113301619
0.000377333642890712
0.000336684894462253
0.00029320443460088
0.000246905887859426
0.000197115793917
0.000142306752337196
7.86232173688346e-05
1.03441936686372e-05
0.00050812430006278
0.000479621406098015
0.000447195081021181
0.000410957033897378
0.000371373824046986
0.00032907269535363
0.000284477472996322
0.000237541948959184
0.000187675990009416
0.000133615965112311
7.2048315158447e-05
8.75697435161874e-06
0.000536363438504224
0.00050913812525845
0.000477882227927064
0.000442701030025321
0.000404065422815026
0.000362655229646667
0.00031906606049694
0.000273629659731697
0.000226308575524535
0.000176655555379982
0.000123692586791586
6.47007088014067e-05
7.13128275635846e-06
0.000562705028367506
0.00053679620759982
0.000506726754976448
0.000472595808538485
0.000434873866670341
0.000394259336729443
0.000351406017903797
0.000306804608580812
0.000260754743614421
0.000213287974254145
0.000164122287854301
0.000112581945457644
5.66299189775682e-05
5.52796928568137e-06
0.000587035784967295
0.000562498603727723
0.000533659575619068
0.000500608863531347
0.000463815272259553
0.00042398494499785
0.000381792713915052
0.000337781215903049
0.000292389325767222
0.000245943761951454
0.000198565873823862
0.000150143808869014
0.000100328996703119
4.78894312868893e-05
3.99161120271015e-06
0.000609242963792029
0.000586136456927058
0.000558585893416271
0.000526668629981933
0.000490849495537069
0.000451837306185077
0.00041031420838168
0.000366838891783743
0.000321892404886478
0.000275919863571205
0.000229295035152149
0.000182229919581633
0.000134785377429269
8.69691361947666e-05
3.84870337580232e-05
2.55618548672162e-06
0.000629212712593761
0.000607587040733154
0.000581386414465304
0.00055066965343081
0.000515891770973822
0.000477760103930569
0.000436957498333631
0.000394045143632873
0.000349514199147124
0.000303841836346041
0.000257498751459238
0.000210904947862097
0.000164358447494156
0.000118097410457595
7.25309551820583e-05
2.84949873352899e-05
1.33142548773358e-06
1.32044876671592e-05
9.02455618572843e-05
1.42378860178458e-05
0.000155339266198857
9.29573314785875e-05
1.5422735824613e-05
0.000207861442083795
0.000158675686129852
9.5483309758404e-05
1.62156755923944e-05
0.000254023923702719
0.000211576992537041
0.000161092427813093
9.69631579150912e-05
1.63199866967736e-05
0.000296328427149365
0.000257854101406471
0.000213838132476843
0.000162079303460654
9.68150202775662e-05
1.58574294343846e-05
0.000335869727040472
0.000300056246808397
0.000259833203625341
0.000214249370708691
0.000161226561411578
9.5103449029063e-05
1.50782626930195e-05
0.000373207169012773
0.000339385038616417
0.000301604456712524
0.000259592774503924
0.00021255782782946
0.000158523594790225
9.21887580412753e-05
1.41108136105215e-05
0.00040866691351396
0.000376459640116886
0.000340436144375002
0.000300636514315054
0.000256984070973616
0.000208792541584187
0.000154187818957071
8.83259220050271e-05
1.29742682208929e-05
0.000442427748136735
0.000411611462196844
0.000377003496527757
0.000338724286119309
0.000297075183536651
0.00025210076317083
0.000203121929679854
0.000148405137952508
8.35971001583509e-05
1.16707829438105e-05
0.00047455347206829
0.000445007719272319
0.000411637615711884
0.000374563734173376
0.000334220145291465
0.000291064986506496
0.000245110904229577
0.00019568717745013
0.000141270958641102
7.80171899417045e-05
1.02241363654533e-05
0.000505023162968212
0.000476704761987393
0.000444485312645411
0.000408476138696622
0.000369141183880406
0.000327104017502032
0.000282785897808647
0.000236140107073282
0.000186577885547729
0.000132836933767506
7.1606463067942e-05
8.67626069590567e-06
0.000533761286043324
0.000506680772466336
0.00047558766521718
0.000440586886695193
0.000402147155344521
0.000360945051347455
0.000317573437316726
0.000272362456947905
0.000225274517282188
0.000175862538756189
0.000123147145913752
6.44027763802155e-05
7.08294062130287e-06
0.00056066259477832
0.000534862913361161
0.000504916149415845
0.000470920876250916
0.000433345762887777
0.000392886794242365
0.000350195557605102
0.000305761249653927
0.000259882695795245
0.000212591501586211
0.000163605751543609
0.000112247504673891
5.64655242469415e-05
5.50587253203089e-06
0.000585609405661556
0.000561150044430813
0.000532397657677501
0.000499441410727856
0.000462748568484975
0.000423023716781919
0.000380940464314573
0.000337040491659954
0.000291762029023017
0.000245431584918343
0.0001981711506921
0.000149870698024764
0.000100180820646076
4.78524082618321e-05
3.9945726987979e-06
0.000608482801894923
0.000585428930950482
0.000557933984203927
0.000526073582077227
0.000490311805824205
0.000451357172899003
0.000409891670114161
0.000366473873255403
0.000321584679182612
0.000275669178822756
0.000229101585939721
0.000182095457677907
0.000134715805141955
8.69772336987596e-05
3.85884729293623e-05
2.58648539358572e-06
0.00062917116284164
0.000607585227097962
0.000581415564555857
0.000550720715845815
0.000515958334244685
0.000477837489980741
0.000437041917190165
0.000394133391293122
0.000349603600280142
0.000303930200594356
0.00025758451873859
0.00021098763808538
0.000164439762476278
0.000118184793120339
7.26468501229608e-05
2.86671763915119e-05
1.35609191375844e-06
0.00064756557346355
0.000627496941513162
0.000602717568930738
0.000573264100850738
0.00053958143295619
0.000502375106712861
0.000462326738068327
0.000419994692265749
0.000375869250961898
0.000330433336191999
0.000284180183831058
0.000237605566647538
0.000191169841920452
0.000145252789722342
0.000100298736391175
5.72374591100056e-05
1.8359192462557e-05
4.83597644558608e-07
1.25451130572672e-05
8.75940454028975e-05
1.35963404835832e-05
0.000151623425474517
9.0492846053918e-05
1.47966893021233e-05
0.000203504244019789
0.000155248883433357
9.32088933883627e-05
1.56239408232807e-05
0.00024928290999785
0.000207579969390937
0.000157963215551331
9.48949233079778e-05
1.57857667274825e-05
0.000291390020065843
0.000253531127865453
0.000210213292566446
0.000159260323738871
9.49727811075311e-05
1.5394040948697e-05
0.000330880494186047
0.000295584929924885
0.000255941067011151
0.000211008647861465
0.000158729999923052
9.34983344767629e-05
1.46878733634965e-05
0.000368287395879246
0.000334904285628073
0.000297612392281385
0.000256142229903788
0.000209709366728524
0.000156354331506257
9.08189882070015e-05
1.37899633175826e-05
0.000403918212282435
0.000372083468111697
0.000336474856701195
0.000297132406379626
0.000253979949349475
0.000206336557840668
0.000152341105789623
8.71818344360132e-05
1.27178954088792e-05
0.000437938054030687
0.000407436776986667
0.000373180438625648
0.000335288821361013
0.000294060575666062
0.000249539285537869
0.000201050111430233
0.000146868959678535
8.26654994918954e-05
1.14732189880792e-05
0.000470401331613427
0.000441119571074558
0.000408044976419553
0.00037129787340302
0.000331309010067163
0.000288532451415627
0.000242980033863043
0.000193984368091943
0.000140028494850992
7.72819176837807e-05
1.00781835138516e-05
0.000501279651043389
0.000473179434628454
0.000441205170943461
0.000405467864566187
0.000366428555139432
0.000324706635567582
0.000280719899527025
0.000234421111533091
0.000185223484900465
0.00013186723797084
7.10468095874591e-05
8.57415575562713e-06
0.000530491965813587
0.000503588106219977
0.000472694285905561
0.000437915240714542
0.000399717117431238
0.00035877263577878
0.000315671186667763
0.000270740798783364
0.000223943118862193
0.000174831531444072
0.000122426005567367
6.40001328251244e-05
7.01690953490789e-06
0.000557928452105248
0.000532267873694962
0.000502478487503965
0.000468658581053605
0.000431274748948866
0.000391019735757842
0.000348542127605267
0.00030432888330988
0.000258677389650058
0.000211618549894281
0.000162869543951902
0.000111749543432985
5.62006587684856e-05
5.46746956142546e-06
0.000583467329921075
0.000559113479382803
0.000530480407993499
0.000497656752326982
0.000461107947111588
0.000421536164362513
0.000379612821733683
0.000335877850506745
0.000290768166261166
0.000244609293124284
0.000197522763555364
0.000149398063179278
9.98813198519206e-05
4.77118332566676e-05
3.97766286931949e-06
0.000606985146161698
0.000584007655711101
0.000556598053518931
0.000524830982871729
0.000489168941747215
0.000450318865119222
0.000408961515267891
0.000365654541580184
0.000320877979373961
0.000275076272282792
0.000228623257317898
0.000181732872053204
0.000134471211266142
8.68504595337417e-05
3.85662323352197e-05
2.5906597215519e-06
0.000628363791613188
0.00060683149571386
0.000580718424875474
0.000550081367321641
0.000515377178059333
0.000477314596112823
0.000436577180714954
0.000393726603350342
0.000349254427450882
0.000303638116016775
0.000257349001327702
0.000210808566572682
0.000164318647480105
0.000118127544531341
7.26687619962149e-05
2.87852459956739e-05
1.38043169641801e-06
0.000647496675946789
0.000627471560504649
0.00060272668959758
0.00057329832989662
0.000539634011738813
0.000502440998881253
0.000462401767685181
0.000420075249225654
0.000375952257406394
0.000330516251415201
0.000284260958476131
0.000237682870366966
0.000191243492617519
0.000145325290578958
0.00010037980340161
5.73586521428285e-05
1.85316797100767e-05
4.96535638673643e-07
0.000664282196863914
0.000645810492525385
0.000622498584652686
0.000594358299397314
0.000561821509081503
0.000525589684958705
0.000486341224591784
0.000444628701847827
0.000400936044104167
0.000355742381768716
0.000309541472596152
0.000262840525506882
0.000216152015141668
0.000169965237211995
0.000124749952841497
8.12472348311751e-05
4.10758126376014e-05
8.68653377096902e-06
9.33608490491781e-08
1.18532762305282e-05
8.47522237010738e-05
1.29196755712091e-05
0.000147619045797811
8.78378931673296e-05
1.41332768541739e-05
0.000198788671500157
0.000151535633770251
9.07438230594425e-05
1.49919786496682e-05
0.00024412686215211
0.000203228646137676
0.000154551892103207
9.26374065573399e-05
1.52099575112564e-05
0.000285989015398967
0.000248798963311556
0.000206240749573666
0.000156165750974311
9.29449415618716e-05
1.48889378185594e-05
0.00032538796928929
0.00029065836481257
0.000251648255295625
0.000207429439831386
0.000155966892300597
9.17134023922197e-05
1.42571855335568e-05
0.000362828904704139
0.000329928732738453
0.000293175202490417
0.000252302331934492
0.00020653429498271
0.000153930090323431
8.92793869335349e-05
1.34314277292221e-05
0.000398599360376724
0.000367177812472101
0.000332030048027347
0.000293196093518042
0.000250600436988182
0.000203568204418512
0.000150253074042743
8.58796589194287e-05
1.24272653810047e-05
0.000432849971143899
0.00040270166288498
0.00036883988493755
0.000331383852145936
0.000290629248726371
0.000246618598712115
0.000198682000034453
0.000145106564062828
8.1587822377865e-05
1.1245115710512e-05
0.000465624539629541
0.000436642481852934
0.00040390407457014
0.000367529180045916
0.000327944862103862
0.000285600786986133
0.000240507883260556
0.000192002724863065