/*--------------------------------*- C++ -*----------------------------------*\
  =========                 |
  \\      /  F ield         | OpenFOAM: The Open Source CFD Toolbox
   \\    /   O peration     | Website:  https://openfoam.org
    \\  /    A nd           | Version:  12
     \\/     M anipulation  |
\*---------------------------------------------------------------------------*/
/*   Windows 32 and 64 bit porting by blueCAPE: http://www.bluecape.com.pt   *\
|  Based on Windows porting (2.0.x v4) by Symscape: http://www.symscape.com   |
\*---------------------------------------------------------------------------*/
FoamFile
{
    format      ascii;
    class       volScalarField;
    location    "500";
    object      omega;
}
// * * * * * * * * * * * * * * * * * * * * * * * * * * * * * * * * * * * * * //

dimensions      [0 0 -1 0 0 0 0];

internalField   nonuniform List<scalar> 
10068
(
2.46683683998502
2.46683818538162
0.624772238587687
2.38166593315721
2.46684523249578
0.624345260129225
2.3816771757778
0.335544394322669
0.609963436759073
2.28698514551086
2.46684443991464
0.623762971030012
2.38168113103689
0.33534119604948
0.609543088170125
2.2869956207504
0.240843198212381
0.331346353373885
0.59170776160686
2.21611134704557
2.46684094122156
0.623170497583641
2.38168004091763
0.334990447498712
0.609013195748637
2.28699532346001
0.240714532310936
0.331148141238128
0.591283378375185
2.21610975363103
0.197416613279045
0.239340167968092
0.325258694767651
0.576915336344361
2.18722197064603
2.46684043373594
0.622419464096968
2.38167794855079
0.334541053024515
0.608432271529852
2.28699493440643
0.240468655373
0.330804491245813
0.590778470218546
2.2161087422714
0.197319607676693
0.239214066866284
0.325064288960364
0.57647645522408
2.18721968060057
0.173841132748969
0.196819813287841
0.236790962261646
0.319340805187046
0.568269336102299
2.18619544350155
2.46684337501648
0.621470865928468
2.38167798706467
0.333965721742736
0.607695197421413
2.2869944390832
0.240119262496744
0.330357232376758
0.590213560451949
2.21610834368018
0.197123477595272
0.238969575248942
0.324727582480283
0.575976357530664
2.18721873502843
0.173758687710084
0.196724928317887
0.236666696635808
0.319145498789667
0.567806009266125
2.18619397466643
0.15976090933657
0.173587669787463
0.195591026848587
0.233837326444381
0.314653614090541
0.563589546197829
2.19192955382687
2.46684015814959
0.620309219225537
2.38167985509075
0.333242781637637
0.606764097982755
2.28699401889327
0.239660218253473
0.329786201544797
0.589499071026426
2.21610824685199
0.196831458711057
0.238621295972142
0.324284779099085
0.57541893214464
2.1872182804528
0.173588327856648
0.196529463866538
0.236423897847221
0.318810700974183
0.567296917540333
2.1861930674093
0.159685405882881
0.173507240244839
0.195497375339305
0.233712874221309
0.314452668091165
0.563093395429354
2.19193189178483
0.150858847173854
0.159630524090055
0.172912299560863
0.193925839655555
0.23095128946328
0.31086865572847
0.559493077920953
2.19485294959253
2.4668373554342
0.618935891610912
2.38168875067277
0.332362702977701
0.605614881085026
2.28699246124887
0.239083274802076
0.329070261508179
0.588589122216867
2.21610790901664
0.196441381107409
0.238164153461207
0.323720860654453
0.574714567841313
2.18721838962744
0.173330234028169
0.196238031746896
0.236077419023123
0.318370577909366
0.566735222847196
2.18619244192416
0.159529562200862
0.173337426729082
0.195302645402049
0.233470493807861
0.31411451405043
0.562564437682497
2.19192870397235
0.150786735115719
0.159557001065384
0.172833149209142
0.19383233434362
0.230824720963928
0.310658232679172
0.558960432552234
2.19485741541291
0.145047637300065
0.150768527394089
0.159191015424614
0.171867934999216
0.192035620748923
0.228178040481051
0.307139657383915
0.554243706918892
2.1951261809074
2.46683786431622
0.617345068720822
2.38167581369062
0.331320762363139
0.604250429387187
2.28700209006612
0.238382698311379
0.328197442835979
0.587457216357289
2.21610621533224
0.195949718128914
0.237589943261161
0.323014639178574
0.573813976210033
2.18721847560258
0.172982861907564
0.195848765301241
0.235623332524898
0.317811843086935
0.566024644314858
2.18619276355117
0.159292592274658
0.173079674504138
0.195012171411786
0.233125385025028
0.313673199685936
0.561991220872707
2.19192570555882
0.15063970095718
0.159401692760127
0.172664017976802
0.193637986498789
0.230581048649113
0.310312592147764
0.558400283397469
2.19485159244767
0.144977080921488
0.150698372380485
0.159118902927215
0.171789392301516
0.191941504607108
0.228047957409968
0.306917551041635
0.553667699845903
2.19513057495491
0.141211896920878
0.1449729799735
0.150433255871699
0.158460773012272
0.170561802089813
0.190026552918201
0.22532268231098
0.302916417744735
0.547653455802222
2.19480463381858
2.466841259577
0.615543040911671
2.38167868737284
0.330115084846343
0.602679567269176
2.28697915840407
0.237554871316907
0.327163825937619
0.586123160148019
2.21610195710443
0.19535326215547
0.236892640182718
0.322153041180351
0.572704745670544
2.18721625131301
0.172544353929638
0.195358221537859
0.235053561437842
0.317113511810276
0.565130820236046
2.18619352947123
0.158973064516335
0.172732683889745
0.194624447417657
0.232674307692284
0.31311569849993
0.561269710270129
2.19192822382158
0.15041663299517
0.159164992784214
0.172406967685726
0.193348552046285
0.230236223206556
0.30986732944668
0.557810590998119
2.19484598445933
0.144835666518021
0.15055188787864
0.158964359745665
0.171620934389071
0.191747101311647
0.227801687747155
0.306561477708708
0.553069697039805
2.19512417386355
0.141141769514538
0.144904357861735
0.15036460036626
0.158389616375824
0.170483577318902
0.189931437233719
0.225188335257302
0.302680926598356
0.547020117169073
2.19480689705106
0.138706395376534
0.141148799647126
0.1446939763798
0.149876686669506
0.157514154765692
0.169099787425436
0.187905515971529
0.222218735023468
0.298034516486553
0.539947553960887
2.19480229569329
2.46684321754498
0.613518493726309
2.38168069544908
0.328741923221635
0.600902155882612
2.28699600402422
0.236596986143501
0.325967670569819
0.584586748310355
2.21609414455545
0.194649522405814
0.236068508419557
0.321133519774762
0.571401384651124
2.18721434933317
0.172012714030654
0.194763178801861
0.234361801487282
0.316263639863097
0.564041164942988
2.18619226598453
0.158569648362873
0.172294638242223
0.194136078608213
0.232109274103246
0.312422868799685
0.560379633706557
2.19192979258896
0.150116079560608
0.158845684433993
0.172060900795594
0.192962768724685
0.229787357678953
0.309309300752439
0.557085211627285
2.19485080486594
0.144622113550732
0.15032907353114
0.158728307234865
0.171364869321596
0.191458590139186
0.227456374343327
0.306111178488756
0.552463726701764
2.19511812299403
0.141003950487579
0.144763500801646
0.150218945948031
0.158235975155628
0.170315791257139
0.189736719087984
0.224938765900082
0.302312687432528
0.546370740447805
2.19479832163044
0.138635887583116
0.141080589020448
0.14462690084445
0.149809198151763
0.157443864830805
0.169021863563727
0.187809314447249
0.222079795956306
0.297783371252514
0.539238296238083
2.19480464668431
0.137130301959831
0.138655377599498
0.14091093697729
0.144250389732441
0.149169790713295
0.156449434751282
0.167552469000373
0.185659561172991
0.218807550269873
0.29249893710876
0.531229565902692
2.19513011128507
2.46684006920216
0.611262582357558
2.38167915310776
0.327196524145217
0.598901683894249
2.2869973901579
0.235506059692156
0.324605617164257
0.582841463344706
2.21611020680488
0.193835983134937
0.235114999749259
0.319953457813262
0.569891986534092
2.18721773344657
0.171386009732742
0.194060992287469
0.233544300780357
0.315259028187011
0.562753485332645
2.18619302824926
0.158080903275805
0.171763562808535
0.193543761754526
0.231423892785705
0.311582624117936
0.559300247610137
2.19193255131371
0.149736930036728
0.158442493613268
0.171624029299953
0.192477241126943
0.229226614827836
0.308620658689782
0.55620246795997
2.19485314578327
0.144334979085583
0.150028697470954
0.158409681438411
0.171020208793752
0.191074865973637
0.227009347798192
0.305553835408094
0.551739683493366
2.19512323872234
0.140797056024169
0.144550209653355
0.149996768548538
0.158000919535341
0.170060922880926
0.189449102258524
0.22459288985366
0.301857836158408
0.545751374134002
2.19479230096309
0.1385002386314
0.140943332624829
0.144486904533961
0.149664568070667
0.157291279550966
0.168854841884338
0.18761427897068
0.221826747102298
0.297400678705201
0.538514314106593
2.19480258600432
0.137058774757517
0.138586777037911
0.140844300247768
0.144184604886168
0.149103478111525
0.156380140978926
0.167475004744662
0.185562421132731
0.218663905958625
0.2922296370646
0.530424052122171
2.19512597727103
0.136218253089758
0.137091783557075
0.138453746553953
0.140553995532792
0.143720176474345
0.1484062817914
0.155354383559349
0.165972331525738
0.183309312136016
0.21511525088705
0.286347313119244
0.52145087220041
2.19485513046577
2.46683949517432
0.608769873346897
2.38167602918766
0.325473734244366
0.596676105844107
2.28699441993872
0.234278753081441
0.323072472490817
0.580878711096301
2.216110871224
0.192910128452433
0.234029083380051
0.318608976917324
0.568175421602035
2.18721976470029
0.170662247678839
0.193249311096537
0.23259845274949
0.314095289244518
0.561259911684473
2.18619246702189
0.157505242485778
0.171137469778469
0.192844798843523
0.230614243127739
0.310589319301194
0.558018772082078
2.19192973869256
0.149277997403481
0.157953985702032
0.171094358524784
0.191888557214401
0.228547345230322
0.307787690497132
0.555128682647383
2.19485851733039
0.143973217390574
0.149649695872595
0.158007237169448
0.170585158103734
0.190592498031529
0.22645268967536
0.304870333799494
0.550866608281964
2.19512811962
0.140519605522309
0.144263235338651
0.149696979119834
0.157683434453523
0.169718041872316
0.189067605069694
0.22414821698811
0.301303290802874
0.54503375065363
2.19479756934893
0.138297962186479
0.14073669542814
0.144274241571935
0.149443376695824
0.157057513577042
0.168601388581355
0.187327788924248
0.221480874539046
0.296942665434394
0.537889619212603
2.19479693971644
0.136924209329906
0.138451691520023
0.140707914265566
0.144045683648937
0.148960073193631
0.156228812251097
0.167308958365504
0.185367324517206
0.218407463797831
0.291829741620196
0.52961250943246
2.19512400803879
0.136145182438081
0.137022161429548
0.138386741041772
0.140488730236733
0.143655752006338
0.148341343615379
0.155286337868415
0.165895632218819
0.183211603407373
0.214967084633809
0.286058456834905
0.520547058138202
2.19485278168063
0.135785136123926
0.136191821709054
0.136923546365188
0.138170151107942
0.14016534531379
0.143196332902082
0.147676918852785
0.154309440693448
0.164429954496584
0.180931826906016
0.211234234634586
0.27963413072823
0.510500219069534
2.19192953800729
2.46684120423287
0.606032437263821
2.38167932534217
0.323568010297682
0.594219802055656
2.28699279764478
0.232911416653816
0.321363799781322
0.578693754040247
2.21610787293245
0.191869321796402
0.232807391252235
0.317095669245474
0.566245767224784
2.18722121319523
0.169839325669672
0.192325584170772
0.231521172892506
0.312768801631719
0.559561329707968
2.18619256197444
0.156841047916731
0.170414432117027
0.192036827759367
0.229677374726258
0.309438383441486
0.55653545574416
2.1919279405079
0.148737929027082
0.157378571125091
0.170469889266351
0.191193968425337
0.227745245670137
0.306802790720341
0.553851156505319
2.19485350026034
0.143535780792931
0.149190887125359
0.157519543625786
0.170057674915904
0.190007915573005
0.225779231835705
0.304044289551743
0.549798049708927
2.1951298275127
0.140170599840305
0.143901586622487
0.149318538208662
0.157282274804581
0.169285317759189
0.188588679425524
0.223596242899977
0.300626867489457
0.544174856819742
2.19480250903702
0.138027544250509
0.140459395187146
0.143987791207014
0.149144572057555
0.156741559554663
0.168260618789598
0.186948963112332
0.221039698051661
0.296393495136568
0.537188785046607
2.1948022990897
0.136725015735099
0.138249666103682
0.140501883407669
0.143833969799899
0.148740158758985
0.155996602161045
0.167057224337865
0.185082486865605
0.218062648273743
0.291371206024001
0.529001212453462
2.1951186532329
0.136010836016227
0.136888158422604
0.138252525084647
0.140353433898573
0.143518116697619
0.148199391366817
0.155136525899935
0.165730913329991
0.183016953835162
0.214707733142565
0.285642698380094
0.519663962342899
2.19485091981598
0.135710088375599
0.136120659546244
0.136855539721271
0.138104578744658
0.140101566577462
0.143133510701829
0.147613650656801
0.154242997151782
0.164354494183252
0.180834205693885
0.211082395588009
0.279330747371853
0.509503713685761
2.19192921999986
0.135696591527867
0.135769826098895
0.13605405187342
0.136704422084798
0.137900869876743
0.139839777241251
0.142769802684947
0.14707440762839
0.153415418472834
0.163046051784644
0.178681732423947
0.207347152290594
0.272499636800817
0.498288033284169
2.18619138570763
2.46684000030144
0.603047189667334
2.38167743508778
0.321473928473872
0.59152295391278
2.2869933173867
0.231400427424796
0.319474322489789
0.576283971143737
2.21610643245199
0.190710833796031
0.231446437555206
0.315409254462222
0.564101847885365
2.18721790135656
0.168915061447831
0.191287181376045
0.230309231634163
0.311275936518268
0.557654149036764
2.18619566097493
0.156086557639253
0.169592313616284
0.191117313552276
0.228610251669461
0.308126540195124
0.554849069971213
2.19192506051579
0.14811533544079
0.156714620680135
0.169748685960915
0.190391002966185
0.226817088969595
0.305662048945999
0.552375828770864
2.19485112906194
0.14302150359098
0.148650928692708
0.156945009040544
0.169435752056288
0.189318290889191
0.224984302400684
0.303067515619336
0.548527533105049
2.19512677461546
0.139749068651716
0.143464230050353
0.148860271943867
0.156795998779609
0.168760636832959
0.188008591458359
0.22292910221929
0.299809241677661
0.543114339932863
2.19480620983895
0.137687992316674
0.140110475335432
0.14362659506001
0.148767106460713
0.156342147625256
0.167830639019949
0.186474013752641
0.220493680558006
0.295726981873847
0.536349641927498
2.19480496633137
0.136459634568063
0.137979379074085
0.140225050389727
0.143548370907257
0.148442662310221
0.155682501375694
0.16671895686558
0.184707078128318
0.217626569569714
0.290831519078069
0.528331566629462
2.19512401637889
0.135813519845264
0.13668920537782
0.138051076569394
0.140148296780772
0.143307603576129
0.147980995892684
0.154906154468602
0.165481337743083
0.182734578421038
0.214365653200341
0.285189812766856
0.519080281450145
2.19484773371416
0.135575258509097
0.135986873835116
0.136722401172495
0.137971451148785
0.139967569384675
0.142997388034444
0.147473414043972
0.154095045791875
0.164191622143486
0.180640828256306
0.210821981468975
0.278907994045473
0.508551516678675
2.1919279559253
0.135619210546289
0.13569669417508
0.135984525858294
0.136637901125719
0.137836883161026
0.139777760999021
0.142708904182928
0.147013181300729
0.153351052807295
0.162972519056253
0.178585230297098
0.207194142204566
0.272191247534964
0.497155799687905
2.18619278453803
0.135852234991316
0.135691216951068
0.135659317470736
0.135891961427872
0.136538292677879
0.137743591794701
0.139668705055944
0.142539544877994
0.146718070504495
0.15282527074742
0.162026240098617
0.176839306080612
0.203816772611714
0.265344071254297
0.485469324952794
2.18721550682668
2.46683894233312
0.599809896541201
2.38167675438085
0.319187562522309
0.588583777135712
2.28699348150497
0.229741792118908
0.317398754570146
0.573647774106925
2.21610707480946
0.189431938485908
0.22994257956051
0.313545220939292
0.561740603055149
2.18721562907691
0.167887372952597
0.190131409566782
0.228959281361591
0.309613157772131
0.555533415725164
2.18619244981568
0.15524004802124
0.168668967400117
0.190083674222208
0.227409837886058
0.306650739747613
0.552956108326002
2.19193097897411
0.147408816956287
0.155960399677568
0.168928621722401
0.189477164205534
0.225759955809602
0.304362224848236
0.550701140289538
2.19484581107146
0.142429169600167
0.148028407946405
0.156282017967344
0.16871740309564
0.188521004227768
0.224064524628696
0.3019368129219
0.547063568063356
2.19512425108949
0.139253985788947
0.142949997339917
0.14832084568869
0.156223007470827
0.168141975162459
0.18732430515172
0.222141798565127
0.298842656207277
0.541857890491993
2.19480495026294
0.137278399205615
0.139688984774951
0.143189626214174
0.148309806883022
0.155857803365183
0.167309255914954
0.185899001962275
0.219834181657404
0.294920793006306
0.535309763526427
2.19480815871563
0.136127073135392
0.137639883898609
0.139876487277817
0.143187928541881
0.148066512531064
0.155285200376399
0.166292160318533
0.184236963860513
0.217088350309284
0.29017915310839
0.527520559909609
2.19512648022011
0.135551623859474
0.136423933513025
0.137781195651876
0.139872187663677
0.143023098367755
0.147685051983868
0.154594208963609
0.16514608340812
0.182363615835984
0.213936899058501
0.284666005455386
0.518450135073989
2.19485076709353
0.135378851177528
0.13578978604916
0.136523991445939
0.137770833128641
0.139763532836474
0.142788271980493
0.147256765041319
0.153866853232812
0.163944800628952
0.180362052426529
0.210485474803522
0.278469573252051
0.507994890858251
2.19192713703308
0.135483320579486
0.135562423083263
0.135851597904053
0.136505843259734
0.137705049215047
0.139645280202255
0.142574540911276
0.14687496983221
0.153205408267857
0.16281220751478
0.178394413170763
0.20693626535794
0.271771510116942
0.496064407755877
2.18619261248582
0.135772228975488
0.135615760575108
0.13558784183328
0.135823967537509
0.136473441930947
0.137681496278632
0.139608793187163
0.142480950047274
0.146659346558344
0.15276361705599
0.161955562493185
0.176745338909413
0.203665843302203
0.265027109174159
0.484060440090885
2.18721754078353
0.136175471592416
0.135855587873937
0.135604716678402
0.135547449562085
0.135815748322135
0.136525913841737
0.137790790976886
0.139755142033824
0.142636839305578
0.146783822895806
0.152783237772839
0.161721651287526
0.175921064485008
0.201405977306815
0.259320357213298
0.474939375142328
2.21610560966242
2.46684328790383
0.596306068453552
2.38167735990941
0.316705078725253
0.58540435000874
2.28699337777883
0.227932163701261
0.315133582957496
0.570780278669252
2.21610737353675
0.188029964541729
0.228292095294908
0.311499847512532
0.55915749024793
2.18721741858098
0.16675422972749
0.188855562594881
0.227467855674647
0.307776716171434
0.553206837305978
2.18619090758736
0.154299899350993
0.16764229397963
0.1889332726488
0.226072985926206
0.305007320337416
0.550855246406968
2.19192846762193
0.146617006601533
0.155114172099544
0.168007579025317
0.188449938708935
0.224570970410871
0.30290081653209
0.54882585285806
2.19485249161929
0.141757675051786
0.147321950050118
0.155528826369254
0.16790052032262
0.187613611407417
0.223017090956741
0.300649471467642
0.545407483681764
2.19511872030849
0.138684323281162
0.142357674283628
0.14769885692446
0.155561693010302
0.167427254825175
0.186533146113271
0.221230965708457
0.29772453488926
0.540416034833908
2.19480220474518
0.136797843991851
0.139193899755572
0.142675723351125
0.147771339005357
0.155286930801972
0.166694369303372
0.185220645581691
0.219055922442634
0.293968541118973
0.534081408434407
2.194800143637
0.135726469969875
0.137230288338542
0.139455259808711
0.142751610989717
0.14761051979743
0.154803173269302
0.165774562378463
0.183667908888287
0.216438487362529
0.289390196742097
0.526513869814589
2.19513152157042
0.135224146838834
0.13609139574611
0.137441964755597
0.139524180540263
0.142663612874589
0.147310452766419
0.154199323189724
0.164723008953116
0.181899493426954
0.213408935575798
0.284034124266814
0.517682199609639
2.19485284636983
0.13511920232731
0.135527975839101
0.13625906286926
0.137501550775915
0.139488302362196
0.142505010175013
0.146962567518717
0.153557389832704
0.16361319358821
0.179996825114527
0.210067046532932
0.277968458967872
0.507382463577211
2.19192752941128
0.13528703107609
0.135366230949329
0.135655018658143
0.136308198929729
0.137505425363938
0.139442488746825
0.142366991343699
0.146660311177193
0.15297980608175
0.162568886598008
0.178120733991931
0.206609153182291
0.271354410318312
0.495522599815457
2.18619390161759
0.135634801860723
0.135480427153273
0.135454420924087
0.135692109693764
0.136342664912246
0.137551161950698
0.1394780545646
0.142348618941068
0.146523526349673
0.152620836117337
0.161798703080671
0.176558714166568
0.203414368795991
0.264609823483473
0.482725720794565
2.18721857164121
0.136092601098291
0.135777515413189
0.135530934727446
0.135477546531361
0.135749498273049
0.136463064929705
0.137730946891219
0.13969771920507
0.142580993433471
0.146728174697437
0.152725105098176
0.161654895019852
0.175830760064666
0.20125622348831
0.258973660692975
0.473172421597318
2.21610688980994
0.136606953859925
0.13618641224803
0.135789997294705
0.135536770110019
0.135549689364872
0.135928953597867
0.136761082822881
0.13814861895222
0.140238673954499
0.143253971585381
0.147544425034315
0.153691627337626
0.162753044026888
0.176931756599044
0.201834691830227
0.257692716062667
0.474804912804577
2.2870039387159
2.46684219337824
0.592527259032574
2.38167967557201
0.314020229606152
0.581959407953728
2.2870064975705
0.225968172423502
0.312675126066235
0.567667703979286
2.21610716929442
0.186502379546315
0.226491639911527
0.309269215699549
0.556351582565332
2.18721751437057
0.165513822371826
0.187456987778248
0.225831580876406
0.305763142068069
0.550672300622891
2.18619230875787
0.153264723738749
0.166510284602959
0.187663455192826
0.224596517157324
0.303194862889672
0.548553481538902
2.19192892028298
0.145738747420201
0.154174325730859
0.16698347347103
0.187306758385021
0.223247139111308
0.301274940562653
0.546748480745351
2.19485207413089
0.14100599500331
0.146530177899983
0.154683708106883
0.166983014301354
0.186593659461992
0.221839298409191
0.299203771498367
0.543559178100387
2.19512372056358
0.138039169560934
0.141686135336549
0.14699292081364
0.154810286197437
0.166614391905781
0.18563269841029
0.220193955373144
0.296453519228617
0.538790869336606
2.19479661756823
0.136245465935421
0.138624186693574
0.142083673989981
0.147150314453203
0.154627862977269
0.165983828923526
0.184436255700027
0.218155663658426
0.292868559401689
0.532672369736442
2.19479707530322
0.135256993692704
0.136749678586811
0.13896034468814
0.142238260241966
0.147073335954796
0.154234810721218
0.165163911456471
0.182996410008024
0.215671559871345
0.288459118430984
0.525329221136022
2.19512552922416
0.134830266604901
0.13569074511323
0.137032506795861
0.13910334097487
0.142228099951458
0.14685597290015
0.153719914002862
0.164209728508878
0.181337540699663
0.212771477672253
0.283269144011191
0.51671433602121
2.19485588205261
0.134795301747216
0.135200489134921
0.135926697141375
0.137162688050807
0.139140930742064
0.142146572317909
0.146589667208901
0.153165207894703
0.163194497690703
0.179540039416593
0.209552426883148
0.277364104039298
0.50665006483837
2.1919287875397
0.135028626665719
0.135106644820449
0.135393489374167
0.136043747459211
0.137236816462669
0.139168195826033
0.142085056410921
0.1463680297179
0.152673178086814
0.162241643919108
0.177762709426047
0.206204302412763
0.270877383635945
0.494955656356859
2.18619245461413
0.135437977532182
0.13528433988817
0.135258702856996
0.135496231634731
0.13614591002332
0.137352626803292
0.139276615890687
0.142142791918711
0.146311117985048
0.152398283529925
0.161559704777384
0.176291710251052
0.203099504932906
0.26421798272909
0.482243468852589
2.18722093687263
0.135953237673967
0.135640642171328
0.135396442877856
0.135345183038398
0.135618904814271
0.136333763516274
0.137602316868711
0.139568959270107
0.142450994398332
0.146595168303987
0.152585815629502
0.161502354053809
0.175649347151453
0.201010102950142
0.258521417273746
0.47146538377074
2.21610874385065
0.136521017463269
0.136105483479023
0.135713614263244
0.135464594383338
0.135481593197312
0.13586480183554
0.136700612550217
0.138091415485574
0.140184171323808
0.143201402765347
0.147492563253973
0.153637931319321
0.162690908872106
0.176843694914371
0.201677326399321
0.257287970785797
0.472555473707014
2.28699341886412
0.137100193849433
0.136624442933905
0.136138888871782
0.135760213472084
0.135607301900913
0.135771948437382
0.136326662108607
0.137352544495303
0.138962810365503
0.141323490836972
0.144684682370013
0.1494392929306
0.156242922994536
0.16628314732333
0.181981022827727
0.209382576529273
0.27085445380104
0.512835364806959
2.38169009876714
2.46684129943592
0.588468254948542
2.38167825306219
0.311123793412476
0.578249129199343
2.28699528408552
0.223845992637967
0.310015892608878
0.564296282960996
2.21611929462718
0.184847061031041
0.224537823632167
0.306847525607833
0.55329883142566
2.18721712726033
0.164164631644076
0.185933221448159
0.224047114998528
0.303568429783744
0.547906615764004
2.18619201784897
0.152133413759354
0.165271125043876
0.186271643563458
0.222977260210669
0.301210174411835
0.546051980509208
2.19192866619306
0.144773157312972
0.153139455573377
0.165854315111895
0.186045051759591
0.221785724838706
0.29948353883857
0.54447828886551
2.19485299997024
0.140173362612541
0.145651922643212
0.153745056340674
0.165962821847727
0.185458640793817
0.220528395738566
0.297597268201831
0.541517730418026
2.19512564186184
0.137317846393412
0.140934373560554
0.146201659198815
0.153967071210322
0.165701312048034
0.184620554389929
0.219028301563617
0.295028158088639
0.536980927333747
2.19480182119916
0.135620549203937
0.137978919697363
0.141412354881645
0.146445315613296
0.153878824735663
0.165175553225351
0.183543434717762
0.217131036068945
0.291620028559748
0.53108947193394
2.19479140115805
0.134717919696552
0.136197185454666
0.138390706649565
0.141646660764335
0.146453573343443
0.153578357445064
0.164458017834376
0.182219760974299
0.214784510054954
0.287383798545882
0.523961450812541
2.19512246750347
0.134369227446025
0.135221154968128
0.136551916639506
0.138608641648201
0.14171538747714
0.146320246475215
0.153154303564175
0.163603820365138
0.180674104830558
0.212018937043986
0.282366230456464
0.515559264694625
2.19485247127043
0.134406356517089
0.134806515438833
0.135526061701932
0.136753374288655
0.13872046121164
0.141711879750286
0.146136784302623
0.152688662582299
0.162686095138307
0.178986533383776
0.208930415517786
0.276628697302428
0.505723994939822
2.19192962612906
0.134707086760474
0.13478270090868
0.135066085115597
0.135711572728248
0.13689828615766
0.138821413308607
0.141727657733833
0.145996907257276
0.152283969016753
0.16182796943776
0.177314633408885
0.205705992564418
0.270303045731573
0.494281748708698
2.18619251269182
0.135179994987158
0.135025975687604
0.134999337377213
0.135235063205284
0.135881937861724
0.137084661662381
0.139003244447134
0.141862214882504
0.146020885956683
0.152094815972246
0.161237500992797
0.175942226326768
0.202709863795724
0.263771225830574
0.481773791652669
2.18721956662607
0.135755334339109
0.135444007482784
0.135200795979537
0.135150103577603
0.135423815303852
0.136137945956852
0.137404919913295
0.139368953454819
0.142247023884524
0.146385255152779
0.152366730911869
0.161268306888381
0.175389742385113
0.200707323514274
0.258142272980991
0.47106675421774
2.21611060402013
0.136379379315333
0.13596667110226
0.135577572622955
0.135331144687192
0.135350474280989
0.135735656385887
0.136572971657523
0.137964691851076
0.140057631446005
0.143074050529655
0.147362813849407
0.153502655108426
0.162542840759337
0.176665427996902
0.201424395992511
0.256756844558906
0.470360919970755
2.2869949506994
0.137011016653547
0.136540456261059
0.136059660609628
0.135685462435755
0.135536984476053
0.13570603263038
0.136264999775965
0.13729484706801
0.138908667600567
0.141272402592759
0.144636025048761
0.149392036293856
0.156194319100526
0.166224415541512
0.181887797530058
0.20920308216077
0.270335106342104
0.509115120475328
2.38167839879971
0.137618522256536
0.137123297051092
0.13659243176311
0.136142074524314
0.135889981580639
0.1359241971619
0.136310416134954
0.137119770597954
0.138450794847357
0.140446475333374
0.143318951711363
0.147395655871319
0.153211429368408
0.161704665744232
0.174669002511124
0.195998807094467
0.236480703631054
0.339196322122308
0.79630410905291
3.68517097144455
0.584086780493022
2.38166679421881
0.308006580606161
0.574271227311001
2.2869951238892
0.221561500770516
0.307149937435671
0.560668730309779
2.21610777521966
0.183062325707653
0.222426754501322
0.30422853237366
0.5499943400426
2.18721681852282
0.162705641615521
0.184282105411584
0.222110785974685
0.301185121030668
0.54489541348976
2.18619178594854
0.150905339822478
0.163923309594048
0.184755409743549
0.221211795067648
0.299045998858186
0.543315642482475
2.19192789519596
0.143719798630824
0.152008462238561
0.164618302483153
0.184662299864628
0.220183630624275
0.297523476794132
0.542000514316751
2.19485476217458
0.139259392389525
0.144686306144232
0.152711462981754
0.164837970722235
0.184206069488794
0.219081774499325
0.29582856156831
0.539278684248188
2.1951289591526
0.136519941749272
0.140101607291646
0.145323896052391
0.153030440900212
0.164685960787992
0.18349425457531
0.21773138288553
0.293445743219494
0.534975799401177
2.19480406508422
0.134922675540754
0.137257423095936
0.140660741145782
0.14565495873294
0.153038093973527
0.16426746336451
0.182539808605396
0.215979679052933
0.290220719701163
0.52931489520027
2.1947967792038
0.134108730825186
0.135572086043122
0.137745416537772
0.140975687441899
0.145749755578965
0.152832022899648
0.163654774682171
0.181335582328754
0.213775069727239
0.286163819950847
0.522408148900639
2.19511687630462
0.133840423151326
0.134681899729413
0.135999314916801
0.138039039395743
0.141124257186084
0.145701831101779
0.152500656184203
0.162903042696649
0.179906432995671
0.211148112239936
0.281321409723419
0.514224115654471
2.19484997655282
0.133951680367935
0.134345304589238
0.135056339898374
0.136272696330675
0.138225850516795
0.141199726701855
0.145602522175553
0.152125943655779