/*--------------------------------*- C++ -*----------------------------------*\
  =========                 |
  \\      /  F ield         | OpenFOAM: The Open Source CFD Toolbox
   \\    /   O peration     | Website:  https://openfoam.org
    \\  /    A nd           | Version:  12
     \\/     M anipulation  |
\*---------------------------------------------------------------------------*/
/*   Windows 32 and 64 bit porting by blueCAPE: http://www.bluecape.com.pt   *\
|  Based on Windows porting (2.0.x v4) by Symscape: http://www.symscape.com   |
\*---------------------------------------------------------------------------*/
FoamFile
{
    format      ascii;
    class       surfaceScalarField;
    location    "0";
    object      phi;
}
// * * * * * * * * * * * * * * * * * * * * * * * * * * * * * * * * * * * * * //

dimensions      [0 3 -1 0 0 0 0];

internalField   nonuniform List<scalar> 
28563
(
1.10263357712843e-05
-3.55864379924265e-07
-3.07605220400444e-07
1.17530601236147e-05
-3.56573366338113e-07
-3.70149673197256e-07
1.1144842017108e-05
-3.26763339847425e-07
1.17981004881996e-05
-3.81255700808461e-07
-6.32274095240511e-07
1.25449814842221e-05
-3.46324949451292e-07
-4.45595082034231e-07
1.18884720194926e-05
-7.09083045425147e-07
-3.91119032847437e-07
1.25706287185623e-05
-3.81230404835967e-07
-7.61446101413096e-07
1.22648500904105e-05
-6.75054271077452e-07
1.29722527118619e-05
-4.20054878337342e-07
-9.78744699361861e-07
1.34014270173202e-05
-3.19861670365731e-07
-5.36582459033643e-07
1.27023364378909e-05
-6.91649258008096e-07
-4.68538782311422e-07
1.34115976279984e-05
-3.69256812112972e-07
-9.17305772106953e-07
1.22200828853141e-05
-1.08867026352277e-06
-4.02957391040974e-07
1.30784433219664e-05
-7.76432739277539e-07
-8.09508559867079e-07
1.38094192568987e-05
-4.19375795981236e-07
-1.17923553756387e-06
1.37709716050143e-05
-1.03992178149185e-06
1.41031624445105e-05
-4.66382781372435e-07
1.43175561618197e-05
-2.69907749836948e-07
-6.46220061846949e-07
1.35873914878392e-05
-6.43208160423278e-07
-5.61707184002745e-07
1.43200058757792e-05
-3.39684516698582e-07
-1.10530474241734e-06
1.30840969907421e-05
-1.07149240597293e-06
-4.84169710749742e-07
1.3968118340547e-05
-7.55987638397467e-07
-9.71481598995775e-07
1.47186613852458e-05
-4.05497452710389e-07
-1.42104916485361e-06
1.25477314089126e-05
-1.51467935634371e-06
-4.05625840018432e-07
1.3644210372426e-05
-1.20813092362805e-06
-8.41128056490448e-07
1.46718807210189e-05
-8.79764541459237e-07
-1.25002764767702e-06
1.49910727977965e-05
-4.67555044409532e-07
-1.59958960461373e-06
1.50376481757216e-05
1.52821134663245e-05
-1.86489167033811e-07
-7.78066933023811e-07
1.45409284367204e-05
-5.49629141039404e-07
-6.73814240853554e-07
1.52903828651702e-05
-2.84729526071018e-07
-1.33186615751903e-06
1.40342504910691e-05
-1.01082381982847e-06
-5.82536536893275e-07
1.49346848356218e-05
-7.01318654126651e-07
-1.16663817425812e-06
1.56981722725672e-05
-3.72285345159022e-07
-1.71252907144839e-06
1.34776460821596e-05
-1.51054299712428e-06
-4.90862787340096e-07
1.46041146916454e-05
-1.18766758005926e-06
-1.01239268514047e-06
1.56549182042898e-05
-8.5657567648282e-07
-1.50343961805881e-06
1.59516339311883e-05
-4.55131370504577e-07
-1.92647780174953e-06
1.27077457784867e-05
-1.98813410932614e-06
-4.04621942915675e-07
1.39593267919894e-05
-1.69181463961136e-06
-8.43855072858178e-07
1.55357977564569e-05
-1.39448864193452e-06
-1.30481061153065e-06
1.59974902620539e-05
-9.88478999445169e-07
-1.6889446239258e-06
1.57035367515465e-05
-5.12464463256668e-07
-1.98541431379811e-06
1.62739861419067e-05
-5.59612564305223e-08
-9.35910363467632e-07
1.55544623454188e-05
-3.91291502612284e-07
-8.08730367736101e-07
1.63104992291238e-05
-1.93864378826867e-07
-1.60431770224382e-06
1.50726631553435e-05
-8.8618576294298e-07
-7.01854735648469e-07
1.59748083897889e-05
-5.96925026165162e-07
-1.40174096380206e-06
1.67413491638042e-05
-3.11384108189461e-07
-2.06365783267152e-06
1.45166481463215e-05
-1.45453574862464e-06
-5.95288748709045e-07
1.56591158554209e-05
-1.11875837375019e-06
-1.22009656681642e-06
1.67202476649588e-05
-7.95177876331882e-07
-1.8090739654611e-06
1.69817458363784e-05
-4.22814029525383e-07
-2.31982602052937e-06
1.37045489972464e-05
-2.01399199401845e-06
-4.93352820338516e-07
1.49898833019219e-05
-1.68628069250333e-06
-1.02280467106992e-06
1.66133624305593e-05
-1.37280824240212e-06
-1.57372348955179e-06
1.70407660453984e-05
-9.68377268939977e-07
-2.03346857101205e-06
1.66696440228089e-05
-5.04930189795878e-07
-2.38765376487473e-06
1.26624436263394e-05
-2.50202633992474e-06
-4.00268293222132e-07
1.40075161769413e-05
-2.22700763077399e-06
-8.34006808461576e-07
1.58927503483205e-05
-1.96376921256925e-06
-1.31185754259801e-06
1.69886267409664e-05
-1.57253410777708e-06
-1.76634703767597e-06
1.66694600241707e-05
-1.07430773921883e-06
-2.0925906481095e-06
1.5858484925197e-05
-5.40513890925406e-07
-2.30998889906389e-06
1.7259967462085e-05
1.41343713469163e-07
-1.12732382024568e-06
1.66112698355041e-05
-1.41365864393523e-07
-9.71401730051306e-07
1.73556405460511e-05
-5.14754408460331e-08
-1.92957512398203e-06
1.61971169971628e-05
-6.68910312581969e-07
-8.46833734877966e-07
1.70786023141087e-05
-4.21387491572156e-07
-1.68499997732118e-06
1.7835028852687e-05
-2.11877843006142e-07
-2.48611867353176e-06
1.56751300809107e-05
-1.32098192429906e-06
-7.23684296778015e-07
1.68114117562152e-05
-9.78746492387848e-07
-1.47232772078308e-06
1.78631386056006e-05
-6.78481289939457e-07
-2.17753360723917e-06
1.80726411280849e-05
-3.62036866386288e-07
-2.79251552280516e-06
1.48392065963966e-05
-1.98575394209264e-06
-6.03437953617307e-07
1.61410513531568e-05
-1.62290444747332e-06
-1.24230921998603e-06
1.77950300777877e-05
-1.29680725793778e-06
-1.90013351429402e-06
1.81662831369964e-05
-9.08660075266386e-07
-2.44874408792341e-06
1.76985584347545e-05
-4.78586719794659e-07
-2.8701527617321e-06
1.37165233953781e-05
-2.57631995006566e-06
-4.91750389783796e-07
1.51021031266603e-05
-2.25580493913231e-06
-1.01841380011189e-06
1.70501138492714e-05
-1.96128498464487e-06
-1.59168975708022e-06
1.81357359679073e-05
-1.55693393857057e-06
-2.13227465791803e-06
1.77126118421508e-05
-1.06341728082124e-06
-2.51813208751793e-06
1.67814394360566e-05
-5.38464283429029e-07
-2.77214248071218e-06
1.24627209963931e-05
-3.04609679698078e-06
-3.93191807386535e-07
1.38989654367337e-05
-2.80318811554198e-06
-8.23365148912772e-07
1.58391407614713e-05
-2.58008740371536e-06
-1.29532250476028e-06
1.73195453263835e-05
-2.20845358168613e-06
-1.78041463293955e-06
1.76082392472749e-05
-1.69528272277615e-06
-2.1909027262277e-06
1.6728715466953e-05
-1.12251095016892e-06
-2.4339027097526e-06
1.5617723239601e-05
-5.5301471910339e-07
-2.55889523168213e-06
1.81850596512457e-05
4.3021456987647e-07
-1.35530534347086e-06
1.76810834681382e-05
2.36522692158238e-07
-1.16499133555416e-06
1.83928272770581e-05
1.61176160701177e-07
-2.3256854065626e-06
1.73986796675107e-05
-3.19515511702049e-07
-1.02341170058632e-06
1.8228870725078e-05
-1.45327624830903e-07
-2.02781674173719e-06
1.89445758532244e-05
-4.4143411055983e-08
-2.99497779471087e-06
1.69614842814375e-05
-1.07314928782928e-06
-8.82113660311602e-07
1.80582371449938e-05
-7.35959305787303e-07
-1.77908585172369e-06
1.90703909534084e-05
-4.82913492437104e-07
-2.62121573586725e-06
1.9207557960065e-05
-2.61439056667093e-07
-3.35959587449306e-06
1.6134012824216e-05
-1.87491198462525e-06
-7.40874495622792e-07
1.74243626377183e-05
-1.47328351099159e-06
-1.51245685379126e-06
1.90822461073422e-05
-1.14128245380858e-06
-2.29674124950607e-06
1.93673879971947e-05
-7.91759768018325e-07
-2.94891488803598e-06
1.87792262490986e-05
-4.25297571589268e-07
-3.44788515951465e-06
1.49392100568779e-05
-2.60171766494302e-06
-6.06721361861711e-07
1.63477081454722e-05
-2.22448589948008e-06
-1.24745961409399e-06
1.83402164830556e-05
-1.89429570709712e-06
-1.93492146764559e-06
1.93880267939801e-05
-1.48503764766678e-06
-2.57604554000564e-06
1.88301819208337e-05
-1.01509989145163e-06
-3.0298006319826e-06
1.77552004395972e-05
-5.19642905289281e-07
-3.32427042923806e-06
1.35593003278289e-05
-3.18639808301378e-06
-4.86499834893044e-07
1.50504660879388e-05
-2.88677759246994e-06
-1.01227692490818e-06
1.70595795951477e-05
-2.61835787782244e-06
-1.58177780578473e-06
1.85469906068526e-05
-2.21634938291214e-06
-2.15971722702651e-06
1.87482279189345e-05
-1.69271533060058e-06
-2.64296392293774e-06
1.77181418342498e-05
-1.12224796479979e-06
-2.9237743389615e-06
1.64645577683537e-05
-5.55723117926135e-07
-3.06325257717245e-06
1.21745010941484e-05
-3.60808699154561e-06
-3.85043030115754e-07
1.37013578331227e-05
-3.40788678057333e-06
-8.13635074893146e-07
1.56501163641201e-05
-3.23403686886979e-06
-1.28017955546112e-06
1.71659726347342e-05
-2.88399111555191e-06
-1.76004168630213e-06
1.78471059190586e-05
-2.36089225068666e-06
-2.21186387078783e-06
1.75537311177925e-05
-1.7562247121579e-06
-2.54936129883834e-06
1.64176873969063e-05
-1.14340369455528e-06
-2.69586270737002e-06
1.5174976441395e-05
-5.58811014986867e-07
-2.72400618253173e-06
1.897076802657e-05
8.42154694002989e-07
-1.62786138315996e-06
1.87125821090327e-05
7.95363550807401e-07
-1.39664622877243e-06
1.93612636278269e-05
4.72913422583978e-07
-2.79665361188159e-06
1.86602230623977e-05
2.13871363848698e-07
-1.23889078740567e-06
1.93905383179916e-05
2.69223379121259e-07
-2.43470488715798e-06
2.00436312748874e-05
1.74629551720248e-07
-3.59936936468711e-06
1.83783156433325e-05
-6.57897858300555e-07
-1.07844750691793e-06
1.93895189556451e-05
-3.46818263438678e-07
-2.15320146383959e-06
2.03274225102884e-05
-1.75543726603558e-07
-3.15344697104013e-06
2.03534842940225e-05
-1.02194515079538e-07
-4.03870895748223e-06
1.76146838345595e-05
-1.64022047220573e-06
-9.13598144951639e-07
1.88491007967888e-05
-1.19686101041595e-06
-1.84594845569513e-06
2.04702915678183e-05
-8.70987114738756e-07
-2.77905635943922e-06
2.0628884210321e-05
-5.9372161053502e-07
-3.55042863217259e-06
1.98917408889685e-05
-3.34151624617183e-07
-4.13795823985951e-06
1.63664856558522e-05
-2.54974040859781e-06
-7.52445479342448e-07
1.77687122268356e-05
-2.10153439087555e-06
-1.53362570940365e-06
1.97750261394343e-05
-1.73135654330464e-06
-2.35719056171253e-06
2.07449365361726e-05
-1.33089142221203e-06
-3.11451794042166e-06
2.00130625792359e-05
-9.1283789425923e-07
-3.64425433962085e-06
1.87664184994238e-05
-4.76817742077447e-07
-3.98228464037103e-06
1.48534750453097e-05
-3.29069776132059e-06
-6.05193027924479e-07
1.63853139529955e-05
-2.91628740170035e-06
-1.24976605086489e-06
1.84452167562741e-05
-2.59016585400684e-06
-1.93722459452897e-06
1.99089069364038e-05
-2.15783897684788e-06
-2.6240345136922e-06
1.99838308577545e-05
-1.63712429751263e-06
-3.18962299017125e-06
1.87680114407178e-05
-1.08882687309204e-06
-3.51048588669519e-06
1.73472661432817e-05
-5.43997338150022e-07
-3.66298069764172e-06
1.32965587052836e-05
-3.82927041931163e-06
-4.79183904381168e-07
1.48996929899259e-05
-3.56529401591444e-06
-1.00631667956171e-06
1.69271632103724e-05
-3.33505827918664e-06
-1.57262159114172e-06
1.84518585788774e-05
-2.93743975126338e-06
-2.14657094341966e-06
1.90584548660426e-05
-2.38472199635645e-06
-2.67905733311255e-06
1.86263641813398e-05
-1.76826487983206e-06
-3.06957940946896e-06
1.73215782983066e-05
-1.15274134242192e-06
-3.23064632402509e-06
1.59298584122029e-05
-5.65923187287696e-07
-3.25220990574157e-06
1.18344761459458e-05
-4.17480046884324e-06
-3.76042141406096e-07
1.34338555429334e-05
-4.02948802349248e-06
-8.02319500618797e-07
1.54315464158062e-05
-3.9167953210238e-06
-1.26955384081053e-06
1.69157943392224e-05
-3.59300660397279e-06
-1.74208102544283e-06
1.76117453803292e-05
-3.05936250825132e-06
-2.18793357156727e-06
1.76991391174633e-05
-2.42779293591168e-06
-2.57461160434205e-06
1.71512422128596e-05
-1.7805006748813e-06
-2.82304237091584e-06
1.59366081114721e-05
-1.15382337318036e-06
-2.86908656159129e-06
1.4653093356536e-05
-5.62952517819442e-07
-2.80203930451128e-06
1.95043620673964e-05
1.41742880327657e-06
-1.95102095244841e-06
1.96311894712778e-05
1.59760667724558e-06
-1.6740577296319e-06
2.01769274789496e-05
9.1492046141992e-07
-3.358443900886e-06
1.99348721721503e-05
1.01931148269079e-06
-1.49859562188016e-06
2.0507796012405e-05
8.81963318609433e-07
-2.92295233685828e-06
2.10578172247893e-05
5.12783396810694e-07
-4.32362168004639e-06
1.99429477036647e-05
-2.48917665075635e-08
-1.32586743027362e-06
2.07886261130453e-05
2.44265864065083e-07
-2.61303898225913e-06
2.15867645396641e-05
2.77635114508432e-07
-3.79705147299027e-06
2.14709573966253e-05
1.28842932680248e-07
-4.84568461688501e-06
1.93111363880049e-05
-1.22221500047646e-06
-1.13213369671893e-06
2.04167831669171e-05
-7.35029463396e-07
-2.25791695317572e-06
2.19444519028454e-05
-4.36631764571712e-07
-3.36627248810071e-06
2.1927424958925e-05
-2.82544018830802e-07
-4.27163760110809e-06
2.10033393446183e-05
-1.90621824348374e-07
-4.95968489859576e-06
1.80434854366576e-05
-2.37833359342027e-06
-9.38884857081443e-07
1.93933181842235e-05
-1.84147911008672e-06
-1.89358391775893e-06
2.1364293165587e-05
-1.42793672951181e-06
-2.8782638347373e-06
2.21984817256632e-05
-1.05835415800363e-06
-3.76796778459673e-06
2.12435837842028e-05
-7.34337774434405e-07
-4.38076346847985e-06
1.97928236412178e-05
-4.00348986300857e-07
-4.76401423126712e-06
1.63953932436296e-05
-3.3339111025692e-06
-7.57745933602901e-07
1.7942393670688e-05
-2.86032048173147e-06
-1.55073740780536e-06
2.00216649303313e-05
-2.46078700972861e-06
-2.38064131294552e-06
2.14154344248273e-05
-2.00076021462595e-06
-3.19384676770067e-06
2.13113666816965e-05
-1.50425270212084e-06
-3.85063759091402e-06
1.9866526040014e-05
-1.00774038226404e-06
-4.21184621846216e-06
1.82505780151951e-05
-5.11704459371147e-07
-4.37389136072465e-06
1.46403669103903e-05
-4.03435896642813e-06
-6.0014561235122e-07
1.63125393488096e-05
-3.68310129892605e-06
-1.25122360176672e-06
1.84036208129028e-05
-3.37679805384453e-06
-1.93958977663811e-06
1.99045346808011e-05
-2.92300552155478e-06
-2.62473182990638e-06
2.03923710399517e-05
-2.34629661952133e-06
-3.24877559036778e-06
1.97774274239214e-05
-1.73358067917945e-06
-3.69593162278496e-06
1.82689557361076e-05
-1.13378112662617e-06
-3.86807941326769e-06
1.67050177894091e-05
-5.60996587375976e-07
-3.87714265969384e-06
1.29627921654924e-05
-4.48763892148527e-06
-4.69946326752114e-07
1.46633940312017e-05
-4.27668924397881e-06
-9.97325841979024e-07
1.67591581702418e-05
-4.10104313189846e-06
-1.56794171998938e-06
1.82558152279445e-05
-3.71421045629145e-06
-2.13587008219355e-06
1.88733019660418e-05
-3.13037231030739e-06
-2.66247454535718e-06
1.88310635641567e-05
-2.46828927777452e-06
-3.11095491781197e-06
1.81253083368531e-05
-1.80598614252035e-06
-3.39039992570025e-06
1.67409620209152e-05
-1.17205239951023e-06
-3.42887027967981e-06
1.53114327252997e-05
-5.74351119057107e-07
-3.33619669855708e-06
1.14459658963905e-05
-4.73216499189491e-06
-3.65114608118853e-07
1.31001560938662e-05
-4.65580658802378e-06
-7.86740540600869e-07
1.51655552194855e-05
-4.61857444551259e-06
-1.25620601946516e-06
1.66872369294208e-05
-4.33142594945367e-06
-1.73073498466789e-06
1.73290563101844e-05
-3.78869528128456e-06
-2.16619095771343e-06
1.74126317965196e-05
-3.12712395735055e-06
-2.54578946057143e-06
1.72351039985571e-05
-2.45059954686114e-06
-2.84935075669121e-06
1.66132222145761e-05
-1.79236620118678e-06
-3.00264890347741e-06
1.53885136201179e-05
-1.16143926438293e-06
-2.95042853326204e-06
1.41144776197006e-05
-5.66414019868155e-07
-2.79430585859137e-06
1.96398274299519e-05
2.1979844994877e-06
-2.33344765533607e-06
2.0326975489959e-05
2.72654545414452e-06
-2.00490088197218e-06
2.07224963069224e-05
1.52840282602518e-06
-4.02499062883675e-06
2.11607034563749e-05
2.18900560801714e-06
-1.81722870889457e-06
2.14991095458551e-05
1.75709633465697e-06
-3.5075454940032e-06
2.18968513357288e-05
9.87975933939272e-07
-5.18545249786868e-06
2.16067198587849e-05
9.86086846730831e-07
-1.63054610883958e-06
2.21991201038756e-05
1.13438585535361e-06
-3.1615106582444e-06
2.27880839306377e-05
9.54003732774542e-07
-4.56549078010132e-06
2.24854129047707e-05
4.69739686021484e-07
-5.80781581719271e-06
2.12308703451518e-05
-5.36396953165507e-07
-1.40822723576033e-06
2.21514759224707e-05
-5.68526578562409e-08
-2.75944014983515e-06
2.34971986458886e-05
1.97537203451337e-07
-4.08568649305329e-06
2.32189497837139e-05
1.7624803707098e-07
-5.13598041076699e-06
2.20637420345445e-05
2.82411641491718e-08
-5.93432735433953e-06
2.00262572664965e-05
-2.02505784552714e-06
-1.17992716667709e-06
2.12556652457443e-05
-1.37906113397021e-06
-2.35044711487507e-06
2.31135687038133e-05
-9.21198152694874e-07
-3.52262431957728e-06
2.37262263498293e-05
-6.16482922668178e-07
-4.56007678082947e-06
2.2492921507051e-05
-4.50229724979576e-07
-5.26136632653148e-06
2.07997549640963e-05
-2.77524994128484e-07
-5.68909010710029e-06
1.82513603619622e-05
-3.27815341777773e-06
-9.56145449543987e-07
1.97703511324038e-05
-2.67264688954772e-06
-1.935672639691e-06
2.18176881185066e-05
-2.18033470859326e-06
-2.93720699430213e-06
2.30739481193604e-05
-1.70009162817315e-06
-3.89503801955803e-06
2.271942580938e-05
-1.260842384858e-06
-4.64952110933857e-06
2.09931321929971e-05
-8.59618490352419e-07
-5.0480997582472e-06
1.91505844373815e-05
-4.50755813009519e-07
-5.21326426341553e-06
1.62689451041353e-05
-4.20505323025762e-06
-7.5743445971205e-07
1.79938433669615e-05
-3.73373911901102e-06
-1.56562917167661e-06
2.01204624109777e-05
-3.32485004271672e-06
-2.40351397962043e-06
2.15474217618608e-05
-2.80532917463417e-06
-3.21895685735358e-06
2.18546229147959e-05
-2.21566657420384e-06
-3.94468239201887e-06
2.09995439122709e-05
-1.63104294784048e-06
-4.44945080105549e-06
1.92456033315147e-05
-1.07433149514201e-06
-4.62586640817496e-06
1.7483800957177e-05
-5.39015590104492e-07
-4.61365813725866e-06
1.43297324372674e-05
-4.80976951738574e-06
-5.91528551206427e-07
1.61340591246411e-05
-4.50638504526115e-06
-1.24752561476572e-06
1.8319680958093e-05
-4.24229842735247e-06
-1.94624410870503e-06
1.97967068574783e-05
-3.77536895307197e-06
-2.6281160370972e-06
2.02870809231705e-05
-3.13807699441022e-06
-3.24672770707675e-06
2.00645440762586e-05
-2.45418378063409e-06
-3.76165125854808e-06
1.91574108062679e-05
-1.7918693808295e-06
-4.06994546161718e-06
1.75713209168117e-05
-1.16683657147125e-06
-4.09259805085291e-06
1.59751819904582e-05
-5.76021216222555e-07
-3.96486998143685e-06
1.25580958301462e-05
-5.14223795166619e-06
-4.57529955523144e-07
1.43397780158483e-05
-5.00440614374967e-06
-9.81849869881636e-07
1.65294626386186e-05
-4.9035417767327e-06
-1.55873338380209e-06
1.80789838854948e-05
-4.54138634090702e-06
-2.13251083182194e-06
1.86395530702539e-05
-3.92809536839301e-06
-2.64864165854284e-06
1.85856731712874e-05
-3.2147444558663e-06
-3.08905845874882e-06
1.82575514588616e-05
-2.50643554454414e-06
-3.43295122826838e-06
1.74768296605007e-05
-1.83034786710771e-06
-3.59571113654631e-06
1.6089480183594e-05
-1.18810401706745e-06
-3.5160831943856e-06
1.46779540463998e-05
-5.81806510077923e-07
-3.31786539449035e-06
1.09954209278163e-05
-5.2651004485127e-06
-3.50990915698275e-07
1.26949845248311e-05
-5.27249310606206e-06
-7.64879313130039e-07
1.48240050665403e-05
-5.3266660580412e-06
-1.23427832155941e-06
1.64256476376931e-05
-5.0913780714479e-06
-1.71454000038605e-06
1.71021389979905e-05
-4.54783995342184e-06
-2.15233385350579e-06
1.71142177737676e-05
-3.85457127538634e-06
-2.51853814535769e-06
1.69226872713632e-05
-3.14388176223683e-06
-2.81470870661314e-06
1.66623762511183e-05
-2.45968304690948e-06
-3.02773657801683e-06
1.60268520660165e-05
-1.80076550921482e-06
-3.08572505297293e-06
1.48230683186805e-05
-1.16741075065258e-06
-2.94160657205792e-06
1.3589485219614e-05
-5.69053164400132e-07
-2.70545503772343e-06
1.91743069049192e-05
3.21677764404615e-06
-2.75125450729066e-06
2.06443905064183e-05
4.27695167995003e-06
-2.3963800598164e-06
2.08370293546662e-05
2.35386368327842e-06
-4.80184198882127e-06
2.22317435634047e-05
3.86361051171486e-06
-2.20810342647893e-06
2.22442632998202e-05
2.98146693760258e-06
-4.20311680776466e-06
2.24335933824057e-05
1.64179778088363e-06
-6.2035288232723e-06
2.33471683636491e-05
2.4666609906675e-06
-2.01810231870835e-06
2.35542240935225e-05
2.4213488907967e-06
-3.83658354637763e-06
2.38409827678863e-05
1.91026889005339e-06
-5.48273594279132e-06
2.32987480457567e-05
9.46595770897864e-07
-6.94538232708736e-06
2.34328887549454e-05
5.58547954631239e-07
-1.77447803084315e-06
2.3992743333699e-05
1.08434615715734e-06
-3.42177221999078e-06
2.50420576734846e-05
1.19989637707291e-06
-4.95226101588239e-06
2.44303442023251e-05
8.66002946677541e-07
-6.17314754346347e-06
2.30027621665887e-05
3.37882509536506e-07
-7.08471726318503e-06
2.2380868370297e-05
-1.39594465440561e-06
-1.4950617390233e-06
2.33550372804094e-05
-6.23263521975763e-07
-2.9411866003648e-06
2.50115189852264e-05
-1.43068700989683e-07
-4.31678285298684e-06
2.53308711011369e-05
5.81441321277925e-10
-5.51466352023901e-06
2.37097814089703e-05
-1.2611966336974e-08
-6.31198656748667e-06
2.17360960212314e-05
-9.16668510849446e-08
-6.77900084250775e-06
2.0509762225038e-05
-3.06573213535145e-06
-1.21772580777602e-06
2.19294393419744e-05
-2.28490511539194e-06
-2.43316962520896e-06
2.3864395772926e-05
-1.67732272447755e-06
-3.64102829811688e-06
2.4889715528121e-05
-1.19390844202583e-06
-4.7609640166335e-06
2.41845800087323e-05
-8.61662622972584e-07
-5.61379670285881e-06
2.21151605948049e-05
-6.19096834273191e-07
-6.04182257093514e-06
2.00114965832885e-05
-3.5055066131729e-07
-6.19945064456224e-06
1.82684846652925e-05
-4.31287873462772e-06
-9.64812515075604e-07
2.00146630553508e-05
-3.67569274720464e-06
-1.97391710164112e-06
2.21283060756861e-05
-3.12882683157865e-06
-2.99502232190692e-06
2.34053297553667e-05
-2.53398977527682e-06
-3.96121450660884e-06
2.34462331687014e-05
-1.95136428868358e-06
-4.79612354115304e-06
2.22772949875569e-05
-1.43215639279726e-06
-5.3547333823553e-06
2.02287758542142e-05
-9.58351533699363e-07
-5.52367647695011e-06
1.82415823010729e-05
-4.93470798397842e-07
-5.47757419774832e-06
1.60081747617568e-05
-5.13246243847981e-06
-7.51031608936526e-07
1.79136565792664e-05
-4.69849203838525e-06
-1.57227738380987e-06
2.0170014616045e-05
-4.31045647650336e-06
-2.43035434062524e-06
2.15769492503613e-05
-3.74160046649109e-06
-3.24748319975605e-06
2.18707327786313e-05
-3.04965594429696e-06
-3.96861647011148e-06
2.13999229877114e-05
-2.35947309596289e-06
-4.5516284231313e-06
2.02366411419414e-05
-1.72051713886028e-06
-4.88249455430201e-06
1.84115860875896e-05
-1.12825017981494e-06
-4.8768966114561e-06
1.66269041638885e-05
-5.63976823489965e-07
-4.70140265082744e-06
1.3916368203647e-05
-5.59023155345843e-06
-5.778091259271e-07
1.58394303554595e-05
-5.36352237601253e-06
-1.23404176141303e-06
1.81554348115349e-05
-5.17006842804965e-06
-1.94572615942837e-06
1.97054063550177e-05
-4.70838255928103e-06
-2.6396507569948e-06
2.0133722222371e-05
-4.01193044451011e-06
-3.24842956193814e-06
1.98859042647775e-05
-3.24715824902791e-06
-3.75398186822065e-06
1.93571271100049e-05
-2.51628790124291e-06
-4.13680644171023e-06
1.83777991034808e-05
-1.83574658107298e-06
-4.302004379275e-06
1.67998847576397e-05
-1.19590599261541e-06
-4.18311768009086e-06
1.52334877153618e-05
-5.8956721789746e-07
-3.93083582613325e-06
1.20656813424764e-05
-5.7720563240471e-06
-4.40441242445366e-07
1.39188324580332e-05
-5.72853199443659e-06
-9.57251181082423e-07
1.62013151301108e-05
-5.72526737992235e-06
-1.53743278895528e-06
1.785600124408e-05
-5.40843336543509e-06
-2.1220384743988e-06
1.84616364772731e-05
-4.77612334988226e-06
-2.64397791113059e-06
1.83290815810232e-05
-4.00871971586026e-06
-3.06952836450737e-06
1.7977906663164e-05
-3.24646125527727e-06
-3.40425021855586e-06
1.75652321258594e-05
-2.52978159212261e-06
-3.63637166660635e-06
1.67775661392066e-05
-1.85043272174473e-06
-3.68409574481203e-06
1.54225876462059e-05
-1.2017852283914e-06
-3.49562329243899e-06
1.40633571102024e-05
-5.87952025448292e-07
-3.2037842365935e-06
1.04697105810607e-05
-5.75800216647817e-06
-3.32915280041168e-07
1.22073572743436e-05
-5.86299650389409e-06
-7.35224676750893e-07
1.43899854910865e-05
-6.0248685274339e-06
-1.20078414689752e-06
1.6079102960821e-05
-5.85942210352654e-06
-1.68528230651918e-06
1.68476020781277e-05
-5.32937919635977e-06
-2.13174293020378e-06
1.68870800567094e-05
-4.61011971154076e-06
-2.50032555010724e-06
1.66146983829493e-05
-3.86109660320834e-06
-2.78132046618203e-06
1.63375005538945e-05
-3.14538057258116e-06
-2.98740273528351e-06
1.60551281151628e-05
-2.46466415917262e-06
-3.10832528268636e-06
1.54291801993284e-05
-1.80667092930557e-06
-3.07451896724958e-06
1.42682302444758e-05
-1.17154384064705e-06
-2.84764544239245e-06
1.3092496692754e-05
-5.70494570337832e-07
-2.5424753790354e-06
1.7932571503324e-05
4.45120358038302e-06
-3.20946585632523e-06
2.03747751366169e-05
6.32923745496489e-06
-2.84284224735841e-06
2.03318119461024e-05
3.42635376511371e-06
-5.67238836151344e-06
2.29826337193938e-05
6.21257022604104e-06
-2.68650684883153e-06
2.25698125871821e-05
4.65207252121228e-06
-5.02013609720206e-06
2.25018015836436e-05
2.51611888340922e-06
-7.38616726979963e-06
2.50768477845903e-05
4.64627178463981e-06
-2.5123390212055e-06
2.47344203338673e-05
4.25413368712177e-06
-4.6609645410485e-06
2.46118508173725e-05
3.23796106098664e-06
-6.57014653240576e-06
2.37777749928053e-05
1.59829318357109e-06
-8.28084774527415e-06
2.59051079230426e-05
2.24072049054007e-06
-2.2462771594221e-06
2.59184265171189e-05
2.71476420012709e-06
-4.2371991278787e-06
2.65151727569857e-05
2.61112506004266e-06
-6.01055322475945e-06
2.54659232925439e-05
1.83179615471191e-06
-7.40351414971321e-06
2.37172526195128e-05
7.74565560930317e-07
-8.43443692256548e-06
2.51987272278581e-05
-3.44519967478036e-07
-1.91478941956402e-06
2.57697344014461e-05
5.85696311670878e-07
-3.69052360485643e-06
2.7045283873357e-05
1.07428214961681e-06
-5.32992132266551e-06
2.68946866051183e-05
1.04097944505553e-06
-6.69105156214905e-06
2.48272446174614e-05
6.04410157876102e-07
-7.55713697928646e-06
2.25326559948087e-05
1.77702020468706e-07
-8.05897775182623e-06
2.32893972010567e-05
-2.60734847649131e-06
-1.56822949592102e-06
2.44894700686923e-05
-1.59491971084757e-06
-3.08343462118739e-06
2.61708145989834e-05
-8.49652047210953e-07
-4.54102046388074e-06
2.68158906920303e-05
-4.03025990553245e-07
-5.83934899913057e-06
2.56777567542867e-05
-2.45860440072399e-07
-6.7745905727383e-06
2.31827105893354e-05
-2.53755835834188e-07
-7.21744690426814e-06
2.07804651470743e-05
-1.96798978083811e-07
-7.35116937132627e-06
2.07588617438912e-05
-4.31339946613482e-06
-1.24270797981985e-06
2.24692145518119e-05
-3.44599275226057e-06
-2.51118745673465e-06
2.44890085483389e-05
-2.71476281728116e-06
-3.75643019948646e-06
2.55010825931344e-05
-2.03710498693152e-06
-4.89358245480036e-06
2.51597620248289e-05
-1.49668815488154e-06
-5.83946514289817e-06
2.35836148979331e-05
-1.09910548851722e-06
-6.44010712114414e-06
2.11844451714933e-05
-7.65187023192013e-07
-6.58285486326913e-06
1.89432668750615e-05
-4.16040782193687e-07
-6.48509338779753e-06
1.80999858510443e-05
-5.44116503329632e-06
-9.63523266077371e-07
2.00945660450242e-05
-4.82190391821691e-06
-1.99950914838784e-06
2.23842717546816e-05
-4.26045020326851e-06
-3.05654882202451e-06
2.36428646650165e-05
-3.56227962408394e-06
-4.03264596467514e-06
2.3641032314052e-05
-2.81888366435948e-06
-4.86399191298729e-06
2.28314512726855e-05
-2.14868124495829e-06
-5.51112502656852e-06
2.13439460498466e-05
-1.56856434354834e-06
-5.85182487686335e-06
1.92376159312857e-05
-1.04345348558552e-06
-5.79972335520859e-06
1.7242018478434e-05
-5.33135806441335e-07
-5.55955211353846e-06
1.55991477633338e-05
-6.07869703177265e-06
-7.365436609706e-07
1.76776926563983e-05
-5.72357394254626e-06
-1.56421012338646e-06
2.01151577243971e-05
-5.39626793259475e-06
-2.4461873127201e-06
2.1620569651881e-05
-4.80197584086588e-06
-3.2851401431585e-06
2.18425915287831e-05
-4.00789186280186e-06
-3.99811418891234e-06
2.13234955666942e-05
-3.19594305873734e-06
-4.5697352125667e-06
2.05289083554188e-05
-2.45853516735596e-06
-4.98538952889719e-06
1.93023135654499e-05
-1.79427672764623e-06
-5.14098155852903e-06
1.75024101225212e-05
-1.17697137531622e-06
-4.96642696498748e-06
1.57634038149879e-05
-5.86597116273858e-07
-4.64472086283405e-06
1.33788480585986e-05
-6.34621560589839e-06
-5.57181545423425e-07
1.541132161361e-05
-6.22662766101747e-06
-1.20719187749308e-06
1.78617065274811e-05
-6.13648259127492e-06
-1.92801728482716e-06
1.95507841701819e-05
-5.70807545443442e-06
-2.64081484314704e-06
2.00362641869781e-05
-4.96537738807997e-06
-3.26082916323327e-06
1.96984240096553e-05
-4.11491591219757e-06
-3.75001236291239e-06
1.9131613198142e-05
-3.30295036686618e-06
-4.12102389774591e-06
1.85208084135349e-05
-2.56234952765982e-06
-4.36577795153816e-06
1.75462325692764e-05
-1.87405860356753e-06
-4.3925176650134e-06
1.60166841562091e-05
-1.22141249749621e-06
-4.14536869650295e-06
1.45177838963934e-05
-6.01027344040791e-07
-3.78423476266947e-06
1.14709497079834e-05
-6.35550133817701e-06
-4.17793219727302e-07
1.33860644633827e-05
-6.42610707446238e-06
-9.21571894450637e-07
1.57513305609952e-05
-6.54391951111582e-06
-1.49994296574094e-06
1.75242104195777e-05
-6.29731228895813e-06
-2.09365942483133e-06
1.82439621989471e-05
-5.66463774160017e-06
-2.62988254967147e-06
1.81448291985691e-05
-4.84980771704125e-06
-3.06063696691328e-06
1.77039613352439e-05
-4.02759788399132e-06
-3.37765330033574e-06
1.72657738802453e-05
-3.26173777092542e-06
-3.60056562488064e-06
1.68372817487016e-05
-2.54794993801225e-06
-3.72100635956382e-06
1.60698459030604e-05
-1.8668588390317e-06
-3.65968710064655e-06
1.47719040564261e-05
-1.21262432719816e-06
-3.3746242984709e-06
1.34841459764379e-05
-5.92295975739924e-07
-3.00313661362812e-06
9.86456890742803e-06
-6.19596917689221e-06
-3.10801199003484e-07
1.16288356845537e-05
-6.40977117202373e-06
-6.97024972775508e-07
1.38514539024732e-05
-6.69417471186623e-06