/*--------------------------------*- C++ -*----------------------------------*\
  =========                 |
  \\      /  F ield         | OpenFOAM: The Open Source CFD Toolbox
   \\    /   O peration     | Website:  https://openfoam.org
    \\  /    A nd           | Version:  12
     \\/     M anipulation  |
\*---------------------------------------------------------------------------*/
/*   Windows 32 and 64 bit porting by blueCAPE: http://www.bluecape.com.pt   *\
|  Based on Windows porting (2.0.x v4) by Symscape: http://www.symscape.com   |
\*---------------------------------------------------------------------------*/
FoamFile
{
    format      ascii;
    class       volVectorField;
    location    "0";
    object      U;
}
// * * * * * * * * * * * * * * * * * * * * * * * * * * * * * * * * * * * * * //

dimensions      [0 1 -1 0 0 0 0];

internalField   nonuniform List<vector> 
10052
(
(-6.74296394604487e-05 0.00669645569803194 0.000100407295876617)
(-8.15243747231023e-05 0.0071316925893327 0.000100935000089281)
(-6.47258877872092e-05 0.00669421113564417 0.000308420796957534)
(-0.000205163975967234 0.00667746661163678 0.000102279567612254)
(-9.85855295785666e-05 0.00760714683641666 9.84886559578244e-05)
(-7.85657916124949e-05 0.00713408973887768 0.000310316391514567)
(-0.000247781333632538 0.00710875598479867 0.000102733276657999)
(-0.000199659327818365 0.0066760491174258 0.000313872927941946)
(-0.000348349886248471 0.00663600685440004 0.00010438058710766)
(-0.000119237568107285 0.00812321534918179 9.16225827744609e-05)
(-9.53881885970984e-05 0.00761648951235208 0.000303224611127403)
(-0.000299317399650463 0.00757944339486415 0.000100147034133809)
(-7.6186909252319e-05 0.00713742782066228 0.000538890599873819)
(-0.000241538731311204 0.00711227496142673 0.000315918980726898)
(-0.000420426090515885 0.00705868061676958 0.0001048558308068)
(-0.000343173105475456 0.00663522253324088 0.000319757127595051)
(-0.000494703089610965 0.00656740523077821 0.000106216889537099)
(-0.00014421847393998 0.0086781729239205 7.83389837597209e-05)
(-0.000115858940170263 0.00814270541465888 0.000282748139589619)
(-0.000361624776749866 0.00808977574691988 9.30598358595963e-05)
(-9.28086424647391e-05 0.00763418873760221 0.000529980416199842)
(-0.00029232570791742 0.00759028096484287 0.000308922829859333)
(-0.000507491075071374 0.00751897007636419 0.00010228169215754)
(-7.58910921562918e-05 0.00713783255460795 0.000792682058522576)
(-0.000236483019079756 0.00711634862808664 0.000548359750269227)
(-0.000414671553458919 0.00706302977603207 0.000322204984819993)
(-0.000596368866837581 0.00697589623820184 0.000106973533791098)
(-0.000491824208667246 0.00656597549345092 0.000325024274307822)
(-0.000174378029839935 0.0092669943756851 5.59015148175114e-05)
(-0.000140768256179688 0.00871221330982865 0.000242784645720084)
(-0.000436892297561053 0.00863788005182847 7.94575011834749e-05)
(-0.000113161582197271 0.00818152549648171 0.000499307532085367)
(-0.000353944679985842 0.00811122426582403 0.000288484193193374)
(-0.000612617454955697 0.00801679204672671 9.5213606470154e-05)
(-9.25331309327271e-05 0.00765604189683294 0.000787889345838545)
(-0.00028707289329451 0.00760923817949181 0.000539988090636578)
(-0.000501257517228467 0.00753086075998797 0.000315714987681033)
(-0.000718947366364927 0.00741910391343149 0.000104808060931012)
(-7.69532020291171e-05 0.00712831424098929 0.00107154008471621)
(-0.000235408785347744 0.00711648354624178 0.000804126705628264)
(-0.000410278801354718 0.00706744235529084 0.00055875304598753)
(-0.000593552172399862 0.00697942166045027 0.000328368437445199)
(-0.000766065591594503 0.0068574242432294 0.000108613434334516)
(-0.000210620717650074 0.00987960533811759 2.05791178379759e-05)
(-0.000171109465512194 0.00932159475410033 0.000174911832350961)
(-0.000527615583560061 0.00921863860838324 5.66197640738731e-05)
(-0.000138115863089076 0.00878152504991633 0.000436681414676692)
(-0.000428719880876648 0.00867440993241512 0.000248491368335548)
(-0.000739449575579544 0.0085499527307052 8.1665189099387e-05)
(-0.000113034629390222 0.00823526579458844 0.000754722675504443)
(-0.000348837788668841 0.00815199989966878 0.000509891252462487)
(-0.000606137024401989 0.00803952504766428 0.000295968615738126)
(-0.00086664589970492 0.00789641106567424 9.83454230582326e-05)
(-9.39647278635227e-05 0.0076729858555581 0.00107969518170457)
(-0.000286683357161915 0.00763116959812705 0.000800470271955027)
(-0.000497278410078208 0.00755029226667075 0.000551628456814919)
(-0.000716509666034167 0.00742989946422328 0.000323181097631342)
(-0.000921985459029375 0.00727648364545477 0.000107214058199106)
(-7.7768581893968e-05 0.00709965307155688 0.00137240837874759)
(-0.000236985341903469 0.00710578947099431 0.00108265147547709)
(-0.000410103381571561 0.00706664435987038 0.000817252526004191)
(-0.000591993303777497 0.00698247285511038 0.000568174113155959)
(-0.000766193495301928 0.0068586569434515 0.000333251226038843)
(-0.000917550148257919 0.00670533382406594 0.000109736660822711)
(-0.000254651336201267 0.0104991478470955 -3.29583531131265e-05)
(-0.000208140239375628 0.00996316474751813 6.76639510330462e-05)
(-0.000636235978512985 0.00982137864053854 2.0518495050289e-05)
(-0.000168789784078012 0.00943423072194301 0.000327953970640985)
(-0.000519496347282852 0.00927616735780677 0.000180571883545799)
(-0.000892205666257416 0.00911329074143416 5.90649791039142e-05)
(-0.00013838298230518 0.00888177396309516 0.000679373596002061)
(-0.000424367327095215 0.0087466007338478 0.000447918277835857)
(-0.000733156310411155 0.00858789642643555 0.000256994434536643)
(-0.00104439332642831 0.00840500178154381 8.57017631485958e-05)
(-0.000115095209002907 0.00829220702520967 0.0010560302364523)
(-0.000349793400463489 0.00820629118698498 0.000768710995171285)
(-0.000603306114571629 0.0080808752664534 0.000523241679419159)
(-0.000865106584123434 0.00791763819286368 0.000305369120476218)
(-0.00110929237208672 0.0077249119687308 0.000101902076528277)
(-9.53745225476341e-05 0.00767210262554191 0.00140407175078627)
(-0.00028969949305644 0.00764670753055053 0.00109243109327401)
(-0.000498869033850574 0.00757102489116787 0.000815622954224127)
(-0.000716501523752108 0.00744738886797817 0.000563366544122968)
(-0.000923325958366209 0.00728421057532305 0.000330175372420453)
(-0.0011021084985968 0.00709394774937583 0.000109261414922907)
(-7.7673321287006e-05 0.00704231993037524 0.00169165304466455)
(-0.000238504770916022 0.00707582365844817 0.0013816156553649)
(-0.000412353707809057 0.00705401698590189 0.00109555739980734)
(-0.00059380497137229 0.00697931226651773 0.000828182081794531)
(-0.00076762446556126 0.00685857797637257 0.000575520802754378)
(-0.000919255476317658 0.00670405262847583 0.000336778959257069)
(-0.00104078199296831 0.00652609769136287 0.0001106417845506)
(-0.000307115513019375 0.0110983554574303 -0.000111289645157809)
(-0.000252748653330447 0.0106226254601682 -9.47224350793166e-05)
(-0.000768351242111993 0.0104294939297284 -3.35994879121407e-05)
(-0.00020658439901948 0.010136433968069 0.000153749504459896)
(-0.000630097146689082 0.00990897438058574 7.29862558729911e-05)
(-0.00107580784607539 0.00969434944052508 2.03540891360291e-05)
(-0.000169841312180111 0.00960117113595354 0.000542313101594243)
(-0.000516894278755226 0.00939291763796946 0.000339955582673039)
(-0.000886900687865445 0.0091715440274326 0.000190704444126747)
(-0.00125797316980615 0.00893882645504297 6.44008711935589e-05)
(-0.00014150850502023 0.0089980403674338 0.000984211904408343)
(-0.000427740620432968 0.00884805335785557 0.000695182845606673)
(-0.000732689144080753 0.00866068997975193 0.000463705350687155)
(-0.00104458340539495 0.00844087946738618 0.000269300116280441)
(-0.00133394026110661 0.008199122939325 9.09819288354496e-05)
(-0.000117487006597518 0.00833429286188218 0.00140468448030869)
(-0.000355223280020404 0.00826145082965131 0.00107093408832847)
(-0.000607978780522471 0.00813350503803729 0.000786697094051167)
(-0.000867886072258698 0.00795612696101821 0.000538436755748229)
(-0.00111263695096006 0.0077419862128933 0.000315580283236065)
(-0.00132299954696731 0.00750618893517919 0.000105364139175847)
(-9.58483535877696e-05 0.00763940692572647 0.00175767494323095)
(-0.000292997125908974 0.007643709365877 0.0014150262295829)
(-0.000503859583573027 0.00758376550825321 0.00110789538142879)
(-0.000721389189951541 0.00746463712482286 0.000829753444978457)
(-0.000927425248365559 0.00729724114858143 0.000574079629051477)
(-0.00110549178587773 0.00709819624244787 0.000336295772644516)
(-0.0012472821037575 0.00687965517947112 0.000111112952735851)
(-7.68151004106817e-05 0.00694786796551043 0.00202437621637791)
(-0.000238469529188992 0.00701775978615891 0.0016979142373325)
(-0.000414271832160562 0.0070219645670615 0.00139150129899605)
(-0.000597087960863858 0.00696366075896483 0.00110547584405667)
(-0.00077127001714637 0.00685164168301488 0.000836319921236839)
(-0.000922447381318551 0.00670015637790611 0.000580911462732688)
(-0.00104286517817369 0.0065228780566348 0.000339631122343227)
(-0.00112967117110681 0.00632812655299674 0.000111541233195807)
(-0.000369197293903565 0.0116358847083906 -0.000222606786624909)
(-0.000306692611433143 0.0112751156214792 -0.000333706585748845)
(-0.000925193445118789 0.0110159797154554 -0.000113013277773779)
(-0.000253187468644972 0.0108805966329013 -0.000111464072138349)
(-0.000762495309807097 0.0105583067876706 -8.90123224711146e-05)
(-0.0012956227490591 0.010277334259718 -3.01618415734597e-05)
(-0.000209046475826417 0.0103968686872302 0.000315988477691902)
(-0.000630546709234648 0.0100875560445367 0.000166673262067637)
(-0.00107297782534331 0.0097836103199839 8.23952637170094e-05)
(-0.00151433200836172 0.00948609116550908 3.03303517568851e-05)
(-0.000174743404160822 0.0098045004579271 0.000840761556292194)
(-0.000524329177946854 0.00956197429960028 0.000560556857278958)
(-0.000890763434286724 0.00928896518055368 0.000359262588356333)
(-0.00126105258141461 0.00899472564833987 0.000207367497212289)
(-0.00160275509528937 0.00869221485090091 7.21841869364322e-05)
(-0.000145497774290486 0.00910505325111843 0.00135700590312418)
(-0.000437159401716642 0.00896195200164346 0.00100209623398012)
(-0.00074252095191454 0.00875974129858381 0.000717257042834243)
(-0.00105209541048384 0.00850933911209585 0.000484115863011246)
(-0.00134047324429251 0.00822937239227506 0.000284387344551541)
(-0.00158679587786941 0.00793764003564087 9.65763661269962e-05)
(-0.00011894503890228 0.00834128031370215 0.00179805701275298)
(-0.000361481875784796 0.00830020036446107 0.00141808199007379)
(-0.000617499316811481 0.00818451134285274 0.00109009019697018)
(-0.000877851944472988 0.00800353618080082 0.000805669917087843)
(-0.00112108020119564 0.00777405094232351 0.000554337008563094)
(-0.00132899616572075 0.0075184209781374 0.000325702373458325)
(-0.00149336403008032 0.00725054325257044 0.000108675067750882)
(-9.53639406978137e-05 0.00756216588816571 0.00213462343420682)
(-0.000294583227283974 0.00760931738678574 0.00176540291745249)
(-0.000508813500866878 0.00757736028051699 0.00142750800746647)
(-0.000728719132297478 0.00747266821284305 0.00112147237467469)
(-0.000935284202859332 0.00730879967547545 0.000842200277692284)
(-0.00111204545585418 0.00710567827282048 0.000583510409079444)
(-0.00125117372465465 0.00688106056701324 0.00034190458394619)
(-0.00135041174524404 0.0066440011469152 0.000112937309661447)
(-7.53505812047665e-05 0.00680940931882865 0.00236405012571792)
(-0.000236555483685705 0.00692326931400767 0.00202731675228734)
(-0.000414102611989785 0.00696240174122335 0.0017034212400776)
(-0.000599296080957672 0.00692867842238452 0.00139815899372002)
(-0.000775289039276815 0.00683195984865154 0.00111222271034671)
(-0.000927006222945159 0.00668875571349084 0.000842147470441342)
(-0.00104654084543544 0.00651538847728212 0.000585255623223612)
(-0.00113157409229726 0.00632348335347213 0.000342250241342049)
(-0.00118166206401547 0.00611977310383321 0.0001124110814874)
(-0.000442363945137399 0.0120522756777794 -0.000376837799674282)
(-0.000371607282578428 0.0118820704814647 -0.000674493074670202)
(-0.00111097521678788 0.0115390671663193 -0.000225378741776116)
(-0.000309943609185244 0.0116479330655844 -0.000508107989007934)
(-0.000922214317720009 0.0111988508290267 -0.000328104725145349)
(-0.0015574807857415 0.0108361622013403 -0.000108706750051888)
(-0.000258609005490925 0.0112750976173892 -2.95308879422278e-05)
(-0.000770828529037427 0.0108234573398753 -9.64977511903467e-05)
(-0.00129700110506346 0.0104087607513651 -7.15753328488505e-05)
(-0.00181840030860576 0.0100297296597939 -1.93334357321567e-05)
(-0.000216831106635268 0.0107279145183064 0.000591901542117853)
(-0.000644232956759437 0.0103509755009231 0.000337534843903288)
(-0.00108423206567312 0.00996113449384386 0.000190707102339827)
(-0.00152121681393582 0.00957053654491793 0.000108629909915915)
(-0.00192345524558116 0.0091924940259344 4.25026422521789e-05)
(-0.000181313088675627 0.0100080299042727 0.001235872647334)
(-0.000540307125936885 0.00976205153182343 0.000862862850497012)
(-0.000908927946712322 0.00945472224402032 0.00058867338359698)
(-0.0012763427572158 0.00910519984549007 0.00038759716079741)
(-0.0016141767906959 0.00874071093783357 0.000229766988734912)
(-0.00190088843989303 0.00838061156681735 8.0948281307836e-05)
(-0.00014860388299532 0.00917391547617455 0.00179657227132082)
(-0.000448262561448765 0.00906378742483342 0.00137389436492285)
(-0.000759412331501411 0.00886731850360965 0.00102670791098055)
(-0.00107025433200502 0.00860050760789044 0.000743618466146339)
(-0.00135581103678287 0.0082884953468822 0.000507983499675007)
(-0.001596786545499 0.00796113206674742 0.00030060662672491)
(-0.0017857842423811 0.00763356442968343 0.000102099573844866)
(-0.000119178164051318 0.00829427195327931 0.00222913645401008)
(-0.000365883630242944 0.00830402526065167 0.00180793114667076)
(-0.000627505679396958 0.00821781235684227 0.00143446799074403)
(-0.000891785681646434 0.00804721818051977 0.00110933492229464)
(-0.00113570329191645 0.00781286120998659 0.000824860150645373)
(-0.00134084023846412 0.00754240308180529 0.000570072140514283)
(-0.00150003277861216 0.00725862559862187 0.000335582069434457)
(-0.00161220210772299 0.00697082746482473 0.000111923762823724)
(-9.39994876584187e-05 0.00742996331411061 0.00252636756265266)
(-0.000293755941640613 0.00753130599666926 0.00213848275447612)
(-0.000511308248862353 0.0075400841492518 0.00177301858286453)
(-0.000735123504393211 0.00746135153651783 0.0014376660262385)
(-0.000944383901933435 0.00731042146643867 0.00113290442182037)
(-0.00112150334253389 0.00711040196036399 0.000853076771609424)
(-0.00125845404392555 0.00688315841558951 0.000592167178641519)
(-0.00135407361924633 0.00664318332532762 0.000347259527784424)
(-0.00140881476215149 0.006397166066402 0.000114686635509261)
(-7.32362836851653e-05 0.00662191286198377 0.00270291595314176)
(-0.000232605027792207 0.00678526701934624 0.00236401296599789)
(-0.00041096347785013 0.00686729805434929 0.00202830292701853)
(-0.000598634085926335 0.00686690825809254 0.00170552665072598)
(-0.000777438469183601 0.00679327400104375 0.0014015355331004)
(-0.000931132740751113 0.00666445193460498 0.00111654198540647)
(-0.00105109138872962 0.00649948077174875 0.000846661730584886)
(-0.0011349772565355 0.00631284809217722 0.000589055256312506)
(-0.00118322183085793 0.00611392258916792 0.000344607377205948)
(-0.00119660088519488 0.00590857019605103 0.000113139258019067)
(-0.000526290741908936 0.0122645210351549 -0.000583750840157575)
(-0.000449226046513525 0.01238624135231 -0.00114926400616015)
(-0.00132920184355094 0.0119399362699529 -0.00038042043804693)
(-0.000379842297061481 0.0124062463566262 -0.00107889975294873)
(-0.00111393378397083 0.0117922944426603 -0.000668184854841484)
(-0.00186704343697714 0.0113279645550964 -0.000219051470031938)
(-0.000319847704865195 0.0122272816130017 -0.000567243952213385)
(-0.000939877709894773 0.0115812081681411 -0.000490802837800366)
(-0.0015660183298688 0.0110203233186643 -0.000305340933310338)
(-0.00218026952141639 0.0105429157819615 -9.28313413923658e-05)
(-0.000269939872324204 0.0117795016234536 0.000197609090053849)
(-0.000792200476667663 0.0112219782521091 3.37479464501506e-06)
(-0.00132227171089117 0.010671988841615 -5.79349189883818e-05)
(-0.00183453149583317 0.0101531908441182 -3.70013473717841e-05)
(-0.00230342850299484 0.00968159533345508 -2.80722866540279e-06)
(-0.000227573617310501 0.0110727805923664 0.00100458697668363)
(-0.000671208291632193 0.0106781987183028 0.000620113854256052)
(-0.00111505134724389 0.0102219700000973 0.000374761339829432)
(-0.00154926551179801 0.0097372283587793 0.000231210263779703)
(-0.00194197520834763 0.00926617570917428 0.000142715182219417)
(-0.00227337395006259 0.00882285690912931 5.59221176736075e-05)
(-0.000187143882716771 0.0101715400780364 0.00172902949107431)
(-0.00055924572250455 0.00995759957292094 0.00125785805892885)
(-0.000937764452503502 0.00964472143155736 0.000895717961114469)
(-0.00130752365667259 0.00925918315912311 0.000626389499272803)
(-0.00164024853752449 0.00883753105668238 0.000423700121932693)
(-0.00191687597007581 0.00841967471657518 0.000255161281547194)
(-0.00213197167633139 0.0080203605767418 8.97732124068237e-05)
(-0.000150121046505897 0.0091767781147686 0.00229475592301368)
(-0.000457404409480153 0.00912723064463416 0.00180963756039314)
(-0.000777668947331434 0.00896055318795251 0.00139622962597993)
(-0.0010947874702998 0.00869666029890868 0.00105476340893362)
(-0.00138110896300271 0.00836660289312595 0.00077330461788346)
(-0.00161680095574726 0.00800847847690266 0.000533437660746242)
(-0.0017966463564912 0.00765103504248165 0.000316992383109266)
(-0.00192158347585151 0.00730277611432993 0.000107502515876986)
(-0.000118132698962793 0.00817761894263935 0.00268666162848023)
(-0.000367141311425415 0.0082550816624746 0.00223443856222687)
(-0.000634625115280571 0.00821657295301789 0.00181890633730139)
(-0.000905160469679694 0.00807250884777727 0.00145025339375404)
(-0.00115301894295692 0.00784646979768254 0.00112827360316394)
(-0.00135805184880345 0.00757081154964752 0.000843738768310187)
(-0.00151291106120054 0.00727459857396443 0.00058547221351784)
(-0.00161855363394117 0.00697551372015655 0.000345164533963602)
(-0.00167683975222235 0.00667942573039466 0.000115019227357375)
(-9.16696705137622e-05 0.00723518075659751 0.00292232528863854)
(-0.000290104758071708 0.00739916282149218 0.00252660006423709)
(-0.00050992473103716 0.00746035283781729 0.00214069684509688)
(-0.000738041676378264 0.00741996496807683 0.00177784217213768)
(-0.000951598879057435 0.0072928526744409 0.00144538763967431)
(-0.00113130639590557 0.00710460905335272 0.00114260806207961)
(-0.00126812274678254 0.00688087314414926 0.000862953861594087)
(-0.0013610123828671 0.00664043851030965 0.000600259392962498)
(-0.0014119977421754 0.00639441634807208 0.000352208454696404)
(-0.00142276297408248 0.00614818801926344 0.00011621657008372)
(-7.03667599443615e-05 0.00638265054200629 0.00303221757035195)
(-0.000226351925345094 0.00659852984563872 0.00270053949459775)
(-0.000404237632867125 0.00672958106686293 0.00236082859842279)
(-0.000593866912655477 0.00677067483591513 0.00202533453774176)
(-0.000775920301510935 0.00672865019811874 0.00170410911402574)
(-0.000932764139328669 0.00662152076700159 0.00140241184521327)
(-0.00105470742691737 0.00647038076092729 0.00111934696863018)
(-0.00113890971995165 0.00629267331249543 0.000850309832198529)
(-0.00118601258569556 0.00610051249869417 0.000592249182911978)
(-0.0011977870221642 0.00590160790506729 0.000346516656104179)
(-0.00117587623648357 0.00570114119691849 0.000113652283645648)
(-0.000624415647126879 0.0121628900144914 -0.000857041298537266)
(-0.000541082959173392 0.0127042114410856 -0.00179409475830529)
(-0.00158168979743456 0.0121367479683978 -0.000588217110481808)
(-0.000465538935914868 0.0131053012286856 -0.00188451047786608)
(-0.0013422021512136 0.0122819640877776 -0.00114079799204003)
(-0.00222936018012422 0.0116955182019419 -0.00037043294847922)
(-0.000397396227872108 0.0132334258762733 -0.00134805810548285)
(-0.00114818326724396 0.0123281467106688 -0.00105733275014363)
(-0.00188755986577311 0.0115809576255337 -0.00063547814852578)
(-0.00260593890980364 0.0109848336354381 -0.000195594148933008)
(-0.000340188651254749 0.0129792028928792 -0.000431068288794747)
(-0.000983715846887319 0.0121658126494429 -0.000533069967654)
(-0.00160932329037168 0.0113995302180615 -0.00044438406619164)
(-0.00220985599779603 0.0107163438987318 -0.000255615337497672)
(-0.00275204261773671 0.0101329462128067 -6.68290278044012e-05)
(-0.000287915130915355 0.0123350994962961 0.000609817928687502)
(-0.000839168031652274 0.0117193623434703 0.000241768708049264)
(-0.00136824010269952 0.0110602075683835 5.14610685853001e-05)
(-0.00188080522814922 0.0104011827748346 6.64142876817089e-06)
(-0.00233376009679233 0.00978881434265147 8.72005451927754e-06)
(-0.00271276720189141 0.00924600221514582 1.81653657625554e-05)
(-0.000237905109542875 0.0113796633782105 0.00155917483946425)
(-0.000702649595831796 0.0110104412274744 0.00103419303509497)
(-0.00116370137157368 0.0105305370636003 0.000665811241887253)
(-0.00160096063142015 0.00998216932804448 0.000430049039532852)
(-0.00198445209787783 0.00941412846712615 0.000286298791181624)
(-0.00229821198504885 0.00888310169308336 0.0001817193493019)
(-0.00253981533154585 0.00839823922258429 6.95940455895087e-05)
(-0.000190894282232968 0.010254013291937 0.00231137323817758)
(-0.000576253046983012 0.0101121986694794 0.00174692653125519)
(-0.000969320897581689 0.00982688270983656 0.0012893602980935)
(-0.00134891170358043 0.00943110605719711 0.000937533463249825)
(-0.00168223446271908 0.00897135567462521 0.000672372415579424)
(-0.00194930999375454 0.00849941407560854 0.000463999985935863)
(-0.00214907142156857 0.00805075970767599 0.000281315238665508)
(-0.00228555942270328 0.00763106782820868 9.83837724800663e-05)
(-0.000149776117122995 0.00909012457062968 0.00283670990800788)
(-0.000462403755752563 0.00912629801132848 0.002302334042144)
(-0.000792577532675055 0.00901549200536519 0.00182596957697174)
(-0.00111950677687577 0.00877704955213816 0.00142101123657208)
(-0.00141147560346721 0.00844705129088888 0.00108560287369934)
(-0.00164607390731186 0.0080708151866231 0.000804689304481646)
(-0.00181805886085413 0.00768655133012825 0.000559203288057691)
(-0.00193197301215005 0.00731514918991675 0.000332983275850103)
(-0.00199175913670571 0.00696028983015634 0.000112618120689068)
(-0.000115654708610252 0.00797980378525776 0.00315607443012135)
(-0.000364439710663163 0.00813780831281357 0.00268745305787718)
(-0.000636626595591554 0.00816410474970752 0.00223884976883247)
(-0.000914306227001914 0.00806411318646461 0.00182839396014058)
(-0.0011686331051645 0.00786151439360624 0.00146520774192845)
(-0.00137697887539442 0.00759273167392571 0.00114671550957976)
(-0.00153061691501932 0.00729226141973137 0.000862128236511973)
(-0.00163094722136918 0.00698415911844259 0.000600253956844155)
(-0.0016824978663487 0.00668112194932468 0.000354097448114883)
(-0.00168823390617344 0.00638713973765963 0.000117769966572917)
(-8.82446495027728e-05 0.00697359758071606 0.00331036653378442)
(-0.000283193808549295 0.00720503809600765 0.00291958095815501)
(-0.000503634012806255 0.00732783281247108 0.00252353088219841)
(-0.000735578096445259 0.00733758449503465 0.00213914632239724)
(-0.000954311877446936 0.00724623271055549 0.00177969694650342)
(-0.00113847470530728 0.00707988470819277 0.00145117700896541)
(-0.00127756381913007 0.00686734638455577 0.00115107950491364)
(-0.00136992055535925 0.00663144839461157 0.000871917255284898)
(-0.00141806378404616 0.00638734187063489 0.000607506547658865)
(-0.00142539027461899 0.00614367190193646 0.00035646619423836)
(-0.00139437527349601 0.00590486937226218 0.000117427258291756)
(-6.66849685554268e-05 0.00609171047606873 0.0033425182716552)
(-0.000217572506346908 0.00636026944053479 0.00302805754832135)
(-0.000393404779775309 0.00654398354071829 0.00269360821377398)
(-0.000583985317050215 0.00663311689270681 0.00235260257744619)
(-0.00076921802042877 0.00663085586451281 0.00201812723660793)
(-0.000930043127003016 0.00655358123230991 0.00169984067007162)
(-0.00105537694936666 0.00642299240691997 0.00140150973972525)
(-0.00114155788327059 0.00625890270329982 0.00112096841719739)
(-0.00118899282014559 0.00607642543391674 0.000852997017757981)
(-0.00119983684892011 0.00588574564082386 0.000594633597639972)
(-0.00117670265695454 0.00569319801247852 0.000347856324054726)
(-0.00112190653249734 0.00550327869292415 0.000113928838330109)
(-0.000728702699748632 0.0116213206933815 -0.00118011959694579)
(-0.000649009527908536 0.0127210163947821 -0.00264307281819382)
(-0.00186847962336617 0.0120230291522571 -0.000858284147667916)
(-0.000570398472513702 0.0136629068159195 -0.00299602629649324)
(-0.00161118915878084 0.0125857097358101 -0.00178085599320338)
(-0.00264715482521302 0.0118597215033199 -0.000572238846449514)
(-0.000495368051471545 0.0142621270730406 -0.00247491047361536)
(-0.00140275912303643 0.0130150345715436 -0.00185566709184597)
(-0.00226867187960586 0.0120349939850414 -0.00109201703524802)
(-0.00310127208226696 0.0112999958711512 -0.000335652573259152)
(-0.000429810994398823 0.0143416463935939 -0.00137062030097622)
(-0.00122147514997942 0.0131616151054091 -0.00130254945888546)
(-0.00196113135504189 0.0121087626892603 -0.000989848925389943)
(-0.00265527918266026 0.0112218870027247 -0.000561940120563192)
(-0.00327603555151672 0.010508152705676 -0.000156895312936379)
(-0.000367889752769169 0.0138413177877216 -3.3461852311331e-05)
(-0.00105516037695846 0.0129063877144647 -0.000380655834561891)
(-0.0016959348432794 0.0119641000776771 -0.000459127195308075)
(-0.00228632870819688 0.0110725603586088 -0.00035710960410015)
(-0.00279980783399742 0.0102835473109508 -0.000180446585198778)
(-0.00322784361929071 0.00962436348359034 -3.63666382130002e-05)
(-0.000305785261046444 0.0128593092410645 0.00123203854074556)
(-0.000889919693468295 0.0122567985321383 0.000651422129970933)
(-0.00145385007376231 0.0115341015814185 0.000297589821983858)
(-0.0019649214424592 0.0107607830168918 0.000136806586195449)
(-0.00239913837701684 0.0100076599905624 7.36438167609354e-05)
(-0.00275064713315751 0.00933441638459408 7.0471826212987e-05)
(-0.00301726914858397 0.00874842742458661 3.87495228412669e-05)
(-0.000245496258027937 0.0115872353282584 0.00224807357618982)
(-0.000732654090263692 0.0113029253306272 0.00158453754433516)
(-0.00121634050195505 0.0108429689636143 0.00107989672669284)
(-0.00166905978941032 0.0102605412052834 0.000729295832240835)
(-0.00205261277340417 0.00962581659761107 0.000501386422999602)
(-0.002349207823476 0.0090068302942221 0.000349097211247697)
(-0.00256606242542368 0.00844623656261309 0.000222333187977666)
(-0.00271129003637154 0.00794304059444854 8.29295547598091e-05)
(-0.000191919777744599 0.0102198678056127 0.00296344650643413)
(-0.00058776434742715 0.0101878933842453 0.00232258257051066)
(-0.000997141007980753 0.00996751929247774 0.0017718392643351)
(-0.00139185883268608 0.00959295761942046 0.00132848299485105)
(-0.00173306979832457 0.00911905734705136 0.00098710569889273)
(-0.00199711614774367 0.00860934803517326 0.000723112258745915)
(-0.00218329286060135 0.00811315798232978 0.000505485725908317)
(-0.00230191658694285 0.00765391615040675 0.000306867690969868)
(-0.00235982400787827 0.00723081801697562 0.000106479314448314)
(-0.000147298160056121 0.0088964452775043 0.0034022429754693)
(-0.000461791774750576 0.00903787647910372 0.00283855173103416)
(-0.000800671822784394 0.00900809034030296 0.00231054519087223)
(-0.00113913577315781 0.00881996523224935 0.00184327541700579)
(-0.00144070213656189 0.00851094632593579 0.00144776955551338)
(-0.00167937722743531 0.00813306302920011 0.00111796158611703)
(-0.00184814300344356 0.00773259418778598 0.000836335133169909)
(-0.00195261285569382 0.00733973727263698 0.000584202071608935)
(-0.00200111057976014 0.00696814795453797 0.000347910808215172)
(-0.00199831892794968 0.00661894022455146 0.00011718526390737)
(-0.000111572992174037 0.00769434619485353 0.00362038993242549)
(-0.000357071042127278 0.00794042203251247 0.00315298795025843)
(-0.000631833133330746 0.00804530024987815 0.00268502319360519)
(-0.000916332770892167 0.00800648015559869 0.00224019131414416)
(-0.00117872711847097 0.00784406902895415 0.00183611096877865)
(-0.00139331133782327 0.00759608585063379 0.00147929361183453)
(-0.00154937925184971 0.00730199289739783 0.00116440281139378)
(-0.00164762790546145 0.00699150856582066 0.000879503179818033)
(-0.001693593802056 0.00668317697416731 0.000613787902212821)
(-0.00169305074197219 0.0063861260945072 0.000361946936850673)
(-0.00164953334061811 0.00610309785551801 0.000120038954930006)
(-8.3661921597293e-05 0.00664506536949274 0.00367743131803212)
(-0.00027270193921695 0.00694459386426987 0.00330525858674653)
(-0.000491613125545461 0.0071346758119481 0.00291154892109005)
(-0.000726161896419787 0.00720429106577443 0.00251504161712432)
(-0.000950245149116307 0.00716038287722661 0.00213347593639305)
(-0.00114028761227474 0.007027246004251 0.00177903296524091)
(-0.00128382775745722 0.00683511960135293 0.00145536973642443)
(-0.00137816800367629 0.00661037221746432 0.00115826089665731)
(-0.00142562540959682 0.0063721780113733 0.000879586027721031)
(-0.00143034208832484 0.00613276067105921 0.000613542082889518)
(-0.00139643787958295 0.00589880346800305 0.000359844260227874)
(-0.00132694826408741 0.0056738935467987 0.000118284012922459)
(-6.22117584122575e-05 0.00575226227161566 0.00362438270016866)
(-0.000206201372309211 0.00607059872291524 0.00333695427817032)
(-0.000378126850284038 0.00630770432846424 0.00301776504845228)
(-0.000568190748359867 0.00644913080704564 0.00268008033612405)
(-0.000755995294912583 0.00649344478418624 0.00233886115703504)