/*--------------------------------*- C++ -*----------------------------------*\
  =========                 |
  \\      /  F ield         | OpenFOAM: The Open Source CFD Toolbox
   \\    /   O peration     | Website:  https://openfoam.org
    \\  /    A nd           | Version:  12
     \\/     M anipulation  |
\*---------------------------------------------------------------------------*/
/*   Windows 32 and 64 bit porting by blueCAPE: http://www.bluecape.com.pt   *\
|  Based on Windows porting (2.0.x v4) by Symscape: http://www.symscape.com   |
\*---------------------------------------------------------------------------*/
FoamFile
{
    format      ascii;
    class       volScalarField;
    location    "200";
    object      k;
}
// * * * * * * * * * * * * * * * * * * * * * * * * * * * * * * * * * * * * * //

dimensions      [0 2 -2 0 0 0 0];

internalField   nonuniform List<scalar> 
10252
(
0.000246185802525876
0.000246378947471178
0.000246989066042534
0.000693254251476261
0.000246535946354988
0.000247201282531488
0.000693523648257905
0.000248032276496463
0.000693496871345341
0.00101341831257043
0.000246680718478626
0.000247357250694874
0.000693722802719457
0.000248257034923385
0.00069378291714422
0.00101366090198955
0.000246500375405679
0.00069236591746089
0.00101267441209466
0.00127006196669501
0.000246810697545231
0.000247498024470649
0.000693857416130892
0.000248409531638742
0.000693984758611908
0.00101377985708572
0.000246730006641787
0.000692659630877404
0.00101293734658765
0.00127023936910364
0.000241550605263969
0.000686365361049177
0.00100776196246241
0.00126853624867705
0.00149100543812332
0.000246914738540842
0.000247627462952331
0.000693905711035898
0.000248543455583154
0.000694118263453029
0.00101378303349521
0.000246875050002515
0.000692859089885555
0.00101306030815181
0.00127023836194283
0.000241781653063483
0.000686656308371437
0.00100803367810486
0.0012687386329352
0.00149109823744144
0.000234072800412142
0.000673414926719612
0.000996415394974501
0.00126063747145797
0.00148843783659053
0.00168770290594631
0.000246979658047164
0.00024773402828812
0.00069383722916529
0.000248666133803333
0.000694164779097514
0.00101363813592772
0.000246998762862733
0.000692985289166088
0.00101306223033662
0.00127007242205463
0.000241920154685711
0.000686846910169336
0.0010081555073634
0.00126874277726124
0.00149096057026719
0.000234296594413438
0.000673694662572319
0.000996681461188869
0.00126085180996536
0.00148856039556377
0.00168770020857529
0.000225144894980839
0.000654154324836374
0.000977077098932629
0.00124463673495708
0.00147783612011906
0.00168388776121038
0.00186585374070424
0.000246992713000468
0.000247802794457583
0.000693614085920947
0.000248767291941406
0.00069409435714591
0.00101330027295812
0.000247111748432182
0.000693022135201591
0.00101291423596046
0.00126970270252484
0.000242028748130559
0.0006869599259536
0.00100814989776325
0.00126857556210951
0.00149061085920818
0.000234427575426995
0.000673870774720154
0.000996793862157432
0.0012608565036164
0.00148842955815472
0.00168741875394822
0.000225357101194441
0.000654416104283441
0.000977326918487417
0.00124484547830366
0.00147797428293923
0.00168391963550123
0.00186574944471838
0.000215196389260783
0.000630237719118687
0.000950104698860932
0.00121967090669379
0.00145768140818827
0.0016706769091297
0.00186097842983771
0.00202885231629761
0.000246931291710806
0.000247817206720539
0.00069318932368485
0.000248828060634642
0.000693868835628047
0.00101271316039329
0.000247203120755808
0.000692939928960718
0.0010125722791582
0.00126907307428418
0.000242129005731361
0.000686980844628089
0.00100799056914549
0.00126820227202144
0.00149000523600978
0.000234526824597766
0.000673965641512763
0.00099677389461186
0.0012606821684102
0.00148807939572202
0.00168688058625607
0.000225476662966787
0.000654573643879709
0.000977422222880298
0.00124484152044071
0.0014778462964692
0.00168364703027685
0.00186532163242071
0.000215391918411624
0.000630477649530498
0.00095033129569579
0.00121986171493845
0.00145781535439084
0.00167072835439795
0.00186091327249875
0.00202864334999793
0.000204236525273713
0.000602704921224448
0.000916732039002069
0.00118625612037044
0.00142763488757981
0.00164677880832008
0.00184555158724664
0.00202327243925483
0.00217900349861854
0.000246767848691572
0.00024775771410259
0.000692504043626164
0.000248834225000585
0.000693440900024335
0.0010118073140046
0.000247254636755949
0.000692699911412185
0.00101198015762861
0.00126811273987082
0.000242209213369761
0.00068688011688728
0.00100763434248917
0.00126756793903048
0.00148907849174843
0.000234613007046095
0.000673966322188462
0.000996596162757446
0.00126029729612153
0.00148747087333188
0.0016860374584464
0.000225563889090097
0.000654647892754289
0.000977382130018466
0.00124465310136969
0.00147749041055236
0.00168310982525863
0.00186459541106728
0.00021549622131396
0.000630614678618799
0.000950404103551119
0.00121984031065201
0.00145768056396189
0.0016704613611486
0.00186049639296637
0.00202806927141816
0.00020440335374003
0.000602915656244584
0.000916930532812467
0.00118642176826528
0.00142775105767932
0.00164682831337894
0.00184551003444059
0.00202310672517008
0.00217868875611741
0.000192488318423779
0.000571852943983469
0.000877844901611247
0.00114541274773167
0.0013884881957089
0.00161222496582116
0.00181850740572766
0.00200618038247961
0.00217299274022439
0.00231786641290445
0.000246474032056018
0.000247598397735684
0.000691489360051951
0.000248769162237455
0.000692751943337485
0.00101049867356204
0.000247250169595301
0.000692254928799036
0.00101106837632838
0.00126673487115748
0.000242251671737051
0.000686619166308508
0.00100702526667779
0.00126660208683804
0.00148774789307198
0.000234678096245079
0.000673843561001954
0.000996218011870473
0.00125964824031981
0.00148654018467937
0.00168481648899071
0.0002256391559433
0.000654625978155507
0.000977181237245446
0.0012442496203967
0.00147687138906692
0.0016822651808943
0.00186351805426917
0.000215567484679254
0.000630666724432488
0.000950340137750987
0.00121963162730031
0.00145731216073794
0.00166992050925017
0.0018597724118345
0.00202715753121903
0.000204485402066531
0.000603032816040119
0.000916977386425792
0.00118637701054353
0.00142760004150723
0.0016465570993216
0.00184510158770052
0.00202254535707854
0.00217796985587017
0.000192585824423246
0.000572024848689334
0.000878011456697171
0.00114554876568249
0.00138857919668349
0.0016122581007162
0.00181846666855886
0.00200604202466311
0.00217272477416612
0.00231744571560519
0.000181998114875719
0.000537783849322963
0.000833805820265003
0.00109784460138065
0.00134121880983822
0.00156802017499589
0.00178011661868743
0.0019766381088444
0.00215468063445395
0.00231156763181273
0.00244641990051081
0.000246017429567854
0.000247308389889606
0.000690062411145829
0.000248605747580255
0.000691731588851264
0.00100868541015579
0.000247169719365973
0.000691547641019346
0.00100975257814514
0.0012648352295985
0.000242237152578826
0.000686150234470002
0.0010060939662697
0.00126521795540399
0.00148591222131933
0.000234707952594584
0.000673559197559719
0.000995583861689271
0.00125866509868264
0.00148520505298103
0.00168312460523589
0.000225689112857635
0.000654479295254035
0.00097677719229311
0.00124357825213084
0.00147592711040783
0.00168104175881228
0.00186200957279217
0.000215627378013489
0.000630621438526303
0.000950113651748605
0.00121920473728832
0.0014566759804059
0.00166906730683491
0.00185869476644745
0.00202585094395003
0.000204537732799246
0.000603062768805449
0.000916887465430911
0.00118614409317793
0.00142721288244213
0.0016460061416721
0.00184437603817942
0.00202163681825133
0.00217687578269213
0.000192636277103712
0.000572117200046779
0.000878030056735791
0.00114547726075892
0.00138840584648495
0.00161197291726007
0.00181805684488997
0.00200549161239769
0.00217201999892408
0.00231658392951009
0.000181829181796176
0.000537896285484307
0.000833935875581379
0.0010979479256976
0.00134128049484782
0.0015680294139112
0.00178006162233528
0.00197650337396608
0.0021544433435615
0.00231119677746958
0.00244589362655713
0.00017963492576874
0.00050077358935989
0.000784729355028788
0.00104388960589365
0.00128643323339254
0.0015151518917808
0.00173152728100364
0.00193505422386349
0.00212315223147819
0.00229230907994858
0.00243989148375606
0.0025652363568225
0.000245356034094928
0.000246855517694375
0.000688129753760373
0.000248305996168287
0.000690298154372716
0.00100625382300842
0.000246993566805779
0.000690507011537781
0.00100793227688307
0.00126229043559397
0.000242143873851048
0.000685415993746405
0.00100475635799712
0.00126331119204552
0.0014834506291481
0.000234682706847426
0.000673065341878146
0.000994624599497635
0.00125726142203738
0.00148336445146831
0.00168084835039964
0.000225700922647015
0.000654170504837406
0.000976114954303922
0.00124256977234296
0.00147457614895492
0.00167934721387432
0.00185996813977645
0.000215664825864768
0.000630450274564707
0.00094968258971783
0.0012185072295153
0.00145571102299033
0.00166783239812036
0.00185718534698989
0.0020240633081538
0.000204579941055789
0.000602993981324427
0.000916634608179273
0.00118569156500287
0.00142655499707949
0.00164513822610388
0.00184329177657949
0.00202033089691646
0.00217534567928222
0.000192671081246657
0.000572128466300874
0.00087791345016871
0.00114521823839605
0.00138799602646607
0.00161140574693518
0.00181732377687988
0.00200458326305519
0.00217092998470948
0.00231531133326896
0.000181823697409735
0.00053795426692272
0.000833924880061372
0.00109784795425178
0.00134108167359179
0.0015677241026948
0.00177964058008726
0.00197595431611
0.00215375169417943
0.00231035036545737
0.00244489134883244
0.000179743686371851
0.00050079982211079
0.000784816448347974
0.00104395761942087
0.00128646302439208
0.00151513333420911
0.00173145042925743
0.00193490760306782
0.00212292120128449
0.00229197184921807
0.00243941780215291
0.00256460553057194
0.000155588102327512
0.000461045680885912
0.000730653084158829
0.000983717687216632
0.00122444129643775
0.0014541853451592
0.00167377092814898
0.00188268796071367
0.00207888812186371
0.00225913870334034
0.00241983773543258
0.00255850014223429
0.00267465261175245
0.000244444217514667
0.000246201622123117
0.000685583600830986
0.000247836733937126
0.000688358254128235
0.00100307157073475
0.000246684476846324
0.000689049232381314
0.00100549210678337
0.00125896001688763
0.000241950024738272
0.000684346821460326
0.00100291239726801
0.00126075895253591
0.0014802217335063
0.00023457879027357
0.000672304044913718
0.000993256674839042
0.00125533329066368
0.0014808976108039
0.001677852413153
0.000225660961602771
0.000653652565620677
0.000975126024722672
0.00124113842520748
0.0014727180243121
0.00167706833972397
0.00185726943269449
0.000215660065688274
0.000630116624978117
0.000948992625825229
0.00121747061729075
0.00145433683703295
0.00166612455812532
0.00185514301565549
0.00202168471052226
0.000204601063382573
0.0006027992361397
0.000916177067614823
0.00118496737313446
0.00142556596641542
0.00164388536688829
0.00184177302321185
0.00201854332136049
0.00217328722503155
0.000192700316587444
0.000572038785088536
0.000877634758581483
0.00114473987418868
0.00138731456097232
0.00161051895726117
0.00181622737570524
0.00200327229467791
0.00216940112588446
0.00231356335998068
0.000181856886379582
0.000537943996629239
0.000833782018040251
0.00109756260991886
0.00134064771054628
0.00156713703271398
0.00177889425446828
0.00197504083757114
0.00215266334616801
0.00230908248176522
0.00244344417367499
0.000179793551430436
0.000500818488589957
0.000784775182139002
0.0010438287540054
0.00128623758025837
0.00151480504348772
0.00173101212196015
0.00193435019395118
0.00212223342818203
0.00229114048615716
0.00243843203240821
0.00256346564912235
0.000155714248542198
0.000461104267123599
0.000730693867436003
0.00098374807747224
0.00122443755606462
0.00145413681610824
0.00167366856676554
0.00188252191362296
0.00207864759946676
0.00225881018834635
0.00241940032623248
0.00255792427436475
0.00267391853443443
0.000127414816664133
0.000414423669661957
0.000671537674093944
0.000917447565398671
0.00115544618494341
0.00138541355998015
0.00160741664233502
0.00182064475239683
0.00202324506136349
0.00221257072966507
0.00238524959731175
0.00253774029851032
0.00266772010044147
0.00277489893618909
0.000243227100643444
0.000245300562156136
0.000682304001353483
0.000247163006774369
0.000685804345686025
0.000998989507388836
0.00024620075583385
0.000687080587717766
0.00100230004486524
0.00125468370676259
0.000241628861806497
0.000682858991860712
0.00100044632031613
0.00125742024947641
0.00147606352359789
0.000234370923633302
0.000671207007433469
0.000991380929590408
0.00125275843382832
0.00147766333815971
0.0016739799052005
0.000225545317752498
0.000652867837152806
0.000973727673889654
0.00123918114794984
0.00147023260409249
0.00167407023207105
0.00185376584108777
0.000215599702191794
0.0006295752368504
0.000947976357192389
0.00121601018816433
0.00145245390690473
0.00166383138306335
0.00185244385437389
0.00201858116866
0.000204583128095062
0.000602442011067945
0.000915461397419824
0.00118390390903525
0.00142416630983911
0.00164215756765306
0.00183971990410855
0.00201616498473637
0.00217058316167281
0.00019270935438196
0.000571823055786061
0.000877152629494894
0.00114399059503533
0.00138630151044849
0.00160924534522761
0.00181469350643343
0.00200147701165439
0.00216734334835068
0.00231124192164018
0.000181897318098048
0.000537840567083286
0.000833479502053584
0.00109705982630822
0.00133994310518259
0.00156622996390241
0.00177778217769493
0.001973720044657
0.00215113062450136
0.00230733619894762
0.0024414839380664
0.000179808289334736
0.000500784162379663
0.00078460806843766
0.00104351832407036
0.00128577992031625
0.00151419704186552
0.00173024926392402
0.00193342642243285
0.00212114212262582
0.00228987553638896
0.0024369901983548
0.00256184814365951
0.00015577571377123
0.000461115969348027
0.000730625030145692
0.000983591182761874
0.00122418580881542
0.00145378490262625
0.00167321049403436
0.00188195039259036
0.00207795430270728
0.00225798504146275
0.00241843136115491
0.00255680190705367
0.00267264422822114
0.000127523134469377
0.00041447578782132
0.000671556738865156
0.000917440456577235
0.00115540820207897
0.00138533402512919
0.00160728698901989
0.00182045593780272
0.00202298769634707
0.00221223508980565
0.00238482319192944
0.00253720307554308
0.00266704312823646
0.00277406340364712
9.84020386192587e-05
0.000362204745138201
0.000607028966237755
0.00084519530746579
0.00107962755900876
0.00130905335869014
0.00153275718213475
0.00174953057260559
0.00195741477301254
0.00215404698306552
0.00233665521628765
0.00250189127573919
0.00264631955764027
0.00276778157253556
0.00286617881944925
0.000241634397959269
0.000244093588525475
0.000678156261986082
0.000246238528162765
0.000682515247951542
0.000993842312815355
0.000245508026963456
0.000684494947521608
0.000998207133769658
0.00124928247104547
0.000241139863694681
0.00068085767556341
0.000997226487090291
0.00125313503616171
0.00147079310751305
0.000234035933669251
0.000669693503913925
0.000988882250471373
0.00124939624869948
0.00147349973638985
0.00166905067527838
0.000225325899466164
0.000651748744118269
0.000971822163128027
0.00123657678875216
0.00146697940242216
0.00167019590454775
0.00184928592929584
0.000215467020093369
0.000628770261133217
0.000946552481030039
0.00121402419009148
0.00144994324602656
0.00166081880951229
0.00184894056860596
0.00201459384625031
0.000204504781526555
0.000601878433125494
0.00091442176875879
0.00118241787060029
0.00142225791486373
0.00163984367739507
0.00183700948273664
0.00201306235952405
0.00216709070232241
0.00019267878236208
0.000571445355353003
0.00087641463776925
0.00114290390834841
0.00138487850149747
0.0016074960745119
0.00181262373437604
0.00199908971740631
0.00216464023810325
0.00230822318641977
0.000181917249831103
0.000537612615009624
0.000832976119707927
0.00109628867826625
0.00133890856992144
0.00156493632657539
0.00177623114651153
0.0019719121059365
0.00214906630114148
0.00230501599063823
0.00243890753090309
0.000179791210917609
0.000500663317398038
0.000784285158881387
0.00104299406839551
0.00128505448477386
0.00151327080692243
0.00172912076764844
0.0019320931130513
0.0021196016092706
0.00228812638020486
0.00243503215813439
0.00255968167492786
0.000155796109031479
0.000461062267661054
0.000730437873828395
0.000983258559556742
0.00122370653993709
0.00145315706130185
0.00167243062223625
0.00188101366259336
0.00207685560990615
0.00225671914752746
0.00241699365422292
0.0025551904377925
0.00267086140493425
0.000127581534421275
0.000414477799878403
0.000671468428780137
0.000917258397306832
0.00115513188020723
0.00138495946025318
0.00160680902268038
0.0018198682582099
0.00202228354265167
0.00221140717692763
0.00238386264472083
0.00253609913100347
0.00266578734407306
0.00277265842140176
9.84896438300425e-05
0.000362235540619078
0.000607023959843428
0.000845158194843562
0.00107955622687761
0.00130894290352551
0.00153259969096568
0.00174931762396451
0.00195713762924231
0.00215369716347249
0.00233622400693091
0.00250136719531289
0.00264568339096511
0.0027670050381072
0.00286524407441556
6.98873825780812e-05
0.000305510107793039
0.000536828933618325
0.00076699130395225
0.000997154727905662
0.00122531068765785
0.00145001653205823
0.00166965249404403
0.00188205354520439
0.00208484203626565
0.00227556705949853
0.00245148655715765
0.00260933483268342
0.00274579961894966
0.00285889008680424
0.00294870964183968
0.000239585349967221
0.000242496376298951
0.000672994255990952
0.000245004168370636
0.000678356336700528
0.000987449735461346
0.000244562803770987
0.000681171645105781
0.000993048127919473
0.00124255946123478
0.000240440257882021
0.000678237736597865
0.000993104741519491
0.00124772442433226
0.00146420746743533
0.00023354080693261
0.000667669909060993
0.000985629896293079
0.00124508745407529
0.00146822416596064
0.00166286270478665
0.000224976595484952
0.000650217698932671
0.000969296201955768
0.00123318590284026
0.0014627973624457
0.00166526571902241
0.00184363429608872
0.000215232151136253
0.000627635257096839
0.000944625173372269
0.00121139330103816
0.00144666577512775
0.00165693067300012
0.00184446204633846
0.00200953864226908
0.000204346305232943
0.000601055045356108
0.000912978854256369
0.0011804093632291
0.00141972337448102
0.00163681105393099
0.00183349543522491
0.00200907698739318
0.00216264080326417
0.000192585895937372
0.000570862792897184
0.000875356760333385
0.00114139828696821
0.00138294914989484
0.00160516163097985
0.00180989658656548
0.00199597798476569
0.00216114948975069
0.00230435603015476
0.000181890291774092
0.000537219730649721
0.000832220659511058
0.00109518404770366
0.00133746710730966
0.00156316856272825
0.00177414415021862
0.00196951093977648
0.00214635548181047
0.00230199868364927
0.00243558416837393
0.000179723247479104
0.00050042142466245
0.00078376537382533
0.00104220582850739
0.00128400288036906
0.00151196059076365
0.00172755418487404
0.00193027150955703
0.00211752672610253
0.00228580057957311
0.00243245731399636
0.00255685798160328
0.000155779127692127
0.000460915979785162
0.000730099614043875
0.00098271737568092
0.00122296427728375
0.00145221483100161
0.00167128759764405
0.00187966797847911
0.00207530562509599
0.00225496406948292
0.00241503369095973
0.0025530266333561
0.00266849502794528
0.000127604650350391
0.000414413186074196
0.000671266888705532
0.000916908253441912
0.00115463471388489
0.00138431464991737
0.0016060138873926
0.00181891876014116
0.00202117555289365
0.00221013673087406
0.00238242592379174
0.0025344929574638
0.00266401107805478
0.00277071540639566
9.85490400296926e-05
0.0003622277331432
0.000606919246313737
0.000844956758233596
0.00107925869455264
0.00130854811960673
0.00153210340381631
0.00174871423122464
0.00195642110254462
0.0021528616777314
0.00233526338037026
0.00250027375700838
0.00264444755477302
0.00276561947559633
0.00286371248185497
6.99626177094174e-05
0.000305520923503302
0.000536800481676416
0.000766925975768437
0.000997053534098153
0.00122517069133049
0.00144983182439952
0.00166941534113051
0.0018817557391942
0.00208447556619075
0.00227512436851097
0.00245095994289945
0.00260871382169963
0.00274506584012321
0.00285801594797467
0.00294767812610388
4.32572750479797e-05
0.000244987549797722
0.000461025831898753
0.000682661667075216
0.000908115135982746
0.00113436690471657
0.00135940818110256
0.00158124038474725
0.00179748892688872
0.00200566108271603
0.00220333091234777
0.00238809533639325
0.00255730103722638
0.00270779122304484
0.00283638522841176
0.00294126451864873
0.00302273878083098
0.000237062074789388
0.000240427717591866
0.000666664812444715
0.000243357798266479
0.000673179072302469
0.000979619502291269
0.000243308945437523
0.000676975533709748
0.000986642913545867
0.00123430228544325
0.000239487357184488
0.000674880341294123
0.000987916784144114
0.00124099181456246
0.00145608489722779
0.000232841531411535
0.000665031220745947
0.000981477237096145
0.00123965423357945
0.00146163388761737
0.00165519267129753
0.000224474867329658
0.0006481843552324
0.000966021021618035
0.00122885083603981
0.00145750493131022
0.00165907794386619
0.00183659212680948
0.000214877113510111
0.000626095218883172
0.000942083760105752
0.00120798003876356
0.00144246210794247
0.00165198850552197
0.00183881325747762
0.00200320627304971
0.000204084658043914
0.000599908937104045
0.000911039416146377
0.00117776148139945
0.00141642576178772
0.00163290520030719
0.00182900773256254
0.00200402514921248
0.00215703780397921
0.000192400858738653
0.000570023751379738
0.000873902103019113
0.0011393761765733
0.00138039816127933
0.00160211135243613
0.00180636738043894
0.00199198445005312
0.00215670247110348
0.00229946218391952
0.000181785173761672
0.000536623099894625
0.000831151100051016
0.00109366650511496
0.00133552439938951
0.00156081912953963
0.00177140155439711
0.00196638574668538
0.00214285704943295
0.00229813383757197
0.0024313556594602
0.000179582796824627
0.000500020114097545
0.0007829988010228
0.00104109013789385
0.00128254981151503
0.00151018039829533
0.00172545403385641
0.00192785713870553
0.00211480433910904
0.00228277653967751
0.00242913598650986
0.00255324040312577
0.00015570778638283
0.000460646337013806
0.000729569618340588
0.000981918408020764
0.00122190176068154
0.00145089353497168
0.0016697099167644
0.00187783545190717
0.00207322039701898
0.0022526296121631
0.00241245410895972
0.00255020502790818
0.00266543231954852
0.000127592748498414
0.00041425460461769
0.000670919742303462
0.00091635650982615
0.00115388131086168
0.00138336140692648
0.00160486041575075
0.00181756348895005
0.00201961728076934
0.00220837514057861
0.0023804618483446
0.00253232818488002
0.00266164792677133
0.00276815614471521
9.85803828910159e-05
0.000362157710791743
0.000606707201056135
0.000844595603431824
0.00107874899142787
0.00130789085262361
0.00153129662062914
0.00174775446210854
0.00195530476593036
0.00215158561038714
0.00233382488889428
0.00249867045073544
0.00264267768098606
0.0027636836369824
0.0028616150821553
7.00365511134661e-05
0.000305510374828737
0.000536686192887068
0.0007667108107414
0.000996740009723695
0.001224759585574
0.00144932026584706
0.0016687983957771
0.00188102785526554
0.00208363159033266
0.0022741594450868
0.00244986904377905
0.00260749048442326
0.0027437016418233
0.00285650464361526
0.00294602450624084
4.33358626186208e-05
0.000244992181220604
0.000460980547369361
0.000682572495655153
0.000907987898300928
0.00113420023154158
0.00135919807776443
0.00158098011577589
0.00179717084850317
0.00200527757962863
0.00220287477937175
0.00238755994665792
0.00255667971097828
0.00270707449048497
0.00283555557414225
0.00294029503426827
0.00302161325356343
2.08511788665407e-05
0.000181570330789184
0.000379980022873549
0.000592060204864212
0.000812402874895772
0.00103630614307556
0.00126110460415474
0.00148450433069456
0.0017039548542011
0.00191685068280875
0.00212069276116049
0.00231312100517972
0.00249183243393808
0.00265429050269245
0.00279745932984079
0.00291829469996209
0.00301515288246315
0.0030885459911006
0.000237878486527671
0.000659045494067648
0.000241255220611387
0.000666830672557003
0.000970157978155029
0.00024163618553498
0.000671755640092504
0.00097879951491625
0.00122428524918462
0.000238227258726375
0.000670652033320883
0.000981483381638325
0.0012327248506447
0.00144618679892502
0.000231893641301527
0.000661660394731611
0.000976261883290636
0.001232901238208
0.00145350739569414
0.00164579788205681
0.00022377965914953
0.000645545831764196
0.000961852491138518
0.00122339583824147
0.0014509006758594
0.00165140967249869
0.00182791847976686
0.000214368964664151
0.000624063793150069
0.000938802475936602
0.00120362936691022
0.00143715275416989
0.00164579192238522
0.00183177581581039
0.001995362941727
0.000203737130297776
0.000598372511604666
0.000908496261817202
0.00117433960752972
0.0014122082226218
0.00162794968425937
0.00182335264976957
0.00199769798106732
0.00215005992631165
0.000192102701832903
0.000568876263077122
0.000871961115026491
0.00113672363007869
0.00137709140168195
0.00159819318121193
0.00180186800734856
0.00198692662102602
0.00215110397114415
0.00229333526097234
0.000181552996495306
0.000535778623290834
0.000829693645055754
0.00109164139885214
0.00133296780980931
0.00155775987654443
0.00176786092280795
0.00196238097765396
0.00213840355189153
0.00229324345713212
0.00242603458820956
0.000179344529490658
0.000499417320927157
0.000781925850298501
0.00103957001924741
0.0012806033212435
0.00150782500516129
0.00172270286935473
0.00192472122351761
0.00211129508898161
0.00227890509357823
0.00242491025930909
0.00254866326598175
0.000155563491063473
0.000460220315859293
0.000728799311304277
0.000980800199573138
0.00122044575388861
0.00144910922623485
0.00166760390796381
0.00187541332220696
0.00207048855095328
0.00224959606289384
0.00240912699357742
0.0025465899337885
0.00266153086454532
0.000127528365120786
0.000413972311418155
0.000670386836505747
0.00091555494014324
0.00115281576565024
0.00138203641716062
0.00160327828126963
0.00181572563532514
0.0020175257517674
0.00220603354168957
0.00237787544425006
0.00252950275934015
0.00265858784842067
0.0027648631706488
9.85779552305569e-05
0.000361995347326582
0.000606354983520731
0.000844041234029597
0.00107799181679752
0.00130693330024433
0.00153013863376379
0.00174639457099196
0.00195374199270574
0.00214981981184448
0.00233185721579139
0.00249650336634609
0.00264031454338833
0.00276112807984741
0.0028588701576228
7.00879098130414e-05
0.00030544253744142
0.000536472436946983
0.000766346489117696
0.00099622475363557
0.00122409593436745
0.00144850710862549
0.00166783271262815
0.00187990642605599
0.00208235166930841
0.00227271899242785
0.00244826670553392
0.00260572530846127
0.00274177328050901
0.00285441493846691
0.00294377876941921
4.3439916806772e-05
0.00024499548713857
0.000460866718428569
0.00068235023859021
0.000907664869781385
0.00113377817660277
0.00135867566724082
0.00158035324544997
0.00179643436936474
0.0020044267455578
0.0022019052836448
0.00238646799926394
0.00255546146437677
0.00270572468728241
0.00283406694067567
0.00293866239003414
0.00301984227613475
2.09431331101151e-05
0.000181592330158244
0.000379931997721439
0.000591955178541014
0.000812253817929893
0.00103611677924196
0.00126087212906383
0.00148422318836232
0.0017036180440593
0.00191645100958199
0.00212022332302097
0.00231257542036774
0.00249120502997906
0.00265357561744858
0.00279664848611558
0.00291737122927452
0.00301409054901989
0.00308732921441676
5.67462448861342e-06
0.000116871308098036
0.000294663644164858
0.000495281246907636
0.000709754849254361
0.000930993779475137
0.00115515294208272
0.00137959265890163
0.00160165031172994
0.00181864530872191
0.00202801300325797
0.00222734081540614
0.00241437787876503
0.00258694745909258
0.00274264251967564
0.00287855332796264
0.00299177435814646
0.00308083483491118
0.00314643793738221
0.00023864294138969
0.000659183164453718
0.0009588765497535
0.000239496311434965
0.000665361683405069
0.000969322109857981
0.00121227483785853
0.000236589521658196
0.000665402664275051
0.000973613157186951
0.00122269824806217
0.00143426162119611
0.000230645915820544
0.000657427482244586
0.000969806797849555
0.00122461743165328
0.00144360658762993
0.00163441830658622
0.000222842173136187
0.00064218754998299
0.000956630899689032
0.00121662797620468
0.00144276460523588
0.00164201850623885
0.00181735200556458
0.000213681232773079
0.000621442044436713
0.000934640695060309
0.00119816868122209
0.00143053873803305
0.00163811957133586
0.00182310919947102
0.00198575189882777
0.000203231230867005
0.000596355240499714
0.000905227125474104
0.00116999215597383
0.00140689432608457
0.00162174653954291
0.0018163133356048
0.00198986216712591
0.00214145949386185
0.000192049639015467
0.000567370471554245
0.000869432011032377
0.00113331011505645
0.00137287538028961
0.00159323360846672
0.00179620703134066
0.00198059706295805
0.00214413252585608
0.00228574149883369
0.000181276007433455
0.000534661424027198
0.000827765717175449
0.0010889984389672
0.00132966655110088
0.00155384186600395
0.00176335685922939
0.00195731625394941
0.00213280111192093
0.00228712169734627
0.00241940485278575
0.000178980217041498
0.00049857770411577
0.000780478670564787
0.00103755429227411
0.00127805426323312
0.00150476930394399
0.00171916104923723
0.00192071067132338
0.00210683347311263
0.00227400946438875
0.00241959331003967
0.00254293111558084
0.000155327573294496
0.000459599577591325
0.000727732797655028
0.00097928871245531
0.00121850709011149
0.0014467592635961
0.00166485470384478
0.00187227520204301
0.00206697290739541
0.00224571611931515
0.0024048956687657
0.00254201622419322
0.00265661818451474
0.000127395795789659
0.00041353618338931
0.000669621138574142
0.000914444387972421
0.00115136724247111
0.00138025822443445
0.00160117603727054
0.00181330443363425
0.00201479145472505
0.00220299411071798
0.00237454081091212
0.00252588282189682
0.00265468946194945
0.00276068879289582
9.85244344008974e-05
0.000361710887790226
0.000605823511146555
0.000843246696855673