/*--------------------------------*- C++ -*----------------------------------*\
  =========                 |
  \\      /  F ield         | OpenFOAM: The Open Source CFD Toolbox
   \\    /   O peration     | Website:  https://openfoam.org
    \\  /    A nd           | Version:  12
     \\/     M anipulation  |
\*---------------------------------------------------------------------------*/
/*   Windows 32 and 64 bit porting by blueCAPE: http://www.bluecape.com.pt   *\
|  Based on Windows porting (2.0.x v4) by Symscape: http://www.symscape.com   |
\*---------------------------------------------------------------------------*/
FoamFile
{
    format      ascii;
    class       volScalarField;
    location    "200";
    object      nut;
}
// * * * * * * * * * * * * * * * * * * * * * * * * * * * * * * * * * * * * * //

dimensions      [0 2 -1 0 0 0 0];

internalField   nonuniform List<scalar> 
10252
(
7.75873334333961e-05
7.76260019994305e-05
7.91082211592119e-05
0.000640317890670697
7.76509485773145e-05
7.91533137706446e-05
0.000640528120906096
8.09070075345152e-05
0.000649998001523124
0.00153006383996983
7.76744926079039e-05
7.91770973931493e-05
0.000640684713149059
8.0957154472703e-05
0.000650224767535404
0.00153054741986902
8.19412029560679e-05
0.000662172466667344
0.00154268550746463
0.00251974598923499
7.76974293347833e-05
7.91990240708298e-05
0.000640809788280471
8.09795654409806e-05
0.000650385019624279
0.00153090768514164
8.19946267403382e-05
0.000662415909546117
0.00154318752071704
0.00252049303910552
8.1647965321355e-05
0.000669476564617233
0.00155731467573213
0.00252911367082815
0.00349495289215773
7.77174749187911e-05
7.92217811222646e-05
0.000640898569759888
8.09993511126563e-05
0.000650512056631397
0.00153117339591706
8.20151132710407e-05
0.000662578601039729
0.00154355544160738
0.00252102416709504
8.17037880841231e-05
0.000669729594691517
0.00155783434927849
0.00252987878345901
0.00349589248124273
8.03894424686987e-05
0.00066780713775135
0.00156427859961725
0.00253644787501884
0.00349773324913584
0.00440222474064626
7.7732175291009e-05
7.92426240623768e-05
0.000640935901490467
8.10203242328405e-05
0.0006506038241535
0.00153132664375473
8.20323211306212e-05
0.000662703973113117
0.00154382497138544
0.002521369158958
8.17230638324129e-05
0.0006698905203442
0.00155820726824107
0.00253041663617586
0.00349650459843193
8.04451189724541e-05
0.000668061482685566
0.0015648030986488
0.00253722548310562
0.00349869087840819
0.00440326759226352
7.87307962647452e-05
0.000658596774907095
0.00155726696374163
0.00253346737529921
0.00349315252392247
0.00439787532027045
0.00522195646607351
7.77397698543038e-05
7.92584375982929e-05
0.000640902293236542
8.10403284238165e-05
0.000650644721828357
0.00153133341776726
8.20512714759486e-05
0.000662793799243008
0.00154398080596243
0.00252149312565933
8.1736239461066e-05
0.000670010002306163
0.00155847532676417
0.00253076250900616
0.003496816075291
8.04634137362412e-05
0.00066821596436913
0.00156517164371155
0.00253776355724151
0.00349930829695771
0.00440385781788777
7.87876361302207e-05
0.00065884657154635
0.00155778181805306
0.00253423849411622
0.00349411737385615
0.00439893676092246
0.00522301802719914
7.69116428065891e-05
0.000645215703184094
0.00153697311868028
0.002514321435795
0.00347482386663555
0.00438077584719702
0.00521228191041555
0.00595202497185358
7.77364395991031e-05
7.92663910010559e-05
0.000640773703687564
8.10546810689984e-05
0.000650614207474383
0.00153114789055498
8.20695615375378e-05
0.000662832460675945
0.00154398905511005
0.00252133893147834
8.17524632842978e-05
0.000670093024666242
0.00155862628716528
0.00253088459797961
0.0034967735410269
8.04749224478763e-05
0.000668324495457428
0.00156542926520413
0.00253810163982779
0.0034996178218793
0.00440401695844221
7.88047073606067e-05
0.000658993099321632
0.00155813495988638
0.00253476286891659
0.00349472910402874
0.00439953180232864
0.00522349382654459
7.69665019117185e-05
0.000645464379773413
0.00153746748920313
0.00251506712497079
0.00347577071762462
0.00438184126716068
0.00521336319688505
0.00595303564755139
7.49125255336713e-05
0.000629569496983635
0.00150720667975954
0.00247869226502148
0.00343842287128889
0.00434610717082424
0.00518502539951633
0.00593921215440264
0.00659816916898521
7.77176945005317e-05
7.92633628648678e-05
0.000640518953881805
8.10612026043001e-05
0.000650487346076453
0.00153071119432987
8.20823346360217e-05
0.000662797342975224
0.00154380300145701
0.00252082901922252
8.17686355221624e-05
0.00067012370713128
0.00155862645065268
0.00253072656088275
0.00349629510069524
8.04879329806209e-05
0.000668395887674578
0.00156556565642685
0.00253821048739535
0.00349957009598605
0.00440367343654969
7.88140244095773e-05
0.000659090049479627
0.00155837218019509
0.00253508040562346
0.00349502388780848
0.00439968810970463
0.00522340088135984
7.69860128201897e-05
0.000645608773492699
0.00153779809360808
0.00251556223778618
0.00347635834735755
0.00438242663243641
0.00521384477504722
0.00595332560005824
7.49609439011077e-05
0.000629801727064257
0.0015076744596312
0.00247939772528749
0.00343932872165869
0.00434714566860893
0.00518610944301189
0.0059402439782919
0.00659907698435031
7.26779027556516e-05
0.000611902018211083
0.00147052020578385
0.00242900812746279
0.0033832280765499
0.00429084040189112
0.00513613369563961
0.00590484532093649
0.00658355358292417
0.00716840135995548
7.76791548162545e-05
7.92452797876129e-05
0.000640104211815227
8.10571193035983e-05
0.000650232430518442
0.00152995032769019
8.20865044955347e-05
0.000662662451668795
0.0015433629342346
0.00251986353389793
8.17799251708275e-05
0.000670078578107854
0.00155842802412339
0.00253021063450673
0.0034952697463874
8.05005608016651e-05
0.000668414252095175
0.00156554694040796
0.00253803418992936
0.00349908452207472
0.00440272101944189
7.88253050014269e-05
0.000659147380821905
0.00155848451064882
0.00253516248192601
0.00349495512728638
0.00439933864761599
0.00522264854662689
7.69924933889763e-05
0.000645696319803556
0.00153800886639118
0.0025158455409163
0.00347662187617843
0.00438256373302238
0.00521374883801945
0.00595290621678225
7.49791215329095e-05
0.000629961191221686
0.00150798164825987
0.00247985140965462
0.00343987291556688
0.00434769886999377
0.00518657945408913
0.00594054088556268
0.00659913085896344
7.27029403637651e-05
0.000612101495374656
0.00147094864377061
0.00242966210172455
0.00338407489992359
0.00429182483223465
0.0051371847543802
0.00590587966006894
0.00658448333521515
0.00716916907475805
7.00283850730825e-05
0.000591963837131659
0.00142757075915511
0.00236695877607309
0.00331011848731614
0.0042141373036648
0.00506313921596573
0.00584465764797587
0.00654420549940859
0.007152503385852
0.00767056111080552
7.76157154596292e-05
7.92071794732777e-05
0.000639482886734384
8.10382758042258e-05
0.000649811741352004
0.00152876905926951
8.20785374992069e-05
0.000662397246709567
0.0015425938553779
0.00251831806682583
8.17819558587467e-05
0.000669929426006992
0.0015579699169836
0.00252923628393713
0.00349355449948395
8.05093654257368e-05
0.000668355599958683
0.00156532441154514
0.00253749451138409
0.00349805030271735
0.00440101495061571
7.88347519661357e-05
0.00065915030682541
0.0015584380793474
0.00253495296869783
0.00349444299842753
0.00439837856683586
0.00522110593797176
7.70009032486744e-05
0.000645740974456866
0.00153809106060913
0.00251588806862982
0.00347651491092579
0.00438218877593826
0.00521299069811674
0.00595166806021017
7.49869830050354e-05
0.000630047501866643
0.00150816463427433
0.00248008990343602
0.00344008827722844
0.00434779682669849
0.00518646186214787
0.00594011853724253
0.00659833452528613
7.27120539503585e-05
0.00061226442999004
0.00147123390976514
0.00243006642919096
0.003384559589868
0.00429232286853577
0.00513761720516274
0.00590616408906921
0.00658454488445653
0.007168953802449
6.99476725016158e-05
0.000592013836331763
0.001427944604401
0.00236754858900558
0.00331089137823359
0.00421504643295882
0.00506412609478115
0.00584565492035934
0.00654513765058951
0.00715329328195914
0.00767116365822076
8.18333476580466e-05
0.000570104271329298
0.00137825350196763
0.00229275401190448
0.00321939622555986
0.00411573857124637
0.00496513843494196
0.00575606444122966
0.00647498677426798
0.00710926011745792
0.00765350297669559
0.00811168558978182
7.75206588565047e-05
7.91439244433322e-05
0.000638604309785349
8.09979152700578e-05
0.000649181714605075
0.00152706717270064
8.2056553121749e-05
0.000661963218673091
0.00154140314989727
0.00251603770511703
8.1770944327736e-05
0.000669645405512847
0.00155717649349083
0.00252767775078076
0.00349097204568144
8.05096227618374e-05
0.000668190633957697
0.00156483572714905
0.00253648992209287
0.00349632429120782
0.00439837062605877
7.88394488308467e-05
0.000659076161170094
0.00155818376039903
0.0025343731619646
0.00349337686944463
0.00439666437398329
0.00521859794630784
7.70084166320437e-05
0.000645728673449061
0.00153801135550233
0.00251563335519985
0.0034759576512061
0.00438119807237539
0.00521144183295773
0.00594945849340176
7.49922768403075e-05
0.000630082656010489
0.00150821473400693
0.00248008342892237
0.00343992740572453
0.00434737600189418
0.00518567613193243
0.00593887530195905
0.00659656360521207
7.27189675995606e-05
0.000612370706592078
0.00147139231898658
0.00243025327124591
0.0033847126075406
0.00429236155690294
0.00513745536193245
0.00590571866864125
0.00658374622204921
0.00716775203837562
6.99355925705577e-05
0.000592133989514249
0.00142820120067983
0.00236789678424015
0.0033113037653307
0.00421546980146525
0.00506449461549988
0.00584589820267856
0.0065451861253866
0.00715308641014306
0.00767066068292548
8.18830319554448e-05
0.000569781545051952
0.00137847130017119
0.00229326599945799
0.00322008066778765
0.00411655439582446
0.00496603677701688
0.00575699001300077
0.00647587902588938
0.00711005233560302
0.00765412773753767
0.00811210851917445
7.08876297600932e-05
0.000561988755869868
0.00132238713825108
0.00220557481222989
0.00311021774020288
0.0039947006956664
0.004841272095731
0.0056380909170439
0.00637277873115718
0.00703242930382297
0.00760685321560078
0.00809348337603901
0.00849806492059813
7.73873127834474e-05
7.90496986324369e-05
0.000637408492000472
8.09304785301789e-05
0.000648291439051695
0.00152471900901053
8.20134688945535e-05
0.000661313486033609
0.0015396845520952
0.00251284664495315
8.17439797762374e-05
0.000669189741064051
0.00155595521217405
0.0025253817217605
0.00348730760283295
8.04962964880786e-05
0.00066788648262308
0.00156400479679979
0.00253489406075258
0.00349372860596435
0.00439455862917905
7.88367508885009e-05
0.00065889594364025
0.00155765866178736
0.00253332114639034
0.00349161343781038
0.0043940114630154
0.00521490032075415
7.70097448815071e-05
0.000645637855918835
0.00153772128695375
0.00251500254865761
0.00347483962781245
0.00437944909234828
0.00520892808095415
0.00594607330513549
7.49969200034806e-05
0.000630057816911834
0.00150809960455994
0.00247977545646448
0.00343931019525566
0.00434633309151191
0.0051840955570111
0.00593666063065875
0.00659364380727554
7.27293905353771e-05
0.000612407144475365
0.00147141175652357
0.00243019162622211
0.00338448538156621
0.00429187622493784
0.00513661925805431
0.00590444681422095
0.0065819704363894
0.00716542480184176
6.99434089526321e-05
0.000592241267738158
0.00142834093296445
0.00236802764425551
0.00331138320457423
0.00421543187754616
0.00506426567642537
0.00584540530358089
0.00654436362633768
0.00715188267936475
0.00766904106967018
8.19058051592627e-05
0.000569823804096001
0.00137866789562012
0.00229355020737913
0.00322040923869771
0.00411688680358331
0.00496631893220856
0.00575716322006747
0.00647588406628775
0.00710983213247726
0.00765363391870818
0.00811131100070697
7.09451640365092e-05
0.000562004212834889
0.00132233434399179
0.00220596337294639
0.00311079915703766
0.00399540623482154
0.00484206130993132
0.00563891784888926
0.00637359395580568
0.00703317983876735
0.00760748034101012
0.0080939280276307
0.00849830102754771
5.81291204848647e-05
0.000521696818846632
0.0012608123900455
0.00210346273790832
0.00298062840367498
0.00384906342106553
0.00468977080961431
0.00548968800557548
0.00623650122629856
0.00691817993362879
0.00752329740649014
0.00804369603644471
0.00847874681861788
0.00883539249001967
7.72065972008795e-05
7.89172070574328e-05
0.000635829439020557
8.0830156264298e-05
0.000647079691282272
0.00152157917874943
8.19415333213253e-05
0.000660395207498248
0.00153731286086188
0.00250853508371946
8.16972598475319e-05
0.000668513910726192
0.00155419670038821
0.0025221690103936
0.00348230843129809
8.0465213421824e-05
0.000667406908774365
0.00156273956232202
0.00253255377566797
0.00349004856713316
0.00438930641963999
7.88210334377515e-05
0.000658574511218582
0.00155678610509255
0.00253167048298675
0.00348897491001848
0.00439019139833293
0.00520973692609514
7.70021672868367e-05
0.000645441378536837
0.00153715842571439
0.00251389393843046
0.00347301791208571
0.00437675790010219
0.00520522582658866
0.00594125203953672
7.49963570857053e-05
0.000629951519996601
0.00150777186466072
0.00247908757777131
0.00343812650616014
0.00434452643735607
0.00518154726333517
0.00593327164041134
0.00658934445044491
7.2738577781122e-05
0.000612377440248243
0.00147126172693331
0.00242982520570573
0.00338379763767026
0.00429076357487097
0.00513498309780658
0.00590220012032188
0.00657904625639803
0.00716177770719541
6.99612261377726e-05
0.000592306424594356
0.00142833582316444
0.00236790696273661
0.00331107993041126
0.00421486685536099
0.00506335828511423
0.00584408059264018
0.00654255854357181
0.00714955082428974
0.00766615224659248
8.19126003617381e-05
0.000569910938350261
0.00137877908589189
0.00229362189562736
0.00322040556863963
0.00411675782560179
0.00496600309736706
0.0057565982628321
0.00647501234007716
0.00710860423476128
0.00765201298036421
0.0081092738662744
7.09732084444603e-05
0.000562097642806109
0.001322455499961
0.00220616664048255
0.0031110330017158
0.00399563304199285
0.0048422383246048
0.00563899649715185
0.00637352515794065
0.007032915091947
0.00760697336363393
0.00809314034653839
0.00849721039437736
5.81784887618905e-05
0.000521800036344345
0.00126091080754546
0.00210369544210771
0.00298108469652186
0.00384964224193262
0.00469043190250865
0.00549039384144596
0.00623721073366553
0.00691885017769804
0.00752388203179049
0.00804414319987543
0.00847900426011563
0.00883544086650076
4.50107720988122e-05
0.00046933798003793
0.00117358830805
0.00198229674657254
0.0028272666414286
0.00367578562902025
0.00450779576710308
0.00530866733170189
0.00606511732026683
0.00676528167781836
0.00739827148128628
0.00795406694220466
0.00842605804693866
0.00881502303070528
0.00912885238121379
7.69647828499715e-05
7.87357220709179e-05
0.000633787770980908
8.06895950962036e-05
0.000645476815153347
0.00151748157762624
8.18351887327551e-05
0.000659146640751644
0.00153414171177028
0.00250286045997925
8.16227639677225e-05
0.000667562308732127
0.0015517736845038
0.00251782959582981
0.003475678980366
8.04138266014736e-05
0.000666706873872603
0.00156092928880761
0.00252928824724002
0.00348503080138761
0.00438228856754338
7.87866851413706e-05
0.00065807427095945
0.00155547473885344
0.00252926836510476
0.00348524682045208
0.00438493030667587
0.00520277696684187
7.69824893991327e-05
0.000645104667452861
0.00153624592448811
0.00251218163653367
0.0034703154092988
0.00437289699641277
0.0052000595141458
0.00593467465125479
7.49850741090451e-05
0.000629737751875671
0.00150717062185359
0.00247791908393364
0.00343623438538667
0.00434177334809409
0.00517780895067139
0.0059284486913709
0.00658337195354933
7.27372121298956e-05
0.000612260026578371
0.00147089594453183
0.00242907656902904
0.00338253996481925
0.00428888287807408
0.00513237547251596
0.00589877736118966
0.0065747443712319
0.00715655691659983
6.99805498960053e-05
0.000592304019193609
0.00142815561213866
0.00236747855722644
0.00331031375283479
0.00421367156926036
0.00506164710565183
0.00584177699556596
0.00653960225311671
0.00714590044888298
0.00766178304919565
8.19050104197208e-05
0.000569973611601466
0.00137875652732717
0.00229344010677016
0.00322001808905144
0.00411610081553014
0.00496500733481933
0.00575519877463265
0.00647315342924036
0.00710624295518351
0.00764912039310314
0.00810583322209776
7.09825568591663e-05
0.000562170644419969
0.00132252971211835
0.00220617105028286
0.00311093764761297
0.00399540033448751
0.00484181911373797
0.00563833836084773
0.00637257911475267
0.00703163759065997
0.00760532863402764
0.00809110311045382
0.00849476707198661
5.82051409200994e-05
0.000521894178020381
0.00126102338732592
0.00210380768504812
0.00298121122839814
0.0038497500059681
0.00469048725972172
0.0054903577576194
0.00623704267341312
0.00691851006728414
0.00752333055769967
0.00804334296137002
0.00847792452772631
0.00883406554522785
4.50507608740287e-05
0.000469425393964243
0.00117371186686014
0.00198249351334555
0.00282758303986189
0.00367622096366073
0.0045083110211961
0.00530923188450974
0.00606569764185803
0.00676584210048707
0.00739877442470282
0.00795447168166025
0.00842631843617981
0.00881509236562167
0.0091287168329276
3.1952732396243e-05
0.000408343310990762
0.00106405545966999
0.001832303803041
0.0026447259260328
0.00347049636546523
0.0042914613168964
0.00509162325599804
0.00585628281886593
0.00657277195364447
0.00723036409118363
0.00781935949675677
0.00833093664831796
0.00875969278576075
0.00910752243327705
0.00938314974568632
7.66453621601152e-05
7.84865641998231e-05
0.000631191027561651
8.04977134442457e-05
0.00064340155371896
0.001512235371834
8.16865763962636e-05
0.000657496745402009
0.00153000331202683
0.00249554460209014
8.15122651120639e-05
0.000666272883749086
0.00154853901597979
0.00251212002802557
0.00346707845579877
8.03362408111337e-05
0.000665729714199196
0.00155844490748218
0.00252488649987878
0.003478379761222
0.00437312813650644
7.87297307565826e-05
0.000657353683283779
0.00155361541092048
0.00252593377375696
0.0034801758734508
0.00437790416037726
0.00519363070543723
7.69435394300608e-05
0.000644587750948273
0.0015348931222648
0.00250971406228491
0.00346651872682796
0.00436759304495685
0.0051930989152817
0.00592595849522916
7.49585109337198e-05
0.000629383308732699
0.00150622043830735
0.00247614544067808
0.0034334582608747
0.00433784799116392
0.00517260653081902
0.00592187260180934
0.00657536623035349
7.27255982480666e-05
0.000612030345932402
0.00147025553421853
0.00242784681262117
0.00338057213381669
0.00428605332535815
0.00512857609852534
0.00589392064710057
0.00656877211295124
0.00714943780100858
6.99941133512445e-05
0.000592188648616417
0.00142775361841153
0.00236666618249762
0.00330897648060259
0.00421170653270111
0.0050589624167599
0.00583829528609327
0.00653526736046536
0.00714067820140182
0.00765565537320564
8.18738396897626e-05
0.000569978637942492
0.00137855662449757
0.00229294755367658
0.00321916665556659
0.00411481304990829
0.00496320694180076
0.00575281859999138
0.00647014045981492
0.00710256101627336
0.00764474854095761
0.0081007611064045
7.09749135249327e-05
0.000562182994424148
0.00132247480417303
0.0022059249904135
0.00311045862865903
0.00399464066808516
0.00484072130051932
0.0056368465535816
0.00637064492927976
0.00702922305597251
0.00760240737192826
0.00808765972533843
0.00849079462834994
5.82156741614414e-05
0.000521942808734683
0.00126105850120195
0.0021037366034459
0.00298101496626631
0.00384940221041736
0.00468995048359002
0.00548958922594756
0.00623600122230465
0.00691715852864642
0.00752163726161405
0.00804128308148659
0.00847548198683663
0.00883123319162557
4.50778732750782e-05
0.000469496708427185
0.00117378115925786
0.00198253367438119
0.00282759300122647
0.00367619739859217
0.00450823012834683
0.00530906394318627
0.00606540983653811
0.00676540134542823
0.00739814812478782
0.00795362807326613
0.00842522726509295
0.00881372898900909
0.00912706956242088
3.19870358043266e-05
0.000408395414430966
0.00106412082952713
0.00183242312013544
0.00264492121167055
0.00347077590061395
0.00429181506558745
0.0050920285055628
0.00585671350523729
0.00657319890252791
0.00723075580830046
0.00781968282470674
0.00833115552153064
0.0087597657490923
0.00910740737026435
0.00938283687935214
1.95196483889516e-05
0.000337399068640405
0.000931421848248998
0.00164893110101069
0.00242523408130469
0.00322716428796865
0.00403570132926354
0.00483411122678121
0.00560628374935465
0.00633828602223696
0.00701868998455741
0.00763797630480989
0.00818756037899152
0.00865964952272326
0.00904983288056323
0.00936096210162499
0.0096025211645142
7.62536403437539e-05
7.81534864933479e-05
0.00062792731725934
8.02296462118105e-05
0.00064075580083466
0.00150562002395733
8.14857512801646e-05
0.000655361250390747
0.00152470523912032
0.00248627165004705
8.13585574582679e-05
0.000664573063115149
0.00154432349312674
0.00250476152543425
0.00345611761999391
8.0223445256742e-05
0.000664410971658071
0.00155513854713137
0.00251910493423275
0.00346975467096678
0.00436139100271592
7.86480814050083e-05
0.000656359268064635
0.00155107924626048
0.00252145573984013
0.003473467074487
0.00436873634220516
0.00518184554150969
7.68828245312891e-05
0.000643849338261937
0.00153299344605087
0.00250631184527194
0.00346137591654532
0.00436052362523756
0.00518395515012434
0.00591465390709335
7.4911108697094e-05
0.000628847974160015
0.00150483086644538
0.00247361737334655
0.00342958706353523
0.00433247909683607
0.00516561144558705
0.0059131615855089
0.00656489723910734
7.26959210824023e-05
0.000611653805871488
0.0014692659306547
0.00242601404350989
0.00337772101778948
0.00428205177490297
0.00512331345597961
0.0058873128035352
0.00656077043098066
0.00714002466602613
6.99937498540541e-05
0.000591952241660789
0.00142707205869913
0.00236537357745504
0.00330693037736256
0.00420879355310819
0.00505508670169825
0.00583338025886081
0.0065292632856901
0.00713356120947664
0.00764741923836723
8.18097551608117e-05
0.000569892471699237
0.00137812303137016
0.00229206865530807
0.00321774470854052
0.00411275675573823
0.00496043430191174
0.00574926089299559
0.00646574851182965
0.00709730705384298
0.00763862146359881
0.00809375980765218
7.09423026727328e-05
0.000562104992780732
0.00132224248411784
0.00220536613526987
0.00310951544684319
0.00399325187188039
0.00483882121906877
0.00563437611357017
0.00636755712632164
0.00702548635188049
0.00759800523264889
0.00808258662610317
0.00848505110802889
5.82103063836464e-05
0.000521915914491518
0.001260951205871
0.00210341623362403
0.00298043688972808
0.00384853030274176
0.00468873925003219
0.00548799156402785
0.00623397536430379
0.00691467107324186
0.0075186649520415
0.00803781265595281
0.00847150842267661
0.00882675721900139
4.50922187345597e-05
0.000469516949733219
0.00117375268055121
0.00198238296801865
0.00282728765680129
0.00367572454445824
0.00450756372629644
0.00530817089295622
0.0060642563900684
0.00676395594619791
0.00739638342188443
0.00795152199654683
0.00842276371848266
0.00881089887369154
0.00912387086393231
3.20207680637126e-05
0.00040844354458539
0.00106412771816254
0.0018323786822359
0.00264481515246818
0.00347061229300159
0.00429158610923555
0.00509171437966226
0.00585628922839133
0.00657263775572387
0.00723003046062191
0.00781876674950004
0.00833002307809388
0.00875839243967878
0.0091057733246782
0.00938093400467843
1.95549457391651e-05
0.000337427612524781
0.000931413594267368
0.00164894533879517
0.00242530182030699
0.00322728673248232
0.004035882779315
0.00483434257017683
0.00560654730896838
0.00633855952914038
0.00701894736524897
0.00763818934348775
0.00818769953787589
0.00865968257506271
0.00904972227553712
0.0093606694462678
0.00960203994323351
9.11735461415916e-06
0.000254121387013515
0.000770412173217392
0.00142602891327738
0.00216110098870824
0.00293811697229335
0.00373411352883424
0.00453065891598208
0.0053103691130601
0.00605797654546457
0.0067609255896693
0.00740909899547515
0.00799416160795474
0.00850856979993162
0.00894543352515423
0.00930120088786283
0.00957958038885067
0.00979074661702243
7.77468684690663e-05
0.000623915972794266
7.98813549727201e-05
0.000637428026049323
0.00149739230212716
8.12044413664506e-05
0.000652636335713349
0.00151802640928963
0.00247467983804652
8.11512310159546e-05
0.000662378766396816
0.00153893301045787
0.00249543667556107
0.00344235263605327
8.006717304268e-05
0.000662678284702952
0.00155084071830012
0.00251166465800263
0.00345876587460952
0.00434658259448335
7.85336238937631e-05
0.000655026281159406
0.00154771808854685
0.00251559149847764
0.00346478064664216
0.00435699367540604
0.00516690162196319
7.67960600479525e-05
0.000642842754105941
0.00153042132719357
0.00250176595163314
0.00345459392054355
0.00435131404455673
0.00517217675285566
0.00590023927418484
7.48516500353907e-05
0.000628099015286533
0.00150289873230607
0.00247015846686642
0.00342437190823307
0.00432534714802703
0.00515643713127081
0.00590186710845499
0.0065514613685809
7.26515420096753e-05
0.000611105175315287
0.00146783821139009
0.00242343163054587
0.00337377925955385
0.00427661054707673
0.00511626220946176
0.00587857439990339
0.00655031047384499
0.00712784410502813
6.99793044981614e-05
0.000591575942420532
0.00142603564799985
0.00236348158595652
0.00330400598818302
0.0042047132742409
0.00504975223948405
0.0058267181265132
0.0065212333957252
0.00712415427380631
0.00763664444281473
8.17010223339005e-05
0.000569682612080855
0.00137739924355976
0.00229070918801712
0.00321561777051241
0.00410975712256671
0.00495647548841702
0.00574427409480337
0.00645969028034974
0.00709016064807275
0.0076303893260148
0.00808445326504784
7.08764839146009e-05
0.0005619070130617
0.00132177597795629
0.00220441653493585
0.00310800336655939
0.00399109857579077
0.0048359539350122
0.00563073314460705
0.00636309383956957
0.00702017901468413
0.0075918488583165
0.00807558774060124
0.00847722034996313
5.81809162424869e-05
0.000521785723892428
0.00126065014612169
0.00210278048341211
0.00297939513267475
0.00384703263827333
0.00468673110926798
0.00548542158892813
0.00623080143755994
0.00691086444377965
0.00751421174670056
0.0080327117094815
0.00846576592639386
0.0088203815865037
4.50911643462352e-05
0.000469454754673733
0.00117356830591478
0.00198197750248695
0.00282660225200208
0.00367473208066529
0.00450622968185388
0.00530645688117582
0.00606212707866578
0.00676138171685277
0.00739334319649507
0.00794800428314214
0.008418765580589
0.00880642331978813
0.00911892343159125
3.20442378625082e-05
0.000408436930702628
0.00106402985528815
0.00183214254364875
0.00264439667980777
0.00347000745528474
0.004290781044534
0.00509068579904526
0.00585501104973271
0.00657108374461892
0.00722817678825233
0.00781659395631688
0.00832751681107835
0.00875554354929632
0.00910257817639378
0.00937739402770674
1.96018541674563e-05
0.000337472009730839
0.000931359988521297
0.00164880577081307
0.0024250802426086
0.00322698186856648
0.00403549905429944
0.00483387209360026
0.00560597360245689
0.00633786267003451
0.00701810480193662
0.00763717835703167
0.00818649851662642
0.00865827087708743
0.00904808010075659
0.00935878077918223
0.00959989906669109
9.15744546324156e-06
0.000254099040355787
0.000770347201150745
0.00142594753434444
0.00216104019425516
0.00293808640701132
0.00373412086412397
0.00453070788035465
0.00531045261367659
0.00605808033714951
0.00676102977074696
0.0074091797518725
0.00799419336924123
0.00850852600190074
0.00894528514749518
0.00930091366328444
0.00957911901550615
0.00979010688528891
2.38261813003493e-06
0.0001563936080563
0.000573851320251681
0.00115532763063285
0.0018436348131547
0.00259477654022295
0.00337906464353173
0.00417475496839047
0.00496290776405059
0.00572697468539033
0.00645319731601979
0.00713047212105193
0.00774998210490542
0.00830454108764665
0.00878757185779627
0.00919299399914725
0.00951802581583865
0.00976715291097543
0.0099511665606717
7.94485634444488e-05
0.000633333134804287
0.00148726955409508
8.08373152043635e-05
0.000649210881001387
0.0015097150162828
0.00246036180899425
8.08750686766326e-05
0.000659583882405184
0.00153214436403706
0.002483784164923
0.00342528370830501
7.98574528175928e-05
0.000660448351591567
0.00154535771632571
0.00250224819868622
0.00344497056887929
0.0043281399777697
7.8376098709109e-05
0.00065328192759047
0.00154336374129109
0.00250806376459061
0.00345372844347417
0.00434218196229544
0.00514820502310751
7.66800537225456e-05
0.000641507034061937
0.0015270305277777
0.00249583605290493
0.0034458357606342
0.00433953356332739
0.00515724502000087
0.00588211595960547
7.47604482308962e-05
0.000627089996356514
0.00150030539681996
0.00246556391555326
0.00341752362828706
0.00431608122454823
0.00514463508333929
0.00588746903801888
0.00653447303757985
7.27182976814976e-05
0.00061050436835098
0.001465883281826
0.00241992825824734
0.0033685026128677
0.0042694148216436
0.0051070399829875
0.0058672598787319
0.00653688935006551
0.00711234155991514
7.00405558009337e-05
0.000591323365086204
0.00142457403111
0.00236084759338874
0.00330000067280937
0.00419920313997608
0.00504263863564694
0.00581793367871003
0.00651075174647491
0.00711198563073023
0.00762281934810832
8.15352810083382e-05
0.000569471924384038
0.0013763252407119
0.00228875266888574
0.00321262118920581
0.00410559979749866
0.00495106784163589
0.00573754929841977
0.0064516132424195
0.00708072925227554
0.00761962372614048
0.00807238204355726
7.07688402178159e-05
0.00056155242955703
0.00132101479870383
0.00220298310924385
0.00310579136490979
0.00398800996010939
0.00483190999617647
0.00562567074285912
0.00635697226438534
0.00701298444646385
0.0075835907690341
0.008066288121155
0.00846690355932178
5.81203926051144e-05
0.000521526170183843
0.00126009535927201
0.00210175081016195
0.00297778605546828
0.00384477684222316
0.00468376449713513
0.00548168907924604
0.00622626138993353
0.00690549388857288
0.00750800769900679
0.00802568695473718
0.00845794016311291
0.00881177408176705
4.50666851076291e-05
0.000469281393768379
0.00117317786419505
0.00198124912152744
0.00282545350668107
0.00367311877255417
0.00450410688406899
0.00530378107523311
0.00605886082224248
0.00675749785217032
0.00738882791268825
0.00794285774352506
0.00841299864305471