/*--------------------------------*- C++ -*----------------------------------*\
  =========                 |
  \\      /  F ield         | OpenFOAM: The Open Source CFD Toolbox
   \\    /   O peration     | Website:  https://openfoam.org
    \\  /    A nd           | Version:  12
     \\/     M anipulation  |
\*---------------------------------------------------------------------------*/
/*   Windows 32 and 64 bit porting by blueCAPE: http://www.bluecape.com.pt   *\
|  Based on Windows porting (2.0.x v4) by Symscape: http://www.symscape.com   |
\*---------------------------------------------------------------------------*/
FoamFile
{
    format      ascii;
    class       volScalarField;
    location    "200";
    object      omega;
}
// * * * * * * * * * * * * * * * * * * * * * * * * * * * * * * * * * * * * * //

dimensions      [0 0 -1 0 0 0 0];

internalField   nonuniform List<scalar> 
10252
(
3.17301538320312
3.17392292692061
3.12216685476276
1.08267200023119
3.17492510873219
3.12306927853685
1.08273723763578
3.0656464014029
1.06692154394365
0.662337273842386
3.17582658343011
3.12410101959959
1.08278344789859
3.06652372530079
1.06698937318847
0.662286505357862
3.00825917259036
1.04559756304201
0.656436070213018
0.50404365047947
3.17656194881006
3.125013563921
1.08278217471173
3.06755822022516
1.06703681307546
0.662208353204476
3.00909969897339
1.04565669528078
0.656392909474143
0.503964640804731
2.95843998455147
1.02522686726398
0.647115177276961
0.501573441838094
0.426616748245439
3.177081329506
3.12574975523666
1.0827075356025
3.06846230456183
1.06703366429124
0.662095511976965
3.01011655238042
1.04570097615333
0.656316113334334
0.50385806630585
2.95924655065615
1.02527395207571
0.647073726787272
0.501501748317165
0.426528631942187
2.91173558646439
1.00839731810466
0.636980775175409
0.497009019532327
0.425543553659578
0.383374999091608
3.17731566269099
3.12627239720272
1.08253762591829
3.06918216086994
1.06695465554739
0.661934630381886
3.01099322143322
1.04569357855321
0.656202774999482
0.503723311416845
2.96024333083999
1.02531218058799
0.646997050977321
0.501396789415144
0.426414588711204
2.91250230475345
1.00843212792947
0.636937300322
0.496941173877085
0.425462107770157
0.383283589564385
2.859680146302
0.993254673815632
0.627430698577857
0.491277980167432
0.423066588131571
0.382886652891021
0.357309325121052
3.17717319543614
3.12651626712006
1.08224622261564
3.06967280093471
1.06677935570653
0.661711069060027
3.01167482218258
1.04560745135683
0.65604069172937
0.503551919140304
2.96109473259834
1.02529801583423
0.646882167750742
0.501262191768315
0.426276597657236
2.91346792960399
1.00846254901492
0.636859136927436
0.4968376585039
0.425349649657551
0.383168309179782
2.86031047843559
0.993275418808799
0.627383698513631
0.491210863221374
0.422989305968311
0.382801510233147
0.357216734654638
2.79796896032946
0.976786082558914
0.618166113195747
0.485089491474721
0.419497926840145
0.381365531450019
0.357037179074863
0.340867574630788
3.17651918436531
3.12638438045246
1.08180051661865
3.06987896754323
1.06648275991632
0.6614078017155
3.0121169910569
1.04542244091979
0.655815710485088
0.503332994402335
2.96173345736809
1.02520220229163
0.64671729037674
0.501090517139277
0.426108587967698
2.91428456796177
1.00844072915728
0.636741574191717
0.496702791026028
0.425211972124123
0.383032263993088
2.86120804858796
0.993293624096409
0.627302671491031
0.491107683367945
0.422878641656526
0.382687773591206
0.357102294816848
2.79851510802298
0.976781475922534
0.618114725917453
0.485021533949165
0.419422186566761
0.381284545133817
0.356950629031684
0.340774601414046
2.72633346451408
0.957328657300109
0.608232468255996
0.478581442767428
0.415200497734201
0.378908927827422
0.355938774652636
0.340663439300617
0.330243654385368
3.17518230922154
3.12575325027503
1.081160892163
3.06970803548608
1.06603288166475
0.661004713202977
3.01227587948555
1.04511570354632
0.655511199727896
0.503053848635055
2.96212859396575
1.02500494994832
0.646488670885332
0.500871156379825
0.425901832900867
2.91488423615728
1.00833403468903
0.636572575967217
0.496529859276885
0.425043886115609
0.38287068347362
2.86197654262516
0.99326016721259
0.627181454109446
0.490971843973363
0.422741147980766
0.382552077167947
0.35696961681062
2.79916069711621
0.976775261598781
0.618029185691875
0.484917563290158
0.419312515658778
0.381172692951601
0.356837702930947
0.340661574330541
2.72679802444443
0.957310261842249
0.608175410119214
0.478512082254861
0.415124919199569
0.37882979750847
0.355856361058355
0.340576369011667
0.330150528821556
2.64851228675294
0.934549857598609
0.596962148604628
0.47155574935359
0.410403367521363
0.375736409378125
0.354061539961763
0.339751555449963
0.330063804122519
0.323344954685803
3.17297520343827
3.12445609882732
1.08027622266538
3.06905999589861
1.06539125214832
0.660478092179381
3.0120684406625
1.04465693967678
0.655107333408785
0.502699790729536
2.96223885300725
1.02468455005286
0.646180157883286
0.500591559281376
0.425646087718888
2.91523554504511
1.00812267076856
0.63633864061008
0.496308617637207
0.424836889563887
0.38267618628361
2.86252182518312
0.993140528510089
0.627007346283235
0.490796794788247
0.422572346504952
0.382390471760096
0.356814753593317
2.79985067622344
0.976723430333875
0.617902899338211
0.484780010324525
0.419174765804511
0.381037358719374
0.356705409027907
0.340532415159529
2.7272312329877
0.957253914119146
0.608082590052695
0.478406490777914
0.415015344039816
0.378719214130844
0.355745362436477
0.340464849252016
0.33003889488142
2.64894134211978
0.934526141517117
0.596901503268317
0.471484806413777
0.410327560041547
0.375657945917782
0.353981169746397
0.339668625188291
0.329976501352195
0.323251647637199
2.59891920520206
0.908474159382399
0.584073199116574
0.463820752806701
0.405187552946386
0.372085687296489
0.351583581402254
0.338195704162236
0.329250148799373
0.323183018184251
0.318936237541285
3.16968577962561
3.12229764440787
1.07909441434741
3.06775711986818
1.06451075724184
0.659802344925639
3.01138064708282
1.04400742070499
0.654580967391296
0.50225396317501
2.96198776411286
1.02421271231463
0.645772396053454
0.500237151996922
0.42532962389418
2.91528757373057
1.00778567218014
0.636023979659606
0.496026727559736
0.424580816298523
0.382440101686185
2.8628124935889
0.992913586593214
0.626766764260624
0.490572514554243
0.42236405374819
0.382195787212923
0.356631256847378
2.80032270942485
0.97658575724844
0.617722627795738
0.484602138103986
0.419004669253089
0.380875263977543
0.356550562639394
0.340383724941558
2.72764318022384
0.957170319727883
0.607949188433319
0.478266570713664
0.414876819263482
0.378583960401388
0.355613535238764
0.340336107028228
0.329912915804724
2.64930319854845
0.93442828298238
0.596798409082314
0.471376933156629
0.410217580639228
0.375547918139243
0.353871604732057
0.339559074579275
0.329866382117214
0.323141143512282
2.59950296118826
0.908587354676068
0.584011363613929
0.463748845872161
0.405111597337699
0.372007625266062
0.351504206060297
0.338114959041165
0.329167002831095
0.323095487123183
0.318842581846888
2.19513109153706
0.878389471091401
0.569365036191449
0.455299434860235
0.39958835236841
0.368136086768497
0.348736959440665
0.336176608795942
0.327900628294058
0.322439894176814
0.318794085686694
0.316239618563853
3.16504061903159
3.11907097646043
1.07755263034738
3.06558502574297
1.06333579465136
0.658945356823335
3.01004072690343
1.0431199076618
0.653905681294503
0.501697742059576
2.96124590270771
1.02355065547188
0.645242438604172
0.499791237888336
0.424939131490104
2.91496468119919
1.00729538498853
0.635609592905786
0.495669788035272
0.42426397780049
0.38215250448455
2.86279173680254
0.992556768668467
0.626444055644601
0.490286825551667
0.422106232468799
0.381959383529852
0.356411465093298
2.80053577643652
0.976339289995058
0.617474368001435
0.484373935890391
0.418794234298344
0.380679524314704
0.356366895480795
0.34020966956885
2.72801346585905
0.957007744257588
0.607761340286084
0.478085354377805
0.414704971594895
0.378420965977427
0.355458329768966
0.340187458768501
0.329769529935775
2.64952993155284
0.93428451123151
0.596654908986731
0.471234110430363
0.410077955621354
0.37541239841358
0.353740061732875
0.339430876329974
0.329740836218589
0.323017777522569
2.59987355117202
0.908500907647651
0.583898738962282
0.463638432873699
0.405001101871987
0.371897837377432
0.351395492580971
0.338006966184362
0.329058891973407
0.322986503026344
0.318732824967039
2.19512739183443
0.878933034001878
0.569338257713825
0.455227444032924
0.399512669748098
0.368058621002543
0.348658398437702
0.336097092178082
0.327819774396254
0.322356537059679
0.318706178653046
0.316145367694481
2.19485547554733
0.820382393900902
0.552525854966461
0.446014200816008
0.393683464861815
0.36402861088861
0.345729571701806
0.333922951654136
0.326213761620157
0.321245846312629
0.318112847303241
0.316118539244648
0.31473666496351
3.15871179296139
3.11451689737488
1.07557964701618
3.0623411406706
1.06180370842957
0.657873066976248
3.00785322424895
1.04194039125689
0.65305072095131
0.501009490338837
2.95985129914859
1.02264989952203
0.644563795552122
0.499235003434254
0.424459755802393
2.91415630914537
1.00661424120052
0.635072652508103
0.495221204743754
0.423873110314228
0.381802259278638
2.86238282348703
0.992042175900181
0.626020352625747
0.489925419434463
0.421787248371817
0.381671361998013
0.356146679410719
2.80042566067586
0.975959849939981
0.617142153052454
0.484083253887985
0.418533513141875
0.38044158591462
0.356146790054294
0.340003327704718
2.72812621335753
0.95673638189946
0.607504348416141
0.477852690268947
0.414491826989583
0.378223512159868
0.355273741187311
0.340013257779317
0.329603370845345
2.64955219848447
0.93408248131819
0.596457622885269
0.47104922173082
0.409904137429107
0.375248230110478
0.353584193116389
0.339281961157309
0.329597518987719
0.322878743963096
2.60005751939745
0.908319000943168
0.583741597539867
0.463492312930294
0.404860334102786
0.371761916272793
0.351264007089754
0.33787919485433
0.328933945159259
0.322863585056784
0.318611434138541
2.19512586538689
0.878900609258474
0.569227139206004
0.455114847997246
0.399401903584932
0.367949160557256
0.348550333876837
0.335990160433304
0.327713313959709
0.322249589507377
0.318597944232454
0.316035921800917
2.19485359794313
0.820464075878853
0.552578756466555
0.445949415813872
0.393608681966668
0.363952181741839
0.345652080722885
0.333844536145135
0.326134299404707
0.321164855744999
0.318029126304811
0.316030024684259
0.314641541381834
2.19192748146444
0.794376455233455
0.532622997200802
0.436160597886788
0.387651873517273
0.359935238374593
0.342749509003663
0.331648128372273
0.324419893133624
0.319819772092067
0.317048425502102
0.31549430597728
0.31463613167262
0.31406628956479
3.15034089652476
3.10832797184036
1.07309281307345
3.05780686562324
1.05984526314991
0.656547829610744
3.00459053979866
1.04040819787383
0.651981825159072
0.500165899574443
2.9576128043638
1.02145816400281
0.643706372601512
0.498547180737973
0.423875010705949
2.91269871372435
1.00569382577427
0.634386530867208
0.494662125584244
0.423393345317688
0.381376861207562
2.86148643217957
0.991334808789947
0.625472998958817
0.489471736656626
0.42139385980414
0.381320557620047
0.355827149697792
2.79991732425757
0.975418152269065
0.616706997362239
0.483715788313465
0.418210888533097
0.380151569047147
0.355881553670827
0.339756865257882
2.72790754171254
0.956330752358841
0.607161745670205
0.477556307268327
0.414227430924199
0.377983099270176
0.355052228728373
0.339806620516804
0.329408058418658
2.64934179716632
0.933775508703029
0.596190748007309
0.470811888998849
0.409688066158399
0.375048710362935
0.353398145985832
0.339106938235304
0.329431237277435
0.322719025378026
2.59997327290752
0.908044459338135
0.583531889725367
0.463303602536958
0.404684614489557
0.371596545667933
0.351107323951661
0.337729778597276
0.328790428113919
0.322724637624607
0.318475795879428
2.19512368720656
0.87870600243136
0.569060030331198
0.454965278304919
0.399260246236436
0.367812998969443
0.348418885369077
0.335862663009883
0.327588892687816
0.322127306678771
0.318477007894308
0.315915849668607
2.19485235605674
0.820348519958277
0.552476079661839
0.445837211348068
0.393498175088548
0.363843447921125
0.345544845558777
0.333738528396125
0.326029042204124
0.32105961922507
0.317922943271567
0.315922101628606
0.314531958628404
2.19192930554274
0.794319200751838
0.532596544376074
0.436108971961285
0.38757979718826
0.359860459249772
0.342673558091791
0.331571102251433
0.324341726250796
0.31974027952455
0.316967116423796
0.315409983698745
0.314546737614221
0.313970003937763
2.18618863953803
0.771735424243588
0.517241831802481
0.426371737191802
0.38186265956975
0.356128863542853
0.34002365265092
0.329561161641807
0.322733208551755
0.318397235421562
0.315837992995818
0.314542396225513
0.314063770140028
0.31398461046495
0.313969237288527
3.13954498423377
3.10016320553481
1.07000528100519
3.05167633905192
1.05738150763695
0.654928750021464
3.00003006976863
1.03845624812873
0.650661621485936
0.499141878271485
2.95432122085499
1.01991629344163
0.642636550064432
0.497704466671307
0.423167132471528
2.91039418916251
1.00447967488917
0.633521491051511
0.493971475992437
0.422808239113168
0.380862795672539
2.85994897566576
0.990387822286443
0.624775278475026
0.488906913087075
0.42091119452822
0.380894515473815
0.355442091998492
2.79890948935456
0.974679447934954
0.616146455422126
0.483254941615846
0.417813101985313
0.379798291813119
0.355561424552212
0.339461548380643
2.72727318011528
0.955760443665322
0.606714167261428
0.477181792685188
0.413900146309049
0.377689839133337
0.354785103165779
0.339559716938117
0.329176403462067
2.64897123109406
0.933337684229589
0.595837279331274
0.47050962613552
0.409419701142091
0.374805309496757
0.353174420710781
0.338898994655926
0.329235650221587
0.322532638714265
2.59954015939346
0.907663290452689
0.583253052138029
0.463061713872744
0.404465760617059
0.371394946391157
0.35091959384687
0.337553471731843
0.328623396035632
0.322564805810938
0.318321142120976
2.19511858915923
0.878397362978463
0.568835137558177
0.454772751778704
0.399083001782891
0.367646681833648
0.348261472953365
0.335712664099013
0.327444982177618
0.321988200324031
0.318341460585448
0.315782672156365
2.19485062140813
0.820146466624496
0.552303564249172
0.445685550733102
0.393356176995717
0.363707498534873
0.345413693273045
0.333611348275053
0.325905033504908
0.320937920709256
0.317802657916562
0.315802481183456
0.314412553316737
2.1919289671751
0.794179773092269
0.53247896552024
0.435999166571089
0.387470659309138
0.359753089968476
0.342567612639825
0.331466242920933
0.32423756715216
0.319636331438587
0.316862674906806
0.315304114617972
0.314438673681847
0.313859842583978
2.18619268396909
0.771657318237603
0.517183115364854
0.426310698700507
0.38179470298787
0.356056645251835
0.339949857886928
0.329486008902405
0.32265664146141
0.318319158426332
0.315758242220603
0.314460506670734
0.31397856739017
0.313894049357708
0.313871503175619
2.18721146321429
0.74816973749804
0.504512174379348
0.418593959516596
0.377035184663325
0.353064967838858
0.337884097043868
0.3279214525696
0.32137340415688
0.31719372754286
0.314723716648412
0.313515008252844
0.313210259882392
0.313458438110189
0.313904259665442
0.314255843907349
3.12589494282404
3.0896546277853
1.06622912336189
3.04361649403037
1.05432809849389
0.65297357399053
2.99391668203361
1.03600763025724
0.649049658986659
0.497911141397382
2.94974329999862
1.0179578865366
0.641317223054359
0.496681850553505
0.422317373576133
2.90704176066257
1.0029143882576
0.632444491018587
0.493126108494406
0.422100019764614
0.380245593744496
2.85758116181722
0.989144376105932
0.623897133835384
0.488209910985145
0.420322827247016
0.380379665250349
0.354979859110624
2.79727385470605
0.973700254423863
0.615433843353492
0.482681799987714
0.417325244468397
0.379369290120411
0.355175604475927
0.339107782122825
2.7261254617722
0.954990443846324
0.606138936265099
0.476712451472903
0.413496616708348
0.377332506179362
0.354462575937434
0.339263797532446
0.32890043345128
2.64811703962149
0.932736091749664
0.595377293239474
0.470127802559307
0.409087306867632
0.374508086841342
0.352904305560737
0.338650298209831
0.329003572142453
0.32231289988
2.59865127316251
0.907176677406558
0.582888145951231
0.462753917642866
0.404193597370658
0.371148500160513
0.350693285314996
0.337343495535045
0.328426575903336
0.322378157749408
0.318141824526001
2.19512420768482
0.87796522773006
0.568540573450134
0.454526675429747
0.398861885000195
0.367443325474373
0.348072164858644
0.335534916668488
0.32727677849564
0.321827658268037
0.318186700447266
0.315631821259587
2.19484772795677
0.819868235710837
0.552070717521473
0.445489932772697
0.393178120427531
0.363540791692218
0.34525590173199
0.333460909501748
0.325760680140529
0.320798479650883
0.317666966897511
0.315669392637468
0.314280953049486
2.19192944492102
0.793981982583177
0.532304320589195
0.435847459201891
0.387329391818203
0.359618084639505
0.342437280097517
0.331339684132231
0.324114040527189
0.319515119065307
0.316742996362005
0.315185142940552
0.314319714464887
0.313740487457976
2.18619541849984
0.771523477463056
0.517063373804255
0.426200457098079
0.381688133364496
0.355951538431491
0.339845873036241
0.329382778195573
0.322553818335426
0.318216402517822
0.315655126253265
0.314356383524186
0.313872548664578
0.313785399919275
0.313760343587805
2.18721791345087
0.74810076878311
0.504454444252313
0.418531051775723
0.376969086904636
0.352996196358792
0.337813210085527
0.327848781542906
0.321298922597369
0.317117372697957
0.314645443550904
0.313434700337909
0.313127490533311
0.313372060252599
0.313812244449072
0.314156386176822
2.21608884473882
0.726106182761357
0.494969956701624
0.414002541802254
0.374444323945099
0.351505781390075
0.336845586477191
0.327100538354827
0.320620397976758
0.316435874884703
0.313923384163649
0.312660741679623
0.312339808056643
0.312690625173628
0.313418520081581
0.314205365508119
0.314785953505775
3.10886239293893
3.07635306343409
1.06169104945848
3.03326525489096
1.05060160427042
0.650641919411024
2.9859078626026
1.03298071606479
0.647104035738155
0.496447073842432
2.94360377895504
1.01550962377358
0.639708447447052
0.495453080846614
0.421306522904263
2.90241251377778
1.00093353227796
0.631118840766046
0.492101070000488
0.42124992289732
0.379510268688777
2.85416838299838
0.987545063763113
0.622805716695025
0.487357686523471
0.41961098235701
0.379761517727288
0.354428188199991
2.79486497563135
0.972425040574412
0.614538674338528
0.481975154465462
0.416730844242465
0.378850947157056
0.354712416335916
0.33868528987762
2.72435773002825
0.953980869391166
0.605409841371994
0.476129208215439
0.413001838281855
0.376898575575281
0.354073811363618
0.338909248501453
0.328571449851439
2.6466527402626
0.931938534360241
0.594788244106159
0.469649456325851
0.408677375665181
0.374145721877087
0.352577954864476
0.338352065964115
0.328727013662801
0.32205241458911
2.5971629487021
0.906531071474733
0.582417051041323
0.46236523293359
0.403856219209145
0.370847158418348
0.350419618678747
0.337091987737037
0.328192776990531
0.322158003567558
0.317931524828932
2.19512693164311
0.877393787299286
0.568163206912178
0.454214203175306
0.398586565339038
0.367194193089171
0.347843339683266
0.335322604868091
0.327078038256487
0.321639816674051
0.318007116609417
0.315457891487196
2.19485103410207
0.819502304605035
0.551766886258639
0.445240539571724
0.392955681221017
0.363336343792525
0.345065428370121
0.333281877896735
0.325591173489262
0.320636821329836
0.317511509283163
0.315518428181412
0.314132735986279
2.19192710750376
0.793719051509058
0.532074309600288
0.435651534478905
0.387151734310653
0.359451868143262
0.342279732390691
0.331189191481932
0.323969403590174
0.319375298866275
0.31660698588494
0.315051904451217
0.31418819340917
0.313609638968679
2.18619499455815
0.771341079374284
0.516895263464889
0.426050675907482
0.381549075430244
0.3558185159972
0.339717131827951
0.329257384012967
0.322431084729963
0.318095745670338
0.315535952610158
0.314238010260245
0.313754222404108
0.313666480185635
0.313640463004314
2.18722271040196
0.747986787595971
0.504343777280586
0.418423777887357
0.376865660646841
0.352894383519501
0.337712032091842
0.32774784116775
0.321197909103653
0.317016039491618
0.314543549639649
0.31333190031992
0.313023200533548
0.313265437775238
0.313702586453986
0.314043836655456
2.21610753599928
0.7260584852184
0.494925723874536
0.413944889255024
0.374381403047805
0.351440800139004
0.336778383339251
0.327031047722806
0.320548592469445
0.316361717581059
0.313846886824975
0.312581927377007
0.312258614174984
0.312606665084993
0.313330673340907
0.314111618954838
0.314684511981513
2.28697684240109
0.714502360163519
0.493216535360128
0.41518106635265
0.375920828846307
0.35271098899329
0.337725297963409
0.327657490493913
0.320873147972042
0.316417646787332
0.313668998872124
0.312200040327761
0.311706537363285
0.311954954252568
0.312724846926025
0.313754614607904
0.314747907535948
0.315455614562711
3.05965360678569
1.05630489169247
3.02016935859159
1.04612700619694
0.647898334175251
2.97565233463709
1.02929549479996
0.644784246786779
0.494724703520054
2.93559636426882
1.01249023571373
0.63776874949632
0.493991637903427
0.420115819564349
2.89623865173703
0.99846397566536
0.629504933530967
0.490870162256634
0.420238734967347
0.378641805667202
2.84947577934579
0.985526612186568
0.621464915514167
0.486325319107585
0.41875686337186
0.379025033205904
0.353774585526623
2.79140576391935
0.970787629111586
0.613427465532085
0.481111898626846
0.416012066027074
0.37822871563224
0.354159554736607
0.338183393757819
2.72187894590762
0.952672265107267
0.604495993168608
0.475410635909305
0.412399196251578
0.376374341421808
0.353607074681855
0.338485761261115
0.328180203675287
2.64416551278871
0.930897472409103
0.594044430959945
0.469055374102982
0.408174719132057
0.373705569777535
0.352184452942282
0.337994637111113
0.328397253799402
0.321743184500145
2.59438126453624
0.905680209202906
0.581818306028658
0.461878529258921
0.403439889206241
0.370479453637812
0.350088645732959
0.33679009951152
0.327913973036649
0.321896939481475
0.317683323660852
2.19513201141722
0.876658880464961
0.567682793463489
0.453820163941144
0.398244882518931
0.366889078890285
0.347566102844771
0.335067789550438
0.326841535329353
0.321417977207284
0.317796400118363
0.315254870357231
2.1948533910191
0.819032874054481
0.551378844417445
0.444925078373031
0.392678388646555
0.363085300629973
0.344834531174996
0.333067342039318
0.325390227325854
0.320447107999433
0.317330737023082
0.315344222066356
0.313962685251764
2.19192775495787
0.793376078459939
0.53177865291822
0.435402053312573
0.386929465315767
0.359247385481221
0.342088812839969
0.33100931366698
0.323798755583116
0.319212387919891
0.316450417476479
0.314900229315391
0.314039848436152
0.31346298836769
2.18619227646508
0.771097414016321
0.516676345522201
0.425858130564303
0.381373720350636
0.355654037234661
0.339560728545528
0.329107464754333
0.322286545193265
0.317955693358659
0.315399563339201
0.314104431428304
0.313622527924528
0.313535697704098
0.313509613176337
2.18722349127998
0.747832809623683
0.504189270893812
0.418278857054157
0.376730450935216
0.352764641039368
0.337585883220662
0.327624367023583
0.321076495003679
0.316896230551566
0.314424931626134
0.31321400589772
0.312905439589722
0.313147123884657
0.313583128115222
0.313922904457404
2.2161126409609
0.725972762404721
0.494831992042389
0.413845130014146
0.374282406756583
0.351343212568601
0.336680952952592
0.32693319451755
0.320450022914384
0.316262255891841
0.313746423826158
0.312480328165531
0.312155613194914
0.312501736858641
0.313223016277087
0.314000558338852
0.314570211119484
2.28700604269846
0.71465177477247
0.493195791655889
0.415131107059388
0.375862429624938
0.352650206872545
0.337662377556607
0.327591896797843
0.320804678620384
0.316346252100667
0.313594732594518
0.312123001170715
0.31162681647961
0.311872540185667
0.31263938935459
0.313665015598512
0.314652166252538
0.315351941566229
2.38167602985973
0.747289544314137
0.513484301187324
0.428693328001111
0.384975833711817
0.358795358692099
0.341855828148757
0.330460750235006
0.322724174592099
0.317557769787481
0.314264837094554
0.312369332295706
0.311533348862422
0.311509983729357
0.312104704696371
0.313124682582155
0.314327195159309
0.315428135813173
0.316187847746146
3.00374142770437
1.04081584908299
0.644722772084796
2.96269502307812
1.02487759043528
0.64205634798853
0.492722181520971
2.92537027206945
1.00882189820747
0.635457845905309
0.492272342069656
0.418727832009528
2.88822029356954
0.995426032422215
0.62756136498635
0.489406859118235
0.419047582197362
0.377626027573267
2.84324145761912
0.983017473560917
0.619835022746334
0.485086541012752
0.417741182854717
0.378155158051189
0.353006921326457
2.78665992522971
0.968722105043533
0.612064184741936
0.480067062028185
0.415150006386191
0.377487475884348
0.353504476207863
0.337591423301515
2.71843248236459
0.950988285516635
0.603361907110924
0.474533289765189
0.411670694663124
0.375745138974455
0.353049984339388
0.337982612609287
0.327717243846027
2.6410084550746
0.929347111940832
0.59311134918556
0.468323848524856
0.407562510132906
0.373173766200907
0.351711957870735
0.33756763870942
0.328005020588973
0.321376789848794
2.58815775175557
0.904177740294863
0.581061916824689
0.461274349948213
0.402929175759501
0.370032554798672
0.349689316772382
0.336428079459199
0.327581390747341
0.321586940145637
0.317389766476121
2.19512602186524
0.875508840326149
0.56707429863096
0.453327398097251
0.397822895375058
0.36651631385523
0.347230356001181
0.334761510781682
0.326559171163601
0.321154697965319
0.317547610879895
0.315016199909717
2.19485825705806
0.818444642744883
0.550889209090673
0.44452847066605
0.3923338521314
0.362777244306686
0.344554162880144
0.332809239577264
0.325150531012308
0.32022260087109
0.317118333782666
0.315140766857363
0.313765022348683
2.19192937417372
0.792934673332949
0.531405130291884
0.435086968231957
0.386652103617984
0.358995666348308
0.341856649336215
0.330793010588563
0.323595706724185
0.319020499658028
0.316267764513114
0.31472481248548
0.313869501409715
0.313295457563775
2.1861921764514
0.770776111291456
0.516395279553136
0.425613663467809
0.381153966630421
0.355451022451359
0.339370412708263
0.328927447469807
0.322115173333077
0.317791664600746
0.315241720236147
0.313951609186202
0.313473439169268
0.313388898984582
0.313363565012742
2.18721906377378
0.747624482407194
0.503987878624767
0.418092991910961
0.376559707030183
0.352603521682598
0.337431808926951
0.327475888177333
0.320932646162296
0.316756293760642
0.314288277993878
0.313079997310741
0.312773355200811
0.313016131971889
0.31345232742621
0.313791376839796
2.21611501155134
0.725864815924862
0.494700212962149
0.413710322025183
0.374152848133823
0.351218152000019
0.336558570015734
0.326812577443572
0.320330637184063
0.316143780892884
0.313628618199151
0.312362931620356
0.312038269653115
0.312383935954448
0.313104128392562
0.313880034033167
0.314447755888561
2.28699910306706
0.714694514955107
0.493126965588363
0.415041026102393
0.375769166752231
0.352557578294947
0.337569565100575
0.327497989334722
0.320709296241764
0.31624925165808
0.313496111893227
0.312022780051662
0.311524955010581
0.311768842219005
0.312533378587646
0.313555923788754
0.314539340837163
0.315235559455057
2.38169099295276
0.747717044919187
0.513691851298241
0.42865566932848
0.384920973638026
0.358738405568696
0.341797428866596
0.330399642863764
0.322659708284236
0.317489759142349
0.314193333737873
0.312294496284149
0.311455359830549
0.311428993232892
0.312020745560392
0.313037433810624
0.31423557484248
0.315330149034902
0.316081702629583
3.68517227836365
1.04150411184595
0.607794855753142
0.472226266364115
0.409412727287013
0.373772539162816
0.351529115372863
0.336915361668153
0.327083974363904
0.320474093326446
0.316144350398456
0.313480792293765
0.312060288378744
0.311580607960888
0.311820091302765
0.312603228937668
0.313751759514016
0.315033048024869
0.316169271655281
0.316925945755151
2.94647931466098
1.01964129462116
0.638897805259677
0.641081150350745
0.49042201824862
2.91249317527704
1.0044314558767
0.632742118733204
0.490273346172192
0.417128063195017
2.87799542988408
0.991737389556618
0.625247631131452
0.487685782731963
0.41765900292113
0.376450529471784
2.83517649790046
0.979938787589102
0.617874375694834
0.483614609010985
0.416544927003135
0.377137607103782
0.352114129832822
2.78037353836241
0.966161406487907
0.610409244248104
0.478814126903216
0.414125193231945
0.376612065814543
0.352734962016227
0.336899313221717
2.71356050251137
0.948835338976916
0.601970957359913
0.473471982080283
0.410797216397756
0.3749956885532
0.35238989649394
0.337389075266517
0.32717328474488
2.63863450289287
0.927638105790474
0.591948983519506
0.467430605717884
0.406822468056819
0.372535444533026
0.351147948319412
0.337060262380742
0.327540800514559
0.320944704210045
2.19480341604061
0.900641625115532
0.580057098472399
0.460529639384724
0.40230695358834
0.369492370337748
0.349209616594705
0.335995436716213
0.327185691159838
0.321219549568881
0.317043084570893
2.19512014199443
0.872061792047665
0.566206989649241
0.452714803941742
0.397304781439784
0.36606282298158
0.346824858149095
0.334393871703318
0.326222074106695
0.320841896036612
0.317253270421992
0.314734861324888
2.19485258641085
0.817665452879156
0.550224456570539
0.44403239704405
0.391907865355839
0.362400274137357
0.344214031149382
0.332498451837442
0.324863865882853
0.319955780444536
0.31686731648346
0.314901485488549
0.313533474233372
2.19193195349557
0.792374986741422
0.530936793890867
0.434691384735668
0.386307106428535
0.358686072706747
0.341574012072956
0.330532061045387
0.323352813411051
0.318792803292503
0.316052666121067
0.314519636154682
0.313671378334376
0.31310144609979
2.18619294962443
0.770356827007488
0.516036490482715
0.425305378631385
0.380879338977994