/*--------------------------------*- C++ -*----------------------------------*\
  =========                 |
  \\      /  F ield         | OpenFOAM: The Open Source CFD Toolbox
   \\    /   O peration     | Website:  https://openfoam.org
    \\  /    A nd           | Version:  12
     \\/     M anipulation  |
\*---------------------------------------------------------------------------*/
/*   Windows 32 and 64 bit porting by blueCAPE: http://www.bluecape.com.pt   *\
|  Based on Windows porting (2.0.x v4) by Symscape: http://www.symscape.com   |
\*---------------------------------------------------------------------------*/
FoamFile
{
    format      ascii;
    class       volScalarField;
    location    "200";
    object      p;
}
// * * * * * * * * * * * * * * * * * * * * * * * * * * * * * * * * * * * * * //

dimensions      [0 2 -2 0 0 0 0];

internalField   nonuniform List<scalar> 
10252
(
83333.3308444087
83333.3307745815
83333.3308449469
83333.330844183
83333.3307028524
83333.3307751471
83333.3307743202
83333.3308460299
83333.3308447887
83333.3308455228
83333.3306291768
83333.3307034378
83333.3307025308
83333.3307763026
83333.3307749654
83333.3307757045
83333.3308477779
83333.3308459002
83333.330846209
83333.3308504824
83333.3305534606
83333.3306297965
83333.3306287909
83333.3307046604
83333.3307031953
83333.3307039081
83333.3307781803
83333.3307761611
83333.3307764532
83333.3307808626
83333.3308502808
83333.3308476747
83333.3308474005
83333.3308513035
83333.3308598566
83333.330475589
83333.3305541242
83333.3305530077
83333.3306311014
83333.3306294907
83333.3306301477
83333.3307066666
83333.3307044567
83333.3307046771
83333.3307092367
83333.3307808734
83333.3307780747
83333.3307777501
83333.3307817801
83333.3307905992
83333.3308535789
83333.330850213
83333.3308492698
83333.3308526249
83333.3308606692
83333.3308735624
83333.3303954247
83333.330476304
83333.3304750641
83333.3305555269
83333.3305537585
83333.330554344
83333.3306332517
83333.3306308306
83333.3306309472
83333.3306356279
83333.3307095582
83333.330706504
83333.330706039
83333.3307101817
83333.3307193289
83333.3307844202
83333.3307808059
83333.3307797761
83333.3307832234
83333.3307915242
83333.3308048265
83333.330857653
83333.3308535619
83333.3308519023
83333.3308546178
83333.3308621367
83333.3308743285
83333.3308912567
83333.3303128147
83333.3303961982
83333.3303948203
83333.3304778199
83333.3304758769
83333.3304763819
83333.3305578418
83333.3305551952
83333.3305551929
83333.3305599678
83333.3306363613
83333.3306330251
83333.3306323832
83333.3306366042
83333.3306460654
83333.3307133739
83333.3307094373
83333.3307082007
83333.330711696
83333.3307202896
83333.3307340919
83333.3307887972
83333.3307844065
83333.3307826168
83333.3307853893
83333.3307931251
83333.3308057073
83333.3308231893
83333.3308624412
83333.3308576984
83333.3308553483
83333.3308573707
83333.3308642361
83333.3308758307
83333.3308919812
83333.3309125067
83333.3302275881
83333.330313654
83333.3303121177
83333.3303978429
83333.3303957045
83333.3303961178
83333.3304803249
83333.3304774314
83333.3304772924
83333.330482148
83333.3305611968
83333.3305575613
83333.3305567263
83333.3305610006
83333.3305707452
83333.3306404746
83333.3306361842
83333.3306346913
83333.3306381926
83333.3306470619
83333.3306613717
83333.3307180849
83333.3307133077
83333.3307112505
83333.3307140036
83333.3307219696
83333.3307350097
83333.3307531543
83333.330793938
83333.3307888507
83333.3307863266
83333.3307883663
83333.3307954088
83333.3308073481
83333.3308240251
83333.3308452486
83333.3308678633
83333.3308625622
83333.3308596028
83333.330860947
83333.3308671021
83333.3308779705
83333.330893417
83333.3309132075
83333.330936945
83333.330139555
83333.3302285032
83333.3302267871
83333.330315446
83333.3303130835
83333.3303133859
83333.3304005666
83333.3303973959
83333.3303971009
83333.3304020331
83333.3304839587
83333.3304799928
83333.3304789465
83333.3304832544
83333.3304932646
83333.3305656411
83333.3305609748
83333.3305592077
83333.3305626863
83333.3305718046
83333.3305866025
83333.3306455567
83333.3306403535
83333.3306379699
83333.3306406482
83333.3306488229
83333.3306623234
83333.3306811601
83333.3307236163
83333.3307180868
83333.3307152389
83333.3307171983
83333.3307244033
83333.3307367343
83333.3307540251
83333.3307760644
83333.3307997691
83333.3307940729
83333.3307908996
83333.3307922207
83333.3307985112
83333.3308096782
83333.3308255992
83333.3308460506
83333.3308706324
83333.3308738048
83333.3308680763
83333.3308646225
83333.3308653627
83333.3308708217
83333.3308809159
83333.330895545
83333.3309145403
83333.3309375697
83333.3309641475
83333.3300485066
83333.3301405582
83333.3301386458
83333.3302304666
83333.3302278387
83333.3302280132
83333.3303184189
83333.3303149295
83333.3303144578
83333.3303194499
83333.3304045198
83333.3304001803
83333.3303988998
83333.3304032173
83333.3304134848
83333.3304887756
83333.3304836957
83333.3304816312
83333.3304850612
83333.3304944092
83333.3305096825
83333.3305711364
83333.3305654819
83333.3305627463
83333.3305653166
83333.3305736696
83333.3305876133
83333.3306071403
83333.3306515236
83333.3306455024
83333.3306422655
83333.3306440762
83333.3306514103
83333.3306641329
83333.3306820604
83333.3307049599
83333.3307298897
83333.3307237013
83333.3307201555
83333.3307213431
83333.3307277335
83333.3307392209
83333.3307556837
83333.3307768986
83333.3308024404
83333.3308062042
83333.3307999941
83333.3307962877
83333.3307969687
83333.3308025222
83333.330812869
83333.3308279203
83333.3308475185
83333.3308713357
83333.3308988855
83333.3308800091
83333.3308741694
83333.3308703472
83333.3308705919
83333.330875422
83333.3308847658
83333.3308985379
83333.330916634
83333.3309388222
83333.3309647105
83333.330993769
83333.3299542174
83333.3300496116
83333.3300474875
83333.33014272
83333.3301397856
83333.3301398177
83333.330233723
83333.330229857
83333.3302291884
83333.3302342171
83333.3303227369
83333.3303179704
83333.3303164252
83333.3303207301
83333.3303312354
83333.3304097601
83333.3304042095
83333.3304018171
83333.3304051716
83333.3304147302
83333.3304304694
83333.3304947325
83333.330488585
83333.3304854662
83333.330487898
83333.3304964011
83333.3305107738
83333.330530989
83333.3305775861
83333.3305710438
83333.3305673881
83333.3305690094
83333.3305764374
83333.3305895311
83333.3306080931
83333.330631872
83333.3306582839
83333.3306515508
83333.3306475611
83333.3306485379
83333.3306549819
83333.3306667795
83333.330683804
83333.3307058237
83333.3307323811
83333.3307368184
83333.3307300622
83333.3307259433
83333.3307264476
83333.3307320478
83333.330742649
83333.3307581655
83333.3307784497
83333.3308031707
83333.3308318123
83333.33081299
83333.330806548
83333.3308024217
83333.3308025799
83333.3308074691
83333.330817022
83333.3308311654
83333.3308498073
83333.3308727221
83333.3308995205
83333.3309296613
83333.330887305
83333.3308806754
83333.3308767247
83333.3308765852
83333.3308808843
83333.3308895434
83333.3309024905
83333.3309196499
83333.330940879
83333.3309659019
83333.3309942961
83333.3310255116
83333.329856445
83333.3299554389
83333.3299530841
83333.3300520001
83333.3300487299
83333.3300485923
83333.3301463024
83333.3301420016
83333.3301411094
83333.3301461385
83333.3302384543
83333.3302331961
83333.3302313403
83333.3302356095
83333.3302463231
83333.3303284603
83333.330322372
83333.3303196087
83333.3303228554
83333.3303326006
83333.3303487872
83333.3304162375
83333.3304095326
83333.3304059874
83333.3304082484
83333.3304168729
83333.3304316595
83333.3304525581
83333.3305017224
83333.3304946158
83333.3304904997
83333.3304918944
83333.3304993817
83333.3305128232
83333.3305320165
83333.3305566917
83333.3305848852
83333.3305775737
83333.3305731075
83333.3305738271
83333.3305802823
83333.3305923646
83333.3306099452
83333.3306327821
83333.3306603904
83333.3306657353
83333.330658396
83333.3306537905
83333.3306540346
83333.3306596255
83333.3306704585
83333.3306864509
83333.3307074591
83333.3307331392
83333.3307629403
83333.3307441053
83333.3307370912
83333.3307325212
83333.3307324728
83333.3307373668
83333.330747118
83333.3307616559
83333.3307809017
83333.330804639
83333.3308324719
83333.3308638244
83333.3308205204
83333.3308135614
83333.3308092409
83333.3308089968
83333.330813329
83333.3308221597
83333.3308354308
83333.3308530805
83333.3308749755
83333.330900843
83333.3309302583
83333.3309626558
83333.3308949003
83333.33088805
83333.3308836541
83333.3308832908
83333.3308871627
83333.3308952251
83333.3309074125
83333.3309236691
83333.3309438959
83333.3309679192
83333.3309954402
83333.3310260171
83333.3310590992
83333.3297549357
83333.3298578001
83333.329855189
83333.3299580853
83333.3299544499
83333.3299541061
83333.3300559568
83333.3300511738
83333.3300500146
83333.3300549947
83333.3301515051
83333.3301456769
83333.3301434622
83333.3301476583
83333.3301585337
83333.3302447295
83333.3302380271
83333.3302348288
83333.3302379306
83333.3302478293
83333.3302644287
83333.330335532
83333.3303281899
83333.3303241608
83333.3303262081
83333.3303349172
83333.3303500944
83333.3303716659
83333.3304238336
83333.3304160968
83333.3304114647
83333.3304125922
83333.3304201016
83333.3304338641
83333.3304536833
83333.3304792642
83333.3305096221
83333.3305016849
83333.3304966978
83333.3304971154
83333.3305035407
83333.3305158772
83333.3305340021
83333.3305576639
83333.3305863575
83333.3305929107
83333.3305849566
83333.3305798288
83333.3305797625
83333.3305852947
83333.3305963269
83333.3306127845
83333.3306345265
83333.3306611944
83333.3306922043
83333.3306735442
83333.3306659422
83333.3306608592
83333.3306605166
83333.330665353
83333.3306752701
83333.3306902008
83333.3307100784
83333.3307346908
83333.3307636262
83333.3307962704
83333.3307520255
83333.3307445966
83333.3307398153
83333.3307393497
83333.3307436588
83333.3307526435
83333.3307662488
83333.3307844264
83333.3308070572
83333.330833875
83333.3308644451
83333.3308981634
83333.3308285121
83333.3308212941
83333.3308166443
83333.3308161581
83333.3308200492
83333.3308282542
83333.3308407247
83333.3308574201
83333.3308782533
83333.3309030567
83333.3309315316
83333.3309632303
83333.3309975842
83333.3309023635
83333.330895771
83333.3308912649
83333.3308906339
83333.3308942008
83333.3309017616
83333.3309132688
83333.3309286854
83333.33094794
83333.3309709128
83333.3309974116
83333.3310271205
83333.3310595872
83333.331094271
83333.3296494402
83333.329756443
83333.3297535385
83333.3298607391
83333.3298566977
83333.3298561102
83333.3299624678
83333.3299571528
83333.3299556698
83333.3299605445
83333.3300617005
83333.3300552252
83333.3300526
83333.3300566589
83333.3300676249
83333.3301584084
83333.3301510016
83333.3301472926
83333.3301501996
83333.3301602013
83333.3301771607
83333.3302524843
83333.3302444099
83333.3302398232
83333.3302415989
83333.3302503445
83333.3302658789
83333.3302880962
83333.3303438166
83333.3303353597
83333.3303301426
83333.3303309495
83333.3303384323
83333.330352481
83333.33037291
83333.3303994017
83333.3304324094
83333.3304237804
83333.3304182068
83333.3304182714
83333.3304246213
83333.3304371755
83333.3304558265
83333.3304803181
83333.3305101267
83333.330518292
83333.3305096675
83333.3305039717
83333.3305035456
83333.3305089712
83333.3305201649
83333.3305370673
83333.3305595432
83333.3305872226
83333.330619492
83333.330601295
83333.3305930761
83333.3305874446
83333.3305867545
83333.3305914785
83333.3306015216
83333.3306168272
83333.3306373412
83333.3306628535
83333.3306929346
83333.3307269345
83333.3306819509
83333.3306739737
83333.3306686783
83333.3306679024
83333.3306721217
83333.3306812214
83333.3306951488
83333.3307138696
83333.3307372784
83333.3307651118
83333.3307969169
83333.3308320482
83333.3307604738
83333.3307527725
83333.3307477186
83333.3307470058
83333.3307508606
83333.3307591886
83333.3307719445
83333.3307891027
83333.3308105911
83333.3308362544
83333.3308657982
83333.3308987614
83333.3309345348
83333.3308363837
83333.330829442
83333.330824703
83333.3308239841
83333.3308275638
83333.3308352494
83333.330847007
83333.3308628175
83333.3308826231
83333.3309063128
83333.3309336983
83333.3309644612
83333.3309981403
83333.3310341758
83333.3309095281
83333.3309034751
83333.330899228
83333.3308985865
83333.3309019222
83333.3309090877
83333.3309200012
83333.3309346504
83333.3309529911
83333.3309749374
83333.3310003554
83333.3310290361
83333.3310606498
83333.3310947405
83333.3311307821
83333.3295397285
83333.3296511183
83333.3296478882
83333.3297597109
83333.3297552143
83333.329754319
83333.3298656065
83333.3298596913
83333.329857824
83333.3298625215
83333.3299688302
83333.3299616349
83333.3299585251
83333.3299623656
83333.3299733321
83333.3300693187
83333.3300611055
83333.3300568128
83333.3300594495
83333.330069481
83333.3300867222
83333.3301669455
83333.3301580298
83333.3301527944
83333.3301542255
83333.3301629446
83333.3301787831
83333.3302015999
83333.3302615659
83333.3302522739
83333.3302463838
83333.3302467968
83333.3302541881
83333.330268474
83333.3302894827
83333.3303168773
83333.3303531582
83333.330343747
83333.3303375035
83333.3303371511
83333.330343366
83333.3303560896
83333.330375237
83333.3304005533
83333.3304315014
83333.3304418077
83333.3304324383
83333.3304261072
83333.3304252626
83333.3304305282
83333.3304418377
83333.3304591549
83333.3304823569
83333.3305110671
83333.3305446453
83333.3305273242
83333.3305184294
83333.3305122
83333.3305111109
83333.3305156697
83333.3305257943
83333.3305414459
83333.3305625881
83333.3305890147
83333.3306202815
83333.3306557043
83333.3306102656
83333.33060169
83333.3305958488
83333.3305947079
83333.3305987791
83333.330607948
83333.3306221722
83333.3306414329
83333.3306656388
83333.330694527
83333.3307276247
83333.3307642474
83333.3306909134
83333.3306826616
83333.3306771265
83333.3306761061
83333.3306798558
83333.3306882638
83333.3307012862
83333.3307189113
83333.3307410839
83333.330767662
83333.3307983519
83333.3308326719
83333.3308699686
83333.330768791
83333.3307613965
83333.3307562743
83333.3307553542
83333.3307588956
83333.3307666867
83333.3307786937
83333.3307949135
83333.3308153042
83333.3308397692
83333.3308681305
83333.3309000713
83333.3309351144
83333.3309726575
83333.3308439096
83333.3308375653
83333.3308331329
83333.3308324236
83333.3308357876
83333.330843071
83333.3308542126
83333.3308692191
83333.3308880618
83333.3309106659
83333.3309369042
83333.33096657
83333.3309993285
83333.3310347123
83333.3310721753
83333.3309161636
83333.3309109798
83333.3309073008
83333.3309069318
83333.3309102385
83333.3309171147
83333.3309275321
83333.3309414946
83333.330958989
83333.3309799619
83333.3310043167
83333.3310319038
83333.3310624979
83333.3310957584
83333.3311312305
83333.3311684048
83333.3294256198
83333.3295415992
83333.3295380267
83333.3296547531
83333.3296497474
83333.3296484606
83333.3297651333
83333.3297585336
83333.329756202
83333.3297606213
83333.3298726752
83333.3298646678
83333.3298609825
83333.3298645076
83333.3298753837
83333.3299772619
83333.3299681403
83333.3299631793
83333.32996544
83333.3299753983
83333.3299928179
83333.330078738
83333.3300688689
83333.330062883
83333.33006388
83333.3300724827
83333.330088545
83333.3301118928
83333.3301769552
83333.3301666881
83333.3301600206
83333.3301599457
83333.3301671627
83333.330181616
83333.3302031531
83333.3302314249
83333.3302717986
83333.3302614697
83333.3302544519
83333.3302535968
83333.3302595968
83333.3302724237
83333.3302920217
83333.3303181433
83333.3303502448
83333.3303633878
83333.3303531798
83333.3303461194
83333.3303447805
83333.3303498172
83333.330361182
83333.3303788704
83333.3304027789
83333.3304325312
83333.3304674635
83333.3304515847
83333.3304419251
83333.3304350265
83333.3304334762
83333.3304378101
83333.3304479628
83333.3304639205
83333.3304856709
83333.3305130179
83333.3305455074
83333.330582422
83333.3305369339
83333.3305276976
83333.3305212599
83333.330519701
83333.3305235683
83333.3305327567
83333.3305472413
83333.3305670251
83333.3305920332
83333.330622006
83333.3306564529
83333.3306946508
83333.3306198039
83333.3306109587
83333.3306049021
83333.3306035224
83333.330607107
83333.3306155453
83333.3306288027
83333.3306468835
83333.3306697509
83333.3306972764
83333.3307291658
83333.3307649143
83333.3308038265
83333.330699724
83333.3306918158
83333.3306862338
83333.3306850291
83333.3306884661
83333.3306963182
83333.3307085515
83333.3307251767
83333.3307461701
83333.3307714515
83333.3308008552
83333.3308340629
83333.3308705735
83333.3309097387
83333.3307767105
83333.3307699844
83333.3307652128
83333.3307643269
83333.3307676679
83333.3307750522
83333.3307864203
83333.3308017948
83333.3308211641
83333.3308444692
83333.3308715955
83333.3309023446
83333.3309363803
83333.3309732171
83333.3310122646
83333.3308508341
83333.3308454397
83333.330841648
83333.3308412592
83333.3308446163
83333.3308516194
83333.3308622542
83333.3308765474
83333.330894503
83333.3309160809
83333.3309411939
83333.3309696975
83333.3310013667
83333.3310358532
83333.3310726893
83333.3311113444
83333.3309219222
83333.3309180349
83333.3309152779
83333.3309154687
83333.3309189711
83333.3309257235
83333.3309357556
83333.3309491254
83333.3309658518
83333.3309859156
83333.3310092559
83333.3310357614
83333.3310652652
83333.3310975271
83333.3311321986
83333.3311688295
83333.3312069286
83333.3293067814
83333.3294277689
83333.329423741
83333.3295456566
83333.3295400879
83333.3295383116
83333.3296608103
83333.3296534412
83333.3296505323
83333.3296545331
83333.3297730148
83333.3297640722
83333.3297597021
83333.3297627866
83333.3297734276
83333.3298820323
83333.3298718913
83333.329866146
83333.329867902
83333.3298776383
83333.3298951108
83333.329987675
83333.3299767339
83333.3299698896
83333.3299703334
83333.3299786932
83333.3299948633
83333.3300186697
83333.330089785
83333.3300784257
83333.3300708655
83333.3300701923
83333.3300771271
83333.3300916485
83333.3301136335
83333.3301427333
83333.330188259
83333.3301768173
83333.3301688993
83333.3301674322
83333.3301731151
83333.3301859564
83333.3302059362
83333.330232823
83333.3302660764
83333.3302830207
83333.3302718072
83333.3302638895
83333.3302619556
83333.3302666713
83333.3302780103
83333.3302960069
83333.330320586
83333.3303513794
83333.3303877037
83333.3303740497
83333.3303634922
83333.3303558264
83333.3303537315
83333.3303577637
83333.330367874
83333.3303840814
83333.3304064055
83333.3304346686
83333.3304684122
83333.3305068862
83333.3304619104
83333.3304519372
83333.3304448245
83333.3304427843
83333.3304463848
83333.3304555334
83333.3304702301
83333.3304905059
83333.3305163096
83333.3305473901
83333.3305832421
83333.3306231041
83333.3305471157
83333.3305376209
83333.3305309913
83333.3305291995
83333.3305325624
83333.330540978
83333.3305544281
83333.3305729398
83333.3305964978
83333.3306249906
83333.3306581253
83333.3306953755
83333.3307360035
83333.3306291601
83333.3306207042
83333.3306146257
83333.3306130843
83333.3306163584
83333.3306242203
83333.3306366441
83333.330653657
83333.3306752548
83333.3307013762
83333.3307318685
83333.3307664103
83333.330804474
83333.3308453664
83333.3307080887
83333.3307009191
83333.3306957327
83333.3306945908
83333.3306978442
83333.3307052858
83333.3307168554
83333.3307325891
83333.330752494
83333.3307765289
83333.3308045956
83333.3308365059
83333.3308719193
83333.330910323
83333.3309510792
83333.3307839504
83333.3307782748
83333.3307742167
83333.3307736992
83333.3307770588
83333.3307841734
83333.3307950252
83333.330809658
83333.3308280938
83333.3308503096
83333.3308762326
83333.3309057293
83333.3309385805
83333.3309744339
83333.3310128009
83333.3310531059
83333.3308567856
83333.3308527897
83333.3308500153
83333.3308502618
83333.33085386
83333.3308607614
83333.3308710146
83333.3308847001
83333.330901857
83333.3309224811
83333.3309465234
83333.3309738807
83333.3310043896
83333.3310378079
83333.3310737772
83333.3311118329
83333.3311514615
83333.3309264443
83333.3309242174
83333.3309228471
83333.3309239575
83333.3309279081
83333.3309347306
83333.330944527
83333.3309574184
83333.3309734725
83333.3309927061
83333.3310150944
83333.331040563
83333.3310689839
83333.3311001731
83333.3311338772
83333.3311697428
83333.3312073274
83333.331246159
83333.3293093016
83333.32930473
83333.329432378
83333.329426038
83333.3294236213
83333.3295524361
83333.3295442263
83333.3295405747
83333.3295439583
83333.329669641
83333.3296596181
83333.3296544159
83333.3296568916
83333.3296670721
83333.3297834327
83333.3297721265
83333.3297654479
83333.3297665399
83333.3297758658
83333.3297932401
83333.3298935609
83333.3298814251
83333.329873594
83333.3298733261
83333.3298812741
83333.3298973896
83333.3299215027
83333.3299998746
83333.3299873001
83333.3299787238
83333.329977319
83333.3299838253
83333.329998275
83333.3300205767
83333.3300504366
83333.3301022558
83333.3300896023
83333.3300806667
83333.3300784616
83333.3300837011
83333.3300964366
83333.3301166976
83333.3301442816
83333.3301786631
83333.3302007273
83333.3301882185
83333.3301792802
83333.3301766272
83333.3301809041
83333.3301921107
83333.3302103271
83333.3302355177
83333.330267333
83333.3303050755
83333.3302948082
83333.3302830936
83333.3302745062
83333.3302717503
83333.3302753777
83333.3302853525
83333.3303017312
83333.330324575
83333.3303537347
83333.3303887542
83333.3304288522
83333.3303851545
83333.3303743619
83333.3303664603
83333.3303638544
83333.3303671069
83333.330376138
83333.3303909802
83333.3304117002
83333.3304382786
83333.330470481
83333.3305077916
83333.3305494092
83333.3304728062
83333.3304625917
83333.3304553202
83333.3304530519
83333.3304561305
83333.3304644609
83333.330478049
83333.3304969514
83333.3305211813
83333.3305506504
83333.3305850719
83333.3306238994
83333.3306663519
83333.3305570776
83333.3305480256
83333.3305414041
83333.3305394763
83333.3305425322
83333.3305503496
83333.330562918
83333.3305802871
83333.3306024763
83333.3306294473
83333.3306610635
83333.3306970017
83333.330736708
83333.3307794435
83333.3306380207
83333.3306303782
83333.330624746
83333.3306233011
83333.3306264107
83333.3306338591
83333.3306455927
83333.3306616629
83333.3306820976
83333.3307068764
83333.3307359201
83333.3307690514
83333.330805923
83333.3308459922
83333.3308885739
83333.3307157025
83333.3307096812
83333.330705281
83333.3307045562
83333.3307078573
83333.330715041
83333.3307260848
83333.330741046
83333.330759965
83333.3307828382
83333.3308096108
83333.3308401641
83333.3308742864
83333.3309116176
83333.3309516391
83333.3309937263
83333.3307901222
83333.3307859712
83333.330783026
83333.3307832179
83333.330786865
83333.330793902
83333.3308043774
83333.3308183878
83333.3308359913
83333.3308572022
83333.3308819875
83333.330910257
83333.3309418564
83333.3309765465
83333.3310139622
83333.3310536156
83333.3310949473
83333.3308614048
83333.3308591659
83333.3308578947
83333.3308591657
83333.3308632843
83333.330870298
83333.3308803339
83333.33089354
83333.3309100057
83333.330929765
83333.3309528072
83333.3309790688
83333.3310084283
83333.3310407033
83333.3310756364
83333.3311128622
83333.331151922
83333.331192321
83333.3309296204
83333.3309289997
83333.3309294649
83333.330931988
83333.3309367508
83333.330943889
83333.3309536395
83333.3309662047
83333.3309817087
83333.3310002132
83333.3310217307
83333.3310462244
83333.3310736039
83333.3311037237
83333.3311363847
83333.3311713226
83333.3312081821
83333.3312465306
83333.3312859164
83333.3293146169
83333.3293073971
83333.3293040266
83333.3294399999
83333.3294306691
83333.3294260867
83333.3294285553
83333.3295623802
83333.3295511305
83333.329544884
83333.3295465116
83333.3295559141
83333.3296812898
83333.3296686302
83333.3296608267
83333.3296610445
83333.3296697101
83333.3296866946
83333.329796228
83333.3297827427
83333.3297737538
83333.3297725719
83333.3297798877
83333.3297957082
83333.3298199411
83333.3299070201
83333.3298931259
83333.3298833968
83333.3298810865
83333.3298869675
83333.3299011537
83333.3299236084
83333.3299540928
83333.3300136609
83333.3299996499
83333.3299895663
83333.3299864776
83333.3299911118
83333.3300035781
83333.3300239745
83333.3300521521
83333.3300876085
83333.3301159318
83333.3301021857
83333.3300921136
83333.3300886107
83333.3300923084
83333.3301032439
83333.330121557
83333.3301472687
83333.3301800617
83333.330219232
83333.3302138902
83333.3302006908
83333.3301909568
83333.3301873892
83333.3301904807
83333.3302001996
83333.3302166433
83333.3302399268
83333.3302699422
83333.3303062454
83333.3303480263
83333.3303066613
83333.3302949915
83333.3302861048
83333.3302828063
83333.3302855986
83333.3302944096
83333.3303093069
83333.3303304007
83333.3303577148
83333.330391041
83333.3304298582
83333.3304733249
83333.3303968289
83333.3303858183
83333.330377821
83333.3303749913
83333.3303777042
83333.330385868
83333.3303995205
83333.3304187547
83333.3304436211
83333.3304740632
83333.3305098069
83333.3305502888
83333.3305946815
83333.3304834409
83333.3304737282
83333.3304665028
83333.330464131
83333.3304669083
83333.3304746187
83333.3304872731
83333.3305049513
83333.3305277032
83333.3305555199
83333.3305882864
83333.3306256815
83333.3306671259
83333.3307118323
83333.3305664917
83333.3305583346
83333.3305522167
83333.3305504238
83333.3305533381
83333.3305607406
83333.3305725908
83333.3305889617
83333.3306099059
83333.3306354286
83333.3306654733
83333.3306998765
83333.3307382849
83333.3307801249
83333.3308246623
83333.3306460626
83333.3306396675
83333.3306348987
83333.3306339249
83333.3306371159
83333.3306443207
83333.3306555193
83333.3306707833
83333.3306901743
83333.3307137107
83333.3307413592
83333.3307730184
83333.3308084847
83333.3308473872
83333.3308891738
83333.3309331701
83333.3307221629
83333.3307177877
83333.3307145959
83333.3307146524
83333.3307182878
83333.33072542
83333.3307360937
83333.3307504171
83333.3307684667
83333.3307902772
83333.330815835
83333.3308450669
83333.330877831
83333.3309138926
83333.330952875
83333.330994258
83333.3310374317
83333.330794869
83333.3307926089
83333.3307912798
83333.3307925941
83333.3307968307
83333.3308040227
83333.3308143013
83333.3308278324
83333.3308447251
83333.3308650331
83333.330888763
83333.3309158666
83333.3309462336
83333.3309796885
83333.331015974
83333.331054715
83333.3310954277
83333.3311375708
83333.3308645853
83333.330864043
83333.3308647092
83333.3308675275
83333.3308725626
83333.3308799597
83333.3308899879
83333.3309028824
83333.3309187932
83333.330937801
83333.3309599346
83333.3309851704
83333.3310134276
83333.3310445659
83333.3310783855
83333.3311146161
83333.3311528883
83333.3311927519
83333.3312337324
83333.3309311223
83333.3309320834
83333.3309344629
83333.3309388606
83333.3309449917
83333.3309528381
83333.3309628087
83333.3309752526
83333.3309903714
83333.33100828
83333.3310290346
83333.3310526375
83333.331079037
83333.3311081265
83333.3311397445
83333.3311736786
83333.3312096568
83333.331247324
83333.3312862598
83333.3313260338
83333.3293233248
83333.3293127017
83333.329306815
83333.3291790826
83333.3293078768
83333.3294510995
83333.3294384214
83333.3294308746
83333.3294313024
83333.3294394906
83333.3295754622
83333.3295612401
83333.3295520521
83333.3295511049
83333.3295587605
83333.3295749635
83333.3296955548
83333.3296805004
83333.3296701269
83333.3296677715
83333.3296741625
83333.3296893848
83333.3297134335
83333.3298110902
83333.329795734
83333.3297846714
83333.3297812291
83333.3297862269
83333.329799888
83333.329822261
83333.3298531781
83333.3299221528
83333.3299067572
83333.3298954115
83333.3298912619
83333.3298950756
83333.3299070516
83333.3299273848
83333.3299560006
83333.3299924356
83333.3300288968
83333.330013571
83333.3300022169
83333.3299977109
83333.3300006568
83333.3300111387
83333.3300293787
83333.3300554787
83333.330089172
83333.3301297567
83333.3301302925
83333.3301159254
83333.3301049912
83333.3301004748
83333.330102881
83333.3301121917
83333.3301285576
83333.3301521656
83333.3301829672
83333.3302205421
83333.3302640556
83333.3302264391
83333.3302138427
83333.3302036973
83333.3301995213
83333.3302017064
83333.3302101663
83333.3302249986
83333.330246367
83333.3302743529
83333.3303087872
83333.3303491508
83333.3303945608
83333.3303191426
83333.330307282
83333.3302984593
83333.3302949355
83333.3302971677
83333.3303050559
83333.3303186737
83333.3303381565
83333.3303636024
83333.3303949981
83333.3304320912
83333.3304743042
83333.33052076
83333.3304082059
83333.3303977589
83333.3303898581
83333.3303869736
83333.3303893947
83333.3303969174
83333.3304095801
83333.3304275007
83333.3304507678
83333.3304794105
83333.3305133442
83333.3305522547
83333.3305955383
83333.3306423547
83333.3304934713
83333.3304847415
83333.3304780848
83333.3304758944
83333.3304785597
83333.3304858567
83333.3304977639
83333.330514384
83333.3305358011
83333.3305620523
83333.3305931104
83333.3306288305
83333.3306688559
83333.3307125815
83333.3307592199
83333.3305750187
83333.3305682118
83333.3305630419
83333.3305617801
83333.3305648155
83333.3305719923
83333.3305832997
83333.3305988285
83333.3306186658
83333.330642857
83333.3306713948
83333.3307041991
83333.3307410762
83333.3307816443
83333.3308253158
83333.330871364
83333.3306528697
83333.3306482401
83333.3306447815
83333.3306446649
83333.3306482412
83333.3306554243
83333.3306662607
83333.3306808711
83333.3306993521
83333.3307217615
83333.3307481089
83333.3307783418
83333.3308123329
83333.3308498516
83333.3308905063
83333.3309337399
83333.330978891
83333.3307271142
83333.3307247575
83333.3307232986
83333.3307245706
83333.3307288611
83333.3307361909
83333.3307466892
83333.3307605341
83333.3307778516
83333.3307987165
83333.3308231563
83333.3308511414
83333.3308825767
83333.3309172961
83333.3309550432
83333.3309954282
83333.3310379323
83333.3310819634
83333.3307981188
83333.3307976638
83333.3307983846
83333.3308013598
83333.3308066054
83333.3308142446
83333.3308245539
83333.3308377898
83333.3308541235
83333.3308736561
83333.3308964352
83333.3309224545
83333.3309516466
83333.3309838807
83333.3310189612
83333.3310566149
83333.33109646
83333.3311380197
83333.331180773
83333.3308661652
83333.3308671722