/*--------------------------------*- C++ -*----------------------------------*\
  =========                 |
  \\      /  F ield         | OpenFOAM: The Open Source CFD Toolbox
   \\    /   O peration     | Website:  https://openfoam.org
    \\  /    A nd           | Version:  12
     \\/     M anipulation  |
\*---------------------------------------------------------------------------*/
/*   Windows 32 and 64 bit porting by blueCAPE: http://www.bluecape.com.pt   *\
|  Based on Windows porting (2.0.x v4) by Symscape: http://www.symscape.com   |
\*---------------------------------------------------------------------------*/
FoamFile
{
    format      ascii;
    class       surfaceScalarField;
    location    "200";
    object      phi;
}
// * * * * * * * * * * * * * * * * * * * * * * * * * * * * * * * * * * * * * //

dimensions      [0 3 -1 0 0 0 0];

internalField   nonuniform List<scalar> 
29323
(
1.23147467460044e-05
-1.52815047437738e-07
-1.21041761421375e-07
1.26080784582577e-05
-1.62868998251753e-07
-1.30457501995818e-07
1.51024989576527e-05
-3.16867337493698e-07
-1.47480670386935e-07
3.28081290977673e-06
-2.24407942377983e-08
-1.81409443621213e-07
1.29157855926364e-05
-1.70127346069879e-07
-1.37575533942267e-07
1.54387260818811e-05
-3.39974963459047e-07
-1.59103014102938e-07
3.37074460254198e-06
-2.53605377764484e-08
-1.95023374679543e-07
1.69416513315122e-05
-4.87433281960278e-07
-1.70549845738392e-07
4.34780105837546e-06
-4.64886009892315e-08
-2.28122027042678e-07
2.31426517214055e-06
-6.85320699677521e-09
-2.3673635975121e-07
1.32428693718229e-05
-1.80740304074159e-07
-1.46336920269963e-07
1.57950319267293e-05
-3.61333163740532e-07
-1.65086939704857e-07
3.46908542828904e-06
-2.71290557969236e-08
-2.08783501889104e-07
1.73114946236568e-05
-5.24900845408265e-07
-1.84903978681756e-07
4.46121464897319e-06
-5.30803897924963e-08
-2.44791346814116e-07
2.3817092844976e-06
-9.36577929502295e-09
-2.53100659745487e-07
1.89653993967708e-05
-6.68549319575026e-07
-1.94789820066092e-07
5.05846693349068e-06
-6.72557240709404e-08
-2.68272300132729e-07
2.96263853099437e-06
-1.41943752329137e-08
-2.97163287399206e-07
2.10580799182865e-06
-2.67251312720041e-09
-2.92542053647185e-07
1.35946466965867e-05
-1.94857214807756e-07
-1.56914994389535e-07
1.61748396403661e-05
-3.87145576689042e-07
-1.73385964012727e-07
3.576909175117e-06
-3.02489440497096e-08
-2.23906182238774e-07
1.77037950805954e-05
-5.63427312278531e-07
-1.90188339008998e-07
4.58806882429281e-06
-5.90920196168308e-08
-2.5997031543243e-07
2.45533222642898e-06
-1.09696514224315e-08
-2.71435785480745e-07
1.93726057878225e-05
-7.20348834052599e-07
-2.11746962039202e-07
5.18635799130583e-06
-7.77245824389854e-08
-2.88143446080381e-07
3.04435433613493e-06
-1.91564085501891e-08
-3.16713871597079e-07
2.16945017361664e-06
-4.7718518419478e-09
-3.11970182592736e-07
2.05024201103234e-05
-8.56320450899852e-07
-2.11715148553814e-07
5.79143860234276e-06
-8.99990995274711e-08
-3.06294919324811e-07
3.4845094781491e-06
-1.71796336115162e-08
-3.53183348458083e-07
2.6022683888111e-06
-6.81398116937372e-09
-3.63230151061225e-07
2.03435540772822e-06
-3.40101875431027e-09
-3.4619540770071e-07
1.39755128914148e-05
-2.11962324383159e-07
-1.68894540510743e-07
1.65832797126428e-05
-4.18603059266905e-07
-1.84675430688984e-07
3.69573979257716e-06
-3.49168826976223e-08
-2.40824972643477e-07
1.81220055115656e-05
-6.07185925336717e-07
-1.98153830171737e-07
4.72853917169057e-06
-6.72693237322235e-08
-2.76829768302002e-07
2.53653203937074e-06
-1.3385813845881e-08
-2.91718853781117e-07
1.98023932867437e-05
-7.76850750001556e-07
-2.16352284635869e-07
5.33128607830612e-06
-8.93695803084159e-08
-3.04832820603268e-07
3.13501501538383e-06
-2.36445123639729e-08
-3.37953168096451e-07
2.23879636160241e-06
-6.55482409071164e-09
-3.34226382479078e-07
2.09351059477486e-05
-9.2133924774486e-07
-2.31682811030369e-07
5.93541764906172e-06
-1.04125787590948e-07
-3.29320474980826e-07
3.57753627758184e-06
-2.44183056000526e-08
-3.7590597284983e-07
2.67796758657746e-06
-1.13237867966588e-08
-3.85859468253655e-07
2.09659201826944e-06
-5.56238544443345e-09
-3.68643881892758e-07
2.13557262844901e-05
-1.04360143245501e-06
-2.20570317536362e-07
6.29834376951087e-06
-1.16585494796147e-07
-3.29926412207017e-07
3.95964437949596e-06
-1.92442503936238e-08
-4.03044724908083e-07
3.04526818727945e-06
-8.872348179037e-09
-4.31926203475475e-07
2.43820470729413e-06
-6.78777280097993e-09
-4.26699301847645e-07
1.98973975265215e-06
-4.02383459397167e-09
-3.97715631675894e-07
1.4389532601991e-05
-2.31914470415945e-07
-1.82099955807781e-07
1.70252333538382e-05
-4.55903081315642e-07
-1.97992844738166e-07
3.82722200428478e-06
-4.08230883149286e-08
-2.59546054953146e-07
1.85718972262807e-05
-6.58261159076023e-07
-2.10222447313853e-07
4.88319040488705e-06
-7.80576873134859e-08
-2.9617655969896e-07
2.62674568421347e-06
-1.6941025434288e-08
-3.14096411186262e-07
2.0259609808354e-05
-8.40077854399926e-07
-2.24306869541919e-07
5.49296629549119e-06
-1.03674855320552e-07
-3.23420865206694e-07
3.23581861566685e-06
-2.95578556750213e-08
-3.61458440378826e-07
2.31505541140597e-06
-8.85860164966285e-09
-3.59118661970009e-07
2.13897756261943e-05
-9.95037019916625e-07
-2.36467229631368e-07
6.09848085031945e-06
-1.21284900595499e-07
-3.4749561296801e-07
3.68178759339999e-06
-3.24858010400391e-08
-4.00240697874958e-07
2.76083311662407e-06
-1.56055195676344e-08
-4.11766418705293e-07
2.16433067917842e-06
-7.50120514683958e-09
-3.94463344266851e-07
2.17972128736628e-05
-1.12092471535017e-06
-2.41884247152124e-07
6.45262979960983e-06
-1.34801887025061e-07
-3.55285410727114e-07
4.06332697228776e-06
-2.86668878334893e-08
-4.2875117028351e-07
3.13164831514017e-06
-1.55617627065333e-08
-4.5804608818248e-07
2.5106846280781e-06
-1.11759277191079e-08
-4.52724322003755e-07
2.05033611319946e-06
-6.13360347465964e-09
-4.23106181884182e-07
2.16945093024361e-05
-1.22369001458168e-06
-2.25066682932971e-07
6.57532979860034e-06
-1.46300000502192e-07
-3.40403797650752e-07
4.23329475531595e-06
-2.28755630355719e-08
-4.30959629656235e-07
3.42359778380829e-06
-1.08591722550493e-08
-4.91082099462105e-07
2.82139376136068e-06
-1.05343550657882e-08
-5.04431808029503e-07
2.34101617477614e-06
-9.16679622113983e-09
-4.85702174400718e-07
1.95213781652141e-06
-4.83986745508651e-09
-4.46558077004866e-07
1.48414076649986e-05
-2.54829131851283e-07
-1.97035917803078e-07
1.75054387740407e-05
-4.99299408467342e-07
-2.12797085285691e-07
3.97323689243108e-06
-4.7991640758619e-08
-2.80115737078259e-07
1.90588171773506e-05
-7.17901791292796e-07
-2.24902487437921e-07
5.05361422812639e-06
-9.1370054223244e-08
-3.17862986989342e-07
2.72737517515306e-06
-2.14893087623347e-08
-3.3868533613713e-07
2.07511905435023e-05
-9.12539059035274e-07
-2.37297754154483e-07
5.67122886922543e-06
-1.21356019530137e-07
-3.45178635954844e-07
3.34767765517506e-06
-3.7440007371436e-08
-3.87534047848768e-07
2.39954785302406e-06
-1.19520861112848e-08
-3.86636325865932e-07
2.18714693875743e-05
-1.07824131977869e-06
-2.43520009746767e-07
6.28048976205838e-06
-1.42313950594769e-07
-3.6767164613401e-07
3.79854972941434e-06
-4.25385898435275e-08
-4.27199045195422e-07
2.8522484282856e-06
-2.0966065575467e-08
-4.40764732635711e-07
2.23855594674162e-06
-9.87354407798572e-09
-4.23469810426621e-07
2.2259727293021e-05
-1.21025898683096e-06
-2.47284964715945e-07
6.6267418251203e-06
-1.57342059092994e-07
-3.74518154550275e-07
4.17939008751222e-06
-4.01847964677092e-08
-4.55857169361502e-07
3.22667867599353e-06
-2.29410282785082e-08
-4.87933959353946e-07
2.58970167237981e-06
-1.54817159183123e-08
-4.82801928104177e-07
2.11626232995282e-06
-8.1158236379223e-09
-4.52273472934199e-07
2.21331684426214e-05
-1.31227197741252e-06
-2.47296963949774e-07
6.73402219756761e-06
-1.68478565114411e-07
-3.66897169262473e-07
4.34234736981452e-06
-3.45525282459709e-08
-4.58449296786402e-07
3.51925390564487e-06
-1.96548357708984e-08
-5.20312606508679e-07
2.9035609150023e-06
-1.70945656685251e-08
-5.34293210696229e-07
2.41070677886063e-06
-1.3498143907458e-08
-5.15049322398813e-07
2.01070101795725e-06
-6.8853770365301e-09
-4.74783735887598e-07
2.17706527631838e-05
-1.39047175577858e-06
-2.29154616254386e-07
6.71600154018926e-06
-1.77703832140423e-07
-3.4449357659537e-07
4.34237582347508e-06
-2.87447490515791e-08
-4.40842157007218e-07
3.61876117642867e-06
-1.39198348236131e-08
-5.2231288906823e-07
3.14039925155637e-06
-1.55204753568053e-08
-5.70353787149251e-07
2.69016346998729e-06
-1.55250125245626e-08
-5.70879464685174e-07
2.27748934413695e-06
-1.22065129906891e-08
-5.3998789066631e-07
1.92264646270739e-06
-5.83011467360722e-09
-4.92396948239225e-07
1.53361837196834e-05
-2.81616938324498e-07
-2.13145916367048e-07
1.80290933099582e-05
-5.49578973494096e-07
-2.28881883656583e-07
4.13556581839403e-06
-5.66755082893161e-08
-3.02683708503563e-07
1.95878722690853e-05
-7.87340345470068e-07
-2.41000215952608e-07
5.24193791083385e-06
-1.07371341711379e-07
-3.41733682186675e-07
2.83990344104807e-06
-2.70350452944048e-08
-3.65607738776876e-07
2.12829748356554e-05
-9.96265065735677e-07
-2.53407909458108e-07
5.86750873043307e-06
-1.42767334920461e-07
-3.69777598986558e-07
3.47190398781819e-06
-4.73336461229435e-08
-4.1624159446356e-07
2.49352528125224e-06
-1.58574331392416e-08
-4.16804399445456e-07
2.23883624704685e-05
-1.17247377102371e-06
-2.56939349464245e-07
6.481031885375e-06
-1.6756598694802e-07
-3.91621241387041e-07
3.92832791415486e-06
-5.52020279719258e-08
-4.57193399970805e-07
2.95349404248678e-06
-2.79171988373188e-08
-4.72812801054003e-07
2.32047719856863e-06
-1.29422127874129e-08
-4.55614778479553e-07
2.27480832647836e-05
-1.31163440922464e-06
-2.54948916790619e-07
6.82106914298342e-06
-1.84671708191955e-07
-3.95484430042726e-07
4.30954499419311e-06
-5.45165547961815e-08
-4.85846424880341e-07
3.33196670912087e-06
-3.19497749035906e-08
-5.21501367551587e-07
2.67643540216904e-06
-2.07171786758775e-08
-5.1665401029933e-07
2.18836508233947e-06
-1.04853135041176e-08
-4.85086779959116e-07
2.25908592389701e-05
-1.41539618739845e-06
-2.52546212627737e-07
6.91243365335366e-06
-1.96360648990703e-07
-3.86673934761051e-07
4.46406035986497e-06
-4.93159066334801e-08
-4.87097525261319e-07
3.62426909702406e-06
-3.01448009510567e-08
-5.53666391924134e-07
2.99346610566455e-06
-2.43343220256727e-08
-5.6898506035392e-07
2.48660508598284e-06
-1.78687755753432e-08
-5.48946078209414e-07
2.07440040045349e-06
-8.8717015778355e-09
-5.07100818930997e-07
2.22013570020322e-05
-1.49090312567951e-06
-2.52060310128119e-07
6.87523065761055e-06
-2.03579078893874e-07
-3.7142128708975e-07
4.45243834477736e-06
-4.25578589485194e-08
-4.68952042204903e-07
3.71856765841411e-06
-2.47865536854194e-08
-5.53121838938751e-07
3.23077137822465e-06
-2.42706870972155e-08
-6.03507113200625e-07
2.7689139035559e-06
-2.20866834414483e-08
-6.0445397376672e-07
2.34449895155204e-06
-1.65080915102327e-08
-5.72435282337929e-07
1.97897105608348e-06
-7.8160403233168e-09
-5.23292021369509e-07
2.17524995018552e-05
-1.54064837677651e-06
-2.36688558401676e-07
6.80317977471528e-06
-2.1015139261636e-07
-3.47281684987128e-07
4.37571890379097e-06
-3.66264922663243e-08
-4.42652511868885e-07
3.67729646559963e-06
-1.83159181133195e-08
-5.31632976159642e-07
3.29763662622937e-06
-2.14542793987773e-08
-6.04269021282796e-07
2.97938751756252e-06
-2.3554216246716e-08
-6.42416865558717e-07
2.61387807861258e-06
-2.11114934999104e-08
-6.31994025657451e-07
2.23470251685393e-06
-1.51448795164735e-08
-5.89894461080823e-07
1.90340767381208e-06
-7.36739845715711e-09
-5.34655761972134e-07
1.58787671696233e-05
-3.12940369809524e-07
-2.29636741532102e-07
1.86020710401343e-05
-6.08287441577554e-07
-2.46280531686904e-07
4.31612308771773e-06
-6.66561797724714e-08
-3.27040330112688e-07
2.01642796607885e-05
-8.67579537861474e-07
-2.58385611379912e-07
5.4504738243877e-06
-1.26381759247821e-07
-3.67703458466381e-07
2.96577281063588e-06
-3.37377412611042e-08
-3.94813634452419e-07
2.18603911914286e-05
-1.09324895186429e-06
-2.71491357838171e-07
6.08410049689744e-06
-1.68334692892065e-07
-3.96620158367263e-07
3.6100911461798e-06
-5.94381620246989e-08
-4.47513919981252e-07
2.59837633418156e-06
-2.08476987282479e-08
-4.49610337814948e-07
2.29468849650614e-05
-1.28036537130704e-06
-2.74405942976372e-07
6.70143598317807e-06
-1.97697579085074e-07
-4.1887321811921e-07
4.07227448568021e-06
-7.07790894198789e-08
-4.9027557332273e-07
3.06592869599727e-06
-3.65841637760708e-08
-5.07947243425062e-07
2.41131217991582e-06
-1.67283868005762e-08
-4.90910367338696e-07
2.32705194130941e-05
-1.42671810764734e-06
-2.6818431329252e-07
7.03479804501767e-06
-2.17534948661256e-07
-4.20695835980169e-07
4.45417403374261e-06
-7.21718746498953e-08
-5.19277449001018e-07
3.44871569628993e-06
-4.31913678343656e-08
-5.58666079209779e-07
2.77214203524695e-06
-2.7325049231719e-08
-5.54134803639589e-07
2.26773258025957e-06
-1.34705863809877e-08
-5.21511202603519e-07
2.30723036324503e-05
-1.53278070880499e-06
-2.60286041307342e-07
7.11084768601245e-06
-2.29943330460879e-07
-4.0808718986895e-07
4.60045361467617e-06
-6.77061611831836e-08
-5.1868599730666e-07
3.74059747608239e-06
-4.29878630387791e-08
-5.91135044535814e-07
3.09247442156466e-06
-3.30125525295165e-08
-6.0821294756156e-07
2.5696962646231e-06
-2.30814995826934e-08
-5.87148287566987e-07
2.14396413027918e-06
-1.12163152971751e-08
-5.43433872910078e-07
2.26490784130793e-05
-1.60625381868352e-06
-2.5685525935766e-07
7.05374448815824e-06
-2.36196268440654e-07
-3.91218737211778e-07
4.57486423007017e-06
-6.0325306904373e-08
-4.98089096358414e-07
3.82773588013981e-06
-3.82006629684635e-08
-5.88208427248477e-07
3.32936299659236e-06
-3.45561663399153e-08
-6.42035144439175e-07
2.85491540254503e-06
-2.93718882342403e-08
-6.43482467870963e-07
2.41743321964719e-06
-2.09377609183779e-08
-6.09813561013999e-07
2.04017644393122e-06
-9.79802126237248e-09
-5.58507881070757e-07
2.21754268208771e-05
-1.65495217975577e-06
-2.58871874326857e-07
6.96126834638351e-06
-2.39428388524698e-07
-3.74296813536717e-07
4.48474921076126e-06
-5.22562118471992e-08
-4.70749875015569e-07
3.7773924262617e-06
-3.10841353662579e-08
-5.62748778817004e-07
3.39153179800882e-06
-3.23473980397484e-08
-6.38938841492075e-07
3.0656677246244e-06
-3.24182407553423e-08
-6.79454819775094e-07
2.6896870537534e-06
-2.77255941236902e-08
-6.69044654364336e-07
2.29904773702174e-06
-1.94135169414027e-08
-6.25182222025549e-07
1.9574474295982e-06
-9.42152744071653e-09
-5.67910004572947e-07
2.18140124726671e-05
-1.6903921381673e-06
-2.47577602468402e-07
6.88087034124001e-06
-2.45483960430202e-07
-3.51075546356825e-07
4.39013931878046e-06
-4.67523393820954e-08
-4.42497886521724e-07
3.6803464156664e-06
-2.40808837074228e-08
-5.31415563350567e-07
3.33772332374892e-06
-2.80388539985735e-08
-6.13413151000473e-07
3.12218418331645e-06
-3.23398238583601e-08
-6.78909235228635e-07
2.89295742916788e-06
-3.16343229690352e-08
-7.08890808035987e-07
2.56808616620296e-06
-2.6071912440499e-08
-6.88484133383278e-07
2.20689264303341e-06
-1.77727040749609e-08
-6.36247021501425e-07
1.89358159934104e-06
-8.51556649973303e-09
-5.73637936024824e-07
1.64745900593224e-05
-3.49026004751965e-07
-2.46788784570584e-07
1.92304318740869e-05
-6.76606336712124e-07
-2.64667623995398e-07
4.51714517043635e-06
-7.7891487265752e-08
-3.52758814339064e-07
2.07945837013627e-05
-9.60315462016495e-07
-2.78253898165532e-07
5.68151855516637e-06
-1.48605252814433e-07
-3.95367237138734e-07
3.10651540503974e-06
-4.16573754928649e-08
-4.26124403313426e-07
2.24891577558564e-05
-1.20549455786694e-06
-2.9082948986076e-07
6.3235602898498e-06
-1.98640880886807e-07
-4.25575911601225e-07
3.76391710057859e-06
-7.39542463192451e-08
-4.81309611039228e-07
2.71540949966487e-06
-2.68270216373845e-08
-4.85018822691196e-07
2.35530187215302e-05
-1.40496215637275e-06
-2.94405377329714e-07
6.94404208033166e-06
-2.33511762372893e-07
-4.48911137047213e-07
4.23213840969366e-06
-8.9553325671783e-08
-5.26365142942755e-07
3.19091787438767e-06
-4.71768811678892e-08
-5.46171608004854e-07
2.51230840274551e-06
-2.12593032036774e-08
-5.29346698680518e-07
2.38336938544426e-05
-1.55773422859546e-06
-2.85790125791565e-07
7.26909143414656e-06
-2.56712465053755e-07
-4.49673749596828e-07
4.61434459777807e-06
-9.36549298146925e-08
-5.56163914409757e-07
3.57831301987331e-06
-5.69986537743061e-08
-5.99456621351908e-07
2.87810930472392e-06
-3.54397482734306e-08
-5.95201474191557e-07
2.35547964576336e-06
-1.71138246498963e-08
-5.6154321481091e-07
2.35856520589648e-05
-1.66556562687108e-06
-2.74491007876226e-07
7.32863200607568e-06
-2.69756453663209e-07
-4.33739606715428e-07
4.75180123830829e-06
-9.025229753282e-08
-5.53960165942775e-07
3.8694562353842e-06
-5.8742112850679e-08
-6.32583983292098e-07
3.20182641858675e-06
-4.36689345963631e-08
-6.51672444909499e-07
2.66109414468142e-06
-2.95221362121518e-08
-6.29480052698044e-07
2.22033318379302e-06
-1.41072464833407e-08
-5.83772635767427e-07
2.31166114280073e-05
-1.73649720321144e-06
-2.6380479485394e-07
7.25165446899961e-06
-2.75447783202794e-07
-4.12688426104443e-07
4.71169526208085e-06
-8.2459731368691e-08
-5.30162412378039e-07
3.94840483664386e-06
-5.47204465704517e-08
-6.27620402216414e-07
3.43777657112308e-06
-4.69435834146688e-08
-6.8561602183704e-07
2.94925083054314e-06
-3.7996382737687e-08
-6.87632321081141e-07
2.49712993463397e-06
-2.61501155148564e-08
-6.51910255193022e-07
2.10689652354312e-06
-1.21191255592852e-08
-5.98034526023752e-07
2.26131485568268e-05
-1.78133342271899e-06
-2.626357003558e-07
7.13788186281016e-06
-2.75834599194989e-07
-3.9382552857252e-07
4.60556313143181e-06
-7.25472276313745e-08
-4.99809635002021e-07
3.88642236481336e-06
-4.71163631298612e-08
-5.98201838347035e-07
3.49357426065387e-06
-4.5531765575339e-08
-6.79273753198047e-07
3.15961518122325e-06
-4.27612198556762e-08
-7.2259242080412e-07
2.772339972699e-06
-3.50931240591576e-08
-7.11978854777889e-07
2.36903127591921e-06
-2.38701923733114e-08
-6.65724265386279e-07
2.01607371540167e-06
-1.13939691875858e-08
-6.05739969911623e-07
2.22397359852829e-05
-1.81507629190626e-06
-2.65588077983529e-07
7.03762771752174e-06
-2.77166039342883e-07
-3.77887184701717e-07
4.49759003648172e-06
-6.36749984139094e-08
-4.70326746411968e-07
3.77915745795857e-06
-3.84294511173074e-08
-5.62214280652114e-07
3.43172540971366e-06
-4.0887453703036e-08
-6.48209302273376e-07
3.21175286530903e-06
-4.34522170235427e-08
-7.17472501893017e-07
2.97604024150742e-06
-4.06443727511512e-08
-7.49617514063528e-07
2.64107853712918e-06
-3.27163936850866e-08
-7.28733366643208e-07
2.26852001526193e-06
-2.20364077534565e-08
-6.74194156903076e-07
1.94524308124015e-06
-1.05075796431784e-08
-6.09063714238889e-07
2.23600673064015e-05
-1.89170386335317e-06
-2.77356221144224e-07
6.97180686591538e-06
-2.86232889481594e-07
-3.55528892012908e-07
4.4064726181197e-06
-6.03939360002739e-08
-4.42180506169145e-07
3.6734875870564e-06
-3.16245351744101e-08
-5.28633560158221e-07
3.33196441259367e-06
-3.53886518537794e-08
-6.11700711719247e-07
3.15774756245748e-06
-4.13754503289432e-08
-6.88245215434897e-07
3.03325737307505e-06
-4.27704294324238e-08
-7.48050654687681e-07
2.84476508872271e-06
-3.84804666281199e-08
-7.70720393146469e-07
2.53979485808627e-06
-3.00006347146809e-08
-7.41029505829595e-07
2.1900749020588e-06
-1.97223235601237e-08
-6.7928644530449e-07
1.89008216806468e-06
-9.25864487865837e-09
-6.09629244524096e-07
1.71294824342952e-05
-3.90518705641142e-07
-2.64362140967728e-07
1.99203136044114e-05
-7.55283551018754e-07
-2.83596111002401e-07
4.74093517102578e-06
-9.10118364628949e-08
-3.79558743189029e-07
2.14857697037102e-05
-1.06804520095065e-06
-2.99722705306591e-07
5.93751796598938e-06
-1.74362307189451e-07
-4.24185666956766e-07
3.26383587610956e-06
-5.08785115020299e-08
-4.59198506331562e-07
2.31757179284106e-05
-1.33486839769191e-06
-3.11984730715196e-07
6.58824690271413e-06
-2.34417369000393e-07
-4.57116929151024e-07
3.93515057969076e-06
-9.08577368672012e-08
-5.17396844288304e-07
2.84604951740516e-06
-3.38832299765127e-08
-5.22880021841327e-07
2.42128038397241e-05
-1.54919016230684e-06
-3.16071041658592e-07
7.21162169198797e-06
-2.75925376665019e-07
-4.81115276069805e-07
4.40993194823074e-06
-1.11996281493533e-07
-5.65325159161739e-07
3.33005580161919e-06
-5.98475512148509e-08
-5.87424749746056e-07
2.62474552357391e-06
-2.66448351450667e-08
-5.70810148597565e-07
2.44438227259301e-05
-1.70802161781089e-06
-3.07053559755011e-07
7.52622932517055e-06
-3.03090273146201e-07
-4.81954833175217e-07
4.79174501972381e-06
-1.19470414977909e-07
-5.96390500478655e-07
3.72231406942835e-06
-7.36837222948299e-08
-6.43856816144246e-07
2.99568713865403e-06
-4.52173510724867e-08
-6.39789454184991e-07
2.45271603700436e-06
-2.14575096039371e-08
-6.05124910995865e-07
2.41370271407129e-05
-1.81707323847561e-06
-2.9201867554051e-07
7.56682231530386e-06
-3.17340440490043e-07
-4.6334383498056e-07
4.91907527600527e-06
-1.17632737483771e-07
-5.92967702266161e-07
4.01219508026348e-06
-7.79039684629095e-08
-6.77995289963629e-07
3.32282494233732e-06
-5.66239213840357e-08
-6.99269396905502e-07
2.76195981242712e-06
-3.73188636433969e-08
-6.75860684409654e-07
2.30448497745501e-06
-1.76004047582286e-08
-6.28094140944941e-07
2.36125633147725e-05
-1.88357353246251e-06
-2.77936219600343e-07
7.46771788710768e-06
-3.21709190803399e-07
-4.38594444903104e-07
4.86314718890942e-06
-1.09455895260499e-07
-5.65984787011075e-07
4.08180557301643e-06
-7.48787004651563e-08
-6.71221995184685e-07
3.55733044430682e-06
-6.19528135547818e-08
-7.33851899549667e-07
3.05300928643298e-06
-4.84195679844931e-08
-7.36532212622525e-07
2.5845655303921e-06
-3.24898864725732e-08
-6.98531886589742e-07
2.17997134452865e-06
-1.49890271175412e-08
-6.41858198190629e-07
2.30654729251312e-05
-1.92026402539096e-06
-2.68549721963808e-07
7.33309510297972e-06
-3.19450743980937e-07
-4.15008849820043e-07
4.74009971530354e-06
-9.78698408350563e-08
-5.31812192488711e-07
4.00652646060475e-06
-6.69394399380915e-08
-6.38046318227627e-07
3.60546545987708e-06
-6.15131704082737e-08
-7.24940243315703e-07
3.26251143932045e-06
-5.50622298237379e-08
-7.71445483437896e-07
2.86276718627026e-06
-4.3735389890245e-08
-7.60473576955003e-07
2.44539499347088e-06
-2.9078592881805e-08
-7.1131387190444e-07
2.07987701139105e-06
-1.37111600672777e-08
-6.48126378349527e-07
2.26709214715492e-05
-1.94447643851001e-06
-2.68035905710493e-07
7.21192295230527e-06
-3.15792588578309e-07
-3.96969220201013e-07
4.61607432906182e-06
-8.57640050396687e-08
-4.99091031848691e-07
3.88625404992251e-06
-5.66264029799481e-08
-5.97394074297329e-07
3.53344982417827e-06
-5.66666165488724e-08
-6.88790541880733e-07
3.30892580101114e-06
-5.67284572472951e-08
-7.62478432374171e-07
3.06639929096947e-06
-5.11006806671916e-08
-7.96942898349174e-07
2.72057189464411e-06
-4.0122388951146e-08
-7.75219475600697e-07
2.33551018118632e-06
-2.64877024328482e-08
-7.17620170527812e-07
2.00122021676557e-06
-1.2463559390951e-08
-6.49253276245878e-07
2.28125516087894e-05
-1.97765766988453e-06
-2.89895255817318e-07
7.12854172661234e-06
-3.17405394896288e-07
-3.82077286206556e-07
4.51239049439855e-06
-7.78412144086266e-08
-4.69636704027701e-07
3.77072341820574e-06
-4.71126132364309e-08
-5.58877484615e-07
3.42472489559307e-06
-4.98914648804203e-08
-6.45969489674278e-07
3.24746067696903e-06
-5.45430203672801e-08
-7.26830507684452e-07
3.11962446191325e-06
-5.41207147055077e-08
-7.90362343170093e-07
2.92490505361684e-06
-4.75764533217415e-08
-8.14896949658156e-07
2.60989718699877e-06
-3.66279238348974e-08
-7.84243451598328e-07
2.24892466563888e-06
-2.39157226984357e-08
-7.19635308691715e-07
1.93923728322481e-06
-1.12032245641236e-08
-6.4701546623498e-07
2.10766206789869e-05
-1.95727480121543e-06
-2.6542382058047e-07
7.08706194068072e-06
-3.49753745784912e-07
-3.64408463141157e-07
4.4315273254509e-06
-7.88680367460752e-08
-4.41522773938448e-07
3.67070648625971e-06
-4.17917166650154e-08
-5.25075651231478e-07
3.31879202789795e-06
-4.39535353686968e-08
-6.06832521428987e-07
3.15043396170357e-06
-5.08093913243163e-08
-6.85443676154898e-07
3.06945621274891e-06
-5.39838121171806e-08
-7.57811339781074e-07
2.98568823053263e-06
-5.14379017547384e-08
-8.12600479266154e-07
2.81566914895614e-06
-4.37214654386459e-08
-8.28420042759639e-07
2.52247781824934e-06
-3.27911310018343e-08
-7.89948264243559e-07
2.18042076071945e-06
-2.0962520414279e-08
-7.19170428686195e-07
1.88959414696952e-06
-9.65791749418321e-09
-6.42780868417395e-07
1.78492616122032e-05
-4.38401703636521e-07
-2.81367297320441e-07
2.06785476322005e-05
-8.45741302754933e-07
-3.02983570701657e-07
4.9897900869282e-06
-1.0632864245442e-07
-4.0687865967416e-07
2.22442485881496e-05
-1.19288758581164e-06
-3.20853586685813e-07
6.22146157020403e-06
-2.04433061383989e-07
-4.54108412680956e-07
3.43945237891917e-06
-6.14980318448235e-08
-4.93675448244409e-07
2.39280700653203e-05
-1.48424589585616e-06
-3.3613068604928e-07
6.88079919481296e-06
-2.75987252539144e-07
-4.90639392151259e-07
4.12579757281727e-06
-1.10334842620796e-07
-5.55372091813718e-07
2.99184386333594e-06
-4.21783744723645e-08
-5.62813636101146e-07
2.49327631877855e-05
-1.71579951263236e-06
-3.39013791970499e-07
7.50706802137986e-06
-3.25941858892679e-07
-5.1589640424884e-07
4.60748779944747e-06
-1.38550826428858e-07
-6.06975848605526e-07
3.48495416977267e-06
-7.48193630179064e-08
-6.31356477963317e-07
2.74993227375175e-06
-3.2970376448588e-08
-6.15095739169181e-07
2.51071969531195e-05
-1.88200867982558e-06
-3.3053924117644e-07
7.80905764834372e-06
-3.57963047346854e-07
-5.16853523236619e-07
4.98861840992919e-06
-1.50274549495809e-07
-6.39706114662215e-07
3.88235663449168e-06
-9.36018038429229e-08
-6.91610278150302e-07
3.12623860387264e-06
-5.6819959347309e-08
-6.87799146612501e-07
2.56058397147356e-06
-2.65794843070389e-08
-6.52098066920929e-07
2.4732372485864e-05
-1.99046221878388e-06
-3.1289187308345e-07
7.82729811097761e-06
-3.73985806055606e-07
-4.96624931012793e-07
5.10382255185797e-06
-1.50556956290166e-07
-6.35613087047595e-07
4.1703960741508e-06
-1.00962229463453e-07
-7.27309350678254e-07
3.45683256535367e-06
-7.21658531181823e-08
-7.50914014465234e-07
2.8735184538342e-06
-4.66191010670585e-08
-7.26184972343105e-07
2.39742658079711e-06
-2.17528330155075e-08
-6.76313231494268e-07
2.41431117442494e-05
-2.05095340049598e-06
-2.96653707908775e-07
7.70318202588623e-06
-3.76470336053843e-07
-4.68342376182977e-07
5.03009263953667e-06
-1.42259059784093e-07
-6.05659762485556e-07
4.22924307916558e-06
-9.93106175425743e-08
-7.18996314249633e-07
3.68938386783466e-06
-8.00474293507571e-08
-7.8662344186052e-07
3.16741070107935e-06
-6.09385907948855e-08
-7.90049623413885e-07
2.68080030988921e-06
-4.00941906718154e-08
-7.496005478759e-07
2.26028016995117e-06
-1.84430877055089e-08
-6.89959455682701e-07
2.35400133231647e-05
-2.07634084091458e-06
-2.81758034361733e-07
7.54523531653128e-06
-3.70901636094125e-07
-4.4087561794936e-07
4.88836382533662e-06
-1.28703501800118e-07
-5.67608294591336e-07
4.13889342115675e-06
-9.10872386481759e-08
-6.82140953949512e-07
3.72856324671001e-06
-8.07932028361485e-08
-7.75477559138747e-07
3.37555527515139e-06
-6.97807621041355e-08
-8.25533273933093e-07
2.96196705253413e-06
-5.40508979895521e-08
-8.14170234167445e-07
2.52899980610347e-06
-3.53470974559685e-08
-7.61777699167105e-07
2.14961376627485e-06
-1.65335058064216e-08
-6.95061187270157e-07
2.31098731757247e-05
-2.0860433933193e-06
-2.73156290500284e-07
7.40353902692901e-06
-3.61894872606005e-07
-4.17715156888268e-07
4.74744377837885e-06
-1.13426947575096e-07
-5.30816843372185e-07
4.00369989107595e-06
-7.92070524444442e-08
-6.36988552650704e-07
3.64456886217313e-06
-7.58795466425869e-08
-7.3479766902557e-07
3.41504906105782e-06
-7.26102693535781e-08
-8.13514198356653e-07
3.16511879794673e-06
-6.34171040252952e-08
-8.50482583428627e-07
2.80739272177414e-06
-4.87423469045709e-08
-8.27629910591223e-07
2.40850350745797e-06
-3.16570072706636e-08
-7.66360887373542e-07
2.06204506989644e-06
-1.47520610845518e-08
-6.94198995326986e-07
2.32455950023405e-05
-2.08727883204773e-06
-2.90234665568956e-07
7.30127671759835e-06
-3.55774247219744e-07
-4.00783137920634e-07
4.62847769889586e-06
-1.00789184737829e-07
-4.9802928250243e-07
3.87547789920489e-06
-6.68989578931654e-08
-5.93571764275388e-07
3.52460372259857e-06
-6.78494556261281e-08
-6.8608928135083e-07
3.34439762966604e-06
-7.04625828238809e-08
-7.71992021750849e-07
3.21323823078096e-06
-6.75525639349019e-08
-8.3963971059357e-07
3.01197914100852e-06
-5.80799380068536e-08
-8.66058649029394e-07
2.68616464769198e-06
-4.400185319783e-08
-8.3397211212698e-07
2.31282598401653e-06
-2.83143389746428e-08
-7.65670251730083e-07
1.99242869478e-06
-1.31268632330953e-08
-6.89317665891591e-07
2.1438366751396e-05
-2.05116278108413e-06
-2.88235489966208e-07
7.24540125398192e-06
-3.75477581662777e-07
-3.90155847114088e-07
4.53625797634584e-06
-9.60743626484342e-08
-4.68572432495304e-07
3.76649846915974e-06
-5.79054722018571e-08
-5.54633559501302e-07
3.4100859948273e-06
-5.97363896079225e-08
-6.40325186261503e-07
3.23901994279544e-06
-6.57472521328346e-08
-7.23350114708198e-07
3.15607739523503e-06
-6.74834335935046e-08
-8.0008799037096e-07
3.06913265686041e-06
-6.29315367386002e-08
-8.58451086454307e-07
2.8927578380273e-06
-5.28089332381771e-08
-8.75804009524752e-07
2.5895208066005e-06
-3.93318733720145e-08
-8.35869997686333e-07
2.23633268586495e-06
-2.50594076865518e-08
-7.61690707075272e-07
1.93604233421932e-06
-1.15465489864652e-08
-6.81917048863307e-07
2.14494999001061e-05
-2.02192188495063e-06
-2.65581195033746e-07
7.0804481424422e-06
-4.05817166179322e-07
-3.59803539087823e-07
4.47012137505312e-06
-1.07240258634989e-07
-4.41013117995749e-07
3.67573321350501e-06
-5.54766879084727e-08
-5.20658199812472e-07
3.30947542415497e-06
-5.43543211156516e-08
-6.00772886122799e-07
3.13558949115453e-06
-6.10386614246214e-08
-6.78930795072853e-07
3.06252268646875e-06
-6.53610902732595e-08
-7.54216580093671e-07
3.02312565201294e-06
-6.44000803914578e-08