/*--------------------------------*- C++ -*----------------------------------*\
  =========                 |
  \\      /  F ield         | OpenFOAM: The Open Source CFD Toolbox
   \\    /   O peration     | Website:  https://openfoam.org
    \\  /    A nd           | Version:  12
     \\/     M anipulation  |
\*---------------------------------------------------------------------------*/
/*   Windows 32 and 64 bit porting by blueCAPE: http://www.bluecape.com.pt   *\
|  Based on Windows porting (2.0.x v4) by Symscape: http://www.symscape.com   |
\*---------------------------------------------------------------------------*/
FoamFile
{
    format      ascii;
    class       volVectorField;
    location    "200";
    object      U;
}
// * * * * * * * * * * * * * * * * * * * * * * * * * * * * * * * * * * * * * //

dimensions      [0 1 -1 0 0 0 0];

internalField   nonuniform List<vector> 
10252
(
(3.27197179783398e-06 0.00111479617753353 2.52173207203946e-05)
(3.72623819677439e-06 0.00114307119485608 2.78118440400056e-05)
(1.17601444243351e-05 0.000945904329321065 2.23942901784755e-05)
(4.74665400641231e-06 0.000730069670494352 5.40178950774097e-05)
(3.9786624594543e-06 0.00117875189601304 3.08505948912443e-05)
(1.25068938209963e-05 0.000961133328340023 2.44617703638607e-05)
(4.9594719035887e-06 0.000749363792761971 5.92031304521e-05)
(2.1768654408383e-05 0.000865542114850726 2.1757087278277e-05)
(1.57664006309824e-05 0.000586226965478568 5.25646738122273e-05)
(3.20720853066025e-06 0.000837562798956372 8.6259897593634e-05)
(3.74968317780089e-06 0.00122017215230877 3.42146322064094e-05)
(1.26293793582544e-05 0.000990462428916125 2.72413488700573e-05)
(4.99230873661261e-06 0.000774557828887096 6.50302411548574e-05)
(2.19381363637344e-05 0.00087397562798367 2.36902381132776e-05)
(1.62514146472362e-05 0.000596209755457248 5.77447507139475e-05)
(3.16237196005474e-06 0.000861496738490802 9.35518987802468e-05)
(3.23980515673238e-05 0.000842952264521213 2.2992833229924e-05)
(2.8367970526904e-05 0.00051777646415069 5.18984316567176e-05)
(9.99459031100826e-06 0.000766557632330397 8.51062845515505e-05)
(2.18501524052982e-06 0.000896930253796146 0.000119896041697255)
(3.34349975378842e-06 0.00126769366448383 3.79834663790321e-05)
(1.17247376857787e-05 0.0010271106968196 3.05017898635209e-05)
(4.81601874396044e-06 0.000804280260769365 7.1643127805761e-05)
(2.11483197082873e-05 0.000900261923985129 2.64516373203193e-05)
(1.6221971678258e-05 0.000616145207366532 6.32597630704581e-05)
(3.00586852756537e-06 0.000889673271643244 0.000101990918284298)
(3.16570435454391e-05 0.000848359233201614 2.47008198775218e-05)
(2.88015661429211e-05 0.000521870563726286 5.71443054843141e-05)
(9.81949377647154e-06 0.00078477598933964 9.22723046668865e-05)
(2.0135936835777e-06 0.000923574322456856 0.000129256133421536)
(4.38674433863305e-05 0.000818433862327983 2.35042590291102e-05)
(4.16865324662541e-05 0.00049155120424583 5.17950381723748e-05)
(1.84410406870141e-05 0.000722516848137925 8.42503636365272e-05)
(6.14089446583811e-06 0.000855417603313424 0.000118516376303038)
(1.35730966988445e-06 0.000933471678852736 0.000152784506127854)
(2.81847580123422e-06 0.00132190568699369 4.22731661237139e-05)
(1.03388959772294e-05 0.00106987913291502 3.41706349819642e-05)
(4.52246935236177e-06 0.0008386052398093 7.90230398521792e-05)
(1.93024686090745e-05 0.000934583102958961 2.975962529337e-05)
(1.56325661704054e-05 0.000642853044014605 6.979294717058e-05)
(2.72162834930266e-06 0.000921823219551035 0.000111565301280715)
(2.97283212440186e-05 0.000872924189398858 2.67226220574907e-05)
(2.84448772168881e-05 0.000538361590250614 6.24632958520488e-05)
(9.28899000660571e-06 0.000809605151805463 0.000100547112257963)
(1.77398022666103e-06 0.000953816559122396 0.000140195423137936)
(4.23744838792848e-05 0.000821813593196213 2.64371376849256e-05)
(4.19367127780327e-05 0.000492823322631123 5.7135373526178e-05)
(1.80523623299102e-05 0.000736650246182969 9.1314406384416e-05)
(5.60450215248784e-06 0.00087853652089345 0.000127650148900687)
(1.12071869471342e-06 0.000961483064298738 0.000164101579945034)
(5.63510234297393e-05 0.000787213570725506 2.2998078913363e-05)
(5.57824113461304e-05 0.000468960128715022 5.1193424497683e-05)
(2.76601052271334e-05 0.000698627387425743 8.37624642952737e-05)
(1.14553984084702e-05 0.000824962651943607 0.000117385633927423)
(3.40693273971026e-06 0.000904037899411989 0.00015085736165455)
(6.0258757616085e-07 0.000958678020497725 0.00018401930683844)
(2.1630484330578e-06 0.00138373982294299 4.71764944909282e-05)
(8.58678947320705e-06 0.00111901558934362 3.83744552903884e-05)
(4.12608046248801e-06 0.000878010850346337 8.71403334920183e-05)
(1.67572996618019e-05 0.00097507203179858 3.34630790515576e-05)
(1.46935502747576e-05 0.000674465568509037 7.7328661477526e-05)
(2.32426846154749e-06 0.000958267936362651 0.000122281759042517)
(2.67176580856757e-05 0.000905858555678025 2.9959762475446e-05)
(2.73488719941012e-05 0.000563059742575366 6.88995350672013e-05)
(8.37519459269143e-06 0.000839817259068662 0.000110158584592453)
(1.43839967321653e-06 0.000987726619348814 0.000152656185829391)
(3.92428299722091e-05 0.000844706840273202 2.85034036933202e-05)
(4.11812780453996e-05 0.000507351762086927 6.23354991248745e-05)
(1.70881208098575e-05 0.000758894852055478 9.94091298755417e-05)
(4.81853036724793e-06 0.000906597133460155 0.000138434353974414)
(8.23400022225309e-07 0.0009927980306959 0.000177303073136729)
(5.41282987431437e-05 0.000788592401001902 2.62379741043944e-05)
(5.58531513101046e-05 0.000468407350110317 5.66324476340129e-05)
(2.6988301749081e-05 0.000710414389016748 9.07758809250294e-05)
(1.0547554261936e-05 0.000845300499343962 0.000126309660924672)
(2.66060826948826e-06 0.000929562527438807 0.000161889137373681)
(3.22891362384997e-07 0.000987240618219578 0.000197135144701514)
(6.98840333156863e-05 0.000749658997560151 2.19551983194192e-05)
(7.03334470492802e-05 0.00044683242980158 4.99625734384931e-05)
(3.7547752196319e-05 0.000677537704517312 8.25645745483646e-05)
(1.73815049660928e-05 0.000805869438382908 0.00011647135426184)
(6.32397905317075e-06 0.000880784648820852 0.000149221022268646)
(1.2981625048737e-06 0.000935701634616295 0.000181479104940192)
(-3.50374318162251e-08 0.000977942773542458 0.000213300594306667)
(1.43616088258158e-06 0.00145416580959191 5.3531797119859e-05)
(6.42846495533192e-06 0.00117537633939951 4.31691117065419e-05)
(3.58755524645089e-06 0.000923268241033113 9.60889919905211e-05)
(1.35220664974596e-05 0.00102169183987528 3.77060729262252e-05)
(1.34289345238619e-05 0.000711023050727102 8.57783114119175e-05)
(1.81286254621194e-06 0.000999579647067057 0.000134175084903825)
(2.27389184619116e-05 0.000944993036205157 3.36428775231716e-05)
(2.56949393879377e-05 0.000592827890659049 7.64678752373048e-05)
(7.12230661587623e-06 0.000874509992548261 0.000121065388065963)
(9.9474786905226e-07 0.00102571524061031 0.000166614731671595)
(3.47844854981327e-05 0.0008760882217208 3.04599744113188e-05)
(3.95038740826751e-05 0.000530913227445801 6.87056286315025e-05)
(1.55339067647782e-05 0.000787511648189749 0.000108939805349714)
(3.73126924323317e-06 0.000939149526247486 0.000150879778539647)
(4.4495960958939e-07 0.00102755003683698 0.000192317005954341)
(4.98044298444816e-05 0.000809856458131645 2.90760024414137e-05)
(5.47129946248537e-05 0.000481335243776441 6.17602516584332e-05)
(2.55537643362612e-05 0.000730886070730826 9.8733617444377e-05)
(9.18257635011643e-06 0.000871466528141579 0.00013687773560029)
(1.71193440050391e-06 0.000959257620311281 0.000174916640935776)
(-1.04921676426765e-08 0.00101892834216569 0.000212372663455016)
(6.68667081268917e-05 0.000749069758583115 2.53798148834898e-05)
(7.02509015295845e-05 0.000444812444139783 5.536669152928e-05)
(3.66124722133656e-05 0.000687688576964932 8.94896162991824e-05)
(1.6033643516416e-05 0.000824469620312001 0.00012524571436003)
(5.09576593821877e-06 0.000904204670275006 0.000159939307860819)
(4.43691692547091e-07 0.000962340779891352 0.000194293174366895)
(-3.39454409250941e-07 0.00100656484434929 0.000228106796844973)
(8.44836100551747e-05 0.000705994871011594 2.05633914623361e-05)
(8.50390913583905e-05 0.000425096092919622 4.81472514341982e-05)
(4.77267719294449e-05 0.000657573619110727 8.05953482084679e-05)
(2.38238307186111e-05 0.000788251626589633 0.000114651281660783)
(9.80786510582576e-06 0.000865106169645069 0.000147813416417069)
(2.47411911976298e-06 0.000916859790780733 0.00017916747192039)
(-3.43653784467117e-07 0.000958867010779375 0.000210198019362072)
(-5.30917047363387e-07 0.00099399348923531 0.000240673991474256)
(5.5561148529399e-07 0.00153437504926292 6.06640408004844e-05)
(3.83278022995775e-06 0.00124001587509387 4.8797377457111e-05)
(2.88468234150937e-06 0.000975195073647577 0.000106106468903208)
(9.49058309689228e-06 0.00107535789393595 4.24596126534236e-05)
(1.17717398926001e-05 0.000753193875370829 9.5128587431378e-05)
(1.17069982538929e-06 0.00104648363362805 0.000147326123106384)
(1.77258531556043e-05 0.000990083040690013 3.77452840727491e-05)
(2.34897558651024e-05 0.000627380554930433 8.49924362772198e-05)
(5.51841167941727e-06 0.000913945168756264 0.00013323247760012)
(4.37883013262225e-07 0.00106832767844075 0.000182074496930227)
(2.91749886457687e-05 0.000913536601563891 3.35431858017995e-05)
(3.70354508816352e-05 0.000559674287348001 7.62916254311075e-05)
(1.34233297880833e-05 0.000820720430082881 0.000119851409013061)
(2.32147185445696e-06 0.00097589770781486 0.000164920408096181)
(-3.27847864386508e-08 0.00106616891009779 0.000209110138699789)
(4.3948713569554e-05 0.000839492003102618 3.17395298880656e-05)
(5.24558633234975e-05 0.000503720957223106 6.79669569751693e-05)
(2.33253785198496e-05 0.00075830161147929 0.00010816747698468)
(7.31694572732817e-06 0.000902729702629863 0.000149169332007539)
(5.01368051920381e-07 0.00099296222903714 0.000189880880725399)
(-4.17148894230906e-07 0.0010539043234016 0.000229668913525161)
(6.13851204455264e-05 0.000768547735946163 2.8358448393806e-05)
(6.87273724769251e-05 0.000456388170630828 6.04193114286514e-05)
(3.47347105283188e-05 0.000706685621052644 9.72948317972602e-05)
(1.40476867781404e-05 0.00084927212386957 0.000135663872238654)
(3.46032042453874e-06 0.000932422655328541 0.000172718638393187)
(-6.02491929885882e-07 0.000992756526574995 0.000209355958046411)
(-6.96454683986458e-07 0.00103819396763613 0.000245240464504148)
(8.02142467047503e-05 0.000703373570069099 2.40087234773154e-05)
(8.48341630279799e-05 0.000421770179866888 5.33997701695666e-05)
(4.65959853178029e-05 0.000666428620262688 8.73552111494114e-05)
(2.20623676029799e-05 0.000805581638858302 0.000123232095244641)
(8.01920271671301e-06 0.000887202771184563 0.000158335688126128)
(1.04174496958722e-06 0.000941828085294362 0.000191617051515556)
(-1.26344923521725e-06 0.000985893606098944 0.000224647230349314)
(-8.47152212080566e-07 0.00102233424440713 0.000257056793865368)
(0.000100901164045648 0.000655019447076968 2.00085708918892e-05)
(9.95569026231226e-05 0.000402833219027286 4.57824114782625e-05)
(5.78573618395618e-05 0.00063810881006204 7.78961228583698e-05)
(3.04820578088594e-05 0.000771180293589676 0.000111924107936429)
(1.36188815601409e-05 0.000849989589978281 0.000145399889202614)
(4.04863114282102e-06 0.000903548514181026 0.000177217098423783)
(-4.66833868251944e-07 0.00094292276095313 0.000207299439218936)
(-1.63314575800518e-06 0.000977323795649105 0.00023702043713292)
(-8.79642619718478e-07 0.00100800602709999 0.00026618022620618)
(-4.64302116841257e-07 0.00162546050203668 6.75072123652366e-05)
(6.99927897081106e-07 0.00131396552988967 5.61093000159318e-05)
(2.04417337545758e-06 0.00103457855492666 0.000117136241639191)
(4.55833788293226e-06 0.00113717272508542 4.82576545729662e-05)
(9.63753321803123e-06 0.000801738984628335 0.00010542795439169)
(3.72390155539774e-07 0.00109971321941481 0.000161785838088132)
(1.14911838412773e-05 0.00104194798778883 4.23755082288603e-05)
(2.06407373876778e-05 0.000667322957048697 9.40738766755129e-05)
(3.51381203706881e-06 0.000958751075049286 0.000146692826027721)
(-2.36161688545892e-07 0.00111620629562803 0.000199060731904568)
(2.2185110274481e-05 0.000956718322540955 3.76084261564712e-05)
(3.37427109982033e-05 0.000593094437211824 8.48549948856931e-05)
(1.07134239472449e-05 0.000858537244267716 0.000132057425012015)
(5.65408478398871e-07 0.0010172067826886 0.000180537024546625)
(-6.20532116540151e-07 0.00110917430218887 0.000227678109865897)
(3.66117787799212e-05 0.000874852776207036 3.40378386484018e-05)
(4.91762878270111e-05 0.00053130923794322 7.54586511041973e-05)
(2.03100162720633e-05 0.000790351417987732 0.000119027139330576)
(4.91978398661415e-06 0.000938243093424197 0.00016310215928911)
(-1.01026571564912e-06 0.00103062594560807 0.000206711698307079)
(-9.15756668188164e-07 0.00109257926345213 0.000249017288970664)
(5.4238576929074e-05 0.000796260668072704 3.15792344490947e-05)
(6.59281642906464e-05 0.000477543627725106 6.65269501670263e-05)
(3.18635676190137e-05 0.00073287856522491 0.000106569652986493)
(1.13516625223985e-05 0.000879526507487396 0.000147853592168105)
(1.36453999016295e-06 0.000965086503082479 0.000187528066558756)
(-1.88891626860674e-06 0.0010268842520405 0.000226590758430837)
(-1.12233942680237e-06 0.00107298449613746 0.000264662449861185)
(7.36009699091914e-05 0.000721340353456094 2.67894372291607e-05)
(8.29725216574008e-05 0.000432137201504031 5.82643997096988e-05)
(4.43385624527513e-05 0.000684158804125979 9.49695521048559e-05)
(1.94864399662251e-05 0.000829187661629745 0.000133435418534462)
(5.6466813003681e-06 0.000914322009169082 0.00017092256215145)
(-7.73972114119853e-07 0.000971054619065556 0.000206418049736356)
(-2.36846087975699e-06 0.00101643987631201 0.000241549289904205)
(-1.21697456839199e-06 0.00105355074082996 0.000275920089463924)
(9.40562359910431e-05 0.000650955455765641 2.27279388721807e-05)
(9.91974305986988e-05 0.000398232179451387 5.07231377076253e-05)
(5.66295224917179e-05 0.000645843483919515 8.44000857268354e-05)
(2.83841828782998e-05 0.000787484737660378 0.000120245928393013)
(1.12917291220418e-05 0.000871068824997578 0.000155655789216166)
(1.9698369871581e-06 0.000927425062954947 0.000189393329073218)
(-2.02811073161001e-06 0.000968574284751525 0.000221363423778407)
(-2.58737450011122e-06 0.00100427780961408 0.000252985523263203)
(-1.19885896678798e-06 0.0010357856154671 0.000284004432463236)
(0.000119867517253954 0.000608181738877827 1.73698414687543e-05)
(0.000113396550570502 0.000378647620449527 4.28378587738096e-05)
(6.76334225636195e-05 0.000618152123294501 7.4418154379238e-05)
(3.70673710993134e-05 0.00075410568106271 0.000108327111604515)
(1.75920910432221e-05 0.000834836378707909 0.000142008085877693)
(5.81544126299245e-06 0.000890207572976183 0.000174288431066607)
(-4.0264826252336e-07 0.000931219484479913 0.000204876217828201)
(-2.73712482247146e-06 0.000963279870519191 0.000233706023751545)
(-2.6150117227318e-06 0.000992900758428241 0.000262124361595198)
(-1.12471820241809e-06 0.00102042752914784 0.000289948296584704)
(-1.60106451857421e-06 0.00172840141219337 7.45139688631491e-05)
(-2.94305509844263e-06 0.00139818246072188 6.50689577707338e-05)
(1.03240433759579e-06 0.00110224180230886 0.000129001327436181)
(-1.38790492246733e-06 0.00120791923227228 5.6523503438347e-05)
(7.05393757398217e-06 0.000857365187858201 0.000116394439548591)
(-5.91783852165976e-07 0.00115998379347191 0.000177538177367414)
(3.84999918422976e-06 0.00110156448430777 4.79098391297535e-05)
(1.70168674865375e-05 0.000713362938403425 0.000103755831175435)
(1.04769148768119e-06 0.00100960966630437 0.000161496110683457)
(-1.05833317432041e-06 0.00117002387656273 0.000217587787150314)
(1.3512270969372e-05 0.00100641760762165 4.22910940599749e-05)
(2.95083484599208e-05 0.000631629863284542 9.41674569684812e-05)
(7.33002513972718e-06 0.000901517478362016 0.000145559801770012)
(-1.56892580891179e-06 0.00106363794954123 0.000197739393758331)
(-1.3281851132054e-06 0.0011571678085588 0.000248044375439841)
(2.75847094179087e-05 0.000915755660944878 3.71674651903941e-05)
(4.47581691947503e-05 0.000563385941312118 8.40029108522004e-05)
(1.64285438444355e-05 0.000826866254506907 0.000131197451374455)
(1.92521181195205e-06 0.000978222559146846 0.000178654674348421)
(-2.85572285219777e-06 0.00107263179535307 0.000225398945404084)
(-1.51861297762258e-06 0.0011354494600384 0.000270442973709904)
(4.54494323704837e-05 0.000829431358043111 3.4999199086358e-05)
(6.1906642540326e-05 0.000503756806619072 7.3860419079634e-05)
(2.79792630610059e-05 0.000763644927458456 0.00011729197577412)
(7.89236402939541e-06 0.000914011348117579 0.000161701380014802)
(-1.24104553547848e-06 0.00100175179963528 0.000204259844945381)
(-3.45816967013961e-06 0.00106476933077243 0.000245943114721808)
(-1.63479939375834e-06 0.00111130223548859 0.000286366728624458)
(6.5480154289094e-05 0.000746997537803013 2.98872085698682e-05)
(7.97086992181238e-05 0.000452076385135608 6.42102310049788e-05)
(4.09079419842396e-05 0.000709114591233546 0.000104049007316208)
(1.59965681212442e-05 0.00085835564976611 0.0001454148012243)
(2.61095296310658e-06 0.000946083458445586 0.00018555376818184)
(-3.02350344113581e-06 0.00100431822668004 0.00022348584178327)
(-3.69933654666488e-06 0.00105047358137588 0.000260824522446539)
(-1.65417836289873e-06 0.00108778372606617 0.000297243155796408)
(8.63911381055617e-05 0.000668028697083559 2.5046962283485e-05)
(9.71220662724749e-05 0.000407546618833208 5.52587965219517e-05)
(5.41028148762933e-05 0.000662439995446465 9.17514980447445e-05)
(2.53008874145756e-05 0.000810022304324872 0.000130180122172647)
(8.20668235330208e-06 0.000897189105655668 0.000167966535657225)
(-6.64164801874582e-07 0.000955706461355586 0.000203920456381721)
(-3.9529704114224e-06 0.000998112996804799 0.000237965057136429)
(-3.72329272773167e-06 0.00103453908908853 0.000271565493411884)
(-1.57323572964905e-06 0.00106629944091034 0.00030444012805863)
(0.000110975743763854 0.000606994392595857 1.79874665832545e-05)
(0.000112827869353592 0.000372878649818336 4.72295472573107e-05)
(6.64337980197669e-05 0.000624839630679206 8.05463973494095e-05)
(3.47458861086136e-05 0.000769511781530963 0.000116312856289892)
(1.48003178956718e-05 0.000855067086448236 0.000151932150084919)
(3.10459140675464e-06 0.000913226556440582 0.000186135035976818)
(-2.66880721374481e-06 0.000955930089049649 0.000218595525354207)
(-4.3718412725617e-06 0.000989045018332201 0.000249245878344645)
(-3.58116796155314e-06 0.0010194346564646 0.000279488587612232)
(-1.44425678149873e-06 0.00104739755513481 0.000309088831355283)
(0.000107951646248745 0.000633233689667731 1.63415587634321e-05)
(0.000125677424610366 0.00035225349119124 3.85612299419434e-05)
(7.66378147392692e-05 0.000596697268416664 7.00166562509754e-05)
(4.33447098412725e-05 0.000736294741490316 0.000103758455438547)
(2.15296729057748e-05 0.000819268494471502 0.000137651353302525)
(7.71097971308612e-06 0.000876382216566991 0.00017036306053441)
(-2.29653005491895e-07 0.000919105210057028 0.000201545176755994)
(-3.84943174585598e-06 0.000952625037216984 0.000230952337213846)
(-4.48904717177859e-06 0.00098007903537684 0.000258524552517677)
(-3.34999285799593e-06 0.00100636934059186 0.000285627064810838)
(-1.29112436327873e-06 0.00103131287386724 0.000312096932475517)
(-3.01215018989378e-06 0.00184425837168398 8.20339113000241e-05)
(-7.1961661275278e-06 0.00149356874810407 7.41955397921057e-05)
(-2.12279008749428e-07 0.00117907010639801 0.000141755198136289)
(-8.54270732647905e-06 0.00128861952832817 6.66786076514963e-05)
(3.98777744260104e-06 0.000920753057674611 0.000127845150187933)
(-1.73866516749774e-06 0.00122804630235278 0.000194487392268433)
(-5.29956782053517e-06 0.00117013515388645 5.5162505978767e-05)
(1.25082035188163e-05 0.000766087692313279 0.000114785534412621)
(-1.90690967920454e-06 0.00106717113464146 0.000177633361696524)
(-2.04397247547482e-06 0.00123045497710199 0.000237613121530387)
(2.92409902311313e-06 0.00106367353682755 4.76961901198047e-05)
(2.41738977077141e-05 0.000675946680726303 0.000103854055470032)
(3.18249809322284e-06 0.000950303630350224 0.000160390466636068)
(-4.15061637513348e-06 0.00111582498225467 0.000216555151461857)
(-2.17545923389849e-06 0.00121077948829294 0.000270207076251782)
(1.65023142586556e-05 0.0009628138582295 4.18590762249887e-05)
(3.90586993136246e-05 0.000600303144213659 9.3504064735902e-05)
(1.15781896822132e-05 0.000868309659937874 0.000144674198155603)
(-1.75213507821261e-06 0.00102320245077106 0.000195875390118292)
(-5.07451097570816e-06 0.00111950670238416 0.000245953391302257)
(-2.23846772219483e-06 0.00118305046244307 0.000293941672593165)
(3.45899250434157e-05 0.000867409136005142 3.76277727385358e-05)
(5.64575570647178e-05 0.000534217879457138 8.22490887327926e-05)
(2.29502806390322e-05 0.000798682794682458 0.000129335243007739)
(3.56924989685451e-06 0.00095279389222727 0.000177147095978343)
(-4.42241941313478e-06 0.00104267591416396 0.000222889134955662)
(-5.34452142885726e-06 0.00110676405153935 0.000267379647492559)
(-2.2462330250936e-06 0.00115358276833875 0.000310347927094436)
(5.56555332662816e-05 0.000777655880797334 3.37096602125809e-05)
(7.50919405026491e-05 0.000476816717319476 7.14282521342503e-05)
(3.62592337312468e-05 0.000738478278018834 0.000114568950129752)
(1.15149751207863e-05 0.000891648880361674 0.000159048892474604)
(-1.1597783373559e-06 0.000981778144529383 0.000202080053163628)
(-5.75583036805452e-06 0.00104132668502235 0.000242665108057501)
(-5.29578413660433e-06 0.00108805542003497 0.000282396510200147)
(-2.17175602091116e-06 0.00112536089295234 0.000321024499315458)
(7.79415162260808e-05 0.000692001009309145 2.7792932344653e-05)
(9.36153379803217e-05 0.000426295002572761 6.08954801642035e-05)
(5.0250108430419e-05 0.000686168772541646 0.000100575516512129)
(2.11160212393819e-05 0.000838067841569287 0.000141885771605985)
(4.25638350429233e-06 0.000927981462970219 0.000182320385596847)
(-3.9284381414007e-06 0.000988146456608029 0.000220711272848685)
(-6.28734636560875e-06 0.00103137433042473 0.00025699433694332)
(-5.07627887878179e-06 0.00106808873864381 0.000292681009125589)
(-2.01247658839999e-06 0.001099676112378 0.000327476470486443)
(0.000103923891083088 0.000625216666565305 2.0665315257244e-05)
(0.000110823011986722 0.000381351080364196 5.12818097573481e-05)
(6.38120375501213e-05 0.000640379549423748 8.75309043647994e-05)
(3.12832386533956e-05 0.000791058415539577 0.000125912619195971)
(1.10851079898893e-05 0.000880264395397459 0.000163905346638296)
(-3.31533500092635e-07 0.00094064155307388 0.000200324797576396)
(-5.46662445457773e-06 0.000984648175998338 0.000234872708790151)
(-6.35367596666298e-06 0.00101842271775168 0.000267484491676391)
(-4.72698117164266e-06 0.00104908389461876 0.00029959843115728)
(-1.81670002015581e-06 0.00107695322163582 0.00033095071881543)
(0.000109788161428546 0.000641814530923677 1.57154770130207e-05)
(0.000125593736016316 0.000345871565873422 4.22309692018466e-05)
(7.56411049280775e-05 0.000602368144547466 7.56084287533208e-05)
(4.09437035844947e-05 0.000750853624694946 0.000111310193515441)
(1.83843262993474e-05 0.000838737178452637 0.000147171452408052)
(4.43693669401078e-06 0.000898665447785935 0.000181819187124144)
(-3.19275793325779e-06 0.000943066730680021 0.000214883368371891)
(-6.22699275927703e-06 0.000977564895671891 0.000246107330676843)
(-6.15988011386072e-06 0.00100555746979076 0.000275429082488194)
(-4.31710212142758e-06 0.00103220353695975 0.000304275253304064)
(-1.6067175328454e-06 0.00105724859472573 0.000332434438334869)
(0.000102692595340295 0.00048696511646934 1.0938950533337e-05)
(0.000129278508885521 0.000327642929099366 3.52814685231298e-05)
(8.42876359843885e-05 0.000573014108105526 6.43366176301615e-05)
(4.90478824408156e-05 0.000717099173479483 9.79946928091081e-05)
(2.52683169992125e-05 0.000802801400994448 0.000132192129555497)
(9.62431892332771e-06 0.000861845423969872 0.000165413863679672)
(5.59167551475486e-08 0.000906206574508864 0.000197214739715261)
(-4.90855309820401e-06 0.000941315452939424 0.000227328109951406)
(-6.48354242317815e-06 0.000970066052915742 0.000255539427438383)
(-5.79577933591743e-06 0.000994340962455639 0.000281823272374991)
(-3.87112902165249e-06 0.00101799336069688 0.000307585369637819)
(-1.39469346053966e-06 0.00104054572220274 0.000332683331603999)
(-4.83947215906488e-06 0.0019738944565873 9.02271212176471e-05)
(-1.22985368326837e-05 0.00160103511241349 8.33610067780367e-05)
(-1.7047288365373e-06 0.00126591035329174 0.000155128500223384)
(-1.69267246741174e-05 0.00138004019426998 7.66525261380055e-05)
(2.33713654080654e-07 0.000992649841078993 0.000140488986172033)
(-3.09846390047155e-06 0.00130473601788721 0.000212541306852995)
(-1.60276988824132e-05 0.00124818992135113 6.5631362774888e-05)
(7.10534693976095e-06 0.000826081278195533 0.000127166718540157)
(-5.41021187549994e-06 0.00113211610240249 0.000195013770566212)
(-3.21198683725139e-06 0.00129822049458446 0.000259024414122549)
(-9.6948713259e-06 0.00112950065837821 5.42845470521158e-05)
(1.7592071103695e-05 0.000726672112210311 0.000114685822816282)
(-1.81354734990852e-06 0.00100547775740698 0.000176606401435991)
(-7.23619223626898e-06 0.00117442769673136 0.000236987277539986)
(-3.18312619710271e-06 0.00127067359217186 0.000294139127824886)
(2.95771252514985e-06 0.00101706931990961 4.73210163750683e-05)
(3.18903176400551e-05 0.000642652800343729 0.000103597836431904)
(5.61944334351088e-06 0.00091526516242647 0.000159457955537909)
(-6.19481710363121e-06 0.00107375519954848 0.000214774009222086)
(-7.725338023261e-06 0.00117186465474054 0.000268418041632288)
(-3.08955435546012e-06 0.00123593786528402 0.000319444479555333)
(2.12416664264097e-05 0.000911219684358337 4.10456859659299e-05)
(4.93561099001075e-05 0.000569199986511206 9.17239515923685e-05)
(1.66191245032862e-05 0.000838373060106259 0.000142706217798882)
(-1.73492698497533e-06 0.000996322812427777 0.000194205294754642)
(-8.25801606590369e-06 0.00108831495710269 0.000243401473990051)
(-7.58793954169378e-06 0.00115334185869299 0.000290869952714945)
(-2.97196122548215e-06 0.00120030845851794 0.000336575297264531)
(4.34585507745455e-05 0.000812596013165899 3.77247865039737e-05)
(6.88155005319556e-05 0.000505427918667442 7.96286804353442e-05)
(3.02009751901102e-05 0.000771850408357668 0.00012640526811819)
(5.89915666077375e-06 0.00092903521274325 0.000174264933080706)
(-5.76782249756768e-06 0.00102156342520392 0.00022045196291592)
(-9.03396747826614e-06 0.00108233081599189 0.000263899855038758)
(-7.19385293664044e-06 0.00112952175622277 0.00030624246266959)
(-2.78165842502716e-06 0.00116667691635435 0.000347255229376669)
(6.78419640253519e-05 0.000719837794661734 3.12558135801741e-05)
(8.86609594335453e-05 0.0004495237153784 6.78718659656491e-05)
(4.50094686996625e-05 0.000714056786273484 0.000110843188766523)
(1.57283537193198e-05 0.000870054329348385 0.000155233867954162)
(-6.54215091320357e-07 0.000962582334599183 0.00019854777371056)
(-7.89570253333148e-06 0.00102427090389679 0.000239594782214666)
(-9.08018612576094e-06 0.0010681666365544 0.000278312455330051)
(-6.67859188938868e-06 0.00110499265471574 0.000316254676118204)
(-2.5288607833736e-06 0.00113620980274034 0.000353114686321002)
(9.6805382395269e-05 0.000647970764962595 2.32697146452469e-05)
(0.000107484355170936 0.000399037221313113 5.64732739581744e-05)
(5.9753765031054e-05 0.000662898811029292 9.60049170718514e-05)
(2.65559141782482e-05 0.000817967366128388 0.000137283705840947)
(6.31731255614322e-06 0.000910042598172086 0.000177913388837018)
(-4.59469238423116e-06 0.000972209832035816 0.000216771279893122)
(-8.86503865253734e-06 0.00101718652621865 0.00025359170882701)
(-8.72408031217819e-06 0.00105127903370696 0.000288303974061859)
(-6.08006165258351e-06 0.00108183111622021 0.000322376703143695)
(-2.25071217281598e-06 0.00110920755931096 0.000355528616869208)
(0.000108737027395507 0.000663893659071632 1.77295875712746e-05)
(0.000124457414607822 0.000353961046114185 4.57258687458504e-05)
(7.31851406783104e-05 0.000616923549577139 8.21003246067348e-05)
(3.72745667882924e-05 0.000771446823683656 0.000120489740118994)
(1.41661570157645e-05 0.000863053693195495 0.000158742560769725)
(2.75845381986005e-07 0.000925261251231163 0.000195611836961)
(-6.85337148907515e-06 0.000971017521167476 0.000230774125640239)
(-9.11282467620952e-06 0.00100621412560093 0.000263982485645747)
(-8.1597600615842e-06 0.00103441397945956 0.000295162635735061)
(-5.45545067525888e-06 0.00106096474163708 0.00032577545311828)
(-1.97229069420424e-06 0.00108561110659529 0.000355582732283531)
(0.000115908316325016 0.000479016074332216 1.20868043162995e-05)
(0.000132913210400189 0.000321232694733507 3.7601050695533e-05)
(8.38424404962141e-05 0.000577747394630482 6.9210741148573e-05)
(4.67427648497446e-05 0.000730826691999881 0.000104991657678154)
(2.19065619236435e-05 0.000821542747538158 0.000141218936199567)
(5.8930539623146e-06 0.000883452540224144 0.000176409080202762)
(-3.54059602054003e-06 0.00092951076847413 0.000210114850662911)
(-8.02441870682182e-06 0.000965585889442767 0.000242063892487313)
(-8.91471555471473e-06 0.000994803581222994 0.00027202851148918)
(-7.47099357195993e-06 0.0010192160567951 0.000299982765794047)
(-4.82695106006531e-06 0.00104287919990542 0.000327400869156809)
(-1.70285123737879e-06 0.00106523502215307 0.000354098160725384)
(0.000103200111045638 0.000408574191379055 2.63272678666625e-06)
(0.000128657587047811 0.000285403415310699 2.65266544886664e-05)
(8.87719012225364e-05 0.000546804653205066 5.74353186837536e-05)
(5.38621498232191e-05 0.000695964189442162 9.06649670255558e-05)
(2.86460018733867e-05 0.00078503696722459 0.000125379311597401)
(1.1453890248389e-05 0.000846312861852644 0.000159282104421679)
(4.12991767949994e-07 0.00089241614585259 0.000191821211864497)
(-5.85972670731942e-06 0.000929054018855238 0.00022269987474057)