/*--------------------------------*- C++ -*----------------------------------*\
  =========                 |
  \\      /  F ield         | OpenFOAM: The Open Source CFD Toolbox
   \\    /   O peration     | Website:  https://openfoam.org
    \\  /    A nd           | Version:  12
     \\/     M anipulation  |
\*---------------------------------------------------------------------------*/
/*   Windows 32 and 64 bit porting by blueCAPE: http://www.bluecape.com.pt   *\
|  Based on Windows porting (2.0.x v4) by Symscape: http://www.symscape.com   |
\*---------------------------------------------------------------------------*/
FoamFile
{
    format      ascii;
    class       volScalarField;
    location    "300";
    object      k;
}
// * * * * * * * * * * * * * * * * * * * * * * * * * * * * * * * * * * * * * //

dimensions      [0 2 -2 0 0 0 0];

internalField   nonuniform List<scalar> 
10068
(
0.000129751448588958
0.000129667198102205
0.000380829231917788
0.000132583780028574
0.000129417591309561
0.000380627521151201
0.00013250006540421
0.000562444122755668
0.000381471326947165
0.000136168379585365
0.000128988220676862
0.000380123126455164
0.000132245770026489
0.000562087845404918
0.00038127943274009
0.000136086129503016
0.000708126932639909
0.000562075198880705
0.000381549432040334
0.000137080311095992
0.000128366673969064
0.000379283530232903
0.000131806711938849
0.000561321805473847
0.000380781238612484
0.000135828215609222
0.000707625751734825
0.000561731812395258
0.000381364527597479
0.000137003935600725
0.00083400824733952
0.000707245450566606
0.000559420509295682
0.000378614459341008
0.00013375001727617
0.000127541846600573
0.000378082270434468
0.000131171440794308
0.000560119105832359
0.000379941866472054
0.000135379392637389
0.000706620165457225
0.000560971094806182
0.000380874822055023
0.000136749206754836
0.000833374851949553
0.000706760404924489
0.000559087895868893
0.000378437103046827
0.000133683170604428
0.000946823734093475
0.000832538530943067
0.000702823471767714
0.000553088334635136
0.000371097472478849
0.000127118333173944
0.000126502135892073
0.000376494964836444
0.00013032885421527
0.000558446297905367
0.000378738394220806
0.000134729090422563
0.000705092946543739
0.000559771726936904
0.000380038170177622
0.000136300494200252
0.000832153175901352
0.000705761499165199
0.000558336091113856
0.000377958852319764
0.000133440804175979
0.000946067051321877
0.000831924312185137
0.000702352446408726
0.000552765202963286
0.000370931824604163
0.000127064470339555
0.00104993871469053
0.000944653894249348
0.000826613692287046
0.000693822697458568
0.000542050121470491
0.000359307660987354
0.00011882176390123
0.00012523398673839
0.000374497312646212
0.000129267088680756
0.000556269806453281
0.00037714853171238
0.000133866634561026
0.000703006367019979
0.000558101496509598
0.000378834465409457
0.000135647961019707
0.000830332062560422
0.000704238517499322
0.000557143850589486
0.000377132843582312
0.000133006481298493
0.00094464686965068
0.000830710988572936
0.000701364847616694
0.000552027168541815
0.000370472413004949
0.000126842240404587
0.00104906508933572
0.000943919380111133
0.000826016441377507
0.000693363625448836
0.000541739623399402
0.000359158997742223
0.000118783202658554
0.00114535334411019
0.00104716702996204
0.000937282856441731
0.00081530528491956
0.000679670888477518
0.000526422740065053
0.000344385471644427
0.000109719364948849
0.000123722253536255
0.000372059037399219
0.000127972160324546
0.000553551657446303
0.00037514722450247
0.000132780214072069
0.00070031850239972
0.00055592677588975
0.000377243102077655
0.000134781222136218
0.000827871451150062
0.000702155834051776
0.000555480837035159
0.000375939611703938
0.000132370862059458
0.000942555554249661
0.00082889557435219
0.000699852222886274
0.000550850720199408
0.000369669181494213
0.000126434448775481
0.00104745962688299
0.00094250941252392
0.000824817188686657
0.000692392864418165
0.000541022993200087
0.000358726811274965
0.00011858628145046
0.00114436784296255
0.00104631838403226
0.000936568266212431
0.000814722519191304
0.000679226349545056
0.000526130096575314
0.000344258804626039
0.00010969826423971
0.00123441708310663
0.0011421761656602
0.00103855455069472
0.000923897201360942
0.000798344057354087
0.000660597181357874
0.000506916848646704
0.000327131276107164
9.99552893371255e-05
0.00012194989287638
0.000369148762846378
0.00012643029473519
0.000550251788338869
0.000372705237403407
0.000131455331616699
0.000696983670243838
0.000553210823506131
0.000375239797004546
0.000133688732207154
0.000824724434400627
0.000699472185338639
0.000553313867644195
0.000374359382475917
0.000131524153379446
0.00093975165205932
0.000826440771002871
0.000697780972554972
0.000549205871666172
0.000368502020465843
0.000125832077934686
0.00104511716181705
0.000940425735603369
0.000823015285684374
0.000690900465989132
0.000539874448137299
0.000357958648379234
0.000118212596670487
0.00114258772885627
0.00104472485733992
0.000935175267869166
0.000813543499559685
0.000678280205967194
0.000525443557625907
0.000343861497085599
0.000109530372091659
0.00123332385675193
0.0011412180601002
0.00103772860275388
0.000923199581319327
0.000797778078458897
0.000660172357424343
0.000506647374864912
0.000327031061023587
9.99533575933392e-05
0.00131803182133335
0.00123098797956368
0.00113261778806182
0.0010234072563
0.000904430102394373
0.00077612643877406
0.000637164241644763
0.000484097034410876
0.000307814735765573
8.95215043137362e-05
0.000119900598346197
0.000365728697847872
0.000124622427296264
0.000546324165526817
0.000369789920405291
0.000129878473202481
0.000692952115899122
0.00054991322056561
0.000372795647258417
0.000132356614024661
0.000820838924772971
0.000696142262421266
0.000550607057531724
0.000372368704347145
0.000130455437069086
0.00093618401029256
0.000823300319237256
0.000695110658068645
0.000547060126233936
0.000366952313370939
0.000125026138756337
0.00104199431527995
0.000937629760369331
0.000820575745891621
0.000688853532860916
0.000538263510765459
0.000356833602535385
0.000117653359413236
0.00114000948502305
0.00104239160787432
0.000933108346057173
0.000811766189020259
0.000676820668718103
0.000524335699797315
0.000343138741743407
0.000109195615525613
0.00123137774974
0.00113945117775488
0.0010361546754428
0.000921830215312634
0.000796627322337015
0.000659259815146222
0.000505999301527317
0.000326675899868681
9.98175610918563e-05
0.00131683438407179
0.00122992421777248
0.00113168477029726
0.00102260060576133
0.000903751571932048
0.000775582507607255
0.000636764653348409
0.000483855496900631
0.000307744717383491
8.95394057920271e-05
0.00139674419396082
0.00131443135251203
0.00122072419153348
0.00111605284506658
0.00100178620707251
0.000879400102329508
0.000749191766486014
0.000609792592493823
0.000458233611540521
0.000286478251627058
7.85059608158393e-05
0.000117557806787588
0.000361760914166597
0.000122533103103474
0.000541721183523812
0.000366364667675134
0.000128028357633014
0.000688168969700755
0.000545988910358888
0.000369877864423961
0.000130769015170594
0.00081615712238331
0.000692116279224088
0.000547320379967214
0.000369939262101613
0.00012915132987786
0.000931795096678952
0.000819422350121064
0.000691796638842389
0.000544378449292641
0.000364997462763979
0.00012400655360847
0.0010380367037881
0.00093407131170254
0.000817453397225262
0.000686212393112411
0.000536158540387336
0.000355334251993117
0.000116900776926835
0.00113658811709999
0.00103927858582071
0.000930331459778152
0.000809356560447184
0.000674814812769931
0.000522775381546089
0.000342069120807558
0.000108685660484951
0.00122857683516564
0.00113688330545318
0.00103384097497285
0.000919792133108469
0.000794887949570735
0.000657846464484464
0.000504943783984659
0.000326007400297468
9.95261081307334e-05
0.00131472978969792
0.00122799236617427
0.00112993958499115
0.00102105336562289
0.000902414117483122
0.000774469277252125
0.000635894606441191
0.000483253735411042
0.000307438417256114
8.94384733718947e-05
0.00139544560656842
0.00131326519089214
0.00121968753823581
0.00111514114410591
0.00100100082289204
0.00087874603651889
0.000748675701588722
0.000609423346158608
0.000458024161544482
0.000286441276759362
7.8543948505501e-05
0.00147083991918908
0.0013930045229314
0.00130360772156827
0.00120301190813621
0.00109261543712297
0.00097428844880466
0.000849354223382355
0.000717895016592862
0.000578712753078549
0.000429443985582807
0.00026315114472607
6.70902761038247e-05
0.000114904769074398
0.000357204914752077
0.000120144625075315
0.000536390470472059
0.000362391417921125
0.000125891119777041
0.000682575353169138
0.000541389420856322
0.000366450058707346
0.000128907444741897
0.000810616255452034
0.000687339635435284
0.000543409358744589
0.000367038636862694
0.000127596464597521
0.000926521045815861
0.000814749433152066
0.00068778962660508
0.000541121649695342
0.000362610357728921
0.000122760922526235
0.00103318195962882
0.000929693167391257
0.000813597051504614
0.000682933324099076
0.000533525351588963
0.000353439144380931
0.000115945393482934
0.00113226575030197
0.00103533229377591
0.000926795761942111
0.000806270448575596
0.000672223677473967
0.000520731824793974
0.000340636574126959
0.000107994151842306
0.00122487387198698
0.00113347287665697
0.00103075031296704
0.000917050409011633
0.000792526162967635
0.000655899227312661
0.00050344920411168
0.000325004277031775
9.90711778052322e-05
0.00131171708941526
0.00122520242321783
0.0011273933537243
0.00101877216791909
0.000900418862672121
0.00077278170812232
0.000634540034587191
0.000482261203002399
0.000306832813486413
8.91945294068189e-05
0.00139318913738814
0.00131117562532979
0.00121777902154193
0.00111342516621884
0.000999488817088253
0.00087745003751926
0.000747609358533317
0.000608604238673576
0.000457476077916419
0.000286190476211697
7.84791637265441e-05
0.00146944301352187
0.00139173886066901
0.00130247041413054
0.00120199828258143
0.00109172692169916
0.00097352983016545
0.000848730715975379
0.000717412268410273
0.000578378413786833
0.000429270256609066
0.000263150142435158
6.714772801716e-05
0.00154043813269075
0.00146697162584458
0.00138169747050582
0.00128492539002947
0.00117802366511688
0.00106296250563463
0.000941485771734955
0.000814621269122543
0.000682435476175394
0.000544065755089602
0.000397801708081059
0.000237903657186578
5.55277402513564e-05
0.000111924489172104
0.00035201818082385
0.000117439124722252
0.000530276951065155
0.000357829358760541
0.00012344810806155
0.000676108288650403
0.000536062652073035
0.000362474097012862
0.000126757050035151
0.000804148599338723
0.000681753443858309
0.00053882563649799
0.000363631104953628
0.000125774601067434
0.0009202918480023
0.000809218861876253
0.00068303557429437
0.000537246036873007
0.000359759537229532
0.000121275232721582
0.00102736068341138
0.000924431653361734
0.000808949938277852
0.000678967942604759
0.000530325959191723
0.000351122519719149
0.000114776507709622
0.0011269760069459
0.00103049088374895
0.000922444837705236
0.000802457626802462
0.000669004590416565
0.00051817192659171
0.00033882085360748
0.000107112385004308
0.00122020815970545
0.0011291632329596
0.0010268306512644
0.000913557381804097
0.000789498654612945
0.000653379888038488
0.000501485757026464
0.000323652104366456
9.84473698202611e-05
0.00130774745674474
0.0012215111313421
0.00112400761516593
0.00101572110121431
0.000897731222693721
0.00077048613427793
0.000632667833947148
0.000480846078687079
0.000305906888920969
8.87998848860692e-05
0.00138997473976151
0.00130817445939909
0.00121501218087972
0.00111091433662511
0.000997254747530524
0.000875511971716527
0.000745986862843669
0.000607320194744234
0.00045655661674781
0.000285656585870742
7.82853680904333e-05
0.00146704086832364
0.00138949811657632
0.00130040550816418
0.00120012102126258
0.00109004903461726
0.000972062919141199
0.000847485927620095
0.000716401800333339
0.000577618244859125
0.000428782982148512
0.000262961213726309
6.71199441032269e-05
0.00153894567222223
0.00146560917701626
0.00138046222980088
0.00128381258551126
0.00117703488978869
0.00106210283530182
0.00094076027675003
0.00081403409889485
0.00068199098960802
0.000543770421750782
0.000397667022204288
0.000237940981096396
5.56005032560577e-05
0.00160556578777116
0.00153644561521879
0.00145522193862107
0.00136215512485536
0.00125857595878739
0.00114646995716969
0.00102770653155729
0.000903707797713353
0.000775383235551644
0.00064295557990138
0.000505958623444791
0.000363372678833919
0.000210837997525993
4.41089953585276e-05
0.000108602087003734
0.000346156609851213
0.000114399588930014
0.00052332387119819
0.000352635566524062
0.000120680967174442
0.000668701864280642
0.000529953689394602
0.000357909217960213
0.000124298848452625
0.000796682168297528
0.000675294864061843
0.00053351742477674
0.000359678849535596
0.000123668543899521
0.000913032096270908
0.0008027630251208
0.000677476020678308
0.00053270390393624
0.000356410134394432
0.000119533736537799
0.0010204967921435
0.00091821701823741
0.000803449933923299
0.000674263085604602
0.000526517771089242
0.000348354105930292
0.000113380626169798
0.00112064458348905
0.00102468521854887
0.000917215710237938
0.000797862339949843
0.000665110377928722
0.000515059076887125
0.000336597665240788
0.000106031001475613
0.0012145095133268
0.0011238884593292
0.00102202109897301
0.000909257734733572
0.000785756304139251
0.000650246962350927
0.00049902155610852
0.000321931921704117
9.76475119106762e-05
0.00130275704026498
0.00121685893214282
0.00111972736838671
0.00101184945375223
0.000894304521677539
0.000767540122818449
0.000630240632000561
0.000478979513744159
0.000304647718195342
8.82502066316811e-05
0.00138575167225152
0.0013042168733377
0.00121134718271346
0.00110757160937438
0.000994263130323889
0.000872897547485857
0.000743774857876296
0.000605538272339185
0.000455233798907444
0.000284818358820632
7.79548966442503e-05
0.00146363415379436
0.00138629565298394
0.00129742858996036
0.00119739183900051
0.00108758894146096
0.000969890909183747
0.000845618904423786
0.000714856965381546
0.000576415922224565
0.000427946453197171
0.000262507116629189
6.69779246370396e-05
0.00153640388377601
0.00146322341089322
0.00137824730279826
0.00128178065313873
0.00117519815428472
0.00106047329077262
0.000939348618708422
0.000812849984756539
0.000681044966888137
0.000543076854864286
0.000397247471345143
0.000237820113627013
5.56086819081816e-05
0.0016039805939895
0.00153498903999505
0.00145389135841915
0.00136094570366131
0.00125748947003901
0.00114551189340923
0.00102688234488191
0.000903021516676005
0.000774837684953725
0.000642553848036854
0.00050570602801462
0.000363280126022185
0.000210912619865524
4.41953037636932e-05
0.00166620608439678
0.00160145343462733
0.001524280680104
0.00143489176354993
0.00133457900418414
0.0012253184509755
0.00110901129381407
0.000987196882659658
0.00086113247426457
0.000731779506850441
0.000599578027313146
0.000464477002509583
0.000326211323387335
0.000182042299863588
3.30859570520939e-05
0.000104923902291034
0.000339576752215496
0.000111010585979066
0.000515473043513658
0.000346766046608485
0.000117572589198335
0.000660287674917389
0.00052300562092065
0.000352712921018702
0.000121514115831002
0.00078814161316312
0.000667897971498664
0.000527430198181386
0.000355141341507879
0.000121260461528987
0.000904662130613509
0.000795310058096045
0.000671048590352434
0.00052744411411428
0.000352524602521851
0.000117519490310078
0.00101250829093052
0.000910974100222381
0.000797030005761425
0.000668761185332486
0.000522054146427758
0.000345100137223427
0.00011174333895345
0.00111318988342827
0.00101783944244525
0.00091103933848339
0.00079242348974115
0.000660489085431892
0.000511352062469585
0.000333938141726845
0.000104737325441352
0.00120769917563506
0.00111757455254723
0.00101625330288307
0.000904089603165844
0.00078124466012356
0.000646454702985846
0.000496021503601745
0.00031982105646722
9.66628889286823e-05
0.00129667226280449
0.00121117616723309
0.00111448772677159
0.00100709756396701
0.000890084680322005
0.000763895797979396
0.000627218273424733
0.000476630997183352
0.000303038099511086
8.7539633731497e-05
0.00138045356675213
0.00129924047589704
0.00120672623861159
0.00110334345226648
0.000990464349269082
0.000869561064669696
0.000740931888499474
0.000603222022150409
0.000453479720029203
0.000283664507471141
7.74845310974575e-05
0.00145917038472639
0.00138208504810192
0.00129349844895292
0.00119377245879318
0.00108431008202799
0.000966978690506007
0.00084309585870383
0.000712744878431898
0.000574738703688272
0.000426728376222159
0.000261766358202428
6.67138456806193e-05
0.00153281401505129
0.0014598290317273
0.00137507004320578
0.00127884324184318
0.00117252272771716
0.00105807953791901
0.000937253122794664
0.000811067263210574
0.000679589855499233
0.000541967056560671
0.000396503402914939
0.000237453737926453
5.55183679755939e-05
0.00160130516497229
0.00153246425356853
0.00145153247595098
0.00135876526319549
0.00125550018137956
0.00114372637620169
0.00102531173876983
0.000901675026250388
0.000773723314525378
0.000641680459431699
0.000505086447181405
0.000362934976675538
0.000210864517831349
4.4240197582636e-05
0.00166453083084948
0.00159990541084915
0.00152285732261072
0.0014335882157229
0.00133339722602822
0.00122426436459042
0.00110809088332759
0.000986414580197561
0.000860491000017965
0.000731280389954453
0.000599223166217789
0.000464270780061445
0.000326163418463263
0.000182144286565625
3.31832435148655e-05
0.00172232568201275
0.00166197963847962
0.0015888978639542
0.00150321758369712
0.00140618952038596
0.00129977050329132
0.00118586036142091
0.00106602455951471
0.000941617339825529
0.000813897658382726
0.000683938326781405
0.000552404646005568
0.000419677071727095
0.000286333796067311
0.000151527235846437
2.26474368635096e-05
0.000100877352208527
0.000332234915551239
0.000107257419654099
0.000506666746386737
0.000340176652672335
0.000114106100635753
0.000650797179307203
0.000515160414964254
0.00034684173341592
0.000118385437348654
0.000778449342517069
0.000659494672816108
0.000520507387684345
0.000349975983177046
0.000118531565628469
0.000895098226221002
0.000786784719705291
0.000663687866047419
0.000521412761131947
0.000348062983939817
0.000115215692911073
0.0010033081926119
0.00090262321115984
0.000789618880951215
0.00066240078476046
0.000516884870489591
0.000341323838520796
0.000109848380086997
0.00110452390691817
0.00100987176049456
0.000903841269546519
0.000786075105015564
0.000655084438437868
0.00050700561709386
0.000330810118457349
0.000103218215782299
0.00119969052408623
0.00111014017147775
0.00100945217639724
0.000897985110592832
0.000775904018766458
0.000641952652932984
0.000492446051993535
0.000317292440733079
9.54823810220529e-05
0.00128941023110998
0.0012043844020073
0.00110821553985361
0.001001398299525
0.000885011248630204
0.000759500226902322
0.000623556598768649
0.000473767233032845
0.000301057241266524
8.6660881418233e-05
0.00137400340984106
0.00129317213554551
0.0012010807863784
0.00109816630986181
0.000985800100226648
0.00086544981342933
0.000737411513822186
0.000600332760805213
0.000451265820473948
0.000282180092142941
7.68696560999246e-05
0.00145358066074462
0.00137680132252081
0.00128855463302983
0.001189206675199
0.00108016011922232
0.000963277724510307
0.000839872178485394
0.000710025191010593
0.000572551238938832
0.000425101907240129
0.000260729376582701
6.6325736587212e-05
0.001528121913229
0.00145537807950738
0.00137088785916748
0.00127496080232451
0.0011689708627947
0.00105488543005566
0.000934439268789835
0.000808652839176491
0.000677593314909861
0.000540408397060259
0.000395401992031115
0.000236819491788893
5.53214377447677e-05
0.00159754122300914
0.00152888711796736
0.00144816418029047
0.00135562911232743
0.00125261912018664
0.00114112103990435
0.00102299943130191
0.000899669931699464
0.000772037664192066
0.000640326684211875
0.000504079614074453
0.000362292587707293
0.000210593495482672
4.42035446191727e-05
0.00166172778223703
0.00159724757476623
0.00152036042535047
0.00143126520616719
0.00133126132600985
0.00122232886799104
0.00110636765052827
0.000984913282597803
0.000859219206911808
0.000730244428435682
0.000598430274290627
0.000463732501883323
0.000325899147280818
0.000182173045113544
3.32618945207992e-05
0.00172056325457971
0.0016603428396022
0.0015873843163754
0.0015018224003377
0.00140491485279508
0.00129862269018374
0.00118484593645545
0.0010651485229676
0.000940882816909864
0.000813306083161642
0.000683490046131635
0.000552100512665728
0.000419520749859661
0.000286332896594246
0.000151664444622024
2.27478485838402e-05
0.00177388929980893
0.00171799218789374
0.00164905882272034
0.00156715067066389
0.00147347132757518
0.0013699528688183
0.00125847851122725
0.00114060550202744
0.00101770338555724
0.0008911058638071
0.000762131148046711
0.000631966222746994
0.000501497487199485
0.000371560762074584
0.000243708927362917
0.00011928720355632
1.31831695017623e-05
9.64539765543773e-05
0.000324089809403939
0.000103127793375448
0.000496848884977725
0.000332824071566252
0.000110266490586751
0.000640162079695327
0.000506360286851355
0.000340251024371272
0.000114895908446341
0.000767527060826496
0.000650016227791557
0.000512691343673893
0.000344139421035769
0.000115464111027257
0.000884254636119485
0.00077710958579418
0.000655326349982759
0.000514553785601101
0.0003429829281646
0.000112604262309506
0.000992805751732559
0.000893080953039548
0.000781141968264636
0.000655117375126276
0.000510957042398831
0.000336986198608012
0.000107680088128184
0.00109455331613364
0.00100069540488002
0.000895542474188037
0.000778747017179213
0.000648836290782555
0.000501970834310114
0.000327178115428055
0.000101458583241195
0.00119039008286863
0.0011014975412456
0.00100153670540117
0.00089087101708716
0.000769669894309917
0.00063668614061721
0.000488251715876659
0.000314315310239723
9.40938234360645e-05
0.0012808796962652
0.00119639728836499
0.00110083029433686
0.000994677843660543
0.000879017898304062
0.000754295402976034
0.000619206989087026
0.00047035066927885
0.000298679793180867
8.56042526578313e-05
0.00136631447716246
0.00128592931587936
0.00119433329620699
0.00109196834303308
0.000980204781188231
0.0008605049871202
0.000733162480943251
0.000596828163042558
0.000448560497559994
0.000280346197513299
7.61047901527704e-05
0.00144678481799618
0.00137036803035133
0.00128252515046897
0.00118362734504648
0.00107507695792439
0.000958731187715731
0.000835896692099746
0.000706653080993226
0.000569816454219072
0.00042304051244442
0.000259383919706262
6.58104863749125e-05
0.00152225636469192
0.00144980309802628
0.00136563778217589
0.00127007457680249
0.0011644876340715
0.00105083979269682
0.000930859729628461
0.000805563330685549
0.000675016236425851
0.000538366793866859
0.000393917570921685
0.000235909600371438
5.50170461012082e-05
0.00159263318402161
0.0015242082051359
0.00144374252745992
0.00135149641847369
0.00124880729680752
0.00113765856975484
0.0010199099106359
0.00089697249924501
0.000769748418014261
0.000638460714419426
0.000502652880960803
0.000361319147544182
0.000210074193161062
4.40758160360911e-05
0.00165779903534268
0.00159349679037912
0.00151681021302926
0.00142793947757307
0.00132818382827941
0.00121952122345838
0.00110384819377059
0.000982696938460929
0.000857317910720659
0.000728668146986745
0.000597189032203301
0.000462838882892989
0.000325367283122656
0.000182006840183107
3.32766761393268e-05
0.00171763866086553
0.00165755794058675
0.00158475532129163
0.0014993626766331
0.00140263812872807
0.00129654292627285
0.00118297577771293
0.00106349841279841
0.000939460802215579
0.000812118101785352
0.000682540768224553
0.000551395785022144
0.00041907115760748
0.000286155704697083
0.000151781668292265
2.28544359291269e-05
0.00177204262790766
0.00171626937258604
0.00164745771147493
0.00156566638644449
0.0014721062044894
0.00136871364186546
0.00125737224275925
0.00113963778606729
0.00101687792530357
0.000890424506434277
0.000761594135175344
0.000631572829662888
0.000501247811602651
0.000371458286297089
0.000243757853874426
0.000119466898349932
1.32802092839138e-05
0.00182086657163999
0.00176945656577662
0.00170473283416514
0.0016266750829403
0.00153643361387554
0.0014359107801731
0.00132696527198937
0.00121112935623394
0.00108975655359398
0.000964185476518747
0.000835784988105467
0.00070593226649004
0.00057591574392205
0.000446838287603556
0.000320069303381248
0.000198389284156978
8.55785152641542e-05
5.59118200601602e-06
9.16681069561981e-05
0.000315105036622235
9.86118239604171e-05
0.000485967457796646
0.000324666673300303
0.000106037420301359
0.000628317208388247
0.000496549180161786
0.000332897651181371
0.000111032196709854
0.000755297917854034
0.000639394590863084
0.000503924619617623
0.000337587854263652
0.000112041755113025
0.000872044760990157
0.000766206574224079
0.000645895757494548
0.000506810214493008
0.000337241119008364
0.000109668011106453
0.000980907535592045
0.000882261686716347
0.00077152253780569
0.000646844372013983
0.000504215525794455
0.000332045957117606
0.000105221065560804
0.00108318057541105
0.000990219774715897
0.000886060349547543
0.000770365790241388
0.000641681476633081
0.000496196183310909
0.000323003871676004
9.94439043550666e-05
0.00117969869387611
0.00109155354053793
0.00099242092374758
0.000882669551445222
0.000762473670826661
0.000630596703060376
0.0004833913008208
0.00031085570845514
9.24834633053246e-05
0.0012709821528219
0.00118712159388189
0.00109224505826733
0.000986856515718171
0.00087203304460496
0.000748218663343555
0.00061411667771033
0.000466339509221625
0.000295876333954225
8.43586866136461e-05
0.00135729123592498
0.00127742105403185
0.00118639829838299
0.00108467039734547
0.000973606250366827
0.000854662108873348
0.000728128764670694
0.00059266180189439
0.000445328306932526
0.000278139344892695
7.51813359842116e-05
0.00143869253503155
0.00136269880644916
0.00127532841448328
0.00117695832382122
0.0010689903910828
0.000953275242985181
0.000831112443118074
0.000702579180062529
0.000566494094590194
0.000420514575027027
0.000257713018831315
6.51642131172272e-05
0.00151513409336109
0.00144302452934258
0.00135924458830534
0.00126411406723014
0.00115900744567781
0.00104588210989498
0.000926459329091989
0.00080174929642645
0.000671815580997107
0.000535806885717792
0.000392025586499074
0.000234715798037769
5.46039185964141e-05
0.0015865073429351
0.00151835772053521
0.0014382021558379
0.00134630599058724
0.00124400730631195
0.00113328527102269
0.00101599330546177
0.000893536790922545
0.000766813577649125
0.000636044782544277
0.00050077338339459
0.000359990180848826
0.000209300955133145
4.38570242253589e-05
0.00165268732913175
0.00158860224610373
0.00151216143360296
0.00142356892883254
0.00132412448228136
0.00121580288275704
0.00110049586082853
0.000979730886350394
0.000854754284063048
0.00072652002742995
0.00059546807632541
0.000461556881105519
0.000324532434357834
0.000181611201082905
3.32151590402947e-05
0.00171355418963304
0.00165364266510231
0.00158103226641047
0.00149585639685196
0.00139937315600846
0.00129354184918412
0.0011802580270687
0.00106107999986545
0.000937354433262158
0.000810333518269872
0.000681085693508418
0.000550277950459872
0.000418300788652178
0.000285742689920158
0.000151729578673743
2.29143706340126e-05
0.00176900236667723
0.00171336341646096
0.00164470255477172
0.00156307579969842
0.00146969440469189
0.00136649522732824
0.00125536063571353
0.00113784428164686
0.00101531137002493
0.000889091300931806
0.000760498632651115
0.000630718212704496
0.000500638909930448
0.000371105263407051
0.000243679503308649
0.0001196810253954
1.34027920189682e-05
0.00181893847539046
0.00176765052971126
0.00170304684412831
0.00162510429274196
0.00153498053575544
0.00143458251707244
0.00132576938363972
0.00121007201010123
0.00108884206358611
0.000963416270641093
0.00083516171106017
0.000705454075844476
0.000575581080884972
0.000446647219960105
0.000320025497773078
0.000198500886965139
8.58139472494209e-05
5.67084979683512e-06
0.00186323523995224
0.00181634288355729
0.00175588631221021
0.00168176037132358
0.00159505667336761
0.00149764283632172
0.00139134784761176
0.00127767031802218
0.00115793167925241
0.00103344888690292
0.000905583770549892
0.000775736827392863
0.000645326338474047
0.000515723263410408
0.000388291082278112
0.000265195280896434
0.000150754190751638
5.12444969991415e-05
1.14225164276939e-06
8.65874149357966e-05
0.000305263083190716
9.37225191719594e-05
0.000473980908343385
0.000315671365844952
0.000101411547458551
0.000615202973533457
0.000485675305795829
0.000324738015546037
0.000106774771666779
0.000741687953825021
0.000627564572402594
0.000494151461502698
0.000330280236898737
0.000108251059658956
0.000858383282522024
0.000753998777275094
0.000635328608111712
0.00049812545499077
0.000330794475474577
0.00010639084404049
0.000967519650635522
0.000870079061413164
0.000760683198185306
0.000637514459961146
0.000496604211241588
0.000326460333297775
0.000102454713618677
0.0010703058864346
0.000978351803446443
0.000875310053204785
0.000760855888555367
0.000633554748603674
0.000489627860456681
0.000318247203910062
9.71575254711496e-05
0.00116751292066525
0.00108021096982887
0.000982015076934092
0.000873299452948268
0.000754243528339096
0.000623622894623641
0.000477814491394027
0.000306876723641277
9.0637998396616e-05
0.0012596131169338
0.00117645841012113
0.00108236759117395
0.000977849748534968
0.000863980662457101
0.00074120332145071
0.000608229185889589
0.000461688613974083
0.000292614684351675
8.29116836405904e-05
0.00134683052426379
0.00126754909522969
0.00117718345559701
0.00107618696955702
0.000965926623327925
0.000847851602385778
0.000722249824862925
0.000587782872518011
0.000441529431661418
0.00027553196976642
7.40896191325e-05
0.00142920428935801
0.00135369840628314
0.00126687438147863
0.00116911557605679
0.00106182304506639
0.000946839734310141
0.000825457074032602
0.000697749714581492
0.000562540043736599
0.000417490968829462
0.000255695887261756
6.43802452797997e-05
0.00150666151653654
0.00143495242528607
0.00135162290257905
0.0012569991383755
0.00115245587337258