/*--------------------------------*- C++ -*----------------------------------*\
  =========                 |
  \\      /  F ield         | OpenFOAM: The Open Source CFD Toolbox
   \\    /   O peration     | Website:  https://openfoam.org
    \\  /    A nd           | Version:  12
     \\/     M anipulation  |
\*---------------------------------------------------------------------------*/
/*   Windows 32 and 64 bit porting by blueCAPE: http://www.bluecape.com.pt   *\
|  Based on Windows porting (2.0.x v4) by Symscape: http://www.symscape.com   |
\*---------------------------------------------------------------------------*/
FoamFile
{
    format      ascii;
    class       volScalarField;
    location    "300";
    object      nut;
}
// * * * * * * * * * * * * * * * * * * * * * * * * * * * * * * * * * * * * * //

dimensions      [0 2 -1 0 0 0 0];

internalField   nonuniform List<scalar> 
10068
(
5.25983099027117e-05
5.25641279880486e-05
0.000459366674397312
5.5668504210755e-05
5.24627932084029e-05
0.000459349039959843
5.56330919873466e-05
0.00112300720848321
0.000469677424364584
5.95405614473061e-05
5.22887534332424e-05
0.000459039610147721
5.55262282188526e-05
0.00112307170720127
0.000469672882837714
5.95043244806754e-05
0.00187224380018669
0.00113445738301336
0.000482880666132098
6.185623808061e-05
5.20368670002284e-05
0.000458382287409259
5.53419055768993e-05
0.00112252459125727
0.000469381393577575
5.93915580919186e-05
0.00187234247194445
0.00113454020053038
0.000482886182941877
6.18218187868392e-05
0.00261973193201677
0.00188032483031422
0.00114811132926783
0.000490857929663337
6.11506372335247e-05
5.17025117864701e-05
0.000457360716823651
5.50752215991773e-05
0.00112131642267596
0.000468714832319562
5.91953181009231e-05
0.00187148754689175
0.00113400149263157
0.000482622818478297
6.17069028005708e-05
0.00261980429040081
0.00188044489448365
0.0011482118330218
0.000490871316907907
6.11201388640219e-05
0.00332431671954144
0.0026223552771664
0.00188708088971981
0.00115493502927573
0.000488614945949955
5.81459144248986e-05
5.12809759927411e-05
0.000455957789256016
5.4721442160993e-05
0.00111941654073527
0.000467669482082338
5.89109829565534e-05
0.00186966605171347
0.00113278889067421
0.000481950386275975
6.15044361837946e-05
0.00261858871292308
0.00187959850835309
0.00114768962302061
0.000490627016364559
6.10093549579275e-05
0.00332431437195417
0.00262245203610964
0.00188722094121401
0.00115504648229524
0.000488638717041107
5.81213157715993e-05
0.00397000772356471
0.00332125656264552
0.00261918639917367
0.00188527769415884
0.00114851408450665
0.000477561021073369
5.42087512318908e-05
5.07669645009871e-05
0.000454154833476257
5.42755939277284e-05
0.00111679456894418
0.000466236136250568
5.85338804802851e-05
0.00186682556604609
0.00113087453020878
0.000480877966990951
6.12099888227015e-05
0.00261610655080365
0.00187777587190148
0.00114647028094219
0.000489956506334492
6.08107944630736e-05
0.00332270932154074
0.00262124787875971
0.00188638603292528
0.00115454190818045
0.000488416483705203
5.80196883319636e-05
0.00396989234692842
0.00332128197950324
0.00261930506291919
0.00188542880320534
0.00114863809232186
0.000477601191385607
5.41911010573565e-05
0.00455385852602217
0.00396268223943309
0.00330793756523393
0.00260480947870016
0.00186932462862901
0.00112918918857995
0.000461644014444477
4.9989392213824e-05
5.01541997747469e-05
0.000451920440521692
5.37316894528713e-05
0.00111340240789972
0.000464394052222348
5.80588770282e-05
0.00186290837076451
0.00112822754895589
0.000479404548481497
6.0818889544068e-05
0.00261229162672044
0.00187492752565665
0.00114453495656867
0.000488871212619264
6.05201852211957e-05
0.00331955050502824
0.00261876924581138
0.00188456123581221
0.0011533270611095
0.000487763361148568
5.78331744044458e-05
0.00396788442558528
0.00331969216443233
0.00261811457291904
0.00188460907684214
0.00114815847861814
0.000477408712952131
5.41013406300811e-05
0.00455360051040072
0.00396259869820319
0.00330798845682133
0.00260493861414953
0.00186948684041756
0.00112933297184562
0.000461708634686798
4.99796767978538e-05
0.00507893899364116
0.00454395901431587
0.00394106475309061
0.00328030213773196
0.00257519374661949
0.00183860855251599
0.00110069939387008
0.000443190048378009
4.55350996250279e-05
4.94357147019809e-05
0.000449225942773224
5.30845944726939e-05
0.00110918889527274
0.000462114227488528
5.74793229038537e-05
0.00185784641195316
0.00112480477244257
0.000477511858119974
6.03259587840248e-05
0.00260706518209059
0.00187099684211448
0.0011418547141451
0.00048737391598238
6.01330661964217e-05
0.00331476685468264
0.00261495489608466
0.00188170236281676
0.00115138289667099
0.000486686905147369
5.75576317114366e-05
0.00396405562740112
0.00331654297390979
0.00261564165150701
0.00188279293451755
0.00114696633426658
0.000476788182897422
5.39309322258023e-05
0.00455118510995262
0.0039606101614868
0.00330641706620732
0.00260376462997984
0.00186869140719761
0.00112888941317988
0.000461555034518751
4.99033157724858e-05
0.00507851597611038
0.00454373689467057
0.00394101121851398
0.00328036323894099
0.00257533028404218
0.0018387877755706
0.00110087214246423
0.000443287455020702
4.5534128463129e-05
0.00555017176157912
0.0050675059805552
0.00451637393176506
0.0039017566613206
0.00323557452342464
0.00252946616227632
0.00179537350676804
0.00106572244196223
0.000422582582455938
4.0787914757581e-05
4.86049103811233e-05
0.000446029110083705
5.23254576517757e-05
0.00110408587322799
0.00045936414465569
5.67904052493049e-05
0.00185156056488314
0.00112055288330867
0.000475170641640597
5.972496599281e-05
0.00260033560055301
0.00186591707574239
0.00113838877157863
0.000485448076867452
5.96445079405258e-05
0.00330825973196305
0.00260972652485891
0.00187775327094169
0.00114868255407069
0.000485192968793222
5.7188962034197e-05
0.00395832832705475
0.00331176769946664
0.0026118288403764
0.00187993514979938
0.0011450371345333
0.000475742009868027
5.36757354253643e-05
0.00454670080251933
0.00395679572419144
0.00330328180141054
0.00260130740019856
0.00186690208207831
0.00112773967405202
0.00046097865834986
4.97509238911412e-05
0.0050756928801163
0.00454134431425078
0.00393904641911625
0.0032788119351428
0.00257418075699705
0.00183802959345909
0.00110047794130548
0.000443185046973969
4.54723984548771e-05
0.00554956832024681
0.00506712266217949
0.0045161866342355
0.00390171440118226
0.00323563948072828
0.00252961401255861
0.00179557741811212
0.00106593404915872
0.000422719542303108
4.07960289865737e-05
0.00597246138204014
0.00553761128109967
0.0050355761077743
0.00446757134031414
0.00384257414524117
0.00317291219784212
0.00246849034756163
0.00174141907993935
0.00102501164947088
0.000399527155357083
3.57690353112379e-05
4.76551594164877e-05
0.000442290926620759
5.14481657165926e-05
0.00109802613094947
0.000456103191871809
5.59810150117159e-05
0.00184395481492651
0.00111540728673288
0.000472346758844719
5.90087815050054e-05
0.00259199274663313
0.00185960818590089
0.00113408366207776
0.000483064531203397
5.90483186603247e-05
0.0032999135566099
0.00260299253052913
0.00187264840747914
0.00114518750401649
0.000483267780979717
5.67226202095379e-05
0.00395058997126701
0.00330526978491712
0.0026065989661445
0.0018759806330838
0.00114234608706673
0.000474279797320631
5.33323545863936e-05
0.00454006561256007
0.00395108391947485
0.00329852016588491
0.00259750922669961
0.00186406935121492
0.00112585191995186
0.000459978144252436
4.95184730752529e-05
0.00507057339063983
0.00453687841882895
0.0039352533253275
0.00327570116775963
0.00257175665171704
0.00183628881786334
0.00109938868423264
0.000442662564050901
4.53397505529154e-05
0.00554634249977292
0.00506432564465597
0.00451382286877547
0.00389977455427081
0.00323411470040776
0.00252850166772647
0.00179487116319012
0.00106560469490386
0.000422680128830018
4.07502012783816e-05
0.0059716681175025
0.00553705087659594
0.00503523240432175
0.00446739756461763
0.00384253400353556
0.00317298305021705
0.00246865586177115
0.00174165597492603
0.0010252705816759
0.00039970786165642
3.57863050017492e-05
0.00635019478653663
0.00595886197294131
0.00550215055661415
0.00497894748605875
0.00439537202248769
0.00376273863404774
0.00309225485792788
0.00239287149562638
0.00167721129621505
0.000978315153058267
0.000373748703287025
3.05632343882107e-05
4.65797400119099e-05
0.000437967217410594
5.04453443775341e-05
0.001090928929281
0.0004522918314001
5.50464641187674e-05
0.00183492227165971
0.0011092958066901
0.000468997647703043
5.81683367307584e-05
0.00258191061546588
0.00185197499556223
0.00112887495091215
0.000480187482799484
5.83373400125358e-05
0.00328959237209517
0.0025946441268811
0.00186630809984018
0.0011408449558223
0.00048088355997835
5.61528286569205e-05
0.00394070247033434
0.00329693391862241
0.00259986126218717
0.00187086534228364
0.00113885713119424
0.00047238994628132
5.28964239403459e-05
0.00453115152763163
0.00394336334748363
0.00329203765747598
0.0025922937485593
0.00186013871402894
0.00112320385791521
0.000458567085527788
4.92033610767005e-05
0.00506306720507404
0.00453026302576816
0.00392956598016076
0.00327096905407676
0.00256799746346846
0.0018335102330126
0.00109756577032657
0.000441718658849975
4.5132398973142e-05
0.00554060861524228
0.00505922680011772
0.00450938472207893
0.00389601513281787
0.00323104587640246
0.00252613283160384
0.00179320082868919
0.00106459277502101
0.000422223035617886
4.06391663428378e-05
0.0059680483923817
0.00553385374805019
0.00503246906394944
0.00446506432710683
0.00384062487585336
0.00317149685444411
0.00246759580889217
0.0017410175863976
0.00102502204429824
0.000399744945029623
3.57568212407736e-05
0.00634920757314203
0.00595811471269191
0.00550163435243067
0.00497862033363974
0.00439520053196711
0.00376270111976734
0.00309233689000842
0.00239306136687907
0.00167748857493162
0.000978627621627976
0.000373978895824257
3.05894644373157e-05
0.00668727763210671
0.00633555697760254
0.00592021742158297
0.00543871522701562
0.0048950838715344
0.00429903416929836
0.00366173971044519
0.00299318928364416
0.00230232161994705
0.00160225739265046
0.000925045715795159
0.000345085515696575
2.52990457003751e-05
4.5371613917749e-05
0.000433008297895908
4.93094456521478e-05
0.00108270459856575
0.000447884355180171
5.39783162500493e-05
0.00182434176176396
0.00110213814911679
0.000465082588496116
5.71979731163634e-05
0.0025699452942716
0.001842909467227
0.00112268843123831
0.000476775579845096
5.75043272273411e-05
0.00327713778576432
0.00258455484987421
0.00185863759499848
0.00113559028153817
0.000478004971806504
5.54732643859064e-05
0.00392850420842279
0.00328662425736642
0.00259150802271277
0.00186451064160281
0.00113451920726808
0.000470046208235573
5.23632239134104e-05
0.00451980232971035
0.00393349731870939
0.0032837201081136
0.00258557149986093
0.00185504802504301
0.00111976172440737
0.000456735554113037
4.88014986654309e-05
0.00505303479073951
0.00452137300739387
0.00392187543993482
0.00326452240791422
0.00256282703826406
0.00182963986790303
0.00109498962944575
0.000440372217993628
4.48481202260319e-05
0.00553227158664533
0.00505174407485797
0.00450280245314756
0.00389037183208745
0.00322636936819127
0.00252244321804876
0.00179050527180882
0.00106285563788384
0.000421349177913136
4.04592597177019e-05
0.00596172586670669
0.00552814337121167
0.00502740341879962
0.00446066892663308
0.00383691797518549
0.00316849266508913
0.00246530613841741
0.0017394392319656
0.00102410602565226
0.00039936810159022
3.56686154759026e-05
0.00634520694825435
0.00595452624043623
0.00549847557510502
0.00497589358592593
0.00439290400855887
0.0037608347037841
0.00309090458061773
0.00239206978447354
0.00167693451456705
0.000978476954142283
0.00037410644872524
3.05768347744484e-05
0.00668609669640707
0.00633461842787951
0.0059195187218318
0.00543821906791638
0.0048947607140148
0.00429886445087641
0.00366170936206728
0.00299328828483764
0.00230254190895592
0.00160258088143649
0.000925417701830366
0.000345369594255471
2.53322244298697e-05
0.00698725510452129
0.00667161203458356
0.00629390639578011
0.00585059132347872
0.00534425055143183
0.00478323665469373
0.00417793779013249
0.00353850520168823
0.00287458819054643
0.00219572179037635
0.00151542721568764
0.000864427384551907
0.000313431405688959
2.01233637275711e-05
4.40247579849824e-05
0.000427359434349817
4.80331620267893e-05
0.00107325613397838
0.000442829067612542
5.27684071846329e-05
0.00181207977317882
0.00109384432515548
0.000460554189102218
5.60888077565229e-05
0.00255593517020106
0.00183229022194536
0.00111544247152095
0.000472786952813824
5.65413974377369e-05
0.00326236972328607
0.00257258047384338
0.0018495281214882
0.00112934896855703
0.00047459174452175
5.46766733255387e-05
0.00391380788340538
0.00327418307869704
0.00258141329696495
0.00185682241272601
0.0011292684146525
0.000467214093158212
5.17264386636388e-05
0.00450583310804278
0.00392132464278965
0.00327343273852074
0.00257723622768146
0.00184872035732665
0.00111547641037856
0.000454459117662136
4.83089196901006e-05
0.00504030272466014
0.00451005308292789
0.00391204675617095
0.003256248619321
0.00255615740236145
0.00182461758151654
0.00109162865485077
0.000438614580484152
4.4483706925581e-05
0.00552117835721794
0.00504174017291692
0.00449395427004618
0.0038827375994964
0.00321999252237755
0.0025173566416429
0.0017867310548809
0.0010603764071529
0.0004200813000449
4.02087232305932e-05
0.00595259867938412
0.00551983234412698
0.00501996125168618
0.00445414417467956
0.00383134823029461
0.00316390442013924
0.00246171862299748
0.00173685470779417
0.00102247671095592
0.000398579158940571
3.55179583494068e-05
0.00633832420090766
0.00594822958971505
0.00549280384815489
0.00497087971526022
0.00438857300183388
0.00375720467302419
0.00308799061508186
0.00238988401658631
0.00167547087328994
0.000977677807374526
0.000373823799134864
3.05122115100232e-05
0.00668173173256079
0.00633065155973444
0.00591597325289811
0.00543510332594526
0.00489207806934239
0.00429661745774631
0.00365990157282428
0.00299192664920389
0.0023016355353255
0.00160212794985151
0.000925381998759768
0.000345603507962708
2.53359722093763e-05
0.00698588420014163
0.00667048215256298
0.00629302053900529
0.00584991644529511
0.00534376122689796
0.00478291653767959
0.00417777400821725
0.003538487392973
0.00287470949685687
0.00219597751536415
0.00151580140013536
0.00086486040868663
0.000313758445528009
2.01627421909619e-05
0.00725338034736769
0.00697060427346212
0.00662711617840293
0.006218537928459
0.00574638110279042
0.00521795660699652
0.00464284378622933
0.00403068843578748
0.00339122661804423
0.00273458293712529
0.00207116468062821
0.00141496194933376
0.000795339804242619
0.000278548833142776
1.51340624926049e-05
4.2533728283234e-05
0.000420963946463292
4.66102522296329e-05
0.0010624760936724
0.000437069385290109
5.14092403788405e-05
0.00179798776721023
0.00108431546336179
0.000455362028764727
5.4832256272346e-05
0.00253970119820597
0.00181998250625145
0.00110704630227833
0.000468173216385749
5.54405034147622e-05
0.00324508853192864
0.00255855910001833
0.00183885747367676
0.0011220385979558
0.000470599524300531
5.37552481728328e-05
0.00389640023550313
0.00325943087303977
0.00256943297661173
0.00184769192319169
0.00112303029302744
0.000463853610602437
5.09795434918543e-05
0.00448902908631688
0.00390665844786724
0.00326101894510311
0.00256716313152387
0.00184106271360004
0.00111028511326135
0.000451704374818308
4.77195578572639e-05
0.00502466478709739
0.00449611893817772
0.00389992009448017
0.00324601463328682
0.00254788421476588
0.00181836850331383
0.00108743558591535
0.000436423703202871
4.40352193078304e-05
0.00550714049822164
0.00502904291625734
0.00448268685603798
0.00387297949421548
0.00321180441366526
0.00251078674836881
0.00178182002986781
0.00105712534851853
0.000418413932140105
3.98849034320532e-05
0.00594050359273647
0.00550877149610107
0.00501000902692616
0.00444537087410782
0.00382380971033615
0.00315763972480152
0.00245675703070933
0.00173321098783113
0.00102011925330342
0.000397406242568605
3.53036066010791e-05
0.00632845140064039
0.00593913161234128
0.00548454023473209
0.00496350791730397
0.00438214036935983
0.00375174467024407
0.0030835265812999
0.00238643196682627
0.00167302631962636
0.000976180114166148
0.000373134760742324
3.03918344398014e-05
0.00667432027074785
0.00632379722926878
0.00590972068987697
0.00542949264633099
0.00488714148075084
0.0042923780930587
0.00365637625636027
0.00298913025136395
0.00229957957050013
0.00160080300949285
0.000924720495123341
0.000345431757527091
2.52948608337603e-05
0.0069811741307522
0.00666615336760084
0.00628910131179894
0.00584642073844584
0.00534069799389747
0.00478029241796523
0.00417559368079351
0.00353675608476925
0.00287343611914977
0.00219517333697454
0.00151546583274344
0.000864954024680254
0.000314110365906291
2.0183235248697e-05
0.00725182467950372
0.00696928635818608
0.00662604285957868
0.00621767982591138
0.00574571670278523
0.00521747324622691
0.00464253092703262
0.00403053588875527
0.00339122647080957
0.00273473115664345
0.00207145977265346
0.00141538781513416
0.000795819263720018
0.000278872221281336
1.51785532134018e-05
0.00748863123130987
0.00723581170968241
0.00692345476590925
0.00654641956714056
0.00610534118112367
0.00560670642596572
0.00505938395967127
0.00447240886495081
0.00385503356421835
0.00321738821233881
0.00257048482398645
0.0019258225474509
0.00129820122911526
0.000715887563024325
0.00023961540115068
1.03544606339992e-05
4.08933678147297e-05
0.000413760988105126
4.50344151265744e-05
0.00105024847592433
0.000430546622764516
4.98934962248625e-05
0.00178190864036269
0.00107344320266095
0.00044945052552442
5.34204500740707e-05
0.00252104692063495
0.00180583827361416
0.00109740073660341
0.000462880988446788
5.4192903549475e-05
0.00322506966635753
0.00254231109104458
0.00182649024966282
0.00111356702662314
0.000465979710673973
5.27015327130908e-05
0.00387604170394255
0.00324216672386735
0.00255540503082568
0.00183699668330948
0.00111572130572339
0.000459920112510718
5.01148900858226e-05
0.0044691450602704
0.00388928579186528
0.00324630007245658
0.0025552088253499
0.00183196687919825
0.00110411377290673
0.00044843373621476
4.70275475669569e-05
0.00500588052926431
0.00447935637872592
0.00388530994158536
0.00323366556668633
0.00253788438826392
0.00181080114273351
0.00108234954518126
0.000433768926965982
4.34974835591482e-05
0.00548993193075819
0.00501344678047147
0.00446881752932193
0.00386093980381371
0.00320167420896679
0.00250263146067151
0.00177569948888425
0.0010530584874079
0.000416327929524911
3.94845480040724e-05
0.00592523677237659
0.00549477313743492
0.00499737680312101
0.00443419815469243
0.00381417160239595
0.00314958949402125
0.00245033686600623
0.00172845195038313
0.00101700779241055
0.000395847865077114
3.50234054829227e-05
0.0063154149462868
0.00592707247800849
0.0054735401128145
0.00495364786367673
0.00437348872898246
0.00374434970120255
0.00307742041490165
0.00238163743345192
0.0016695481327902
0.000973971939925306
0.000372074212933214
3.02149954386963e-05
0.00666374854285991
0.00631395670514314
0.00590067715874252
0.00542131212312107
0.0048798808551957
0.00428607882688912
0.00365106602176064
0.00298482849448412
0.00229629780959439
0.00159852873931256
0.000923378594703044
0.000344858293014123
2.52051021300302e-05
0.0069732675108951
0.00665877289993483
0.00628229661758116
0.00584023873692744
0.00533517828767067
0.00477546420055359
0.00417147683922685
0.00353336564519315
0.00287078620667981
0.00219327414940319
0.00151430352208605
0.000864450645901881
0.000314067973911336
2.01665209907503e-05
0.00724679041803209
0.00696461476502171
0.00662176626218171
0.00621381723365855
0.00574228258486016
0.00521447911145076
0.00463998425127093
0.00402844158935994
0.00338959061297787
0.00273356416921719
0.0020707746451724
0.00141518306635705
0.000796049505307313
0.000279345926151005
1.52145306551825e-05
0.00748689824428839
0.00723431118395793
0.00692219698476325
0.0065453779850963
0.00610449775067956
0.00560605214043061
0.00505891122571883
0.0044721088250512
0.00385489747788986
0.00321741035200737
0.00257066407368744
0.00192615979775054
0.001298672370143
0.000716383810412645
0.000239951652429025
1.04003594336991e-05
0.00769570938118703
0.00747022618523508
0.00718623036741037
0.00683785923122339
0.00642496830708221
0.0059533487006943
0.00543123679822715
0.00486705185675346
0.00426944497144956
0.0036480119348007
0.00301369604670332
0.0023786064292534
0.00175564177615966
0.00116103792287043
0.000622678961119934
0.000194975172454344
5.94880020351126e-06
3.91001637709779e-05
0.000405687175424439
4.33004886016006e-05
0.00103644833338584
0.00042320118750845
4.82146086027777e-05
0.00176366952204715
0.00106111007072768
0.000442757578821248
5.18458220113114e-05
0.0024997599895918
0.00178969777470979
0.0010863963669228
0.000456853001191661
5.27904130821011e-05
0.00320206891746823
0.00252363971977881
0.00181227809703936
0.00110383213679504
0.000460676562140594
5.15070581982129e-05
0.00385246652200521
0.00322216695547105
0.00253914970708632
0.00182460034474779
0.00110724865902317
0.000455365684803992
4.9125730934554e-05
0.00444590489184761
0.00386896741031774
0.00322907543059757
0.00254121167145274
0.00182131029309506
0.00109687889529699
0.000444603200041202
4.62256956349456e-05
0.00498367455729492
0.00445952069400351
0.00386800462564395
0.00321902427058984
0.00252601585057824
0.00180180831818645
0.00107629946071402
0.000430613176938811
4.28650271010587e-05
0.00546928824595118
0.00499471202387605
0.00445213374526939
0.00384643524278624
0.00318944936808045
0.00249276991769178
0.00176828031233534
0.00104811868984159
0.000413794231890512
3.90031741688404e-05
0.00590655375809783
0.00547761207106054
0.00498186093068038
0.0044204458826696
0.00380227890935006
0.00313962555409426
0.00244235860281499
0.00172250816455761
0.00101310226846938
0.00039388704481919
3.46750433625621e-05
0.00629899698727281
0.00591184971795742
0.00545961820400616
0.00494113251267777
0.00436246991005697
0.00373489132656478
0.00306956520770104
0.00237541816053605
0.00166498312398114
0.000971031987862899
0.000370644092609063
2.99802019734249e-05
0.00664983360306928
0.00630095997458996
0.00588868764707937
0.00541042095841776
0.00487016835399311
0.00427760401338684
0.00364386709176604
0.00297892987146993
0.00229171421573923
0.00159525318992208
0.000921348558712625
0.000343925910275989
2.50663939462746e-05
0.00696204575363299
0.00664823664351921
0.00627251762421026
0.00583129114934288
0.00532712843335605
0.00476836211912177
0.00416535599191043
0.00352824799998932
0.00286668695889589
0.00219019917218681
0.00151223051804131
0.000863288248626281
0.000313627066934761
2.010824511517e-05
0.00723842417941692
0.00695674183849885
0.00661444098477719
0.00620709274256155
0.00573620576012197
0.00520908586226126
0.00463529897441818
0.00402448067568924
0.00338636717887037
0.00273109110208963
0.00206905974406198
0.00141420620430824
0.000795722584679469
0.000279455072345214
1.52212830319877e-05
0.0074815616692922
0.00722931754148019
0.00691758193783484
0.0065411648756196
0.00610070618828282
0.0056026987254679
0.00505600731142775
0.00446966084582971
0.00385290989432268
0.00321588986782347
0.00256962222531149
0.0019256102550749
0.00129860826967943
0.000716749048901299
0.000240582569767198
1.04490864449719e-05
0.00769380755576194
0.00746855017990375
0.00718479341636245
0.00683663714008061
0.00642394594057654
0.00595252040688722
0.00543059806202886
0.00486659587273219
0.00426916335546804
0.00364789726745446
0.00301374512086177
0.00237882139968483
0.00175602415256916
0.00116154721149282
0.00062319340151782
0.000195339811151982
5.9925851704079e-06
0.00787703663377514
0.007676554184502
0.00741845080221299
0.00709618386275486
0.00670888456796633
0.00626171848985074
0.00576234318723133
0.00521856429964025
0.00463838821174847
0.00403075089001869
0.00340596667844222
0.00277594276092316
0.00215403797356207
0.00155493505306943
0.000997320104714403
0.000510421918935959
0.000142763351827104
2.4447627358068e-06
3.71601017698916e-05
0.000396679075661314
4.14043185453701e-05
0.00102094282913876
0.000414968578740595
4.63651591781673e-05
0.00174308933238943
0.00104719022755254
0.000435221765033051
5.01023588787926e-05
0.00247561554284352
0.00177138819530554
0.00107391401149556
0.000450029140820343
5.122570314881e-05
0.00317582085811471
0.002502332512378
0.00179605966045629
0.00109272314579975
0.000454631060297387
5.01639360211469e-05
0.00382538075493883
0.00319918672727495
0.00252047018169434
0.00181035292145806
0.00109750815969799
0.000450135339052028
4.80038675465897e-05
0.00441899990401485
0.00384543729974242
0.00320912211805867
0.00252499203739199
0.00180895626265987
0.00108848830849968
0.00044016321480721
4.53077934167586e-05
0.00495773567010402
0.00443633607860818
0.0038477660192035
0.00320189129188382
0.00251211791062148
0.00179126829944336
0.00106920266861445
0.000426912475731863
4.21313215464594e-05
0.00544490568204439
0.00497256390428804
0.00443239247288272
0.00382925637573604
0.00317495497811853
0.00248106203577664
0.00175945807563099
0.0010422354928266
0.000410774958898307
3.84357648168389e-05
0.00588416780820957
0.00545702469790328
0.00496322362576226
0.00440390426455103
0.00378795138891035
0.00312759833637784
0.00243270432498569
0.00171529424166797
0.00100834785082681
0.000391495914757909
3.42543448914633e-05
0.00627893581783405
0.005893219773585
0.00544255143418699
0.00492576120706582
0.00434890710289239
0.00372321784413042
0.00305983596790167
0.00236767785700986
0.00165926614806195
0.000967323731193233
0.000368829043192236
2.96858709215863e-05
0.00663234369703689
0.00628459074868284
0.00587355251189399
0.00539663722262282
0.00485784026293234
0.00426680858398731
0.00363465388362389
0.00297133019240539
0.00228574945602539
0.00159092678969432
0.000918612948183586
0.000342644187552605
2.48781339325792e-05
0.0069473156643267
0.0066343650097686
0.00625959946674617
0.00581942726223831
0.00531641075626814
0.00475886086502608
0.00415711769349228
0.00352130108484231
0.0028610477783644
0.00218587284748961
0.00150919610563143
0.000861463738964319
0.000312840277308107
2.00084165483248e-05
0.00722660134468251
0.00694555838881248
0.00660397330999158
0.00619742256021011
0.00572740859894695
0.00520122072307932
0.00462840623455426
0.00401858624281158
0.00338148767592389
0.00272723684818265
0.00206622930577764
0.00141236472898767
0.000794762558987045
0.000279171180737402
1.51931541846609e-05
0.00747277070019474
0.00722098714662438
0.00690976961068696
0.00653392936347518
0.00609410125652487
0.00559676721871835
0.00505077918571788
0.00446515552928003
0.00384914049917516
0.0032128674245667
0.00256735771642097
0.0019241073192408
0.00129783777267058
0.000716613385448658
0.000240883907457833
1.04764773634512e-05
0.00768818989630651
0.00746325604615082
0.00717986042640555
0.006832092260995
0.00641981338573968
0.00594882171479193
0.00542734894953995
0.00486380559892714
0.00426683673222
0.00364603819283709
0.00301236108143531
0.0023779250128387
0.00175562820373448
0.00116163512568983
0.000623738345859838
0.000196158137269989
6.04789456120276e-06
0.00787497471593406
0.00767471083521792
0.00741684155229389
0.00709478650858653
0.00670768643138298
0.00626071686483026
0.00576153648796386
0.00521794804837541
0.00463795518533241
0.00403049314419384
0.00340587856278484
0.00277602477454227
0.00215429684721805
0.0015553723757648
0.000997885708770193
0.000511042668497787
0.000143202605279337
2.47960914537815e-06
0.00803475857795491
0.00785721732291462
0.00762282495358375
0.00732440751730108
0.00696041522401975
0.00653542886769661
0.00605656187497164
0.00553101675034465
0.0049661271669981
0.0043701160136249
0.00375253397560176
0.00312450619356795
0.00249893739063437
0.00189054720581358
0.00131639452388357
0.000799416664498179
0.000373143425802282
8.25671150491161e-05
4.79597090889645e-07
3.51005210410561e-05
0.000386690676313439
3.93514611184184e-05
0.00100362560741212
0.000405808793459609
4.43427007323725e-05
0.00171998472916643
0.00103155072813171
0.000426769775779045
4.81809674802465e-05
0.00244837522039853
0.00175072679486013
0.00105982562580237
0.000442354728655905
4.94925987501524e-05
0.00314604277834219
0.00247816281226442
0.00177766105558587
0.00108012162700113
0.000447783245520846
4.86649128584643e-05
0.0037944666932303
0.00317296087364312
0.00249915353193398
0.00179409190712961
0.00108638711018835
0.000444170070945766
4.67418101687682e-05
0.00438809102685971
0.00381840264865384
0.00318619581004002
0.00250635295126365
0.0017947536780344
0.00107883778230935
0.000435058740075107
4.42660740707768e-05
0.00492771559299827
0.00440949487047581
0.00382432930211714
0.00318204499495977
0.00249601158979734
0.00177904509461085
0.00106096501135396
0.000422618019971413
4.12905742924763e-05
0.005416439918348
0.00494669180335286
0.00440931962126847
0.00380916728884319
0.00315799366266098
0.00246734885366102
0.00174911244435152
0.00103532666056863
0.000407227363854792
3.77763872982803e-05
0.00585774855734843
0.00543270801091578
0.00494119220147864
0.00438433320124626
0.0037709828076615
0.0031133359526224
0.00242123692196947
0.00170670748417475
0.00100267442548883
0.000388637903723669
3.37570208692306e-05
0.00625492387417701
0.00587089677691248
0.00542207844314144
0.0049072994442449
0.00433259432165611
0.00370915286777837
0.00304808684614147
0.00235830240507599
0.00165231512966939
0.000962795017068932
0.000366606571054014
2.93287715072316e-05
0.00661100155995965
0.00626458831933477
0.00585503056820427
0.00537974128897277
0.00484269991935101
0.00425351983260169
0.00362327869857436
0.00296190839669554
0.00227831131945902
0.00158548904182065
0.000915139336008072
0.000341001395483762
2.46390753825762e-05
0.00692883443339609
0.00661692864204914
0.00624332904163401
0.00580445126516708
0.00530284729231385
0.00474680063698864
0.00414662064609963
0.00351240287971312
0.00285376794775448
0.00218021954615384
0.00150515486014329
0.000858967279563264
0.000311731101113729
1.98666715617273e-05
0.00721112055832468
0.00693087556864218
0.00659018906520092
0.00618464655886175
0.00571574407657486