/*--------------------------------*- C++ -*----------------------------------*\
  =========                 |
  \\      /  F ield         | OpenFOAM: The Open Source CFD Toolbox
   \\    /   O peration     | Website:  https://openfoam.org
    \\  /    A nd           | Version:  12
     \\/     M anipulation  |
\*---------------------------------------------------------------------------*/
/*   Windows 32 and 64 bit porting by blueCAPE: http://www.bluecape.com.pt   *\
|  Based on Windows porting (2.0.x v4) by Symscape: http://www.symscape.com   |
\*---------------------------------------------------------------------------*/
FoamFile
{
    format      ascii;
    class       volScalarField;
    location    "300";
    object      omega;
}
// * * * * * * * * * * * * * * * * * * * * * * * * * * * * * * * * * * * * * //

dimensions      [0 0 -1 0 0 0 0];

internalField   nonuniform List<scalar> 
10068
(
2.46683683998502
2.46683818538162
0.829031040219527
2.38166593315721
2.46684523249578
0.828623743688408
2.3816771757778
0.500837499979484
0.812198558325959
2.28698514551086
2.46684443991464
0.828083498791833
2.38168113103689
0.500491501834428
0.811797842013872
2.2869956207504
0.378223676088178
0.495457306106742
0.790152637703569
2.21611134704557
2.46684094122156
0.827439324448124
2.38168004091763
0.500053014290892
0.811240589896863
2.28699532346001
0.377936067967281
0.495118473662421
0.789760695313542
2.21610975363103
0.318356331480629
0.376129400178383
0.487252843025625
0.771332062620821
2.18722197064603
2.46684043373594
0.826661006350156
2.38167794855079
0.499519220895442
0.810603463499989
2.28699493440643
0.377571395882816
0.494682853992006
0.789176987644132
2.2161087422714
0.318105766527335
0.375847442803454
0.486920513959098
0.770949717393707
2.18721968060057
0.284817547175253
0.317477398349575
0.372439504631975
0.478891297445522
0.759488582072269
2.18619544350155
2.46684337501648
0.825723287786723
2.38167798706467
0.498872651585585
0.809842011786703
2.2869944390832
0.377122398889123
0.494153616393379
0.788542101012041
2.21610834368018
0.317786894824134
0.375485241145244
0.486487008259573
0.770358825978148
2.18721873502843
0.284590127607498
0.317231469147966
0.372162278973504
0.478565331730084
0.759112636121624
2.18619397466643
0.26446767558119
0.284426654921501
0.315599413828598
0.368021485433282
0.471957748522806
0.752380628091825
2.19192955382687
2.46684015814959
0.824602723656337
2.38167985509075
0.498095013999916
0.808921708097054
2.28699401889327
0.376578497641284
0.493513189660891
0.787797510832067
2.21610824685199
0.317392295166782
0.375038644407649
0.485964494545478
0.769727187426805
2.1872182804528
0.284300183445673
0.316914319818544
0.371803456649361
0.478135236694706
0.758517423888908
2.1861930674093
0.264255299050464
0.28420332448024
0.315357097220634
0.367748505947335
0.471636477164298
0.752006075822882
2.19193189178483
0.251512719941844
0.264257128553374
0.283343575251381
0.312999968552944
0.363591683364274
0.466195342099471
0.74599791369297
2.19485294959253
2.4668373554342
0.823284374943781
2.38168875067277
0.497171241519501
0.807820907066338
2.28699246124887
0.375927508507742
0.49274348636871
0.786899296789245
2.21610790901664
0.3169138708259
0.374497586943187
0.485333221014495
0.768995191371029
2.18721838962744
0.283940718124921
0.316521043493227
0.371360829028542
0.477618828842437
0.757886325499581
2.18619244192416
0.26398440945731
0.283914702279357
0.315042434436716
0.367393361799116
0.471209335013779
0.751403988956804
2.19192870397235
0.251310548729239
0.264048535751729
0.283123196600385
0.312760736381996
0.363322348604148
0.465876858014233
0.745619160576386
2.19485741541291
0.243046251323775
0.251361458600692
0.263521311056938
0.28165003178632
0.310013201298772
0.359291911513138
0.460540681197593
0.738128659035557
2.1951261809074
2.46683786431622
0.821744088436874
2.38167581369062
0.496084833416556
0.806521884056598
2.28700209006612
0.375156776017398
0.491828303950745
0.785822991876921
2.21610621533224
0.31634208460384
0.373850008505702
0.484574666802909
0.768115342655004
2.18721847560258
0.283504600250171
0.316043986930822
0.370824305875052
0.476996725636709
0.757164445084587
2.18619276355117
0.26364846007528
0.283556022943591
0.31465139164235
0.366955098100667
0.470697728440754
0.750770806029491
2.19192570555882
0.251052792020619
0.263778765074857
0.282836450799558
0.312448940350644
0.362970688126821
0.465451754167688
0.745006491900002
2.19485159244767
0.242851231059143
0.251162883449251
0.263315313054393
0.281432120187204
0.309776995751676
0.359025857249612
0.460223631175566
0.737740392423951
2.19513057495491
0.237475861640424
0.242917913523372
0.250780339532067
0.262293972980267
0.279526895717146
0.306834086317884
0.354892304717005
0.454243070568683
0.728413210919947
2.19480463381858
2.466841259577
0.8199659833396
2.38167868737284
0.494820356617319
0.805003883536584
2.28697915840407
0.374253010699036
0.490751689417705
0.784551095099825
2.21610195710443
0.31566653342684
0.373083172597202
0.4836722491282
0.767061859117876
2.18721625131301
0.282983830213672
0.315473790604081
0.370182104766111
0.476250052109931
0.756301795311723
2.18619352947123
0.26324100205585
0.283120630870437
0.314176692287909
0.366424093370682
0.470083890322777
0.750056953419717
2.19192822382158
0.250733341501462
0.263443371994476
0.282479183477088
0.312060846387588
0.362536779628334
0.46494391556994
0.744370125445117
2.19484598445933
0.242602887689253
0.250906141201245
0.263047084292869
0.281147633211993
0.30946829206599
0.358677475864533
0.459799585739135
0.737109480789564
2.19512417386355
0.237285912720004
0.242726355719097
0.25058414586288
0.262090071341836
0.279311578843954
0.306601127190462
0.354629461768297
0.453926298050531
0.7280115693417
2.19480689705106
0.233864081258187
0.237364322952443
0.242419966535474
0.249811980615871
0.260707059696734
0.277158662924106
0.303502003654203
0.350169927226857
0.44705210109277
0.717043254221392
2.19480229569329
2.46684321754498
0.817925244206486
2.38168069544908
0.493359099801553
0.803249515031027
2.28699600402422
0.373202729334874
0.489497349401521
0.783064258403339
2.21609414455545
0.314876314157691
0.372183928029328
0.482610232621169
0.76581748028577
2.18721434933317
0.282369547169658
0.314800115832254
0.369421529465668
0.47536184894033
0.755269598200874
2.18619226598453
0.262754857208121
0.282600626419354
0.313609192607938
0.365788633960678
0.469348603245154
0.74920807084873
2.19192979258896
0.250346187499057
0.263036322943716
0.282045102952574
0.311589484313613
0.362011645291048
0.464337602735926
0.743663856819751
2.19485080486594
0.242295444817653
0.250587121915123
0.262712686961979
0.280792442900873
0.309083656511601
0.358247819234623
0.459295052993111
0.736469326238261
2.19511812299403
0.237044464843589
0.242478950276448
0.250328738597066
0.261823690424537
0.279029719437392
0.306295735192651
0.354284262560094
0.4535018827546
0.727354792161879
2.19479832163044
0.233677689233679
0.237177735975492
0.242230634119082
0.249617619201383
0.260505390966224
0.276946338070977
0.303272608054644
0.349910289363828
0.446734910501186
0.716626577151441
2.19480464668431
0.231621228738917
0.233770228150428
0.23692694486544
0.241619722141012
0.248583153265049
0.258930673522911
0.274671481622801
0.300014028294043
0.34504463115919
0.438962827306049
0.704085773172515
2.19513011128507
2.46684006920216
0.81559737932896
2.38167915310776
0.491682323270662
0.801233612376589
2.2869973901579
0.371991426400715
0.488047838629907
0.781347327650933
2.21611020680488
0.313959844541622
0.37113872329935
0.48137250127262
0.7643652740027
2.18721773344657
0.281652235600775
0.314012016026043
0.368529519142085
0.47431655540372
0.754050227346609
2.18619302824926
0.262182178788333
0.281987200938416
0.312938641510495
0.365036065752047
0.468474347637877
0.748193620891434
2.19193255131371
0.24988476845174
0.262550569791289
0.28152647641725
0.311025881624599
0.361383628223066
0.463612923980254
0.742828224871183
2.19485314578327
0.241923289258228
0.250200235661763
0.262306401819183
0.280360466225956
0.308616411909228
0.357728697393179
0.458696159922957
0.735772126715071
2.19512323872234
0.236746029273159
0.242171871636456
0.250010461117751
0.261490813867102
0.278677213854565
0.305914914075077
0.353858878735314
0.453000634907449
0.726707895123227
2.19479230096309
0.233441327179345
0.236937166218347
0.241984402897894
0.249363745883655
0.260241197564543
0.276667478414717
0.302970752276061
0.349568116616708
0.446308526203082
0.715932696010674
2.19480258600432
0.231437230015569
0.233587120721986
0.236742453368443
0.241432003653646
0.248390696569775
0.258731639632766
0.274462565420247
0.299788496166269
0.34478828793836
0.438645146654416
0.703649712252264
2.19512597727103
0.230353548549392
0.231545802686428
0.233386271502234
0.236255316999662
0.240654439440201
0.24725611934555
0.257114335311531
0.272158287340504
0.296411878454709
0.339562018927312
0.43003464724888
0.689404934038904
2.19485513046577
2.46683949517432
0.812959434113367
2.38167602918766
0.489770664840263
0.798932480275175
2.28699441993872
0.370603964027372
0.486384263626674
0.779375762453188
2.216110871224
0.312904948261415
0.369933225685867
0.479942272054653
0.762688191940895
2.18721976470029
0.280821835444329
0.313097964206733
0.367492606483583
0.473098480682048
0.752627186846841
2.18619246702189
0.261514466806144
0.281270866692405
0.312154132338379
0.364153428494831
0.467445553847208
0.746995749709733
2.19192973869256
0.249341879298097
0.261978285544394
0.280914574730656
0.31035986699483
0.360640038093383
0.462751954542784
0.741831570930485
2.19485851733039
0.241480260919968
0.249739013152214
0.261821331908865
0.279844114284328
0.308057720175964
0.357108466808463
0.457982197767755
0.73495123248474
2.19512811962
0.236385259881599
0.241799884008661
0.249624012348182
0.261085866609646
0.278248123585737
0.305452320498196
0.353345976640442
0.452409585599463
0.726017528825068
2.19479756934893
0.233149723895196
0.236639025357326
0.241677876164915
0.249046579088673
0.259910363990076
0.276318131129995
0.302594006974952
0.349147117981208
0.445809911583157
0.715271411846123
2.19479693971644
0.23120457382832
0.233351581716185
0.236502916199522
0.24118703516029
0.248138596357552
0.258469992888313
0.274187023738766
0.2994903430424
0.344448897581581
0.438214697171254
0.702904787186491
2.19512400803879
0.23017101637929
0.231365029117762
0.233205146342319
0.236072245247587
0.240468320835087
0.247065904831051
0.25691833614531
0.271953123599321
0.296190478425328
0.339309190599709
0.429716247503965
0.688945943864389
2.19485278168063
0.229784910348018
0.230296007509779
0.231211245784774
0.232823495872796
0.235500926963499
0.239684974826549
0.245984163283749
0.255392530518873
0.269737153343085
0.292821969850368
0.333871939349596
0.420362294540541
0.672676680444788
2.19192953800729
2.46684120423287
0.809989395408701
2.38167932534217
0.487603894941943
0.796324343443063
2.28699279764478
0.369024517672079
0.484487305192421
0.77712726630042
2.21610787293245
0.311698895021214
0.368552348298228
0.478301157072911
0.760763061237081
2.18722121319523
0.279867756788536
0.312045836187775
0.366296685520622
0.47169114132798
0.750982583469903
2.18619256197444
0.260742689100921
0.280441562419538
0.31124420675602
0.363127394942802
0.466246787971365
0.745598454823
2.1919279405079
0.248709740600187
0.261310988477584
0.280199956285775
0.309580600870111
0.359767974260048
0.461739102768052
0.740655544490645
2.19485350026034
0.240959636687039
0.249196281876039
0.261249714707742
0.27923473942944
0.307397464418015
0.356374381644658
0.45713490012475
0.733974509804855
2.1951298275127
0.235956340472476
0.241356930426425
0.249163053538417
0.260602069499486
0.277734968470427
0.304899238400137
0.352733910500354
0.451707064126611
0.725211329718272
2.19480250903702
0.232797765629799
0.236278349056266
0.241306082254434
0.248660924734
0.259507377184411
0.275892514934899
0.3021364224684
0.348640717972447
0.445226569984019
0.714584173386495
2.1948022990897
0.230918158712166
0.23306021263553
0.236205156023582
0.240881274057911
0.247822912141709
0.258141622187188
0.273841151036454
0.299117848573522
0.344032195016747
0.437717262240397
0.702221520504329
2.1951186532329
0.229940971184005
0.231133145946608
0.23297050948009
0.235833723164003
0.240224734279986
0.246815850189481
0.256659530322709
0.271681120582561
0.295896094944425
0.338972211872729
0.429279445545244
0.688129918092946
2.19485091981598
0.229603089320745
0.230116654971525
0.23103235551317
0.232643614039286
0.235319172516431
0.239500707232698
0.245796527735138
0.255199868302285
0.269535995133043
0.29260493039716
0.333622879599835
0.420044809975588
0.67221336308761
2.19192921999986
0.229714423427617
0.229743845985383
0.230006633212719
0.230744232817681
0.232246866386232
0.234827259646531
0.238864658144086
0.244920166464513
0.25392949845422
0.267601869709506
0.289488340990483
0.328261125840369
0.410153398141536
0.653538188653185
2.18619138570763
2.46684000030144
0.806664691996627
2.38167743508778
0.485162015958354
0.793389009340739
2.2869933173867
0.367237022942541
0.482337141351036
0.774576927231979
2.21610643245199
0.310328480263685
0.366980434814348
0.476430115972495
0.758568258666173
2.18721790135656
0.278778875125433
0.310842949881575
0.364926917914244
0.470076622208194
0.749096810171708
2.18619566097493
0.259857363138614
0.279488700851876
0.310196846158819
0.361944097356487
0.464862034149065
0.743985018840799
2.19192506051579
0.247980100378814
0.260539654548229
0.279372599123181
0.308676717895511
0.358754256741403
0.460559235066696
0.739284718818955
2.19485112906194
0.240354178200356
0.248564276860563
0.260583108951756
0.278522959784192
0.306624867643504
0.355513583637054
0.456138745159987
0.73282237907814
2.19512677461546
0.235452911220118
0.240836315657148
0.248620473069721
0.260031731505722
0.277129166562872
0.304245590939047
0.352009890399124
0.450874626979015
0.724254323848887
2.19480620983895
0.232379889213438
0.2358494043212
0.240863086698261
0.248200540182807
0.259025533250714
0.275383242058862
0.301589403932854
0.348037270929869
0.444535987886429
0.713789762429743
2.19480496633137
0.230573056874346
0.232708270890984
0.23584446345412
0.240509832699451
0.247438464000274
0.257741071287535
0.273419358152059
0.298665492391883
0.343532374204746
0.437141025543907
0.701533027053451
2.19512401637889
0.229658445035863
0.230846907135271
0.232679362590045
0.235536416594536
0.239919947547133
0.246501942508293
0.256333882806593
0.271338882887583
0.295527871362778
0.338559493795787
0.428781891399576
0.687411428602742
2.19484773371416
0.229374763468298
0.229887338178669
0.230801255058138
0.23240976385095
0.235081665882279
0.23925866373851
0.245548733222285
0.254944080009752
0.269267623306106
0.292314255381803
0.333287914691584
0.419600309750225
0.671307096863708
2.1919279559253
0.229532690655642
0.229565170466832
0.229829078212082
0.230566426040242
0.23206804216119
0.23464698462532
0.238682498995403
0.24473534225301
0.253740352472699
0.267404855566136
0.289275791945603
0.32801665741162
0.40984609613322
0.653146038457059
2.18619278453803
0.229992054464069
0.229688071658316
0.229494944023878
0.229624387541925
0.230321202152236
0.231824248416474
0.234388291316392
0.238355792528024
0.244256586652172
0.252968434229167
0.266073668437659
0.286840886112147
0.323275823743527
0.399970345702991
0.632376863585451
2.18721550682668
2.46683894233312
0.802963365571881
2.38167675438085
0.482425595467605
0.790104101823118
2.28699348150497
0.365224773350187
0.479913994226455
0.771701697336374
2.21610707480946
0.308780188161277
0.365201403942012
0.474309311378248
0.756081999287552
2.18721562907691
0.277543842093789
0.309476177984976
0.3633678669623
0.468236530595842
0.746948796196286
2.18619244981568
0.258848657792142
0.278401232273202
0.308999501615633
0.360588993316579
0.463274177734254
0.742137230436605
2.19193097897411
0.247144340141722
0.259654809272896
0.278421972514252
0.307636345498268
0.357585306741224
0.459196895768358
0.737701229282446
2.19484581107146
0.239656243706347
0.24783475071334
0.25981252244328
0.277698819520485
0.305728670050738
0.354513059321313
0.454978758189497
0.731478031292828
2.19512425108949
0.234868163644409
0.240230814197261
0.247988541170478
0.259366462677262
0.276421394204192
0.303480651801017
0.351161107311269
0.449896410026589
0.723125257558562
2.19480495026294
0.231890042984721
0.235345864733769
0.240342250283848
0.247658375099835
0.258457196736349
0.274781781902747
0.300942912810222
0.347323951164591
0.443719137494846
0.712849852273349
2.19480815871563
0.230163920044441
0.232290279497884
0.23541521692937
0.240066857379793
0.246979056345627
0.257261687977738
0.272914345540349
0.298124803144991
0.34293784509343
0.436462170843166
0.700745624178747
2.19512648022011
0.229318664022273
0.230501751512151
0.232327209621417
0.235175686876059
0.239549058159908
0.246118998894218
0.255936009707988
0.270921039741767
0.295080765255596
0.338066112776089
0.428212213602672
0.686715374361591
2.19485076709353
0.22909507207534
0.229604934864549
0.230515091604836
0.232118783733253
0.234784866155528
0.238954998295677
0.245236752049548
0.25462123709823
0.268929000144863
0.291950135091919
0.332878849400055
0.419101529306295
0.670534766280004
2.19192713703308
0.229305345729631
0.229337533898941
0.229600436674058
0.230335903414478
0.231834868161973
0.234410540701345
0.238442113294937
0.244489900312615
0.253487605146792
0.267140035218124
0.288988604185273
0.327683755485471
0.409395577923266
0.652141406261525
2.18619261248582
0.229809889014092
0.229509458106254
0.229317992520215
0.229447772727155
0.230144216637427
0.231646559406419
0.234209671526128
0.238175895228892
0.244074666656218
0.252782826615267
0.26588073219198
0.286632767079085
0.323038173063977
0.399692026023474
0.632062513788626
2.18721754078353
0.230503675742406
0.22997860376562
0.229474806457477
0.229187325692211
0.229335190019689
0.230114669523479
0.231711221215403
0.234352444888121
0.238369013387638
0.244271641577232
0.252889188636129
0.265687595465449
0.285649096535215
0.320024656176583
0.391387765734992
0.611807144749432
2.21610560966242
2.46684328790383
0.798866291656544
2.38167735990941
0.479376413636203
0.786444087091809
2.28699337777883
0.362971674507517
0.477198643967356
0.768481536277981
2.21610737353675
0.307040301477835
0.363198880267346
0.471919236186405
0.7532826098069
2.18721741858098
0.276151032007967
0.307932063243279
0.361603636358757
0.466152205982243
0.744520030649888
2.18619090758736
0.257706522837167
0.277167808304641
0.307639193579097
0.359047052146004
0.461465487661646
0.7400342402899
2.19192846762193
0.246193596750284
0.258646635846912
0.27733711814292
0.306447127536615
0.356246979574222
0.457635602674442
0.735887900486849
2.19485249161929
0.238857908794662
0.246999087307012
0.258928518017074
0.276751879514074
0.304697175250793
0.35335953008478
0.45363928320911
0.729924969956009
2.19511872030849
0.234194951639899
0.23953278640408
0.247259035177582
0.258597319563875
0.275601772237285
0.3025932708922
0.350174678057265
0.448757067150418
0.72180753176834
2.19480220474518
0.231321771225608
0.234760932172108
0.239736378197911
0.247026741649332
0.257794024204232
0.274078858225004
0.300186254425632
0.346487857255435
0.442759345744719
0.711742620633764
2.194800143637
0.229684951575533
0.231800214100301
0.234911142601121
0.239545760412127
0.246437678675094
0.256695872486748
0.27231762009897
0.297485761763208
0.342235573449288
0.435660737990178
0.699819381661769
2.19513152157042
0.228916459501981
0.230092415103878
0.231908680511049
0.234745981239493
0.239106238107093
0.245660839434459
0.255459298098963
0.270420374242664
0.29454642807987
0.337480468472315
0.427544567359063
0.685931455940985
2.19485284636983
0.22875936763135
0.229265034755
0.230169544982618
0.231766239047417
0.234424101545602
0.238584767963128
0.24485540074286
0.254226034918103
0.268514989272052
0.291508061242647
0.332391705473484
0.418538243882199
0.669821629919337
2.19192752941128
0.229027616267195
0.229057916388481
0.229317975097234
0.230049644301559
0.231543965440175
0.234114248777036
0.238139589239581
0.244179812912788
0.253167440338423
0.266804774996053
0.288628220580474
0.327278215498556
0.4088953730699
0.651291954215354
2.18619390161759
0.229582904852007
0.229282768542958
0.229090936042841
0.229219520550776
0.229914060018497
0.231414000609959
0.233974301231554
0.237937161113842
0.243831500861177
0.252532933391465
0.265619109883677
0.286348591865334
0.322707907682529
0.399241136260634
0.630892206526588
2.18721857164121
0.230320633192932
0.229799536890593
0.229297853954027
0.229011186986301
0.229159183172903
0.229938504752008
0.231534764384587
0.234175554303316
0.238191383330677
0.244092539112436
0.25270688284269
0.265498212579795
0.285444713769625
0.319796115579056
0.391143188102989
0.611584999726359
2.21610688980994
0.231161368963613
0.230501410300592
0.229796338833521
0.229232375372641
0.229014763677962
0.229315767309003
0.230282235693591
0.232080949221499
0.234942937901092
0.239207408948628
0.245388480573077
0.254303610444502
0.267365641177474
0.287367814315782
0.320929360461358
0.388677046962533
0.599443163591421
2.2870039387159
2.46684219337824
0.794357595234676
2.38167967557201
0.475998698386075
0.782388570926616
2.2870064975705
0.360461851675123
0.474172855224503
0.764892011216606
2.21610716929442
0.305094997499689
0.360956786636368
0.469241125661303
0.750146654166159
2.18721751437057
0.274588775611177
0.306196946422577
0.359618208523462
0.463804776572276
0.741790758395972
2.18619230875787
0.256420889430582
0.275776865162182
0.306102624585325
0.357302912789521
0.459418475697897
0.737658051502655
2.19192892028298
0.245118940696726
0.257505115161343
0.276106772179663
0.305096324595575
0.354724705001746
0.455858073473332
0.733827500368196
2.19485207413089
0.237951107597344
0.246048433030435
0.257921328582504
0.275671305169736
0.303518265445601
0.352039224529533
0.452104465327618
0.728148569381193
2.19512372056358
0.23342592636879
0.238734306231477
0.246423362766196
0.257714923965748
0.274659971752331
0.301571928695988
0.349037403173184
0.447441593028927
0.720288146940022
2.19479661756823
0.230668342604249
0.234087460612497
0.239037848753144
0.246297451576426
0.257027123742181
0.273264664113857
0.299308369369951
0.345516114668513
0.441641549161209
0.710452738861118
2.19479707530322
0.229129995395913
0.231231628685755
0.234325468469145
0.238939378980231
0.245806674134711
0.25603531216633
0.271619933825414
0.296737657102481
0.34141243419681
0.434719589178594
0.698732986428604
2.19512552922416
0.228446257095813
0.229613126303414
0.231417797926018
0.234241068110146
0.23858492312347
0.245120466341054
0.254896163088925
0.269828408325568
0.293914794216031
0.336789152831313
0.426758176307272
0.685013219439871
2.19485588205261
0.228362639556103
0.228862554034869
0.229759454015912
0.231346819870623
0.233993828419907
0.238142131733973
0.244398494430947
0.253751885849477
0.26801844535693
0.290979771890551
0.331814653858433
0.417881989184616
0.66903455314039
2.1919287875397
0.228694963275902
0.228722034597328
0.228977520444414
0.229703383140665
0.231190853490847
0.233753372042484
0.237769937438199
0.243799890596582
0.252774626431105
0.266394181317285
0.288190703064925
0.326797229945232
0.40833885628868
0.650537066910696
2.18619245461413
0.229306405666694
0.229005069739717
0.228811140673225
0.228936726070814
0.229627486827557
0.231123039181954
0.233678405582672
0.237635619388276
0.243523049746567
0.252215050043391
0.265286636588332
0.285991298384019
0.322305913312597
0.39874037482744
0.629886737868964
2.18722093687263
0.230093479809477
0.229573179034187
0.229071661159728
0.228784351848137
0.228931016586326
0.229708552860208
0.231302731293873
0.233941151327646
0.237954117709273
0.24385134052586
0.252459320809163
0.265238899165942
0.285162262069791
0.319468011254113
0.390675841762993
0.610125213570278
2.21610874385065
0.230977055927565
0.230321450236251
0.229618879157744
0.22905612322163
0.22883904181534
0.229140296238477
0.23010691443321
0.231905722111968
0.234767698279964
0.23903185942121
0.245211828802638
0.254123840073004
0.267178166104754
0.287164171692635
0.32070355849417
0.388423314140547
0.599248505863622
2.28699341886412
0.23189685438271
0.231168721560004
0.230345878713207
0.229610431608436
0.229161137953842
0.229157545226187
0.229725688655376
0.231000985115904
0.2331659339993
0.236480881441336
0.24132593507156
0.248275016701768
0.25824029881366
0.272790471364332
0.294965586101491
0.331735992847867
0.404011380952263
0.620640517337419
2.38169009876714
2.46684129943592
0.789424472555112
2.38167825306219
0.47226864763401
0.777882024570695
2.28699528408552
0.357679323020274
0.470820573870815
0.760920838297994
2.21611929462718
0.302930673225933
0.358459454807586
0.466257325235544
0.746641135502935
2.18721712726033
0.2728453943574
0.304257159192107
0.357395807325219
0.461175336682938
0.738737946949776
2.18619201784897
0.254981721769141
0.274216763478132
0.304376337213923
0.355341026525844
0.45711533815556
0.734989488604324
2.19192866619306
0.243911504999145
0.25622017724908
0.274719479087442
0.303570926900682
0.353003733246301
0.453847527854083
0.731503989220216
2.19485299997024
0.236927821549636
0.244973857904117
0.256780993307886
0.274445978712287
0.302179497652227
0.350537991708441
0.450358387204737
0.726132604714856
2.19512564186184
0.232553695032581
0.237827311037192
0.245472699677547
0.256709583587738
0.273585305972114
0.300404752392805
0.347735897628405
0.445935212100603
0.718553590264171
2.19480182119916
0.229922898034641
0.233318097104215
0.238238750406176
0.245461948296063
0.256147183001061
0.272328979361069
0.298297873417294
0.344395790121132
0.440351743733925
0.708968340778026
2.19479140115805
0.228492675227972
0.230577790365282
0.233651061076244
0.23824011339432
0.24507788318859
0.255271154374734
0.27081153382409
0.295869483523259
0.340455663472111
0.433623940120134
0.697466732597334
2.19512246750347
0.227902157165084
0.229057737259014
0.230848137654316
0.233654198381632
0.237977965301436
0.244490231228121
0.254238299087061
0.269135889174966
0.293175079380462
0.335978803060017
0.425835632417496
0.683936685028187
2.19485247127043
0.227899502287721
0.228391938249773
0.229279089569633
0.230854582715197
0.233487824006502
0.237620515331816
0.243859020619204
0.253191192339845
0.26743086099662
0.290355070201793
0.331133871113542
0.417109685218919
0.668111040506734
2.19192962612906
0.22830251327264
0.228324960408378
0.228574088645413
0.229292011912202
0.230770218664113
0.233322331749469
0.237327276634482
0.243343921339614
0.252302575957689
0.265901147419613
0.287667786165069
0.326228545270028
0.407694153512363
0.649719165518001
2.18619251269182
0.228975948560195
0.228672187633322
0.22847455823371
0.22859526563687
0.229280176136208
0.230769112486545
0.233317170728386
0.237266220458379
0.243144097776135
0.251823997066822
0.264878651644264
0.285557553375968
0.321831167370265
0.398190133477881
0.629022472233179
2.18721956662607
0.22981759063771
0.22929667316308
0.228793679110329
0.228504011705629
0.228647554592659
0.229421403657983
0.23101147382798
0.233645366636374
0.237653165176474
0.243543970922429
0.252142925667036
0.264908084350623
0.284806722918785
0.319068491942736
0.390155013224732
0.60883926431763
2.21611060402013
0.230749271642363
0.230094899191006
0.229392945878301
0.228830003329087
0.228612041051351
0.228911962051413
0.229876983570213
0.231674011756721
0.234533975064901
0.238795632887456
0.244971929838996
0.253877459333058
0.266919050664556
0.286879750403862
0.320369326898861
0.387897328368603
0.597189510936851
2.2869949506994
0.23171091023622
0.230987480563883
0.230167480155786
0.229433573644019
0.228985132279883
0.228982102506433
0.22955070724165
0.230826432526606
0.232991779405165
0.2363070151257
0.241151992264547
0.248099923085744
0.258061135284834
0.272600608159256
0.294752758727328
0.331473578466366
0.403573002225294
0.619913864668662
2.38167839879971
0.232656879746208
0.231912415996638
0.231036083590668
0.230208666252931
0.229626831002792
0.229444317452789
0.229776924035148
0.230745289959742
0.232510585249207
0.235300735859821
0.239444843256802
0.24543381048552
0.254035902375533
0.266536108753379
0.285281705876556
0.315099201653397
0.367660795765557
0.479278724738688
0.865513977437595
3.68517097144455
0.783920768259209
2.38166679421881
0.468142840414285
0.772996218262696
2.2869951238892
0.354603585706387
0.467115974728048
0.756490231291738
2.21610777521966
0.30053351764862
0.355691099757796
0.462953001987218
0.742767502050787
2.18721681852282
0.270909346418556
0.302099171881295
0.35492115265415
0.458246090236584
0.735330605297876
2.18619178594854
0.253379241233609
0.272475896258673
0.302446907840325
0.35314600340466
0.454538343881447
0.732008941873511
2.19192789519596
0.242562731896604
0.254781827495671
0.273163720260085
0.30185779534773
0.351069200241081
0.451587475143461
0.728899258737674
2.19485476217458
0.235780275593168
0.243766519409521
0.255497501567062
0.273064617713473
0.300668230331408
0.348841681066627
0.448385360001224
0.723863604227177
2.1951289591526
0.231571032114097
0.236803783894432
0.24439814736388
0.255571426404954
0.272366840596109
0.299079610926123
0.34625665344177
0.444222595186855
0.716585397169234
2.19480406508422
0.229078626821008
0.23244544874632
0.237331037148322
0.244511449721974
0.255144594834485
0.271261267667343
0.297143136136524
0.343113967538522
0.438875731924541
0.707273464943927
2.1947967792038
0.227766555366733
0.229831833849193
0.232880574870183
0.237440070335718
0.244242781428799
0.254394143035428
0.269882288804169
0.294870000789286
0.33935266450103
0.432360237919307
0.696009714211371
2.19511687630462
0.227278091479483
0.228419868720303
0.230192974961175
0.23297824966203
0.237277773316721
0.243761982914278
0.25347686876811
0.268333086350601
0.292316304264892
0.335036685836171
0.424761152122044
0.682681102375012
2.19484997655282
0.22736428383273
0.227847296276645
0.228722321691476
0.230283117877628
0.232899338877349
0.237012756278764
0.243229309268342
0.252535621234395
0.266742928880223