/*--------------------------------*- C++ -*----------------------------------*\
  =========                 |
  \\      /  F ield         | OpenFOAM: The Open Source CFD Toolbox
   \\    /   O peration     | Website:  https://openfoam.org
    \\  /    A nd           | Version:  12
     \\/     M anipulation  |
\*---------------------------------------------------------------------------*/
/*   Windows 32 and 64 bit porting by blueCAPE: http://www.bluecape.com.pt   *\
|  Based on Windows porting (2.0.x v4) by Symscape: http://www.symscape.com   |
\*---------------------------------------------------------------------------*/
FoamFile
{
    format      ascii;
    class       volScalarField;
    location    "300";
    object      p;
}
// * * * * * * * * * * * * * * * * * * * * * * * * * * * * * * * * * * * * * //

dimensions      [0 2 -2 0 0 0 0];

internalField   nonuniform List<scalar> 
10068
(
83333.3329032427
83333.3329130886
83333.3329036904
83333.3329032714
83333.3329230129
83333.3329135171
83333.3329130954
83333.3329042631
83333.3329037159
83333.332903302
83333.3329330459
83333.3329234073
83333.3329230075
83333.3329140847
83333.3329135201
83333.3329131022
83333.3329045522
83333.3329042688
83333.3329037473
83333.3329033374
83333.3329431746
83333.3329334023
83333.3329330429
83333.3329239273
83333.3329234015
83333.332923002
83333.3329143965
83333.3329140796
83333.3329135342
83333.3329131172
83333.3329045475
83333.3329045743
83333.3329042787
83333.332903785
83333.3329033777
83333.3329533863
83333.3329435025
83333.3329431735
83333.3329338691
83333.3329333971
83333.3329330361
83333.3329242287
83333.3329239191
83333.3329234017
83333.3329230019
83333.3329144268
83333.3329144052
83333.3329140838
83333.332913556
83333.3329131383
83333.3329042677
83333.3329045847
83333.3329045986
83333.3329042998
83333.332903824
83333.3329034226
83333.3329636655
83333.3329536916
83333.3329533848
83333.3329439264
83333.3329434973
83333.3329431653
83333.3329341465
83333.3329338626
83333.3329333904
83333.3329330295
83333.3329242883
83333.3329242386
83333.3329239147
83333.3329234074
83333.3329230055
83333.3329141898
83333.3329144599
83333.3329144221
83333.3329140995
83333.3329135781
83333.332913164
83333.3329037213
83333.3329043128
83333.3329046062
83333.332904612
83333.3329043229
83333.3329038575
83333.3329034718
83333.3329740017
83333.3329639494
83333.3329636623
83333.3329540806
83333.332953686
83333.3329533739
83333.3329441747
83333.3329439184
83333.3329434875
83333.3329431541
83333.3329342175
83333.3329341624
83333.3329338538
83333.3329333857
83333.332933023
83333.3329240968
83333.3329243256
83333.3329242484
83333.3329239186
83333.3329234127
83333.3329230119
83333.3329136907
83333.3329142362
83333.3329144773
83333.3329144381
83333.3329141126
83333.3329135934
83333.3329131929
83333.3329029251
83333.3329037705
83333.3329043314
83333.3329046158
83333.332904612
83333.3329043343
83333.3329038867
83333.3329035258
83333.3329843897
83333.332974267
83333.3329739962
83333.3329643062
83333.3329639428
83333.3329636475
83333.3329542975
83333.3329540693
83333.3329536737
83333.3329533576
83333.3329442398
83333.3329441905
83333.3329439053
83333.3329434748
83333.3329431396
83333.3329340589
83333.3329342597
83333.3329341732
83333.3329338478
83333.3329333787
83333.3329330162
83333.3329236504
83333.3329241495
83333.3329243423
83333.3329242565
83333.3329239184
83333.3329234104
83333.3329230198
83333.3329129526
83333.3329137408
83333.3329142483
83333.3329144907
83333.3329144419
83333.3329141115
83333.3329136027
83333.3329132247
83333.3329018939
83333.3329029679
83333.3329037861
83333.3329043352
83333.3329046028
83333.3329045931
83333.3329043323
83333.3329039141
83333.3329035855
83333.3329948258
83333.3329846393
83333.3329843811
83333.3329745925
83333.3329742567
83333.3329739762
83333.3329644932
83333.3329642909
83333.3329639266
83333.3329636251
83333.3329543488
83333.3329543102
83333.3329540521
83333.3329536539
83333.3329533351
83333.3329440989
83333.332944283
83333.3329441982
83333.3329438913
83333.3329434573
83333.3329431214
83333.3329336597
83333.3329341167
83333.3329342769
83333.3329341719
83333.3329338351
83333.3329333627
83333.3329330086
83333.3329229715
83333.332923708
83333.3329241627
83333.3329243517
83333.3329242518
83333.3329239021
83333.3329234001
83333.3329230289
83333.3329119797
83333.3329129878
83333.3329137527
83333.3329142579
83333.3329144829
83333.3329144232
83333.3329140953
83333.3329136083
83333.3329132597
83333.3329006206
83333.3329019157
83333.3329029828
83333.3329037871
83333.3329043122
83333.3329045641
83333.3329045544
83333.33290432
83333.3329039433
83333.3329036532
83333.3330053072
83333.3329950618
83333.3329948132
83333.3329849345
83333.3329846232
83333.3329843542
83333.3329747512
83333.3329745713
83333.3329742349
83333.3329739456
83333.3329645299
83333.3329645009
83333.3329642687
83333.3329638995
83333.3329635929
83333.332954217
83333.3329543901
83333.3329543138
83333.3329540315
83333.3329536266
83333.3329533054
83333.3329437368
83333.3329441581
83333.3329442989
83333.3329441892
83333.332943868
83333.3329434292
83333.3329430999
83333.332933037
83333.3329337226
83333.3329341314
83333.3329342799
83333.3329341529
83333.3329338041
83333.3329333368
83333.3329330003
83333.332922066
83333.3329230143
83333.332923722
83333.332924171
83333.3329243381
83333.3329242243
83333.3329238705
83333.332923384
83333.3329230386
83333.3329107736
83333.332911998
83333.3329130044
83333.3329137588
83333.332914241
83333.3329144467
83333.3329143807
83333.3329140666
83333.3329136139
83333.3329132996
83333.3328991239
83333.3329006355
83333.3329019329
83333.3329029815
83333.3329037575
83333.3329042585
83333.3329044999
83333.3329044998
83333.3329043021
83333.3329039736
83333.332903731
83333.3330158327
83333.3330055307
83333.3330052902
83333.3329953281
83333.3329950383
83333.3329947777
83333.3329850666
83333.3329849058
83333.3329845935
83333.3329843128
83333.3329747749
83333.3329747521
83333.3329745427
83333.3329741988
83333.3329739013
83333.3329644053
83333.3329645679
83333.3329644999
83333.3329642414
83333.3329638616
83333.3329635501
83333.3329538851
83333.3329542757
83333.332954404
83333.3329542985
83333.3329539991
83333.332953587
83333.3329532699
83333.3329431658
83333.3329438023
83333.3329441739
83333.3329442961
83333.3329441586
83333.3329438243
83333.3329433898
83333.3329430756
83333.3329321981
83333.3329330872
83333.3329337386
83333.3329341355
83333.3329342556
83333.3329341092
83333.3329337564
83333.3329333035
83333.3329329909
83333.3329209329
83333.3329220898
83333.3329230338
83333.3329237281
83333.332924151
83333.3329242951
83333.3329241722
83333.3329238244
83333.3329233657
83333.3329230499
83333.332909354
83333.3329107878
83333.3329120164
83333.3329130075
83333.3329137354
83333.3329141911
83333.3329143817
83333.3329143175
83333.33291403
83333.3329136199
83333.3329133468
83333.3328974173
83333.3328991342
83333.3329006486
83333.3329019286
83333.332902947
83333.332903693
83333.3329041751
83333.3329044143
83333.3329044343
83333.3329042784
83333.3329040068
83333.332903821
83333.333026402
83333.3330160438
83333.3330158101
83333.3330057687
83333.3330054965
83333.3330052439
83333.3329954346
83333.33299529
83333.3329949984
83333.3329947226
83333.3329850788
83333.332985059
83333.3329848682
83333.332984546
83333.3329842533
83333.3329746582
83333.3329748082
83333.3329747456
83333.3329745066
83333.3329741476
83333.3329738428
83333.332964101
83333.3329644625
83333.3329645792
83333.3329644785
83333.3329641996
83333.3329638091
83333.3329634989
83333.3329533619
83333.3329539508
83333.3329542907
83333.3329543961
83333.3329542588
83333.3329539445
83333.3329535346
83333.3329532299
83333.3329423893
83333.332943219
83333.3329438189
83333.3329441734
83333.332944262
83333.3329441016
83333.3329437624
83333.3329433418
83333.3329430492
83333.3329311399
83333.3329322279
83333.3329331079
83333.332933742
83333.3329341079
83333.3329342004
83333.3329340409
83333.3329336931
83333.3329332661
83333.3329329815
83333.332919593
83333.3329209526
83333.3329221118
83333.3329230374
83333.3329237034
83333.332924097
83333.3329242226
83333.3329240975
83333.3329237679
83333.3329233467
83333.3329230649
83333.3329077323
83333.332909364
83333.3329108022
83333.3329120163
83333.3329129789
83333.3329136755
83333.3329141087
83333.3329142919
83333.3329142399
83333.3329139866
83333.3329136259
83333.3329134033
83333.3328955143
83333.3328974238
83333.3328991427
83333.3329006404
83333.3329018896
83333.3329028746
83333.3329035954
83333.3329040667
83333.3329043133
83333.3329043622
83333.3329042534
83333.3329040478
83333.3329039258
83333.3330370163
83333.3330266017
83333.3330263718
83333.3330162555
83333.3330159966
83333.3330157499
83333.3330058505
83333.3330057195
83333.3330054447
83333.3330051717
83333.3329954363
83333.3329954166
83333.3329952411
83333.3329949362
83333.3329946444
83333.3329849716
83333.332985106
83333.3329850452
83333.3329848206
83333.3329844777
83333.3329841755
83333.3329743818
83333.3329747126
83333.3329748162
83333.3329747166
83333.3329744532
83333.3329740793
83333.3329737729
83333.3329636238
83333.3329641659
83333.3329644758
83333.3329645663
83333.3329644302
83333.3329641336
83333.3329637421
83333.3329634418
83333.3329526441
83333.3329534142
83333.3329539672
83333.3329542863
83333.3329543539
83333.3329541909
83333.3329538699
83333.332953472
83333.3329531871
83333.3329414041
83333.3329424227
83333.33294324
83333.332943819
83333.3329441379
83333.3329441953
83333.3329440197
83333.3329436852
83333.3329432881
83333.3329430222
83333.3329298795
83333.3329311628
83333.3329322513
83333.3329331094
83333.3329337115
83333.332934045
83333.3329341157
83333.3329339514
83333.3329336187
83333.3329332261
83333.3329329735
83333.3329180573
83333.3329196087
83333.3329209706
83333.3329221126
83333.3329230082
83333.3329236412
83333.3329240098
83333.3329241244
83333.3329240063
83333.3329237036
83333.3329233252
83333.3329230846
83333.3329059209
83333.3329077387
83333.3329093741
83333.3329107978
83333.3329119826
83333.3329129112
83333.3329135804
83333.3329139991
83333.3329141843
83333.3329141545
83333.33291394
83333.332913636
83333.3329134709
83333.3328934285
83333.3328955177
83333.3328974282
83333.3328991301
83333.3329005969
83333.332901811
83333.3329027666
83333.3329034703
83333.3329039399
83333.3329042032
83333.33290429
83333.3329042343
83333.3329040997
83333.3329040464
83333.3330476827
83333.3330372058
83333.3330369764
83333.3330267888
83333.3330265392
83333.3330262945
83333.3330163109
83333.3330161932
83333.3330159296
83333.3330156568
83333.3330058428
83333.3330058209
83333.3330056575
83333.333005365
83333.3330050706
83333.3329953402
83333.3329954555
83333.3329953938
83333.3329951788
83333.3329948473
83333.3329945429
83333.3329847252
83333.3329850214
83333.3329851092
83333.3329850066
83333.3329847523
83333.3329843898
83333.332984083
83333.3329739495
83333.3329744446
83333.332974724
83333.3329747972
83333.3329746583
83333.3329743735
83333.3329739947
83333.3329736954
83333.3329629628
83333.3329636736
83333.3329641817
83333.3329644674
83333.3329645162
83333.3329643517
83333.332964046
83333.3329636635
83333.3329633813
83333.3329517288
83333.3329526782
83333.3329534352
83333.3329539638
83333.3329542436
83333.3329542768
83333.3329540976
83333.3329537802
83333.332953403
83333.3329531436
83333.3329402222
83333.3329414282
83333.3329424458
83333.3329432386
83333.3329437819
83333.3329440653
83333.3329440987
83333.3329439173
83333.3329435958
83333.3329432307
83333.332942996
83333.3329284291
83333.3329298984
83333.3329311826
83333.3329322502
83333.3329330754
83333.3329336425
83333.3329339487
83333.3329340061
83333.3329338459
83333.3329335361
83333.3329331834
83333.332932968
83333.3329163375
83333.3329180693
83333.3329196219
83333.3329209669
83333.3329220782
83333.3329229389
83333.332923543
83333.3329238946
83333.3329240074
83333.3329239051
83333.3329236334
83333.3329233037
83333.3329231093
83333.3329039321
83333.332905924
83333.3329077442
83333.3329093647
83333.3329107588
83333.3329119083
83333.3329128064
83333.332913456
83333.3329138696
83333.3329140667
83333.3329140677
83333.3329138954
83333.3329136537
83333.3329135524
83333.3328911733
83333.3328934294
83333.3328955183
83333.3328974113
83333.3328990824
83333.3329005133
83333.3329016955
83333.3329026293
83333.3329033247
83333.3329038019
83333.3329040915
83333.3329042236
83333.3329042275
83333.3329041672
83333.3329041905
83333.3330584157
83333.3330478605
83333.3330476301
83333.3330373673
83333.3330371254
83333.3330368785
83333.3330268156
83333.3330267101
83333.3330264524
83333.3330261764
83333.3330162963
83333.3330162692
83333.3330161148
83333.333015829
83333.3330155279
83333.3330057592
83333.3330058516
83333.3330057878
83333.3330055768
83333.3330052517
83333.3330049401
83333.3329951265
83333.3329953837
83333.3329954524
83333.332995343
83333.3329950918
83333.3329947352
83333.3329944228
83333.3329843372
83333.3329847826
83333.33298503
83333.3329850822
83333.3329849357
83333.3329846558
83333.3329842838
83333.3329839808
83333.3329733454
83333.3329739966
83333.3329744592
83333.3329747104
83333.3329747379
83333.3329745679
83333.3329742712
83333.3329738976
83333.3329736142
83333.3329621153
83333.3329629961
83333.3329636944
83333.3329641744
83333.3329644174
83333.3329644289
83333.3329642473
83333.3329639433
83333.3329635782
83333.3329633206
83333.3329506241
83333.3329517529
83333.3329527004
83333.3329534306
83333.3329539202
83333.3329541615
83333.3329541692
83333.3329539842
83333.3329536779
83333.3329533304
83333.3329531014
83333.332938856
83333.3329402419
83333.3329414476
83333.3329424417
83333.3329431986
83333.3329437045
83333.3329439588
83333.3329439777
83333.3329437993
83333.3329434981
83333.332943171
83333.3329429713
83333.3329267993
83333.332928444
83333.3329299128
83333.3329311769
83333.3329322114
83333.3329330004
83333.3329335372
83333.3329338248
83333.3329338781
83333.3329337298
83333.3329334466
83333.3329331387
83333.3329329639
83333.332914445
83333.332916346
83333.3329180776
83333.332919613
83333.332920927
83333.3329220026
83333.332922832
83333.3329234151
83333.3329237589
83333.3329238791
83333.3329237997
83333.3329235615
83333.3329232841
83333.3329231419
83333.3329017786
83333.3329039324
83333.3329059253
83333.3329077302
83333.3329093208
83333.332910679
83333.332911796
83333.3329126709
83333.3329133102
83333.3329137283
83333.3329139468
83333.3329139836
83333.3329138593
83333.3329136842
83333.3329136593
83333.3328887621
83333.3328911722
83333.332893427
83333.3328954982
83333.3328973603
83333.3328989951
83333.3329003926
83333.3329015496
83333.3329024699
83333.3329031663
83333.3329036614
83333.3329039874
83333.3329041731
83333.3329042457
83333.3329042682
83333.3329043825
83333.3330692246
83333.3330585794
83333.3330583472
83333.333047993
83333.3330477609
83333.3330475081
83333.333037364
83333.3330372689
83333.333037013
83333.3330367309
83333.3330267931
83333.3330267596
83333.3330266109
83333.3330263263
83333.3330260138
83333.3330162272
83333.3330162903
83333.3330162235
83333.3330160115
83333.3330156868
83333.3330153626
83333.33300558
83333.3330057941
83333.3330058407
83333.3330057207
83333.3330054669
83333.3330051111
83333.3330047865
83333.3329947835
83333.3329951754
83333.3329953881
83333.3329954152
83333.3329952564
83333.3329949748
83333.332994603
83333.3329942904
83333.332983791
83333.3329843806
83333.3329847957
83333.3329850097
83333.3329850116
83333.3329848311
83333.3329845362
83333.3329841644
83333.3329838744
83333.3329725651
83333.3329733771
83333.3329740165
83333.3329744472
83333.3329746519
83333.3329746391
83333.3329744516
83333.3329741534
83333.3329737937
83333.3329735336
83333.3329610868
83333.3329621391
83333.3329630172
83333.3329636862
83333.3329641237
83333.3329643253
83333.33296431
83333.3329641238
83333.3329638283
83333.3329634901
83333.3329632624
83333.332949341
83333.3329506434
83333.332951771
83333.3329526928
83333.3329533842
83333.3329538337
83333.3329540444
83333.3329540374
83333.3329538558
83333.3329535678
83333.3329532566
83333.3329530614
83333.3329373152
83333.3329388714
83333.3329402556
83333.3329414388
83333.3329423971
83333.3329431158
83333.3329435901
83333.3329438248
83333.3329438389
83333.3329436706
83333.3329433935
83333.332943109
83333.3329429472
83333.3329250011
83333.3329268107
83333.3329284533
83333.3329299017
83333.3329311324
83333.3329321302
83333.3329328872
83333.3329334023
83333.3329336807
83333.3329337386
83333.3329336082
83333.3329333537
83333.3329330927
83333.3329329636
83333.3329123915
83333.3329144505
83333.3329163498
83333.3329180636
83333.3329195676
83333.3329208453
83333.3329218882
83333.3329226939
83333.3329232652
83333.332923611
83333.3329237472
83333.3329236952
83333.3329234934
83333.3329232712
83333.332923188
83333.3328994725
83333.3329017764
83333.3329039301
83333.3329059073
83333.3329076821
83333.3329092365
83333.332910561
83333.3329116522
83333.3329125127
83333.3329131514
83333.3329135843
83333.3329138328
83333.3329139123
83333.332913843
83333.3329137426
83333.3329138069
83333.3328862074
83333.3328887593
83333.3328911674
83333.3328934044
83333.332895445
83333.3328972708
83333.3328988714
83333.3329002413
83333.3329013808
83333.3329022968
83333.3329030045
83333.3329035287
83333.3329039032
83333.3329041546
83333.3329043123
83333.3329044268
83333.3329046258
83333.3330801002
83333.3330693895
83333.3330691356
83333.3330586792
83333.3330584593
83333.333058199
83333.3330479577
83333.3330478724
83333.3330476175
83333.3330473263
83333.3330373341
83333.3330372909
83333.3330371442
83333.3330368563
83333.3330365285
83333.3330267406
83333.3330267709
83333.3330266973
83333.3330264803
83333.3330261498
83333.3330258068
83333.3330160819
83333.3330162481
83333.3330162695
83333.3330161359
83333.3330158739
83333.3330155124
83333.3330151685
83333.3330052847
83333.3330056192
83333.3330057927
83333.33300579
83333.3330056141
83333.3330053254
83333.333004947
83333.3330046172
83333.3329942966
83333.3329948221
83333.3329951863
83333.3329953589
83333.3329953301
83333.3329951348
83333.3329948336
83333.3329944563
83333.3329941527
83333.3329830783
83333.33298382
83333.3329843989
83333.3329847778
83333.3329849406
83333.3329848988
83333.3329847003
83333.3329843995
83333.3329840378
83333.3329837689
83333.3329716128
83333.3329725883
83333.3329733966
83333.3329740037
83333.3329743882
83333.3329745483
83333.3329745076
83333.332974316
83333.3329740235
83333.3329736877
83333.3329734574
83333.3329598863
83333.3329611056
83333.3329621555
83333.3329630057
83333.3329636326
83333.3329640274
83333.3329641969
83333.3329641672
83333.3329639854
83333.3329637062
83333.3329634031
83333.3329632088
83333.3329478881
83333.3329493557
83333.3329506553
83333.3329517583
83333.3329526416
83333.3329532926
83333.3329537092
83333.3329539
83333.3329538886
83333.3329537169
83333.3329534519
83333.3329531818
83333.3329530237
83333.3329356098
83333.3329373267
83333.3329388795
83333.3329402408
83333.3329413882
83333.3329423081
83333.3329429941
83333.3329434462
83333.3329436713
83333.3329436891
83333.3329435363
83333.3329432862
83333.3329430459
83333.3329429245
83333.3329230453
83333.3329250092
83333.332926815
83333.3329284365
83333.3329298513
83333.3329310449
83333.3329320098
83333.332932743
83333.3329332456
83333.3329335244
83333.3329335949
83333.3329334873
83333.3329332628
83333.3329330487
83333.3329329677
83333.3329101885
83333.3329123944
83333.3329144503
83333.3329163312
83333.3329180133
83333.3329194808
83333.3329207249
83333.332921742
83333.3329225328
83333.3329231022
83333.3329234595
83333.3329236196
83333.3329236005
83333.3329234381
83333.3329232764
83333.3329232544
83333.3328970257
83333.3328994682
83333.3329017712
83333.332903909
83333.3329058562
83333.3329075947
83333.3329091146
83333.3329104114
83333.3329114849
83333.3329123405
83333.332912989
83333.3329134472
83333.3329137356
83333.3329138664
83333.3329138642
83333.3329138444
83333.3329139863
83333.3328835216
83333.3328862032
83333.3328887527
83333.3328911435
83333.3328933504
83333.332895355
83333.3328971462
83333.3328987176
83333.332900067
83333.3329011976
83333.3329021194
83333.3329028502
83333.3329034164
83333.3329038549
83333.3329041908
83333.3329044526
83333.3329046375
83333.3329049041
83333.3330911353
83333.3330802779
83333.3330799945
83333.333069458
83333.3330692429
83333.3330689575
83333.3330586088
83333.3330585355
83333.3330582806
83333.3330579807
83333.3330479201
83333.3330478653
83333.3330477181
83333.3330474249
83333.3330470783
83333.3330372999
83333.3330372935
83333.3330372076
83333.3330369812
83333.3330366411
83333.3330362728
83333.3330266322
83333.3330267454
83333.3330267367
83333.3330265858
83333.3330263091
83333.3330259347
83333.3330255641
83333.3330158386
83333.3330161109
83333.3330162392
83333.3330162019
83333.3330160033
83333.3330157023
83333.33301531
83333.3330149544
83333.333004859
83333.3330053174
83333.3330056261
83333.3330057518
83333.3330056863
83333.3330054706
83333.3330051562
83333.3330047653
83333.3330044404
83333.3329936538
83333.3329943226
83333.3329948374
83333.3329951606
83333.3329952762
83333.3329951997
83333.3329949832
83333.3329946721
83333.3329943009
83333.3329940161
83333.3329822033
83333.3329831008
83333.3329838373
83333.3329843802
83333.3329847086
83333.332984823
83333.3329847516
83333.3329845465
83333.3329842501
83333.3329839094
83333.3329836705
83333.332970495
83333.332971631
83333.3329726027
83333.3329733804
83333.3329739418
83333.3329742805
83333.3329744068
83333.3329743516
83333.3329741641
83333.3329738868
83333.332973585
83333.3329733894
83333.3329585208
83333.3329599002
83333.3329611155
83333.3329621384
83333.332962947
83333.3329635311
83333.3329638916
83333.332964041
83333.3329640078
83333.3329638366
83333.3329635806
83333.3329633181
83333.3329631608
83333.3329462743
83333.3329478987
83333.3329493616
83333.332950636
83333.3329517007
83333.3329525436
83333.3329531609
83333.332953555
83333.3329537367
83333.3329537298
83333.3329535728
83333.3329533354
83333.3329531079
83333.332952988
83333.3329337497
83333.3329356178
83333.3329373295
83333.3329388584
83333.3329401837
83333.3329412927
83333.3329421792
83333.3329428413
83333.3329432811
83333.3329435064
83333.3329435358
83333.3329434045
83333.332943182
83333.3329429833
83333.3329429025
83333.3329209425
83333.3329230506
83333.3329250092
83333.3329267931
83333.3329283805
83333.3329297579
83333.3329309181
83333.3329318575
83333.3329325759
83333.332933076
83333.3329333646
83333.3329334555
83333.3329333756
83333.3329331806
83333.3329330152
83333.3329329777
83333.3329078471
83333.332910189
83333.3329123908
83333.3329144279
83333.332916277
83333.3329179225
83333.3329193556
83333.3329205723
83333.332921572
83333.3329223576
83333.3329229352
83333.332923314
83333.3329235062
83333.3329235247
83333.3329234095
83333.3329233088
83333.3329233272
83333.33289445
83333.3328970197
83333.3328994606
83333.3329017479
83333.3329038561
83333.3329057672
83333.3329074708
83333.3329089617
83333.3329102382
83333.3329113031
83333.3329121641
83333.3329128336
83333.3329133279
83333.3329136671
83333.332913862
83333.3329139407
83333.3329139795
83333.3329141758
83333.3328807166
83333.3328835163
83333.3328861954
83333.3328887282
83333.3328910899
83333.3328932615
83333.3328952316
83333.3328969926
83333.3328985412
83333.3328998782
83333.3329010099
83333.3329019492
83333.332902716
83333.3329033393
83333.3329038619
83333.3329042969
83333.3329046585
83333.3329048621
83333.3329051228
83333.3331022832
83333.3330912792
83333.3330910544
83333.333080319
83333.3330801055
83333.3330797913
83333.3330693442
83333.3330692877
83333.3330690317
83333.333068699
83333.3330585622
83333.3330584957
83333.3330583497
83333.3330580407
83333.3330576819
83333.3330479095
83333.3330478624
83333.3330477564
83333.3330475169
83333.3330471656
83333.3330467672
83333.3330372331
83333.333037288
83333.3330372416
83333.3330370676
83333.3330367697
83333.333036376
83333.3330359732
83333.333026445
83333.3330266494
83333.333026726
83333.333026648
83333.3330264206
83333.3330260995
83333.3330256856
83333.3330252961
83333.3330154775
83333.3330158638
83333.3330161111
83333.3330161834
83333.3330160742
83333.3330158303
83333.3330154978
83333.333015085
83333.33301473
83333.3330042899
83333.3330048825
83333.3330053281
83333.3330055899
83333.3330056516
83333.333005533
83333.3330052907
83333.3330049631
83333.3330045739
83333.3330042648
83333.3329928581
83333.332993675
83333.3329943367
83333.3329948113
83333.3329950783
83333.3329951409
83333.3329950315
83333.332994805
83333.3329944975
83333.3329941441
83333.3329938893
83333.3329811692
83333.3329822206
83333.3329831123
83333.3329838151
83333.332984308
83333.3329845868
83333.3329846652
83333.332984578
83333.332984376
83333.3329840946
83333.3329837864
83333.3329835848
83333.332969217
83333.3329705081
83333.3329716384
83333.3329725802
83333.3329733129
83333.3329738286
83333.3329741313
83333.3329742372
83333.332974179
83333.3329740029
83333.3329737497
83333.3329734887
83333.3329733318
83333.332956998
83333.3329585303
83333.3329599035
83333.3329610911
83333.3329620727
83333.3329628387
83333.3329633877
83333.3329637256
83333.3329638668
83333.3329638396
83333.3329636842
83333.3329634571
83333.3329632375
83333.3329631181
83333.3329445087
83333.3329462811
83333.3329478987
83333.3329493354
83333.3329505712
83333.3329515955
83333.3329524043
83333.3329529977
83333.3329533803
83333.3329535633
83333.332953569
83333.332953434
83333.3329532249
83333.3329530373
83333.3329529536
83333.3329317448
83333.3329337546
83333.3329356157
83333.3329373025
83333.332938795
83333.3329400815
83333.3329411566
83333.332942018
83333.332942666
83333.3329431038
83333.3329433391
83333.3329433886
83333.3329432841
83333.3329430868
83333.3329429295
83333.3329428811
83333.332918703
83333.3329209452
83333.3329230467
83333.3329249828
83333.3329267323
83333.3329282822
83333.3329296255
83333.3329307588
83333.3329316814
83333.3329323949
83333.3329329027
83333.3329332108
83333.33293333
83333.3329332811
83333.3329331198
83333.3329330023
83333.3329329832
83333.3329053782
83333.3329078456
83333.3329101826
83333.3329123654
83333.3329143709
83333.3329161834
83333.3329177942
83333.3329191987
83333.3329203958
83333.3329213873
83333.3329221779
83333.3329227742
83333.3329231838
83333.332923415
83333.3329234787
83333.3329234238
83333.3329233635
83333.3329234076
83333.3328917564
83333.3328944424
83333.3328970103
83333.332899436
83333.3329016944
83333.3329037671
83333.3329056432
83333.3329073169
83333.3329087855
83333.3329100503
83333.3329111167
83333.3329119942
83333.3329126958
83333.3329132367
83333.3329136385
83333.3329139041
83333.3329140597
83333.3329141238
83333.3329142924
83333.3328778039
83333.3328807104
83333.3328835077
83333.3328861712
83333.3328886762
83333.3328910037
83333.3328931412
83333.3328950807
83333.3328968175
83333.332898351
83333.3328996851
83333.3329008292
83333.3329017988
83333.3329026156
83333.3329033123
83333.3329039296
83333.3329044506
83333.3329048258
83333.3329050344
83333.3329051163
83333.3331024126
83333.3331022222
83333.3330912853
83333.3330911141
83333.333090847
83333.3330801576
83333.3330801228
83333.3330798637
83333.3330794949
83333.3330692773
83333.333069208
83333.3330690703
83333.3330687382
83333.3330683435
83333.333058576
83333.3330584879
83333.3330583576
83333.3330581044
83333.3330577336
83333.3330573058
83333.3330478893
83333.3330478805
83333.333047788
83333.3330475814
83333.3330472586
83333.3330468411
83333.3330464022
83333.3330371054
83333.3330372368
83333.3330372536
83333.3330371269
83333.3330368625
83333.3330365126
83333.3330360712
83333.3330356416
83333.3330261535
83333.3330264614
83333.3330266398
83333.333026651
83333.3330264901
83333.3330262081
83333.3330258514
83333.3330254089
83333.3330250148
83333.3330149865
83333.3330154979
83333.333015868
83333.3330160611
83333.3330160607
83333.333015891
83333.333015615
83333.3330152647
83333.3330148482
83333.3330145056
83333.3330035766
83333.3330043093
83333.3330048916
83333.333005292
83333.3330054908
83333.3330054934
83333.3330053374
83333.3330050817
83333.3330047556
83333.3330043809
83333.3330041021
83333.3329919093
83333.332992874
83333.3329936827
83333.3329943066
83333.332994726
83333.3329949388
83333.3329949622
83333.3329948349
83333.3329946105
83333.3329943175
83333.3329939951
83333.3329937802
83333.3329799794
83333.3329811811
83333.3329822248
83333.3329830831
83333.3329837369
83333.3329841804
83333.332984421
83333.3329844781
83333.3329843881
83333.3329841985
83333.3329839412
83333.3329836748
83333.3329835148
83333.3329677851
83333.3329692253
83333.3329705083
83333.3329716079
83333.332972505
83333.3329731922
83333.3329736713
83333.3329739511
83333.3329740498
83333.3329739993
83333.3329738418
83333.3329736179
83333.3329734022
83333.3329732833
83333.3329553258
83333.3329570034
83333.3329585272
83333.3329598714
83333.3329610173
83333.3329619563
83333.332962687
83333.3329632122
83333.3329635396
83333.3329636842
83333.3329636721
83333.3329635388
83333.3329633426
83333.332963165
83333.3329630805
83333.3329426
83333.332944512
83333.3329462757
83333.3329478658
83333.3329492633
83333.3329504585
83333.3329514483
83333.3329522321
83333.3329528124
83333.3329531947
83333.3329533895
83333.3329534174
83333.3329533111
83333.3329531268
83333.3329529784
83333.3329529203
83333.3329296047
83333.332931747
83333.3329337482
83333.3329355835
83333.3329372334
83333.3329386868
83333.332939939
83333.3329409878
83333.3329418333
83333.3329424775
83333.332942924
83333.3329431796
83333.3329432581
83333.3329431842
83333.3329430138
83333.3329428971
83333.3329428534
83333.3329163371
83333.3329187036
83333.3329209381
83333.3329230166
83333.3329249183
83333.3329266301
83333.3329281454
83333.3329294609
83333.3329305756
83333.3329314908
83333.3329322096
83333.3329327352
83333.3329330719
83333.3329332265
83333.3329332147
83333.3329331014
83333.3329330149
83333.3329330196
83333.3329027923
83333.3329053749
83333.3329078369
83333.3329101551
83333.3329123068
83333.332914276
83333.3329160536
83333.332917635
83333.3329190182
83333.3329202045
83333.3329211977
83333.3329220036