/*--------------------------------*- C++ -*----------------------------------*\
  =========                 |
  \\      /  F ield         | OpenFOAM: The Open Source CFD Toolbox
   \\    /   O peration     | Website:  https://openfoam.org
    \\  /    A nd           | Version:  12
     \\/     M anipulation  |
\*---------------------------------------------------------------------------*/
/*   Windows 32 and 64 bit porting by blueCAPE: http://www.bluecape.com.pt   *\
|  Based on Windows porting (2.0.x v4) by Symscape: http://www.symscape.com   |
\*---------------------------------------------------------------------------*/
FoamFile
{
    format      ascii;
    class       surfaceScalarField;
    location    "300";
    object      phi;
}
// * * * * * * * * * * * * * * * * * * * * * * * * * * * * * * * * * * * * * //

dimensions      [0 3 -1 0 0 0 0];

internalField   nonuniform List<scalar> 
28770
(
-4.6401323240709e-06
7.21709343145029e-08
-1.07563470403231e-09
-4.71626084455495e-06
6.8412660864545e-08
7.71507307752462e-09
-1.53642753010934e-06
1.18215230601907e-07
-6.60777266411846e-09
-5.61848032656874e-06
8.47003700857394e-08
1.3943906036091e-09
-4.79221674991197e-06
6.37596219164669e-08
1.21965667927309e-08
-1.57661015098339e-06
1.1162562591631e-07
-3.0283292753341e-09
-5.70526038083816e-06
8.06083402702111e-08
1.3888157997535e-08
-1.18596286577321e-06
1.58952096393837e-07
-4.56427943361163e-09
-1.95090409946444e-06
1.37035951321168e-07
-1.43792099179743e-08
-6.26755237591296e-06
9.91373288441766e-08
3.03023453008423e-09
-4.86610790436602e-06
6.06978536917445e-08
1.31966004425643e-08
-1.61698962721471e-06
1.04975457083278e-07
-8.33485930385516e-10
-5.78827632800384e-06
7.35461174714626e-08
2.16791973305214e-08
-1.22285706980355e-06
1.5089918114704e-07
-2.37927706425874e-09
-1.99397739570851e-06
1.29569771051024e-07
-8.91602336254103e-09
-6.36480320948784e-06
9.4387506516627e-08
1.67593972344879e-08
-1.14973333010446e-06
1.98323573296464e-07
-2.80531148284039e-09
-1.46785250201997e-06
1.84377662185152e-07
-1.10970922013714e-08
-2.26495700922446e-06
1.60193996413119e-07
-2.47763814684662e-08
-6.98771289124951e-06
1.12001209177218e-07
4.41782131234286e-09
-4.9394528570385e-06
5.86897247988437e-08
1.46627866382402e-08
-1.65668884541368e-06
9.96922799193514e-08
7.08934994471255e-10
-5.87061799712906e-06
6.96739392379574e-08
2.58783940300713e-08
-1.25985755636456e-06
1.43045478829017e-07
-1.06840813414081e-09
-2.03882706610923e-06
1.2163315989514e-07
-4.06519587948392e-09
-6.45501254315315e-06
8.37209827755701e-08
2.81806900493789e-08
-1.18660096898706e-06
1.89194148387558e-07
-1.42754833696717e-09
-1.50884188935215e-06
1.75344120849804e-07
-7.16284198998399e-09
-2.31235011473731e-06
1.50601426737352e-07
-1.77350482094373e-08
-7.09731463135372e-06
1.06993959669417e-07
1.93621971749281e-08
-1.17315005589685e-06
2.36900824980833e-07
-1.23175324793765e-09
-1.37469654119054e-06
2.2985365415324e-07
-7.18170700860001e-09
-1.722615337172e-06
2.16310628328124e-07
-2.03196936337487e-08
-2.55245532299964e-06
1.79849924584138e-07
-3.68007027987646e-08
-7.5907975370047e-06
1.20643926979642e-07
6.51131934580173e-09
-5.01401787873063e-06
5.73108974753718e-08
1.72602974866349e-08
-1.69599080424545e-06
9.55892521538893e-08
2.40496482496883e-09
-5.95381789663056e-06
6.75966671811092e-08
3.02743117806039e-08
-1.29656451723832e-06
1.36199009529967e-07
2.00871202950221e-10
-2.08424773799238e-06
1.15723116568982e-07
8.90594194608623e-11
-6.54432633351263e-06
7.85998671468329e-08
3.66038526969619e-08
-1.22360728534187e-06
1.80251642964977e-07
-1.99199980820845e-10
-1.55069644977948e-06
1.66271298032868e-07
-3.85053919377402e-09
-2.36225245966611e-06
1.40194709188311e-07
-1.06332655588548e-08
-7.19723253732737e-06
9.41834613984823e-08
3.39262747334723e-08
-1.21043564659046e-06
2.26646929558552e-07
-1.6716048599789e-10
-1.41599915528805e-06
2.1951373512599e-07
-4.2936509049871e-09
-1.7689811687666e-06
2.04966417857021e-07
-1.5162154888111e-08
-2.60450876419629e-06
1.69522691264063e-07
-2.82058698076528e-08
-7.71012528617882e-06
1.15554756944167e-07
2.31400054719348e-08
-1.20618615714907e-06
2.7439096058607e-07
1.69029000730588e-10
-1.36398928783341e-06
2.73631296394943e-07
-3.51599999121499e-09
-1.59971870157534e-06
2.69060259383952e-07
-1.30272964806759e-08
-1.92814414311118e-06
2.42343933064328e-07
-3.0874587719632e-08
-2.73506397125756e-06
1.91306878038373e-07
-4.8711273414071e-08
-8.00265519512701e-06
1.25738013677406e-07
9.26728778457789e-09
-5.09118751461669e-06
5.64794817512749e-08
2.06913617221631e-08
-1.7355177307468e-06
9.24127848149985e-08
4.42619914856436e-09
-6.03893874070656e-06
6.63393772679094e-08
3.60500170733786e-08
-1.33311149123535e-06
1.30421450153094e-07
1.71587996868481e-09
-2.12969368004826e-06
1.1127249070994e-07
4.17829912004016e-09
-6.63508999300602e-06
7.61285514817229e-08
4.49222045918001e-08
-1.26056872159458e-06
1.72103551472203e-07
1.05750625751453e-09
-1.59266024651652e-06
1.58520177711251e-07
-6.31486410593024e-10
-2.41332677167723e-06
1.33748401861385e-07
-3.9806958001828e-09
-7.29495582394771e-06
8.79772689732131e-08
4.63627786029864e-08
-1.24773994122672e-06
2.16673403528654e-07
8.82868688785687e-10
-1.45777099214375e-06
2.09273273677914e-07
-1.42825529808949e-09
-1.81669636684272e-06
1.93907335750118e-07
-9.84676910328179e-09
-2.65922040345529e-06
1.57259700104152e-07
-1.89927503693033e-08
-7.81802454525944e-06
1.01362779640599e-07
4.04711181699541e-08
-1.2436024802815e-06
2.63000069815309e-07
1.06325045562274e-09
-1.40535674212384e-06
2.61999696292449e-07
-1.28524608381486e-09
-1.64688674815473e-06
2.570709193608e-07
-9.22997389211445e-09
-1.97921300978909e-06
2.30095609544999e-07
-2.46651132188555e-08
-2.79004879837096e-06
1.80893704993146e-07
-3.85559003487844e-08
-8.12780817967151e-06
1.20483453931414e-07
2.7813798421462e-08
-1.24011144597052e-06
3.10445858998141e-07
1.47149334011624e-09
-1.37984011517291e-06
3.15277650045132e-07
1.35434033100225e-10
-1.56786895808169e-06
3.18954804913697e-07
-6.0845398542549e-09
-1.77146339437623e-06
3.00756854437194e-07
-1.98513302872502e-08
-2.02437772666966e-06
2.56374949736288e-07
-4.18093465887591e-08
-2.82108363679518e-06
1.9602680110089e-07
-5.97224148985844e-08
-8.25302292919098e-06
1.2859224223521e-07
1.20735769696674e-08
-5.17230366738548e-06
5.62637953071379e-08
2.48529697983691e-08
-1.77586063809149e-06
9.00262621738446e-08
6.79695159762322e-09
-6.12713770510099e-06
6.56895749516367e-08
4.31992824540617e-08
-1.36983855833125e-06
1.25654420904824e-07
3.48575427088776e-09
-2.17551628200723e-06
1.0787437368457e-07
8.71814507249768e-09
-6.72839875324262e-06
7.4800519541194e-08
5.45602493719246e-08
-1.29759192745569e-06
1.6493648338763e-07
2.50852635616693e-09
-1.63456383697011e-06
1.5201027562758e-07
2.88311246049951e-09
-2.46447428765239e-06
1.28648626194974e-07
2.80722870461403e-09
-7.39384698130693e-06
8.50508056472296e-08
5.87727610686238e-08
-1.28508306126506e-06
2.07412187758949e-07
2.03474608827082e-09
-1.49956941694522e-06
2.00019448912511e-07
1.35731045737922e-09
-1.86461581687106e-06
1.85424666184308e-07
-4.38592459253264e-09
-2.7150494216694e-06
1.49669371413003e-07
-9.83710007444554e-09
-7.92239314717055e-06
9.42250369398394e-08
5.65202543253498e-08
-1.28092825293937e-06
2.52014179260579e-07
1.9851890543126e-09
-1.44691131598623e-06
2.50637415625515e-07
1.07410453217592e-09
-1.6947465988277e-06
2.45122415589437e-07
-4.78222529607759e-09
-2.03164879370667e-06
2.17392791936484e-07
-1.75423185119414e-08
-2.84780431021246e-06
1.67482542776603e-07
-2.73522487275793e-08
-8.24040349259134e-06
1.05429629219444e-07
4.76438737932928e-08
-1.27733583958945e-06
2.97953791543123e-07
2.27069819311864e-09
-1.42111705080116e-06
3.02398804591302e-07
1.94154907321483e-09
-1.61483772580934e-06
3.05660401603139e-07
-2.90599331387532e-09
-1.82320191158843e-06
2.87536200017499e-07
-1.49316490551362e-08
-2.07766140266596e-06
2.43837143503534e-07
-3.43244763952399e-08
-2.87670482059022e-06
1.85572715655896e-07
-4.80226464795464e-08
-8.38078152097508e-06
1.22921985885469e-07
3.26504827939707e-08
-1.27643392059154e-06
3.44907344161745e-07
2.71455333718392e-09
-1.4089888955014e-06
3.54896611125321e-07
3.32671000533292e-09
-1.57402189691021e-06
3.66063890185256e-07
2.95670079818979e-10
-1.71985410918488e-06
3.55227270062521e-07
-8.82524022082047e-09
-1.83789395790978e-06
3.16813473073624e-07
-2.67156036425021e-08
-2.03507544008648e-06
2.60586027389501e-07
-5.21400507334233e-08
-2.84959212428466e-06
1.97078650627081e-07
-6.98078006145706e-08
-8.41640341044482e-06
1.30391166370213e-07
1.44839995176694e-08
-5.25864575617908e-06
5.66480790916168e-08
2.96902633419784e-08
-1.8176011977052e-06
8.84073470826966e-08
9.59602309885644e-09
-6.21967771970595e-06
6.5624144754318e-08
5.17683762666587e-08
-1.40715660320855e-06
1.21820289860681e-07
5.52402120538014e-09
-2.22228045687556e-06
1.05339131237211e-07
1.39154310067863e-08
-6.82525282233919e-06
7.41237888785604e-08
6.59407420088442e-08
-1.33491035877413e-06
1.58802595597049e-07
4.17023200750351e-09
-1.67666910435812e-06
1.46664992990078e-07
6.80031832926692e-09
-2.51595051133561e-06
1.24797059807729e-07
1.02032531648953e-08
-7.49542738840934e-06
8.3492228227001e-08
7.26648527510901e-08
-1.32260486402555e-06
1.99079531873362e-07
3.37913588077668e-09
-1.5414826320208e-06
1.91893419947263e-07
4.53900872953882e-09
-1.91243727729105e-06
1.77924408950389e-07
1.4295326657978e-09
-2.77084525941043e-06
1.43908645017194e-07
-2.53558605147904e-10
-8.02746922338651e-06
9.10279959232533e-08
7.28265527873422e-08
-1.31829912082039e-06
2.41744724284495e-07
3.03851374983324e-09
-1.48859162918074e-06
2.40107147747611e-07
3.62800516233494e-09
-1.74243862257839e-06
2.34466756919189e-07
7.45591402562094e-12
-2.08422484649002e-06
2.0766881654553e-07
-9.80794740021137e-09
-2.90644732810742e-06
1.5885369484769e-07
-1.58134724660991e-08
-8.3482780247171e-06
9.75617157591779e-08
6.68408542855002e-08
-1.31440822067139e-06
2.85988136857094e-07
3.09867462531598e-09
-1.46242175591358e-06
2.89941157551908e-07
3.986642270632e-09
-1.6620174554716e-06
2.92540057961738e-07
8.37041816209078e-10
-1.8757168270187e-06
2.74102092204584e-07
-8.97602889702667e-09
-2.13224386901726e-06
2.30107682788239e-07
-2.55825832175442e-08
-2.9353286506096e-06
1.71691022706517e-07
-3.4983363758514e-08
-8.49524871924923e-06
1.07209526606742e-07
5.49107491081625e-08
-1.31330703275417e-06
3.31385867075321e-07
3.44109497215056e-09
-1.45009813191139e-06
3.40797810398604e-07
4.98136188481466e-09
-1.62073689413955e-06
3.51287974147208e-07
3.02945754081412e-09
-1.7711622119797e-06
3.40565770171686e-07
-4.62777617503552e-09
-1.89140256018878e-06
3.03021908176192e-07
-2.06075583112303e-08
-2.08854060841987e-06
2.48039024938423e-07
-4.33236860938615e-08
-2.90446159964363e-06
1.8643584929983e-07
-5.66635958083342e-08
-8.54512005845258e-06
1.24107164826613e-07
3.72601472261565e-08
-1.3175156996073e-06
3.77842227209557e-07
3.82978605181315e-09
-1.44688986463327e-06
3.9267941641167e-07
6.14783800939802e-09
-1.60411887947412e-06
4.10739844090951e-07
5.78803803301777e-09
-1.71876011548029e-06
4.06392404349307e-07
7.3099028335727e-10
-1.77355723179663e-06
3.73084521077216e-07
-1.15587891063753e-08
-1.82679318236764e-06
3.20594302052108e-07
-3.32054691245575e-08
-2.0028774967576e-06
2.59767476734003e-07
-6.18045644924915e-08
-2.85406350656049e-06
1.96569813158633e-07
-7.91226388814104e-08
-8.55591254472869e-06
1.31793015522264e-07
1.64185822660251e-08
-5.35160958885333e-06
5.76663439264416e-08
3.52979152780817e-08
-1.86135358004502e-06
8.75688544135466e-08
1.28309933606138e-08
-6.31797017891972e-06
6.61933342619396e-08
6.1792058210179e-08
-1.44552060099565e-06
1.18892149307299e-07
7.87973659383483e-09
-2.27062120911865e-06
1.03642302993844e-07
1.99197506797642e-08
-6.92680786697261e-06
7.40466636155545e-08
7.92830754711592e-08
-1.37284182818455e-06
1.53696025977103e-07
6.05580331404404e-09
-1.71942237716372e-06
1.42372612318514e-07
1.12445831202948e-08
-2.5683624513477e-06
1.2192979397415e-07
1.85204963392142e-08
-7.60087570222202e-06
8.27096530816178e-08
8.86861577989286e-08
-1.36051219789617e-06
1.9178579421165e-07
4.92413247667395e-09
-1.58371852958944e-06
1.84937991147471e-07
8.13369764006224e-09
-1.96044098683201e-06
1.71777617916359e-07
7.82417663174396e-09
-2.82707077625869e-06
1.39680979289313e-07
1.02380503828817e-08
-8.13515077760107e-06
8.95024352224631e-08
9.08549630728547e-08
-1.35589654659577e-06
2.32397619680476e-07
4.27950384044421e-09
-1.53049640040874e-06
2.30649075333481e-07
6.52801205635946e-09
-1.79028719835548e-06
2.25089439047141e-07
5.22304253229364e-09
-2.13656228518857e-06
1.9928054957107e-07
-1.60302088061605e-09
-2.96478350239101e-06
1.52656156550686e-07
-3.53977651799042e-09
-8.45620957673761e-06
9.41646037931233e-08
8.66025216845818e-08
-1.35151260215729e-06
2.74789028534675e-07
4.06007252905122e-09
-1.50385227341001e-06
2.782981589374e-07
6.27854885599628e-09
-1.70932255913288e-06
2.80396273551069e-07
5.00438082855008e-09
-1.92791799293403e-06
2.62172401815044e-07
-2.2935329471997e-09
-2.18681363093523e-06
2.19464680919554e-07
-1.5847148188768e-08
-2.99452399663972e-06
1.62243830030926e-07
-2.12906372500402e-08
-8.60390636538396e-06
9.87529852297065e-08
7.67622744858714e-08
-1.35000301916502e-06
3.18490001023866e-07
4.19419706404025e-09
-1.49113262361836e-06
3.27283313890417e-07
6.79124391116127e-09
-1.6674384123641e-06
3.36964999506631e-07
6.26406994254922e-09
-1.82264696746169e-06
3.25987168666024e-07
4.37511008330912e-10
-1.94573378405423e-06
2.88732422058925e-07
-1.32691148022406e-08
-2.14317227186854e-06
2.3386338514216e-07
-3.31205296744549e-08
-2.96257863657375e-06
1.72259805517836e-07
-4.1906950634658e-08
-8.65956239392955e-06
1.07444067960387e-07
6.1921459495308e-08
-1.3540157048087e-06
3.63354878996451e-07
4.5311383824939e-09
-1.48774314330124e-06
3.77424171544651e-07
7.66817148095018e-09
-1.65064883867081e-06
3.94566561313385e-07
8.23301357271606e-09
-1.76969595405416e-06
3.90142192898128e-07
4.3893895015708e-09
-1.82656250105873e-06
3.5775373399703e-07
-6.35435865594007e-09
-1.88002787381896e-06
3.06653981152644e-07
-2.59875472527797e-08
-2.05539246961546e-06
2.47287970758795e-07
-5.1660911058089e-08
-2.9074201347074e-06
1.8540948447536e-07
-6.46045266534588e-08
-8.68503366923353e-06
1.24750243184444e-07
4.16498375379792e-08
-1.36392494092458e-06
4.09410060130273e-07
4.79199105610842e-09
-1.49182668432048e-06
4.2888130895985e-07
8.52993841787137e-09
-1.64858843552095e-06
4.53440371533516e-07
1.03704428355274e-08
-1.75085858765007e-06
4.55074250995253e-07
8.6291824312076e-09
-1.77011707553508e-06
4.26088295276415e-07
1.1725773794614e-09
-1.75629550409603e-06
3.76699312306458e-07
-1.42267614806448e-08
-1.78016496960381e-06
3.18398833634276e-07
-3.93108038265364e-08
-1.95470911224614e-06
2.56834091852558e-07
-7.07891618927645e-08
-2.8540150123605e-06
1.95115728311166e-07
-8.74629484258977e-08
-8.70698255584128e-06
1.33015500656871e-07
1.81167963121512e-08
-5.45286850040866e-06
5.93498497650451e-08
4.19094541158151e-08
-1.90777576808737e-06
8.75351542898732e-08
1.65516709353679e-08
-6.42360083395243e-06
6.74463365483982e-08
7.3485831446739e-08
-1.48542891350205e-06
1.16890924728081e-07
1.05858703078529e-08
-2.32122198816272e-06
1.02800164254301e-07
2.68249819897308e-08
-7.03455011653541e-06
7.46700071005547e-08
9.48562198939517e-08
-1.4117720168931e-06
1.49624068132768e-07
8.19826536758635e-09
-1.76333262070392e-06
1.39102822206034e-07
1.6329193835711e-08
-2.62242761561405e-06
1.20009354020981e-07
2.80220260693188e-08
-7.71152887533023e-06
8.26796438983653e-08
1.07255603591739e-07
-1.39907504825977e-06
1.85581659475822e-07
6.6770692871948e-09
-1.62662405929572e-06
1.79138421373943e-07
1.21953154189582e-08
-2.0091189115693e-06
1.66851824589186e-07
1.50000597067494e-08
-2.88441885935666e-06
1.36594374532156e-07
2.19806384020293e-08
-8.24669209099847e-06
8.88653108481101e-08
1.11369257906328e-07
-1.39392234755578e-06
2.24105556642119e-07
5.70592671418828e-09
-1.57281759687065e-06
2.22366921779169e-07
9.81637977247228e-09
-1.83847083474473e-06
2.17085750031522e-07
1.10092273128257e-08
-2.18897673635347e-06
1.92498051286063e-07
7.42125235360049e-09
-3.0232437914512e-06
1.4827496852806e-07
9.92899443677376e-09
-8.56634589879836e-06
9.26608731808233e-08
1.08341752126728e-07
-1.38884931543664e-06
2.6453824452336e-07
5.19630989063359e-09
-1.54556032484013e-06
2.67706115215426e-07
8.93074528796509e-09
-1.75686562506639e-06
2.69502686869479e-07
9.65842996489123e-09
-1.98017299555215e-06
2.51757884331147e-07
5.00131838685802e-09
-2.24096789006486e-06
2.10585479420194e-07
-5.37739583473049e-09
-3.05310363775134e-06
1.55785779518773e-07
-6.57733234999333e-09
-8.7118769377415e-06
9.51714308695774e-08
9.94191705922195e-08
-1.38671615348529e-06
3.0642744776354e-07
5.07468902592509e-09
-1.53226633670874e-06
3.14634481331335e-07
8.85800306783428e-09
-1.71429306674562e-06
3.2358662603099e-07
9.94340405341933e-09
-1.87417946871942e-06
3.12510394545474e-07
6.19931549810387e-09
-1.99972666391483e-06
2.76035673719699e-07
-4.87099637407169e-09
-2.19760910944934e-06
2.22540583483078e-07
-2.17068215970557e-08
-3.02094229735784e-06
1.62111332341087e-07
-2.62800319539567e-08
-8.76725545908572e-06
9.84594090388575e-08
8.6016175003545e-08
-1.39031896321822e-06
3.49599221894107e-07
5.19411924411569e-09
-1.52847294665556e-06
3.62909930939171e-07
9.29782235132215e-09
-1.6970690887962e-06
3.79069100331009e-07
1.11080784493412e-08
-1.82055632214819e-06
3.74317311898233e-07
8.79444340200177e-09
-1.87972266420041e-06
3.42392135343739e-07
-6.19369422458929e-11
-1.93403867479881e-06
2.91988870502186e-07
-1.73836593289421e-08
-2.10910313855197e-06
2.32926763727098e-07
-4.00753304946481e-08
-2.96431427834917e-06
1.70706577399473e-07
-4.826437188245e-08
-8.79849671537033e-06
1.06860051745187e-07
6.85452505852711e-08
-1.40004535813756e-06
3.94024180853542e-07
5.45108191307766e-09
-1.53234961046944e-06
4.12562774013983e-07
9.91548645108366e-09
-1.69492667100885e-06
4.35971326860362e-07
1.26020221021338e-08
-1.80167768633324e-06
4.37293212412226e-07
1.19010433688208e-08
-1.82280258654176e-06
4.09110502230308e-07
5.71844888552266e-09
-1.80907329928834e-06
3.61179512659299e-07
-8.10120915657567e-09
-1.83220784463267e-06
3.04424096839577e-07
-3.10802028640192e-08
-2.00560106588266e-06
2.44141399235949e-07
-5.94990479724633e-08
-2.90542028186804e-06
1.83167996000932e-07
-7.16077753716091e-08
-8.83632871747728e-06
1.25169241037102e-07
4.58414223472151e-08
-1.41465047257532e-06
4.39824830801223e-07
5.51824381021764e-09
-1.54267637780196e-06
4.63777957223211e-07
1.04068373455699e-08
-1.70199950312924e-06
4.94526405225073e-07
1.40555014546968e-08
-1.80146899795416e-06
5.0182700315537e-07
1.50327514896138e-08
-1.80544243957229e-06
4.76749483056567e-07
1.14661011756148e-08
-1.75331070067513e-06
4.29824666782919e-07
1.49538500393486e-09
-1.70725595964192e-06
3.73422975758568e-07
-1.67720528886693e-08
-1.72096227080758e-06
3.13599338327261e-07
-4.49880615798681e-08
-1.90078688431813e-06
2.52433812828072e-07
-7.89123612603352e-08
-2.86106964035438e-06
1.9266223480169e-07
-9.42823745358425e-08
-8.88231505495868e-06
1.33987303826389e-07
2.01726278197146e-08
-5.5642475117033e-06
6.17734138896604e-08
4.96045506684408e-08
-1.95763926008687e-06
8.82695246772498e-08
2.09416488004027e-08
-6.53834982251172e-06
6.93901611901138e-08
8.7268140238518e-08
-1.52743183972705e-06
1.15838569906584e-07
1.36990384601063e-08
-2.37480924578425e-06
1.02847934483121e-07
3.47369895654302e-08
-7.15020380967856e-06
7.60740692317499e-08
1.13064645420562e-07
-1.45213437714921e-06
1.46612921776093e-07
1.06402533321926e-08
-1.80895373009267e-06
1.36866182136525e-07
2.21409906172997e-08
-2.67891108644541e-06
1.19070365042821e-07
3.89109284033294e-08
-7.82897060319493e-06
8.34677495153714e-08
1.28838066139097e-07
-1.43861822426996e-06
1.80505936421114e-07
8.66114419824837e-09
-1.67062401833477e-06
1.74501693439556e-07
1.67990196048175e-08
-2.05903321769241e-06
1.63106740095095e-07
2.31439450904759e-08
-2.94355665556418e-06
1.34574066427539e-07
3.52654629798903e-08
-8.36343814161086e-06
8.90308893987456e-08
1.34976198991246e-07
-1.4326157708726e-06
2.16951402752997e-07
7.32369257137156e-09
-1.61584419719973e-06
2.15310657592574e-07
1.35304803816726e-08
-1.88735784578113e-06
2.10433431954395e-07
1.75001053094116e-08
-2.24200859527421e-06
1.87121112345228e-07
1.75070349289367e-08
-3.08255364358647e-06
1.451861206033e-07
2.4970313954643e-08
-8.68001320412769e-06
9.21327623444142e-08
1.32906644008089e-07
-1.4266248717117e-06
2.55372141769787e-07
6.50900797609808e-09
-1.58772938123842e-06
2.58316179032595e-07
1.19257628379344e-08
-1.8048413510897e-06
2.59999429706733e-07
1.48783230454311e-08
-2.03267956067225e-06
2.42938123859844e-07
1.30759377870111e-08
-2.29498515485602e-06
2.03540013518145e-07
6.17340954715721e-09
-3.11149495790692e-06
1.51378132320024e-07
9.60372409450594e-09
-8.82143550309659e-06
9.36428844113425e-08
1.24258817073752e-07
-1.42365689680441e-06
2.95360830171528e-07
6.1181897546654e-09
-1.57367549318609e-06
3.03061002568429e-07
1.12508923561018e-08
-1.76142481221907e-06
3.11443363797666e-07
1.41222539682974e-08
-1.92588642413974e-06
3.0047588969935e-07
1.26473907130824e-08
-2.05360529877337e-06
2.65081624669513e-07
4.38402973583602e-09
-2.25141833833413e-06
2.13429375936186e-07
-9.20956514769285e-09
-3.07835433475044e-06
1.55454613020782e-07
-9.44219702202455e-09
-8.87350419372151e-06
9.47342215349941e-08
1.10946134149271e-07
-1.42663307391346e-06
3.36743317141751e-07
5.99832862625024e-09
-1.56927705067046e-06
3.49334103245708e-07
1.11794682317281e-08
-1.74360924190184e-06
3.64572338163391e-07
1.44127000633569e-08
-1.87151057281211e-06
3.59540379922257e-07
1.38679953971539e-08
-1.93287003746005e-06
3.28198835041214e-07
7.18413566577458e-09
-1.98777985878446e-06
2.78897261899812e-07
-7.48567881433704e-09
-2.16250733996116e-06
2.21020745881932e-07
-2.72103619229413e-08
-3.02120601251996e-06
1.60008230855264e-07
-3.09244667060043e-08
-8.90431308621707e-06
9.72736750949447e-08
9.45845332721823e-08
-1.43597754681523e-06
3.79463351885984e-07
6.06816912075021e-09
-1.57274783926067e-06
3.97099807772604e-07
1.14029406287552e-08
-1.7411202175821e-06
4.19350775508156e-07
1.52100858139678e-08
-1.852302562499e-06
4.20214944607893e-07
1.58354740193163e-08
-1.87535310039968e-06
3.92515040002924e-07
1.12223835538361e-08
-1.86197769782153e-06
3.45526467421934e-07
-6.9479531312638e-10
-1.88491112637408e-06
2.89553692655112e-07
-2.13071340516278e-08
-2.05774700611976e-06
2.2946096387264e-07
-4.66808001212275e-08
-2.96069461111156e-06
1.67655745551193e-07
-5.37717034980451e-08
-8.94846109063445e-06
1.05672615554997e-07
7.50239969150558e-08
-1.45036458071582e-06
4.2360412557887e-07
6.13405313044345e-09
-1.5828292051957e-06
4.46470214214418e-07
1.16964918583106e-08
-1.74808182026559e-06
4.75849218858392e-07
1.61200932911923e-08
-1.85220878418465e-06
4.82617168442751e-07
1.80182967533787e-08
-1.85814859345386e-06
4.58181857289914e-07
1.55361421080142e-08
-1.80591031318759e-06
4.12657001397807e-07
6.84047249194625e-09
-1.75895897102613e-06
3.57873887419727e-07
-9.84756373272235e-09
-1.77147242290716e-06
2.99493416115988e-07
-3.59219000518344e-08
-1.9497274452195e-06
2.39262567528895e-07
-6.66515861841878e-08
-2.91022891735429e-06
1.79846065543904e-07
-7.7118185827397e-08
-9.01203087809053e-06
1.25195590731697e-07
5.03714073576896e-08
-1.46815919494043e-06
4.69259295292203e-07
6.00799522721526e-09
-1.59801140554478e-06
4.97551331059418e-07
1.17931439741448e-08
-1.76167047546669e-06
5.34256609338853e-07
1.68965761016501e-08
-1.86217037056972e-06
5.46976565935381e-07
2.00957223871205e-08
-1.86091875627366e-06
5.25589498630989e-07
1.97123984693471e-08
-1.79138285556754e-06
4.8082536785623e-07
1.41132412370338e-08
-1.70562142170894e-06
4.25771601531951e-07
1.77243250235482e-09
-1.6470152052298e-06
3.67121795953545e-07
-1.91180023137653e-08
-1.65641122067081e-06
3.06855265699294e-07
-5.01110538375599e-08
-1.84530633457138e-06
2.46346220969837e-07
-8.58026158181825e-08
-2.88412694111973e-06
1.89006336793931e-07
-9.89082776884061e-08
-9.07886226551841e-06
1.34806929218846e-07
2.31236186472643e-08
-5.68782217409474e-06
6.50862574780434e-08
5.84838048657069e-08
-2.01183232178956e-06
8.99384404374877e-08
2.60259283876907e-08
-6.66419401720241e-06
7.20519983627832e-08
1.03388102268433e-07
-1.57216837831836e-06
1.15761212372928e-07
1.72447765830236e-08
-2.43215402257819e-06
1.03815826277692e-07
4.38583005707089e-08
-7.275625390852e-06
7.83787096734851e-08
1.34313134624066e-07
-1.49440380661972e-06
1.44688344621234e-07
1.34192960047507e-08
-1.85689023334482e-06
1.35694611761818e-07
2.87889374909151e-08
-2.73867153740298e-06
1.19159813924229e-07
5.14105442772413e-08
-7.95489437018677e-06
8.51510019858513e-08
1.5383310199924e-07
-1.47950922847203e-06
1.76595111725031e-07
1.09086838478486e-08
-1.7161960957793e-06
1.71052740440059e-07
2.20251448905228e-08
-2.1107993889822e-06
1.60555711052442e-07
3.24214346742743e-08
-3.0052111400229e-06
1.33656599491448e-07
5.03759866859763e-08
-8.48705544019535e-06
9.00416392477138e-08
1.62403414244656e-07
-1.47225849216271e-06
2.10994478330433e-07
9.15400488800796e-09
-1.65993079799654e-06
2.09526329224214e-07
1.77221477187487e-08
-1.93741777205181e-06
2.05135965161779e-07
2.48298310871721e-08
-2.29626117060215e-06
1.83080505334292e-07
2.88906029851407e-08
-3.14345588673883e-06
1.43268883635058e-07
4.19308848586455e-08
-8.79855298530014e-06
9.24709909519144e-08
1.61048740646838e-07
-1.46505875589432e-06
2.47384264291615e-07
8.00092355171687e-09
-1.63060955702149e-06
2.50211946854217e-07
1.53026698430147e-08
-1.85356163424709e-06
2.51934880892727e-07
2.07486816092119e-08
-2.08583152036439e-06
2.35665570918121e-07
2.21071769313089e-08
-2.34941735593432e-06
1.98056122134426e-07
1.90702142145804e-08
-3.17043005165723e-06
1.48381303448843e-07
2.76602160353242e-08
-8.93392185208059e-06
9.31829298587874e-08
1.52218579342186e-07
-1.46102654712741e-06
2.85414818821343e-07
7.3268063285168e-09
-1.61555920542923e-06
2.92713865818292e-07
1.39949993424038e-08
-1.80904262680614e-06
3.00696043944925e-07
1.88465922273329e-08
-1.97796927609693e-06
2.90029353454115e-07
1.98697696140616e-08
-2.10755845997354e-06
2.55915637401092e-07
1.46539626239263e-08
-2.30482523591609e-06
2.06338035868415e-07
4.62287590729452e-09
-3.13522576342446e-06
1.51033698067807e-07
9.08618534798427e-09
-8.98056126785827e-06
9.31530376708667e-08
1.38166975595479e-07
-1.46316634002876e-06
3.249299065643e-07
6.96410715045369e-09
-1.61034669861339e-06
3.36875104552852e-07
1.3373914262684e-08
-1.79044129572742e-06
3.5132570743458e-07
1.82006730345193e-08
-1.92270467184996e-06
3.46160547051895e-07
1.96316101670047e-08
-1.98607973528765e-06
3.15598234538958e-07
1.53407980295059e-08
-2.04121900236849e-06
2.6773896402097e-07
3.51278094272043e-09
-2.2149720911533e-06
2.11722546076971e-07
-1.30112151278003e-08
-3.07676780804325e-06
1.53099862573125e-07
-1.22412296320998e-08
-9.00785593107524e-06
9.32488473637539e-08
1.21254944543479e-07
-1.47191145549038e-06
3.65874295468412e-07
6.80305538067517e-09
-1.61320695905079e-06
3.82658189382664e-07
1.31335497332444e-08
-1.78740509357037e-06
4.0381323226202e-07
1.82236572996966e-08
-1.90299279545103e-06
4.04242965337182e-07
2.04008666368925e-08
-1.92792690791978e-06
3.77024980872515e-07
1.76160607199803e-08
-1.91483282448582e-06
3.31058659732177e-07
7.87852641901636e-09
-1.93743683486164e-06
2.76192359190095e-07
-1.0131201871455e-08
-2.10954271477595e-06
2.17101608572901e-07
-3.25060755795081e-08
-3.01580317467018e-06
1.56355780845003e-07
-3.48915702843257e-08
-9.05192133203658e-06
9.51775399103666e-08
1.02889943002445e-07
-1.48590583507119e-06
4.08287877252935e-07
6.71678979781573e-09
-1.62286140534783e-06
4.30117749006977e-07
1.30826571596246e-08
-1.79401338613183e-06
4.5816130566903e-07
1.85242919938285e-08
-1.90270781817024e-06
4.64321671558771e-07
2.16030592223674e-08
-1.91058231996686e-06
4.40313441333155e-07
2.0471405405853e-08
-1.85832428478602e-06
3.95822625325681e-07
1.33412316633227e-08
-1.81074681846723e-06
3.42103387541496e-07
-1.45570342190199e-09
-1.82258177658095e-06
2.8438268693681e-07
-2.51185556790184e-08
-2.00008932964942e-06
2.24064109799083e-07
-5.27237698421211e-08
-2.96364281894449e-06
1.63123671887681e-07
-5.77947414872733e-08
-9.12256234968367e-06
1.0363689479117e-07
8.19347644694967e-08
-1.50340705666335e-06
4.52252862979787e-07
6.59907842585515e-09
-1.63773653273604e-06
4.79313608752609e-07
1.30158906515689e-08
-1.80741240672806e-06
5.14450739247703e-07
1.88372471543663e-08
-1.9127354554677e-06
5.26437308317616e-07
2.28652390328391e-08
-1.91368027301386e-06
5.05533622527865e-07
2.34280596949273e-08
-1.84415805271547e-06
4.6207066530457e-07
1.88971780791087e-08
-1.75731649844215e-06
4.08616818081566e-07
7.79269205696957e-09
-1.69734504823939e-06
3.51524971204551e-07
-1.15489646025215e-08
-1.70516724034917e-06
2.92497022450713e-07
-4.03993501368536e-08
-1.89198357737086e-06
2.32578648910338e-07
-7.27028291285022e-08
-2.93073425253646e-06
1.75150858192424e-07
-8.04555591640344e-08
-9.20879782068818e-06
1.24709961072094e-07
5.56088803185888e-08
-1.52309628010768e-06
4.97822542239912e-07
6.29528951639529e-09
-1.65629646466824e-06
5.30326047072078e-07
1.27312524711685e-08
-1.82569502227893e-06
5.7280618090974e-07
1.89742774921087e-08
-1.92924745733387e-06
5.90742404530589e-07
2.39648153086513e-08
-1.92646239138098e-06
5.72880908481548e-07
2.61918359930399e-08
-1.84983441723997e-06
5.30150367285937e-07
2.41853174578307e-08
-1.74566569429667e-06
4.76250474323729e-07
1.66071422489811e-08
-1.64694805805627e-06
4.18309499204961e-07
2.08756319911089e-09
-1.58162854702788e-06
3.58554904965249e-07
-2.11751819325536e-08
-1.5888909883586e-06
2.97909112404447e-07
-5.45221763841696e-08
-1.79168627437786e-06
2.38259865712668e-07
-9.10688148030271e-08
-2.93160947827682e-06
1.83835755836099e-07
-1.00516758116775e-07
-9.27441766855293e-06