/*--------------------------------*- C++ -*----------------------------------*\
  =========                 |
  \\      /  F ield         | OpenFOAM: The Open Source CFD Toolbox
   \\    /   O peration     | Website:  https://openfoam.org
    \\  /    A nd           | Version:  12
     \\/     M anipulation  |
\*---------------------------------------------------------------------------*/
/*   Windows 32 and 64 bit porting by blueCAPE: http://www.bluecape.com.pt   *\
|  Based on Windows porting (2.0.x v4) by Symscape: http://www.symscape.com   |
\*---------------------------------------------------------------------------*/
FoamFile
{
    format      ascii;
    class       volVectorField;
    location    "300";
    object      U;
}
// * * * * * * * * * * * * * * * * * * * * * * * * * * * * * * * * * * * * * //

dimensions      [0 1 -1 0 0 0 0];

internalField   nonuniform List<vector> 
10068
(
(-6.51502664784978e-06 0.000511999454078898 2.86984992196694e-05)
(-4.99251005887215e-06 0.000527542274644387 2.64578670240908e-05)
(-3.46350811942189e-06 0.000466526439433342 5.25893374423627e-05)
(-1.66949342972778e-05 0.000404258676421607 3.26904743086127e-05)
(-3.43860006045459e-06 0.000543010614407843 2.47249400413499e-05)
(-2.75335748036556e-06 0.000484072758259856 4.89514289147492e-05)
(-1.38413869353806e-05 0.000416069525571309 2.99603380468471e-05)
(-2.00715904260104e-06 0.000506452405332127 7.7940589439912e-05)
(-1.02588272080709e-05 0.000411859806390283 5.48687143174474e-05)
(-2.38129788909927e-05 0.000382387745795977 3.58892280833765e-05)
(-2.70886139570986e-06 0.00056058583715267 2.37884380652264e-05)
(-1.99680130706359e-06 0.00050255580914601 4.56253403477756e-05)
(-1.05434298333588e-05 0.000423578573954552 2.75122683502049e-05)
(-1.63199029012018e-06 0.000525477639420705 7.36472447273658e-05)
(-8.62324142895361e-06 0.000424149964787316 5.09648215767996e-05)
(-2.06758631720318e-05 0.00039238262602099 3.3284226136154e-05)
(-1.12378338124526e-06 0.000547179724103828 0.000102970068941951)
(-6.42474025734043e-06 0.000483586159009584 8.01354802394191e-05)
(-1.66106158529471e-05 0.000395744405295622 5.62389984836003e-05)
(-3.13974283940348e-05 0.00036853331983078 3.74796639540705e-05)
(-2.24971802239639e-06 0.00057935735211952 2.32782253375923e-05)
(-1.47586147132137e-06 0.000521471683558178 4.33033533658297e-05)
(-8.46295816126755e-06 0.000437050718943899 2.64937996344559e-05)
(-1.17609690810701e-06 0.000545049099007641 6.94895046999828e-05)
(-6.61908911107687e-06 0.000439156890754304 4.74864944270928e-05)
(-1.6962324482532e-05 0.000396852876789849 2.93000160056747e-05)
(-8.85039154081883e-07 0.000566988157172141 9.80554945732258e-05)
(-5.36855550518473e-06 0.00049999772273546 7.56753409871988e-05)
(-1.44747882295108e-05 0.000405534165490498 5.21685776847413e-05)
(-2.78260916690364e-05 0.000378055493276837 3.49777794642333e-05)
(-5.2669845347078e-07 0.000586265559745714 0.000127077693361914)
(-3.521979506621e-06 0.000532324825251873 0.000105045992422311)
(-1.10621737025649e-05 0.000471670367903291 8.25690573539347e-05)
(-2.27995298822335e-05 0.000378912479925976 5.74794214246264e-05)
(-3.94508692531297e-05 0.000350301083197279 3.83925069233407e-05)
(-1.73711222664618e-06 0.000599103194415022 2.28745471138134e-05)
(-1.05082395916635e-06 0.000540476229010407 4.16276743572808e-05)
(-6.76573988038638e-06 0.000453420426337159 2.61798157307682e-05)
(-7.82605561166721e-07 0.000564919199415296 6.60323068913625e-05)
(-4.97638501582672e-06 0.000456455116027031 4.53578143613765e-05)
(-1.39090827832872e-05 0.000408816083174813 2.76453792926118e-05)
(-5.60892297836787e-07 0.000587068314350078 9.3213710512166e-05)
(-4.12417306371769e-06 0.000518062962484901 7.13924855749789e-05)
(-1.17912034924552e-05 0.000418959778097141 4.82063398358949e-05)
(-2.35927798994713e-05 0.00038097193767016 3.06140421559538e-05)
(-3.56691885644367e-07 0.000606649239243017 0.000121443182869023)
(-2.86873843195974e-06 0.000550591373829915 0.000100172711788028)
(-9.3456805410278e-06 0.000486567059352604 7.70105597959792e-05)
(-2.0187097180137e-05 0.000387241196272689 5.33338049271614e-05)
(-3.51401160504854e-05 0.000359587038762325 3.57832720926452e-05)
(-7.84747686114346e-08 0.000624004042014102 0.000150152239980063)
(-1.66199845042583e-06 0.000574728799726252 0.000128865375009367)
(-6.31392429323793e-06 0.000521780280012213 0.000106755418415819)
(-1.52576589066308e-05 0.000456166990774838 8.36685667052351e-05)
(-2.92933611693217e-05 0.000356332676463553 5.81968663931056e-05)
(-4.79027690993027e-05 0.000327435805888232 3.89124736204202e-05)
(-1.14962291219714e-06 0.000619417417561626 2.26265389622857e-05)
(-6.18721753660146e-07 0.000559652333113741 4.03576339696915e-05)
(-4.99935960572441e-06 0.000471320800387229 2.60381273138062e-05)
(-4.18236771818631e-07 0.000584899996266258 6.32243098703828e-05)
(-3.54672801361141e-06 0.000474423817385067 4.39068051800065e-05)
(-1.10207013378302e-05 0.000424156503707977 2.72436927583082e-05)
(-2.42995392744775e-07 0.000607417920033698 8.8865348544733e-05)
(-2.87752357924289e-06 0.000537302047861419 6.80959830770935e-05)
(-9.28686455628901e-06 0.000435565841565619 4.61632289348662e-05)
(-1.96210644989e-05 0.000392036619955167 2.87383154138244e-05)
(-1.05425485117568e-07 0.000627136554120427 0.000115935181911934)
(-1.9104467871613e-06 0.000569804689345241 9.53175086999918e-05)
(-7.42815196707563e-06 0.000503765093855533 7.21529146905287e-05)
(-1.69889636723435e-05 0.000399513899926639 4.91799345520424e-05)
(-3.02475639827228e-05 0.000361040843873818 3.11894661869686e-05)
(5.88019001833015e-08 0.000644797929250777 0.000143790130756033)
(-1.17749392924655e-06 0.000594001724389105 0.000123289340794443)
(-5.23260193343679e-06 0.00053907129351683 0.000101803021905495)
(-1.33208576640291e-05 0.000470122522910789 7.82902719803613e-05)
(-2.60976069077353e-05 0.000363628932329339 5.39632207018186e-05)
(-4.27390922986026e-05 0.000336567746910405 3.61382108244985e-05)
(2.71000738625605e-07 0.000661127920944902 0.00017212855040486)
(-2.83387731454781e-07 0.000614023013565274 0.000151474041673905)
(-3.02909998696495e-06 0.00056525590680881 0.000130136994989413)
(-9.27896212814053e-06 0.000507503776997605 0.000107532234859979)
(-1.99916552189845e-05 0.000435171683650585 8.40000886284771e-05)
(-3.59812779498983e-05 0.000329531827269036 5.85306105014623e-05)
(-5.64634857838116e-05 0.000298882682897472 3.91554490470158e-05)
(-5.1612000483074e-07 0.000640465052870908 2.27494323500077e-05)
(-1.43967272192829e-07 0.00057903816771105 3.9442366507394e-05)
(-3.10446070747707e-06 0.000489975453475386 2.60330850321814e-05)
(-4.03126144488369e-08 0.000604987726422829 6.09934521727673e-05)
(-2.11176764268563e-06 0.000492695590472789 4.28070506197321e-05)
(-7.98651394401808e-06 0.000441265426896326 2.72120115003137e-05)
(7.7944229189532e-08 0.000627935733787685 8.51252205112452e-05)
(-1.68962818132764e-06 0.000556854215399077 6.5422434265524e-05)
(-6.8841572437426e-06 0.000453020962746861 4.48019779086739e-05)
(-1.55996473712072e-05 0.00040659257459533 2.82333885893924e-05)
(1.6659541867006e-07 0.000647817715838183 0.000110850134245252)
(-9.13494774342887e-07 0.000589776968223167 9.10183504995771e-05)
(-5.52923188246139e-06 0.000522651467179934 6.94173852720261e-05)
(-1.37269715099567e-05 0.000415396963728356 4.70893918551009e-05)
(-2.53569226160069e-05 0.000371110890882214 2.91508676009549e-05)
(2.66319744173102e-07 0.000665597365350153 0.000137639592569683)
(-4.23492888612685e-07 0.000613840659587319 0.000117798105798737)
(-3.73773259715492e-06 0.000557721133620438 9.68989342463275e-05)
(-1.08486807511599e-05 0.000486592799314719 7.31066907907495e-05)
(-2.23513509387238e-05 0.000374912083999197 4.96954941582422e-05)
(-3.70731078347638e-05 0.00033642854407043 3.1353015209527e-05)
(3.92567776527467e-07 0.000682186264470697 0.000165073665236084)
(1.21835238647062e-07 0.000633924701055102 0.000145174214705859)
(-2.16498664144031e-06 0.000583809137319805 0.000124606009040889)
(-7.75158956613194e-06 0.000524090882767815 0.000102574884233466)
(-1.76013037490007e-05 0.000448343347984872 7.89910533351277e-05)
(-3.21649865562118e-05 0.000335761789042463 5.41233939982214e-05)
(-5.04240247498819e-05 0.000307841608566781 3.6112578687861e-05)
(5.52379810057576e-07 0.000697897350093132 0.000193018398462909)
(7.93809896971655e-07 0.000651713824470982 0.000172968020964375)
(-5.51506406013491e-07 0.000605103804487129 0.000152370512639335)
(-4.57622113237793e-06 0.000551986240520135 0.000130493311486982)
(-1.24393576071977e-05 0.000488058142210831 0.00010754466903883)
(-2.48794693456637e-05 0.000410146162439846 8.36819870498135e-05)
(-4.27434684511788e-05 0.000298855298759299 5.8534729724836e-05)
(-6.49194161193403e-05 0.000264469082107814 3.9159314884789e-05)
(1.6665434491165e-07 0.00066269969196869 2.31881896615083e-05)
(3.91331924283954e-07 0.000598899742912929 3.89076991256287e-05)
(-1.01976803780427e-06 0.000509322745723169 2.62930546110161e-05)
(3.72066639327596e-07 0.000625262308037013 5.92826095296696e-05)
(-5.71394984440201e-07 0.000511157215305807 4.20304697229762e-05)
(-4.71893832943092e-06 0.000459189537511916 2.72791082401671e-05)
(4.1858391695441e-07 0.000648613231204155 8.20190195112585e-05)
(-4.71834776921414e-07 0.000576529224977128 6.33105558705594e-05)
(-4.40672708897749e-06 0.000470755506449751 4.37909527779835e-05)
(-1.12825245552565e-05 0.000422935421756658 2.81738591097435e-05)
(4.53157106501823e-07 0.000668670530740076 0.000106338557676273)
(1.12715112957322e-07 0.000610029210693222 8.73592650223808e-05)
(-3.53844146645022e-06 0.000541862156458489 6.68304560102278e-05)
(-1.03815629242911e-05 0.000432170814621867 4.5761641720073e-05)
(-2.02069111646608e-05 0.000384830579167876 2.8622505549743e-05)
(5.03243438875025e-07 0.000686527282759156 0.000131909004937154)
(4.24958851682342e-07 0.000634223034308963 0.000112754025742331)
(-2.10397059638622e-06 0.000577416366778424 9.2620475857792e-05)
(-8.15991137642114e-06 0.000505021913488745 7.01984518076058e-05)
(-1.83516529290095e-05 0.000390095672767246 4.74944528174225e-05)
(-3.12116369300201e-05 0.000345257827561374 2.91580252613381e-05)
(5.7297072542723e-07 0.000703201116188292 0.000158312419035123)
(7.52666080022638e-07 0.00065419339162774 0.000139063958084119)
(-9.42692295225411e-07 0.000603203489215099 0.000119108328288207)
(-5.75536638806065e-06 0.000542199867402403 9.75569069472219e-05)
(-1.4645474658337e-05 0.000464085588351484 7.36132719995642e-05)
(-2.77995084455809e-05 0.00034600077365128 4.97980573987854e-05)
(-4.39150120843672e-05 0.000305962734955325 3.1186561015101e-05)
(6.69396180666593e-07 0.000719098771246249 0.000185324561046119)
(1.1531318983678e-06 0.000672011152966201 0.000165982207301887)
(1.96702459252179e-07 0.000624416408546978 0.000146126173307035)
(-3.28346416522439e-06 0.000569981612528144 0.000124992529073871)
(-1.04334675227535e-05 0.00050400925212296 0.000102597713417566)
(-2.19823366718645e-05 0.000422539578617079 7.89621514855073e-05)
(-3.83165406817388e-05 0.00030395884454739 5.38704470754827e-05)
(-5.80885118065065e-05 0.000273293370264914 3.5849440678703e-05)
(7.80637400333723e-07 0.000734391237849504 0.00021295327571759)
(1.65992922141984e-06 0.00068865172828708 0.000193477973859053)
(1.38021751370106e-06 0.00064290033373981 0.000173502266113122)
(-9.08305633953358e-07 0.000592440751113003 0.000152355545312478)
(-6.23143712334333e-06 0.000533736658394888 0.000130014090083104)
(-1.56637317425027e-05 0.000464574687697588 0.000106870537277854)
(-2.98107335760532e-05 0.000381418195910469 8.27486715201574e-05)
(-4.94332746326747e-05 0.000264197879811926 5.8265330143897e-05)
(-7.31170881611291e-05 0.000224395090833198 3.90204596760134e-05)
(9.39085985925269e-07 0.000686469851560021 2.38916811373088e-05)
(1.00048825782767e-06 0.000619577040490459 3.87611742768591e-05)
(1.27133121319852e-06 0.00052970746010989 2.68659941465231e-05)
(8.33601776924498e-07 0.000645975949280077 5.80762097812424e-05)
(1.1553655736915e-06 0.000530016089076139 4.16322642112959e-05)
(-1.13024057554548e-06 0.000477761464554832 2.7542725106071e-05)
(7.93362835138599e-07 0.00066953480832704 7.9528005307275e-05)
(8.42803077209334e-07 0.000596360108230544 6.17161930405882e-05)
(-1.73852570564699e-06 0.000488577634704072 4.30845593450548e-05)
(-6.58256597521999e-06 0.000440098118433282 2.82450966240504e-05)
(7.63886854384002e-07 0.000689723832917654 0.000102469070927397)
(1.19973485974419e-06 0.000630440800437531 8.43507602785869e-05)
(-1.44322169475017e-06 0.000561168978464335 6.47825524741179e-05)
(-6.82376030244194e-06 0.000449244919059747 4.48056615640056e-05)
(-1.45784576959981e-05 0.000400450411974087 2.86278955023001e-05)
(7.61021303253994e-07 0.000707613234710017 0.000126738215882888)
(1.32998050241451e-06 0.000654862648304161 0.000108311066587647)
(-3.66172896476963e-07 0.000597414440477245 8.89938537800119e-05)
(-5.35035206703694e-06 0.000523799384356201 6.75951256634325e-05)
(-1.40882394201882e-05 0.000406213522454511 4.61671103104102e-05)
(-2.4905650034172e-05 0.00035791711025509 2.85903966406889e-05)
(7.83590840809279e-07 0.000724304947871448 0.000151998625158691)
(1.49059273001775e-06 0.000674864143339109 0.000133384486031714)
(4.64105844030538e-07 0.00062334879567104 0.000114076812701994)
(-3.48947436213287e-06 0.000561535628592682 9.32227590134872e-05)
(-1.12788380097465e-05 0.000481936367690061 7.03945768899298e-05)
(-2.30611099570355e-05 0.000360313147665943 4.74787711775833e-05)
(-3.7064514217834e-05 0.000313305482166825 2.88776093092828e-05)
(8.31979296368345e-07 0.00074023360154111 0.000177992035032987)
(1.70440396624046e-06 0.000692571252522145 0.000159278759810331)
(1.24559422217396e-06 0.000644316036139396 0.000140041520452689)
(-1.59310149270643e-06 0.000588935673734284 0.000119466999560433)
(-7.93593677446215e-06 0.000521533266540625 9.74679511916896e-05)
(-1.85008438208795e-05 0.000437545893335829 7.3593624510679e-05)
(-3.33039061174952e-05 0.000313081426192142 4.94721022683649e-05)
(-5.05604231579968e-05 0.00026940880349196 3.06061321887194e-05)
(8.88576366130739e-07 0.000755632125231314 0.000204671614201762)
(1.99484505813525e-06 0.000709181467019049 0.000185851132983767)
(2.04805369566783e-06 0.000662691432803957 0.000166570763037039)
(2.25068116221363e-07 0.000611288088509549 0.000146156556487961)
(-4.50122497372243e-06 0.000551208955905577 0.00012453525154037)
(-1.3200688579776e-05 0.000479881270939707 0.000101938219908939)
(-2.63739862338442e-05 0.000392970759107812 7.82507526172818e-05)
(-4.44479047020099e-05 0.000268058212828021 5.32798100656549e-05)
(-6.53765839439641e-05 0.000233193365045535 3.5450659448398e-05)
(9.48555296470823e-07 0.000770664511340451 0.000232084066859373)
(2.35551749541641e-06 0.00072522251790189 0.000213138428800837)
(2.90974918872212e-06 0.000679755711465213 0.000193721791760821)
(1.97806578193168e-06 0.000630501925649001 0.000173175207442685)
(-1.30839453838353e-06 0.000575039509638892 0.000151476312574295)
(-7.92986246234029e-06 0.000511473569364283 0.000128807955205616)
(-1.88488805555458e-05 0.000437494256286015 0.000105536261492186)
(-3.46488196546936e-05 0.000348948046036895 8.13767235989789e-05)
(-5.58488201255027e-05 0.000225364925134025 5.76771216888332e-05)
(-8.08827993687026e-05 0.000178573821714874 3.8866031598371e-05)
(1.81917492654261e-06 0.000712242934688516 2.49397621161127e-05)
(1.70573396163779e-06 0.000641359801352274 3.90340979947767e-05)
(3.83205078169152e-06 0.000551510924081679 2.7739190673257e-05)
(1.36099713218685e-06 0.000667406703272715 5.73957550905033e-05)
(3.09789141426498e-06 0.0005495945512323 4.16375534049644e-05)
(2.8576822299403e-06 0.00049721088303715 2.81025990182297e-05)
(1.21260514874636e-06 0.000690897395153627 7.76460620290324e-05)
(2.30877749464961e-06 0.000616583734568013 6.06408193109671e-05)
(1.21175990640528e-06 0.000506707734537817 4.2747307698884e-05)
(-1.40682405916375e-06 0.000457858686450765 2.85143737661114e-05)
(1.10723128998511e-06 0.000711066965191677 9.92622210079656e-05)
(2.38615212159919e-06 0.000651067245209077 8.19693566060793e-05)
(8.32425115920607e-07 0.000580580148856556 6.32553342788048e-05)
(-2.95025969891683e-06 0.000466490639685986 4.41503805227274e-05)
(-8.38457675679247e-06 0.000416871478132808 2.87865610157253e-05)
(1.04491375165783e-06 0.000728915795795822 0.000122212427688361)
(2.3092252411727e-06 0.000675702228969635 0.000104531245939239)
(1.50260254409869e-06 0.000617549185327479 8.60381146236943e-05)
(-2.32820698979505e-06 0.000542627264816804 6.55778503059755e-05)
(-9.46108076172589e-06 0.000422574387939232 4.52616517053851e-05)
(-1.79514251397367e-05 0.000372551489388812 2.86156243664963e-05)
(1.01702171744564e-06 0.000745547377435098 0.000146252008286424)
(2.29839088742049e-06 0.0006957578607693 0.000128284245463409)
(2.00351068079926e-06 0.000643779488727201 0.00010966382656176)
(-1.02582383781853e-06 0.000581187641122453 8.95946264757677e-05)
(-7.67578224698633e-06 0.00050015823609259 6.77378542257598e-05)
(-1.79144745007017e-05 0.000375583556511143 4.61376486267728e-05)
(-2.96288615790549e-05 0.000324623223477239 2.82677302942327e-05)
(1.02145951952891e-06 0.000761435506904492 0.000171145081628787)
(2.36041570101345e-06 0.000713441331457359 0.000153027637768782)
(2.4818408994032e-06 0.000664779527554894 0.000134391140088661)
(3.74189770058887e-07 0.000608769244164621 0.000114420078916489)
(-5.06399021748589e-06 0.000540392649882557 9.3051968471748e-05)
(-1.45279725462234e-05 0.000454709704060096 7.00263287559457e-05)
(-2.78329158750586e-05 0.000326397623413039 4.70341673706422e-05)
(-4.27749012770718e-05 0.000274969109173266 2.81920595831968e-05)
(1.03891765880819e-06 0.000776804009715746 0.000196808287662421)
(2.49171309454682e-06 0.000729916212137111 0.000178587269311139)
(2.97707538208842e-06 0.000682928872669477 0.000159911530722383)
(1.7024666440219e-06 0.000630812772207021 0.000140083811519043)
(-2.33889659301295e-06 0.000569676784152193 0.000118978565518095)
(-1.02102257930643e-05 0.000496783583261852 9.67116870567791e-05)
(-2.23699137290302e-05 0.000407198046075968 7.29817936188949e-05)
(-3.87905424414573e-05 0.000275936443970574 4.86877489701568e-05)
(-5.69711908039784e-05 0.000226932333302678 2.98289503624831e-05)
(1.04964735181897e-06 0.000791857059028175 0.00022325400091763)
(2.66740759043806e-06 0.000745857486460554 0.000204917984209597)
(3.51726305571639e-06 0.000699832180992082 0.000186154019121849)
(2.99574671838486e-06 0.000649890473248078 0.000166299953234309)
(2.19565130884901e-07 0.000593443847141887 0.000145316058998614)
(-5.79588934033126e-06 0.000528404678638881 0.000123340644204035)
(-1.59767682866025e-05 0.000452105557238826 0.000100605803505358)
(-3.07325200717731e-05 0.000359532957631258 7.6862218392713e-05)
(-5.0350016354358e-05 0.000227785496974916 5.23145052093958e-05)
(-7.21910959881733e-05 0.000187418933196185 3.49919684367246e-05)
(1.07210593492756e-06 0.000806750515667736 0.000250540002419638)
(2.88484807269707e-06 0.000761569735584233 0.000232079689037366)
(4.11563957159795e-06 0.000716215002719526 0.000213179337265331)
(4.26556374026015e-06 0.000667450669110681 0.000193162546696012)
(2.5879447688586e-06 0.000613656941190974 0.000171989198522514)
(-1.74198344201482e-06 0.000553742223899079 0.000149832331998028)
(-9.60110131968637e-06 0.000485691962355379 0.000126877018698385)
(-2.1926662835794e-05 0.00040688374195959 0.000103501734152785)
(-3.92534027712937e-05 0.0003126075180534 7.95423559375159e-05)
(-6.17745005017954e-05 0.000182090626709139 5.6696160027133e-05)
(-8.77964358102681e-05 0.000126226071358258 3.85816438932681e-05)
(2.84253835896342e-06 0.000740551462006255 2.62762943545012e-05)
(2.59471454604569e-06 0.000664594600542601 3.96515372446224e-05)
(6.75970979304979e-06 0.000575095964333007 2.89247414899864e-05)
(1.96157689072629e-06 0.000689845894513235 5.72602073111719e-05)
(5.28905262357386e-06 0.000570174672661107 4.20727761509519e-05)
(7.34359186807528e-06 0.000517953762024537 2.90067700919002e-05)
(1.68631152361098e-06 0.00071294175509456 7.63925379589289e-05)
(3.95519776408517e-06 0.000637488661533273 6.01017450668866e-05)
(4.51529379044826e-06 0.0005254543186991 4.2825371714464e-05)
(4.34716273067248e-06 0.000476528534856202 2.90364786690867e-05)
(1.49071613809851e-06 0.000732862826528965 9.67335972171974e-05)
(3.70750738812688e-06 0.000672105926571097 8.02126900619553e-05)
(3.35960532824635e-06 0.000600326545801376 6.22593415391181e-05)
(1.34011449403164e-06 0.000484028894717393 4.38658206641237e-05)
(-1.53994969372754e-06 0.00043378506730549 2.91322034479297e-05)
(1.36061928972352e-06 0.000750531260240964 0.000118377853612513)
(3.38671191207795e-06 0.000696809285079207 0.000101429233288684)
(3.55167583221848e-06 0.000637856629139906 8.37239685205361e-05)
(9.86961507834751e-07 0.00056149879982037 6.41021152982624e-05)
(-4.37143577337834e-06 0.000438959311435757 4.46734464017118e-05)
(-1.02674869187931e-05 0.000387969795338842 2.88139154759236e-05)
(1.27776421401319e-06 0.000767007032030646 0.000141159476721756)
(3.18720055046857e-06 0.000716868303469177 0.000123847794925347)
(3.68982464712877e-06 0.000664388486451574 0.000105934153057487)
(1.66473188597499e-06 0.00060093522353327 8.66730574167935e-05)
(-3.73874698719312e-06 0.000518375068762577 6.57397880614979e-05)
(-1.22678988583329e-05 0.000391053965600379 4.52646465729291e-05)
(-2.14073519108342e-05 0.000338005587196337 2.82657145192538e-05)
(1.23505914571004e-06 0.000782763194693364 0.000164887254388489)
(3.09094698641965e-06 0.000734501729403549 0.000147356694875834)
(3.86192219784094e-06 0.000685486947371582 0.000129333419507262)
(2.56887255111408e-06 0.000628900725858584 0.000110020819387317)
(-1.88832549458416e-06 0.000559578216653296 8.94091184886171e-05)
(-1.01810202952223e-05 0.000472257975208046 6.73013476837515e-05)
(-2.1840209616272e-05 0.000340678994370833 4.56661496677962e-05)
(-3.42832460081356e-05 0.000284665597307279 2.76148585338176e-05)
(1.21358401319659e-06 0.00079802696528834 0.000189469521734426)
(3.08454717322243e-06 0.000750901861920757 0.000171811696611218)
(4.08462869882386e-06 0.000703610218602375 0.000153706196541879)
(3.44760166237798e-06 0.000650999773050561 0.000134447231908549)
(1.81317672956984e-07 0.000589096296946634 0.000113906586961104)
(-6.76814444962585e-06 0.000515075915240479 9.22034343830635e-05)
(-1.78474662327441e-05 0.000423595849358915 6.90798718721126e-05)
(-3.26150496229817e-05 0.000288136919087063 4.61321093346249e-05)
(-4.82613673959584e-05 0.000230374677731925 2.72867580868064e-05)
(1.18996466375193e-06 0.000812983295959708 0.000214895733738336)
(3.12530707452003e-06 0.000766661657207644 0.000197127593955058)
(4.3587584061325e-06 0.000720274199373926 0.000178945988485767)
(4.31649312677034e-06 0.000669799638065396 0.000159676937041179)
(2.13054155710133e-06 0.000612550470014134 0.000139251726817325)
(-3.18070826291481e-06 0.000546345082684675 0.000117751008676219)
(-1.25262959285227e-05 0.000468333812393521 9.52863278646449e-05)
(-2.62439590940519e-05 0.000372875963152089 7.15813949561546e-05)
(-4.40955884608755e-05 0.000234225600592131 4.74259272252599e-05)
(-6.29219929474484e-05 0.000178331378731914 2.88922083531598e-05)
(1.16885542290138e-06 0.00082780974079543 0.000241197313429428)
(3.17856254513256e-06 0.000782199794118688 0.000223310061159232)
(4.68059921463338e-06 0.000736432210971712 0.000205022162258836)
(5.19426990381313e-06 0.000687169138149123 0.000185658316930119)
(3.96079286730006e-06 0.000632660252933147 0.000165167375616104)
(1.45691432113458e-07 0.00057168278316097 0.000143702897316018)
(-7.11964171236703e-06 0.000502030965876556 0.000121407789247611)
(-1.87104656582075e-05 0.000420703057503852 9.85223119098622e-05)
(-3.49496755385205e-05 0.000322049616298409 7.48246920643912e-05)
(-5.57876718208824e-05 0.000182834161119588 5.09296142538083e-05)
(-7.82095819733336e-05 0.000135368662466565 3.43198868007041e-05)
(1.15762000065518e-06 0.000842630971641615 0.000268424643008668)
(3.27519862960679e-06 0.000797721635891356 0.000250409296325656)
(5.04869275031157e-06 0.000752472433502617 0.000231985522197679)
(6.06509181698982e-06 0.000703947219538075 0.000212459926912531)
(5.67592702943495e-06 0.000650980545312777 0.000191757020292241)
(3.16929205081572e-06 0.000593094578056601 0.000170012699280248)
(-2.18056105831921e-06 0.000529038071602285 0.00014740039230532)
(-1.1205755203468e-05 0.000456551883305994 0.000124131644233809)
(-2.48359219016675e-05 0.000372716330867068 0.000100653389714199)
(-4.34685096334343e-05 0.000272254916025868 7.70751795135083e-05)
(-6.69584365138689e-05 0.000134063979779058 5.5203316393247e-05)
(-9.32895177204033e-05 6.58731650291712e-05 3.83154562089502e-05)
(4.03023118674044e-06 0.000771948115023475 2.80481797059304e-05)
(3.60206322277992e-06 0.00068970994207024 4.07763460443388e-05)
(1.00718631953894e-05 0.00060084409934867 3.03435112431435e-05)
(2.65034911950231e-06 0.000713626356834861 5.76854830290758e-05)
(7.80410894813759e-06 0.000592066124484878 4.29575054239963e-05)
(1.2454936117533e-05 0.000540326748082088 3.03277270686195e-05)
(2.2224908609664e-06 0.00073592545634354 7.5781108500616e-05)
(5.82486885764825e-06 0.000659349072763636 6.01289020878078e-05)
(8.23807712196991e-06 0.000545105327182385 4.33494998359441e-05)
(1.08028097769406e-05 0.000496418825991844 2.98476352123992e-05)
(1.92154678444206e-06 0.000755311459069774 9.49039892698635e-05)
(5.19365938588382e-06 0.00069379655897726 7.90986327099205e-05)
(6.1965915697477e-06 0.000620691084675298 6.1820839299049e-05)
(6.13482327529619e-06 0.000502122771443738 4.4006161834775e-05)
(6.12190535555394e-06 0.000451435077610622 2.96840994162745e-05)
(1.71395756278265e-06 0.000772601159848 0.000115266725380501)
(4.5871256777914e-06 0.000718343834889365 9.90196442306092e-05)
(5.83294567520617e-06 0.000658528455510585 8.20486061678732e-05)
(4.67961554247823e-06 0.000580631626166205 6.31731429591535e-05)
(1.27915666471392e-06 0.000455498655760557 4.44664286960943e-05)
(-1.75390315021313e-06 0.0004037857102706 2.92225840574877e-05)
(1.56945401487713e-06 0.000788784091179534 0.000136779995736004)
(4.1727471514568e-06 0.000738272990834435 0.000120116954558666)
(5.55522290953897e-06 0.000685228836476412 0.000102897540360352)
(4.6365080216369e-06 0.000620794825056246 8.44155228720648e-05)
(6.12835761502662e-07 0.000536543766296572 6.43133477240095e-05)
(-6.02605330903576e-06 0.000406443878859131 4.47279601942801e-05)
(-1.23088432006107e-05 0.000352144396307701 2.84474518919289e-05)
(1.47679140061357e-06 0.00080430098020897 0.000159300643363687)
(3.90385116709729e-06 0.000755777918785666 0.000142355127504043)
(5.3961051080042e-06 0.000706390222563094 0.000124954588053301)
(5.00243822604143e-06 0.000649177643425442 0.000106331233283197)
(1.61966765804471e-06 0.000578810070378786 8.65181296210431e-05)
(-5.38425895176351e-06 0.000489741419915969 6.53147695087726e-05)
(-1.52381004405655e-05 0.000355116190052801 4.48054486060387e-05)
(-2.48766360632947e-05 0.000296539563635144 2.76074541947108e-05)
(1.41028158271149e-06 0.000819364879757092 0.000182747834352671)
(3.75232700189964e-06 0.000772052558809911 0.000165632453926733)
(5.33752967908637e-06 0.000724497613193259 0.000148089906157367)
(5.42600276176335e-06 0.00067143955195689 0.000129420555489403)
(3.02404323275036e-06 0.000608816677222152 0.000109515913923343)
(-2.92623483154449e-06 0.000533693953686839 8.85358284706109e-05)
(-1.28207473704831e-05 0.000440379780664618 6.6275835254502e-05)
(-2.58340191713616e-05 0.000301308738633022 4.47167718270279e-05)
(-3.87738728037567e-05 0.000238148279403311 2.6645872388053e-05)
(1.35395521951758e-06 0.000834152733649405 0.000207101408049724)
(3.67056963487266e-06 0.000787682010839973 0.000189865998359947)
(5.36716736500176e-06 0.000741083810833507 0.00017222687784086)
(5.8886883037452e-06 0.00069023149713141 0.000153507116528817)
(4.38116601730864e-06 0.000632370451862716 0.000133625137828622)
(-1.37688274999684e-07 0.000565270125920639 0.000112646945726877)
(-8.56510661912884e-06 0.000485983045916382 9.06755474605424e-05)
(-2.11966889881029e-05 0.000388433841472114 6.7475366126562e-05)
(-3.72677144196423e-05 0.000245170669343616 4.47071776654354e-05)
(-5.33205023023169e-05 0.000179245630737156 2.60476307227953e-05)
(1.30173550115853e-06 0.000848808526828469 0.000232373748125657)
(3.60618022174822e-06 0.000802980921953389 0.000215025644919387)
(5.45576878224974e-06 0.000756967042774189 0.000197294732451105)
(6.39547611772255e-06 0.000707315741867139 0.000178502251737002)
(5.67816052326921e-06 0.00065220174392579 0.000158579379214566)
(2.46901768371634e-06 0.000590331345218796 0.000137643015503932)
(-4.09451381473045e-06 0.00051939256080659 0.000115775712000802)
(-1.48485170349616e-05 0.000436185900300863 9.30931190354471e-05)
(-3.00115931172897e-05 0.000334381877050958 6.9399952660499e-05)
(-4.89700028113258e-05 0.000187591010794782 4.56180187146881e-05)
(-6.80981942832698e-05 0.000122849895055841 2.76361354595944e-05)
(1.25152766376665e-06 0.000863474316241153 0.000258598782750072)
(3.55652838188961e-06 0.000818250403888747 0.000241125750839348)
(5.58169423165705e-06 0.000772712962818277 0.00022327971859783)
(6.92517187923474e-06 0.000723838756924366 0.000204372329230128)
(6.92747310917666e-06 0.000670356724016172 0.000184318399853588)
(4.86514897597516e-06 0.000611693736104066 0.000163240150007516)
(1.23220049950153e-08 0.000546469028627602 0.000141292618877413)
(-8.44069499866543e-06 0.000472218367315079 0.000118639698085436)
(-2.13451951004549e-05 0.000385609115323687 9.55776049624087e-05)
(-3.88206684113021e-05 0.000280354935258824 7.21195853995722e-05)
(-6.05098145547938e-05 0.000132832232341251 4.89903275972616e-05)
(-8.28160726141167e-05 7.57347690446817e-05 3.34953766853753e-05)
(1.2095836061804e-06 0.000878237184043815 0.000285799967693303)
(3.54501204464569e-06 0.000833645479034275 0.000268199935988666)
(5.74015331332228e-06 0.0007885566897426 0.000250223647487837)