/*--------------------------------*- C++ -*----------------------------------*\
  =========                 |
  \\      /  F ield         | OpenFOAM: The Open Source CFD Toolbox
   \\    /   O peration     | Website:  https://openfoam.org
    \\  /    A nd           | Version:  12
     \\/     M anipulation  |
\*---------------------------------------------------------------------------*/
/*   Windows 32 and 64 bit porting by blueCAPE: http://www.bluecape.com.pt   *\
|  Based on Windows porting (2.0.x v4) by Symscape: http://www.symscape.com   |
\*---------------------------------------------------------------------------*/
FoamFile
{
    format      ascii;
    class       volScalarField;
    location    "500";
    object      k;
}
// * * * * * * * * * * * * * * * * * * * * * * * * * * * * * * * * * * * * * //

dimensions      [0 2 -2 0 0 0 0];

internalField   nonuniform List<scalar> 
10107
(
9.8932161097884e-07
3.3849129267934e-07
2.59121304465766e-06
9.48783091331387e-07
7.96082665824845e-08
2.61341884514468e-07
1.60585446841939e-07
1.2066017142545e-06
2.06665160632378e-06
1.26170099236425e-06
8.56840146316195e-08
9.90130084325978e-08
6.80323799394069e-08
7.6704748808764e-07
2.36454155164203e-07
2.01210611588598e-07
1.74844557039098e-07
1.28798535888711e-06
3.36300528918535e-06
1.29717136931074e-06
2.03814880242326e-06
3.18011590031816e-06
3.17130824145582e-06
1.54023895690908e-06
2.41061767914673e-06
6.71580621759989e-08
8.88135400207106e-08
4.47370751596197e-07
1.2995706712994e-07
1.97829232834764e-07
1.85220887660808e-06
7.18848084327825e-07
1.52685356489822e-07
2.50782317753937e-07
3.01582814287262e-07
2.66121783354585e-07
2.21644832600032e-07
2.02904838258655e-07
2.1845683905206e-07
3.55776119459963e-06
2.24480650269477e-06
1.1314466887943e-06
6.45918643752908e-06
3.87441724124427e-06
9.80132843240625e-07
4.49561673909422e-07
1.59449497165695e-06
1.65138154209095e-06
2.46794211093073e-06
8.55010454654654e-07
2.16229896827481e-06
2.27005625335418e-07
1.01962532652592e-07
1.43775719466289e-07
8.3403307293146e-07
5.40717949953517e-07
1.93139644161257e-07
1.50659843793596e-07
1.00425483680354e-06
8.63908234709486e-07
2.40999604271908e-07
3.43953340847724e-07
9.67696582918266e-07
2.28513692085186e-07
8.51522600073627e-07
2.57097556092305e-07
3.31387374538017e-07
1.31852352064672e-06
4.52955823501019e-06
1.50578524049744e-06
3.52180262232571e-06
2.40537642900511e-06
5.88971623389281e-07
1.00971367867095e-05
7.59649209450345e-06
3.06661040266526e-06
4.90741449932893e-07
1.02194345139455e-06
2.24037194220808e-06
1.67823321924534e-06
9.80995292275661e-08
1.68928680125647e-07
2.0770028393288e-07
4.31473214426991e-07
8.07857115746986e-07
4.57924891082471e-07
1.86892198024323e-07
1.0013789961785e-07
5.21920135200073e-07
2.92376262221363e-07
2.1170595290563e-07
1.93249493852283e-06
5.14512878845928e-07
2.36343061289563e-06
1.16457992877376e-07
3.85539655927543e-07
6.16299365168432e-07
1.50676824844591e-06
4.9216816827951e-07
5.47525862127316e-06
2.34469820416636e-06
4.534474273588e-07
4.54152061139899e-06
4.72353494975005e-06
1.64486629291596e-06
1.1832281027575e-06
1.32588070964533e-05
1.31122380091971e-05
8.21408160447615e-06
6.82776500868925e-06
5.51215558342075e-08
1.21647003981521e-07
1.45421087342849e-07
3.67791831666463e-07
3.91398102714638e-07
2.18799048619534e-07
1.81009577103157e-07
7.49623488140745e-08
3.9580080473423e-07
2.39117749419135e-07
1.20237823603864e-07
2.40781079275668e-06
9.88110431527677e-07
5.10032151169824e-06
2.22688590325355e-07
1.03730101615924e-07
4.89909982868411e-07
8.24160038010267e-07
3.23161752533772e-07
1.79513808133873e-06
8.56915151378007e-07
2.20543940701077e-07
6.46948716516288e-06
2.98696150649943e-06
1.02944711795481e-06
5.24313188797168e-07
5.36462326573841e-06
6.94684137963198e-06
3.65139802967094e-06
3.10898095314414e-06
2.65393159064625e-06
1.96668042656001e-05
1.67012654544737e-05
1.6027400380661e-05
1.43275288308251e-05
6.50086260851082e-08
1.07532674010223e-07
1.34727224009211e-07
2.18845812744247e-07
2.63937943009021e-07
1.7545564243655e-07
1.11232097000376e-07
8.7110324270499e-08
3.28940167143194e-07
1.87120866849613e-07
1.15111631800553e-07
3.15402397950754e-06
1.26745061148407e-06
1.09148404758299e-05
4.82566093097364e-07
1.66320296400387e-07
6.68208466562644e-08
3.98271484139277e-07
6.23928823203303e-07
2.198939369159e-07
1.03008742103037e-06
4.39253634424961e-07
1.40846139710145e-07
2.34910113910117e-06
1.28800503365121e-06
3.87493467633278e-07
3.44726464779352e-07
7.44053445473445e-06
3.40753042920714e-06
1.79888261592087e-06
1.32782730995788e-06
1.24948336812084e-06
8.19903120468447e-06
6.28423389073217e-06
5.81824536830296e-06
6.55584188721461e-06
6.0092109798607e-06
2.61926210922692e-05
2.9487901474505e-05
3.08007696927247e-05
2.88851849759058e-05
9.78606611228048e-08
8.25904560014532e-08
1.16542697212535e-07
1.40103156643991e-07
2.32554817498598e-07
1.5884147371842e-07
1.14783001169993e-07
7.07119407561715e-08
2.30762972798629e-07
2.70751305813242e-07
1.23703852926559e-07
4.96888012968516e-06
1.66971177595261e-06
1.99741081601206e-05
6.82185172154221e-07
2.87431803708641e-07
8.56174521947626e-08
6.70374531367733e-08
2.67086050018685e-07
4.87230152928141e-07
3.49996801571244e-07
8.1727569990215e-07
3.78549659990919e-07
1.46440779072022e-07
1.3932531172022e-06
6.18795187412352e-07
2.01971263159713e-07
1.24094256863663e-07
3.32729493666919e-06
1.86581629644999e-06
5.92547496553968e-07
6.46202300893229e-07
1.05255443912322e-06
9.00395326599181e-06
3.84362439383487e-06
2.47946251064825e-06
2.22729022521226e-06
3.06587322679833e-06
3.29183131535143e-06
9.13097965280524e-06
9.71494211433148e-06
1.22502241273852e-05
1.45564608694005e-05
1.14737894789267e-05
4.34926686749045e-05
5.23004146844037e-05
5.32187956481597e-05
4.65166763107523e-05
6.99878952916244e-08
8.38343527782917e-08
1.01787972934212e-07
1.237911717279e-07
1.63019529631442e-07
1.92817639237586e-07
1.27981587627055e-07
7.51261143218163e-08
2.10858225344744e-07
1.82223963446736e-07
2.45125327392512e-07
5.970702309289e-06
2.71670057895867e-06
2.98802971251556e-05
9.97815300210955e-07
5.02228051854582e-07
1.41928577756677e-07
6.43423321401074e-08
1.07158810959028e-07
2.29568249191716e-07
3.01630750567727e-07
2.12788810527774e-07
6.33135222550387e-07
4.87067528454865e-07
3.77202131768952e-07
1.23111873678243e-06
6.9162251350599e-07
3.31405448293268e-07
1.45383230159853e-07
2.16883151405188e-06
9.24589821401987e-07
3.62049901841706e-07
2.05129635270953e-07
3.09259500847397e-07
5.47106922229956e-06
2.62696835712911e-06
9.62852028262378e-07
9.64725456969617e-07
1.89342731816312e-06
2.68204754905463e-06
1.28546681873234e-05
4.60593027642108e-06
3.30075219064224e-06
3.41700837685055e-06
5.29299298168746e-06
7.98165278443218e-06
7.25578393879912e-06
1.47445884949216e-05
2.09624667678194e-05
2.78771409819538e-05
2.88424040039854e-05
2.03199240361404e-05
7.27416056989618e-05
8.0356967004455e-05
7.35543382848156e-05
5.78579633299258e-05
7.50306007818571e-08
9.85722175174415e-08
1.09044926143563e-07
9.03954418835689e-08
1.83213479680853e-07
1.47122017957931e-07
1.91187437881287e-07
1.10856826663352e-07
2.05901656560214e-07
1.89929040339198e-07
9.40366328988096e-08
6.16137527675185e-06
4.18893743422335e-06
3.54558108765476e-05
1.71981473451554e-06
8.1587663227683e-07
2.67064504051621e-07
9.37030548950161e-08
1.43226825783057e-07
7.83468086667433e-08
2.47425890903648e-07
2.43093854977127e-07
1.7660350417117e-07
3.33129569388398e-07
2.83473240470935e-07
1.45621974723927e-07
8.74525848385709e-07
6.08720282387617e-07
6.58611295575182e-07
5.3953658466937e-07
2.04037574158485e-06
1.11796847811802e-06
7.87640540940722e-07
5.55073387299815e-07
3.90293374582742e-07
4.04427041517805e-06
1.63831680411666e-06
7.19068226456178e-07
5.77385960098935e-07
7.4193585644636e-07
1.23074677978656e-06
1.14054568922788e-05
4.73429208663408e-06
1.87334057938673e-06
1.68715376346509e-06
3.18367699972141e-06
5.58390562090702e-06
5.89344975899065e-06
3.33267052870555e-05
7.27482712790902e-06
4.58788351395736e-06
5.48324066519986e-06
9.14667240187628e-06
1.49773765188381e-05
1.86003451566998e-05
1.42618508811269e-05
3.29047765968772e-05
4.65930841326669e-05
5.14574590850633e-05
4.43220336807224e-05
2.83340455438081e-05
0.00010552011704039
0.000100466980376673
8.35509878322772e-05
6.32457877214964e-05
8.92501626569703e-08
1.09649118343966e-07
8.35282016217311e-08
1.17553685751963e-07
1.67234845528976e-07
1.83475044340306e-07
7.24956273307422e-08
9.40995815039883e-08
8.7295191524526e-08
1.77521730862727e-07
1.05193542397968e-07
5.611698005071e-06
4.99242723123558e-06
3.70985330355798e-05
3.13938116850208e-06
1.50374372561067e-06
5.51630769115275e-07
1.82147612906701e-07
1.70657390840761e-07
6.12209956654068e-08
7.96257527150153e-08
1.11510475139182e-07
2.53320457658704e-07
1.72672644002711e-07
2.51293670293096e-07
1.80932717542679e-07
9.84449040267386e-08
4.20186681329631e-07
3.32115456414645e-07
3.1483762300413e-07
1.72710045509629e-07
1.44923380599897e-06
7.48473702923535e-07
8.46125673277369e-07
1.24812670242811e-06
1.05943238676473e-06
4.8103051734314e-06
1.85685821911074e-06
1.3436058290124e-06
1.49867024700549e-06
1.60771813202434e-06
1.24874456440783e-06
1.02697020468032e-05
3.59932417458303e-06
1.54655875531941e-06
1.41329943715083e-06
2.25054319541534e-06
3.38603485310683e-06
3.74622557358429e-06
3.12286373962051e-05
1.09263657202593e-05
4.13337737838054e-06
3.33390082276495e-06
6.06175322462715e-06
1.08352061848664e-05
1.38752365510952e-05
1.15605804389423e-05
0.000118905823408788
2.35985971272072e-05
7.76465534861251e-06
8.58086111647114e-06
1.57760490334392e-05
2.68304216274113e-05
3.52721075252072e-05
3.35213951099391e-05
2.27306449018963e-05
6.87503487813026e-05
7.72239651053514e-05
6.82363247753656e-05
5.35440489590248e-05
3.20919167246611e-05
0.000127067282434851
0.000109308004913392
8.75234673178564e-05
6.44688126971731e-05
1.10870846409076e-07
4.49375590718617e-08
1.28060230450088e-07
1.54793865277321e-07
7.25394997838373e-08
1.64308523038149e-07
1.26063671519158e-07
1.02908086960612e-07
4.0640657262071e-08
8.88530771341865e-08
8.01287946269499e-08
4.70269352656205e-06
4.99860497716648e-06
3.61188163126614e-05
4.101161581502e-06
2.61083402195293e-06
1.2944122778794e-06
3.81407044109448e-07
2.46307547915195e-07
6.76910385761026e-08
5.73684001483223e-08
5.8331355454498e-08
1.37513659449541e-07
1.40987817661581e-07
9.16856891082463e-08
2.47202693630258e-07
1.73605854728982e-07
8.52480062895331e-08
2.61393367774692e-07
2.00724691348216e-07
1.14365580042209e-07
7.28540453918752e-08
8.88811675350529e-07
3.91713831294705e-07
4.43129847564368e-07
5.80124814969797e-07
4.19427978677617e-07
5.65063585651419e-06
1.20428456068321e-06
9.24798616371248e-07
1.76037678727564e-06
2.57042192683098e-06
2.15972899435397e-06
1.53412314562922e-05
4.33493258778431e-06
2.03622290028354e-06
2.40962841372814e-06
4.00306414818953e-06
4.53705172744095e-06
3.51109835391931e-06
3.27707075840482e-05
1.04938861046989e-05
3.64328832829464e-06
2.91908093778085e-06
5.20123077810358e-06
8.64968561745292e-06
1.01281428627865e-05
8.45453753949291e-06
0.000111290692960863
2.88048893494701e-05
9.69044568188084e-06
6.96477428512318e-06
1.12808537833552e-05
2.06852075112917e-05
2.70592595868258e-05
2.64033837212842e-05
1.86876514723858e-05
0.000235788518890481
0.000101720222076563
2.45282049830692e-05
1.44914247249119e-05
2.37749924875118e-05
4.35200488038859e-05
5.75552703532514e-05
5.5069834238767e-05
4.49287221246055e-05
2.75913010607032e-05
0.000101251626334924
9.28009553704973e-05
7.65246457515e-05
5.74453504047462e-05
3.26210165554956e-05
0.000136202145118681
0.000111562094233447
8.7526573129132e-05
6.28447516163325e-05
1.20273064965987e-07
7.58126482225237e-08
1.42057341393235e-07
6.22271510245553e-08
3.2827124852832e-08
1.01364370675488e-07
9.17651224403554e-08
6.24556425586443e-08
5.00352331028521e-08
7.0973005130177e-08
7.95150517436324e-08
8.70333839145035e-08
3.71580631070343e-06
4.3890032160515e-06
3.34498798258539e-05
4.4240460545862e-06
3.41992855247018e-06
2.20365450052812e-06
1.15320164642918e-06
4.07147172149611e-07
1.1706082412517e-07
5.29995451407591e-08
5.04589820835361e-08
1.23515953001877e-07
3.37358805285382e-07
1.84272919721148e-07
6.44028740942211e-08
1.71379455704136e-07
1.27825483368128e-07
5.95503351559735e-08
1.03410166346977e-07
2.446165515862e-07
1.87146889960528e-07
1.06979650630052e-07
1.0250434349133e-07
5.99587831068318e-08
3.0558797779827e-07
2.31516940188867e-07
1.56043958014042e-07
1.32226540348549e-07
1.7594145048183e-07
5.20382702821309e-06
7.18069957528021e-07
5.08774456841742e-07
9.28176117779648e-07
1.32367922789365e-06
1.1221869101201e-06
2.40230384931951e-05
4.59778840906838e-06
1.3109970330285e-06
1.76875748526288e-06
3.87938031840608e-06
5.25393192529953e-06
4.32653284407626e-06
4.2425584249518e-05
1.66011770560339e-05
4.56430185609778e-06
3.43257221616196e-06
6.37100135047379e-06
1.0082902937092e-05
1.03933352578128e-05
7.9094507002991e-06
0.000113342940553531
3.03753734530818e-05
1.07410961750391e-05
6.61770857115295e-06
9.88155382291334e-06
1.74484772802679e-05
2.16640694491823e-05
2.06723698579374e-05
1.4893036892355e-05
0.000223230895631183
0.000100916952690856
2.62537338402971e-05
1.41709688284564e-05
1.97461349656189e-05
3.55051000770378e-05
4.59319635477457e-05
4.54082483152606e-05
3.7844096512512e-05
2.365871099342e-05
0.000321409670323981
0.0002213583457806
9.78769609037819e-05
4.04890456299343e-05
3.75409976179721e-05
6.17066692351292e-05
8.08968709352212e-05
7.78305885298051e-05
6.62630496634511e-05
5.07652964964515e-05
2.91985770970635e-05
0.000118486844371085
9.98257542208865e-05
7.94206333433994e-05
5.767047610325e-05
3.09991163106321e-05
0.000136424002305675
0.000109827457031996
8.48130785603008e-05
5.91960882053661e-05
5.54756233421839e-08
8.61552583552067e-08
9.05685874870999e-08
2.06155440275817e-08
8.83762568657574e-08
9.81709707785522e-08
1.51580113411733e-07
7.62534646040285e-08
5.31591304109358e-08
8.17767137592066e-08
8.46348774311853e-08
9.32439116140275e-08
6.87108612668061e-08
9.61219733905351e-08
9.64830816397821e-08
2.76988354831529e-06
3.54442847727922e-06
2.97073458941579e-05
4.05666150853521e-06
3.81822443738271e-06
2.94014193258813e-06
2.02065261711262e-06
9.97191031856214e-07
2.66808395276866e-07
9.87871181272071e-08
4.94801567442516e-08
8.04305687222523e-08
7.19970697000227e-07
5.69451930808581e-07
3.08698631254246e-07
2.74453270485952e-07
2.29144656094818e-07
1.333709439819e-07
4.69332563921856e-08
8.89662566206197e-08
2.1375388951381e-07
1.91311086035265e-07
1.66281778928253e-07
6.49649322914753e-08
9.06527798742377e-08
1.04228040890196e-07
8.78954374941909e-08
2.54511331451741e-07
2.23500778817324e-07
1.5784260743733e-07
8.86094361279785e-08
1.0204932071201e-07
8.75278445316976e-08
1.31751509384842e-07
6.75537207526425e-08
9.49958995285424e-07
2.87568942441822e-07
2.25279393425414e-07
2.63060471801195e-07
4.65595949930368e-07
6.242484377138e-07
2.60105516112211e-05
3.86941505145179e-06
8.15545538572106e-07
1.06240395084127e-06
2.25286135284037e-06
3.12952079396367e-06
2.94961535095271e-06
5.48962014184001e-05
2.53888433561966e-05
4.66018912979158e-06
2.3563990480497e-06
4.47137634992888e-06
8.53544649917723e-06
1.02115471718409e-05
8.55428147717406e-06
0.000120774242421701
4.35637455328095e-05
1.73028675805679e-05
8.11523776598782e-06
9.95314343390809e-06
1.68095512565613e-05
2.00570024335614e-05
1.90946406941369e-05
1.36446257690662e-05
0.000216076101638635
0.000107004992235744
2.95914765110285e-05
1.69716811971782e-05
2.00922981368169e-05
3.13770750037466e-05
3.80539278245396e-05
3.76686037539866e-05
3.17166216511412e-05
2.01042503946259e-05
0.000301586439416516
0.000213494420240801
9.56830532900567e-05
3.63949531623337e-05
3.36699425162515e-05
5.35063723624928e-05
6.89384098464624e-05
6.63518383484438e-05
5.75095283879302e-05
4.4717301401104e-05
2.59342366830113e-05
0.000355583307159579
0.000320419008682082
0.000218592616472654
0.000123879391058164
8.08890691734734e-05
8.48305061448214e-05
0.000103030580217268
0.000101877281798059
8.83225041590303e-05
7.14614204254198e-05
5.25363232933432e-05
2.84898006814572e-05
0.00012447337302135
0.000101156386332469
7.8669267609266e-05
5.53252969998668e-05
2.79605835438484e-05
0.000132496634949488
0.000105638911927798
8.00820249926482e-05
5.40061885952657e-05
2.02199025627777e-07
1.00930157527721e-07
1.02340022349091e-07
1.06047916922934e-07
1.80403740302756e-07
4.14627539384573e-08
5.33215017333035e-08
6.81874983894393e-08
6.73986698158748e-08
9.36465897201264e-08
1.91095176373263e-06
2.65774269191496e-06
2.52407612031598e-05
3.34776949271161e-06
3.61762763148033e-06
3.27550563642018e-06
2.61247294097391e-06
1.83596130686446e-06
8.96524717335526e-07
2.52567003487968e-07
7.33644592180004e-08
6.10801020777138e-08
6.35307210465643e-08
1.5256494944261e-06
1.94719764824035e-06
6.5673468799459e-07
1.00630609180141e-06
8.42560885622771e-07
3.36237386946565e-07
9.03237766811208e-08
3.7210939462472e-07
2.3753880585919e-07
4.65933098936468e-07
4.83225902431156e-07
3.43981248935709e-07
1.96450507104862e-07
7.48416004440024e-08
2.7406737369791e-07
3.05433890972451e-07
3.26620493372056e-07
1.51330275119117e-07
1.4511339296564e-07
8.38423851975267e-08
7.11002656420244e-08
7.48388658945841e-08
3.40195524961745e-07
2.81865151112497e-07
2.80160471422122e-07
1.9461820541267e-07
2.67828977727146e-07
9.17559189723397e-08
4.83993783140364e-07
1.12673755571543e-07
1.07925046886823e-07
1.03730602479617e-05
6.44814453915542e-07
3.26271321046966e-07
4.64603905500896e-07
1.02631806251953e-06
1.70617861343237e-06
1.94131493845775e-06
6.30027216081745e-05
2.51380713094235e-05
3.86918878411957e-06
1.58512706739257e-06
2.79205621237057e-06
5.40570522194098e-06
7.26057181168783e-06
7.08812300442215e-06
0.000123433893430027
5.99981117612761e-05
2.57914454491914e-05
8.03506311052864e-06
7.41816465158362e-06
1.28445255225059e-05
1.69980822988795e-05
1.82781386051212e-05
1.3433404806228e-05
0.000205734524688689
0.000116667350945009
4.50887261759472e-05
2.6105342404471e-05
2.33484869291638e-05
2.86984097273067e-05
3.27849717291361e-05
3.28388717304782e-05
2.86017474267574e-05
1.8247662825967e-05
0.000282517075683612
0.000211664555419521
0.000103628695513891
4.1994541575499e-05
3.87104654042164e-05
5.17473005435711e-05
5.97022923262027e-05
5.6863283776034e-05
4.99124272988781e-05
3.93220092362202e-05
2.29446993003533e-05
0.00033994398973984
0.000302872218678702
0.000210525757512524
0.000115471307138109
7.06927308670998e-05
7.59139617424645e-05
9.10181023016353e-05
8.9435125816868e-05
7.82164700844294e-05
6.41049451658628e-05
4.76267033059435e-05
2.59397066991457e-05
0.000357975538642107
0.000321355330330542
0.000241127925597675
0.000173388335630701
0.000137963543919272
0.000134295771473888
0.000128586761971747
0.000112095680519437
9.23204812203103e-05
7.24727254451352e-05
5.13923403256112e-05
2.61263170333005e-05
0.000123714556264358
9.8952382265907e-05
7.5338691003622e-05
5.10851554282162e-05
2.39802204160125e-05
0.0001265471220596
9.96239699915947e-05
7.36729836403767e-05
4.75397433369235e-05
1.15053673014975e-07
1.81912603073402e-07
6.28670103069974e-08
4.5964843352178e-08
5.50988079586404e-08
6.09849287119323e-08
1.15301302919552e-06
1.8255527116284e-06
2.02026778558005e-05
2.53354156766929e-06
3.04979197390957e-06
3.15108511264936e-06
2.8450378954402e-06
2.31569176567585e-06
1.74122852062366e-06
7.8444026411971e-07
1.65134294683684e-07
6.75398477037042e-08
6.54705540663801e-08
6.1670003868493e-08
3.24004808327753e-06
4.58186082085892e-06
1.3145007225604e-06
3.73410449034933e-06
2.36963675670702e-06
6.73290336013015e-07
2.00464326594694e-06
1.82473602165395e-06
1.06578677517194e-06
2.36390556822876e-07
1.50917939796172e-07
3.05590244770915e-07
7.93537576013984e-07
9.846816210658e-07
9.29450333909304e-07
3.84000543994503e-07
1.41437661917948e-07
3.35360523231721e-07
4.9129925609647e-07
7.20739457762788e-07
4.63249391576745e-07
3.18339315280216e-07
2.70575520611022e-07
1.98076805664927e-07
9.86443834367663e-08
2.69870459154674e-06
3.50455460646777e-07
4.63582534155433e-07
4.75439491961348e-07
6.64101645059537e-07
1.189639034928e-06
1.49492787255936e-06
3.72914412256331e-07
2.526170188375e-07
3.28711430612449e-07
4.17107832285041e-05
7.51959654384292e-06
6.00582706160776e-07
7.3109733672405e-07
1.83543542150461e-06
3.75934388141053e-06
5.02145156748683e-06
5.61731805406282e-06
0.000110185635345922
6.53766649931032e-05
2.50296494778433e-05
6.55098297710895e-06
5.23642273824291e-06
8.25752343308136e-06
1.23188218838942e-05
1.51281469576295e-05
1.21325695922842e-05
0.000186063096753326
0.000123412791449038
6.35991620286769e-05
3.60631103141277e-05
2.32690540100745e-05
2.37004500620872e-05
2.66830793079687e-05
2.89043168167831e-05
2.66203154892242e-05
1.71875044170833e-05
0.000260522612701553
0.000206833368816041
0.00011700585926089
5.80883551684301e-05
4.83921788658653e-05
5.09519278728673e-05
5.11971340205765e-05
4.9124765681094e-05
4.43078519763923e-05
3.56284820621311e-05
2.08521472549319e-05
0.000321778077697523
0.000286152991608525
0.000209757871871994
0.00012133184181676
7.53886694939182e-05
7.60586528786103e-05
8.29723779036625e-05
7.88982492701903e-05
6.91870347818607e-05
5.7454966432586e-05
4.31135155089812e-05
2.35093850881919e-05
0.000342395741641903
0.000304631080424301
0.000228833144278326
0.000158540993322174
0.000123089573831693
0.000120587068174567
0.000115039294519663
0.000100909932954827
8.39167214811707e-05
6.6491853345707e-05
4.75047013178992e-05
2.41945027079168e-05
0.000359458262241807
0.000327854287587488
0.000274269844829594
0.000221159847667197
0.000183724673694155
0.000161210289561511
0.00013826310691549
0.000114396195881289
9.20532485207925e-05
7.04929433420748e-05
4.80800542618725e-05
2.26453317121223e-05
0.000119659374937011
9.43531831938741e-05
6.9994009379084e-05
4.5341616208823e-05
1.93019926137661e-05
0.000119076666495866
9.19684597367246e-05
6.57421223116285e-05
3.99091398327511e-05
2.60478946164285e-07
8.48347297361928e-08
5.85324349729625e-08
3.15838228788975e-07
5.81622112886009e-07
1.08983827921311e-06
1.46787149323042e-05
1.74636292310349e-06
2.33284313285515e-06
2.69432628115054e-06
2.72855382094346e-06
2.47380237660414e-06
2.20964190555349e-06
1.56743804213575e-06
4.56408224678554e-07
1.28696069500415e-07
8.76746138390682e-08
8.7615683085633e-08
9.0547608414279e-08
6.24161441852234e-06
9.92310640275196e-06
2.95681465922483e-06
1.038192573992e-05
5.14036900599028e-06
1.4957598079804e-06
8.2138519777388e-06
5.19386103389302e-06
2.81614234617517e-06
1.10039816654218e-06
4.14445564913687e-06
3.73121411318581e-06
2.95559143164507e-06
1.33349528099564e-06
1.08988970536149e-06
1.72917605646896e-06
2.12775481650374e-06
1.33344440778216e-06
8.70086743866528e-07
1.02939279977866e-06
5.90385397840239e-07
1.36698342553076e-06
1.33543282539643e-06
1.04755123008734e-06
1.0898361706061e-06
1.85599362117412e-05
1.28499055573323e-06
5.85970827877323e-07
9.26594934587698e-07
1.61001641162854e-06
2.90663208252414e-06
3.88780959688105e-06
4.48148220676746e-06
1.18639027610396e-06
7.39778842549701e-07
8.32517305823438e-07
7.84898094011089e-05
4.21045866698105e-05
5.84133482902471e-06
1.33289437401082e-06
2.89384689782709e-06
6.59528219933806e-06
1.02653083884077e-05
1.25742529051584e-05
1.06870344869262e-05
0.000157254606640498
0.000114445482626926
7.17533312320103e-05
3.58623107932586e-05
1.76093807325352e-05
1.62342958432215e-05
1.96609922092286e-05
2.39356071228283e-05
2.3775459186027e-05
1.59517113458354e-05
0.000235099185124641
0.000190509566567686
0.000126151824433477
7.39278524129014e-05
5.63209719753614e-05
4.66918961049386e-05
4.3336188283091e-05
4.21962839596749e-05
3.9885282903333e-05
3.29180049630499e-05
1.93121584312193e-05
0.000302177599860398
0.000264883484293678
0.000209250738711863
0.000132739888616527
8.59883281849224e-05
7.80522432294039e-05
7.54413262758111e-05
6.91572717352977e-05
6.15251362041384e-05
5.20663920011645e-05
3.95055645007202e-05
2.15128529919123e-05
0.000357408431416841
0.000324194305954878
0.000289332622371819
0.000225755400436315
0.000158920951828971
0.000121259796709827
0.000112898497392704
0.000104054257572342
9.06943964754808e-05
7.61236668805373e-05
6.09271675905494e-05
4.38271622408403e-05
2.22852320637302e-05
0.000344259269903495
0.00031035631760384
0.000257193788109838
0.000203824602942663
0.000167013963136493
0.000146647933132538
0.000126309642862125
0.000105216040954379
8.52568092565012e-05
6.57062355580558e-05
4.50482616834697e-05
2.1203050775855e-05
0.000356399316410682
0.000327156811310963
0.000287721195920196
0.000241932753411805
0.000200182748498874
0.000166878598357104
0.00013796078984384
0.000112378004787546
8.88997492025897e-05
6.62094379359424e-05
4.30633459242696e-05
1.83528718445485e-05
0.000113548395495059
8.78058525623742e-05
6.29145523645737e-05
3.82903726492989e-05
1.4077334060196e-05
0.000110085093900839
8.27124753449257e-05
5.63490622570509e-05
3.11642101503239e-05
4.01485281260205e-07
1.8602098079924e-07
1.02643998783116e-07
2.26263546437166e-07
5.64164330640006e-07
8.96525531558567e-06
1.04549507688836e-06
1.62395819248152e-06
2.09723894167462e-06
2.36023357023488e-06
2.37604088085251e-06
2.31452848869164e-06
1.94771411612051e-06
1.10590569982711e-06
2.71074925800997e-07
1.65929286092637e-07
1.53613163243189e-07
1.56247445703614e-07
1.7205908612048e-07
9.77274169602244e-06
1.83235950129574e-05
6.24413873015617e-06
2.24961212961214e-05
1.0802548204329e-05
3.39754151271783e-06
2.14309374015404e-05
1.22539790128642e-05
6.31985680391641e-06
2.41038340359027e-06
1.67118208584629e-05
1.09316075463342e-05
7.30016675169254e-06
4.00282568823819e-06
2.09931654461045e-06
7.24238016866703e-06
7.11739774587148e-06
6.54642938632031e-06
4.23088423321332e-06
2.76093385524481e-06
1.57947068940164e-06
2.39909291035596e-06
4.21869079117473e-06
3.59299720454694e-06
2.75242366888368e-06
2.27125907262824e-06
8.19669766262198e-06
8.12417071062703e-07
1.78560822232656e-06
2.9071672958168e-06
2.96528810157494e-06
3.19244201291025e-06
3.61886533570579e-06
4.66294580499038e-05
1.44173595570019e-05
8.90357843560376e-07
1.30815918771594e-06
3.10286541017711e-06
6.49299648222602e-06
8.97968654958895e-06
1.06212138878818e-05
9.33248898327484e-06
3.15383558114715e-06
1.79022415884256e-06
1.83840377988025e-06
0.000123203873067917
8.21446645433797e-05
4.42619755973621e-05
9.59580539973663e-06
6.22744237547398e-06
1.09310437654556e-05
1.66807556627239e-05
2.10761558135261e-05
2.12592399411472e-05
1.45040843883918e-05
0.000207920275974807
0.000162164973768185
0.00012031782224453
7.86774129197736e-05
5.19119054838361e-05
3.55814346488956e-05
3.32206172481818e-05
3.50290985249941e-05
3.55011836305612e-05
3.02802222929279e-05
1.79893107281068e-05
0.000282073069590225
0.000239272391428066
0.000196003881045359
0.000138105145206311
9.26033394998869e-05
7.69166848216475e-05
6.66114001314531e-05
6.00211904396219e-05
5.49120138538604e-05
4.76747983297157e-05
3.66083202336204e-05
1.98699123035836e-05
0.000342642479314499
0.000304361167506084
0.000269578859142854
0.000220293818217869
0.000161721160838709
0.000121996019948836
0.000105737265050006
9.35451207014806e-05
8.14294787665117e-05
6.93078691437525e-05
5.61253683103927e-05
4.06186185759287e-05
2.05600202891968e-05
0.00039319648065378
0.00035777948447755
0.000326106150889021
0.000293448012174807
0.000246597119219289
0.000195742140478607
0.000157302296190832
0.000135017236391295
0.00011521474715926
9.64663186954455e-05
7.88096918694512e-05
6.11544162715048e-05
4.21081920520265e-05
1.97370284825139e-05
0.000342479155315822
0.000311030669100247
0.00027069344974256
0.000225269705082337
0.000185386059462461
0.00015482781909984
0.000128377479801122
0.000105008066354895
8.34474501009973e-05
6.24188690835073e-05
4.07293595255994e-05
1.73041476465189e-05
0.000347900386746659
0.000315443301986279
0.000277622984549738
0.000235902274501219
0.000196197082837683
0.000162706111974012
0.000133719004681469
0.00010774258498773
8.3491867226928e-05
5.99886442552111e-05
3.6600580910374e-05
1.34630434013382e-05
0.000105656458314755
7.94676869570714e-05
5.42302194667225e-05
3.00332598213273e-05
8.64157362983165e-06
9.94877443037946e-05
7.18418714151741e-05
4.55078291225928e-05
2.13655398808567e-05
6.49250628837715e-07
4.0297083641309e-07
2.20170110129006e-07
5.59468983426934e-08
2.24282133960791e-07
4.04801667473082e-06
5.49076280597842e-07
9.8481334382099e-07
1.4782720816238e-06
1.86943584194392e-06
2.08307968484997e-06
2.18252462715189e-06
2.03779559877339e-06
1.62997901819486e-06
7.97415888591918e-07
3.2318566709106e-07
2.71861861193621e-07
2.70605657765131e-07
2.75846576648127e-07
3.21099139685458e-07
1.2651677769908e-05
2.61102929746305e-05
9.95716129035769e-06
3.44403961389085e-05
1.89495325722118e-05
6.87336622048659e-06
3.72502324286438e-05
2.39359371322038e-05
1.27023310487411e-05
4.82282053637613e-06
3.50190802426273e-05
2.38463678071793e-05
1.55215746535477e-05
8.91360150214354e-06
3.98179252909248e-06
2.67096346415829e-05
2.00917721293313e-05
1.52835008737318e-05
1.06261570870131e-05
7.05363373125666e-06
3.76709048730813e-06
1.12837754100983e-05
1.13934897699055e-05
1.21866447501793e-05
1.03816285873021e-05
7.90783579356576e-06
5.85995760137335e-06
7.05298303726287e-06
2.79087877462579e-06
6.14794816400953e-06
7.95986551589621e-06
7.28093366350397e-06
6.6894915240236e-06
5.82654703550053e-06
3.09718782270126e-05
5.16396933025822e-06
1.65153647271954e-06
4.47430262307606e-06
6.47607273253832e-06
8.1792757844136e-06
9.78970036936833e-06
9.90152695655439e-06
9.42584611903915e-05
4.19385000250848e-05
9.45306201140746e-06
1.7215829188757e-06
4.69823351083787e-06
1.13964842680783e-05
1.72255956017634e-05
1.99079098076629e-05
1.937948130168e-05
1.30995108076908e-05
8.04689649763138e-06
4.08302703045142e-06
3.57201737042541e-06
0.000181174737386347
0.000125967124482107
8.87826725077476e-05
5.2317935404438e-05
2.4349335327792e-05
2.07510858590535e-05
2.55419779307248e-05
3.1042564942435e-05
3.24743853958838e-05