/*--------------------------------*- C++ -*----------------------------------*\
  =========                 |
  \\      /  F ield         | OpenFOAM: The Open Source CFD Toolbox
   \\    /   O peration     | Website:  https://openfoam.org
    \\  /    A nd           | Version:  12
     \\/     M anipulation  |
\*---------------------------------------------------------------------------*/
/*   Windows 32 and 64 bit porting by blueCAPE: http://www.bluecape.com.pt   *\
|  Based on Windows porting (2.0.x v4) by Symscape: http://www.symscape.com   |
\*---------------------------------------------------------------------------*/
FoamFile
{
    format      ascii;
    class       volScalarField;
    location    "500";
    object      omega;
}
// * * * * * * * * * * * * * * * * * * * * * * * * * * * * * * * * * * * * * //

dimensions      [0 0 -1 0 0 0 0];

internalField   nonuniform List<scalar> 
10107
(
5.27003482348185
7.27825328304519
3.22902216006805
5.96826009719384
4.14927083928547
3.48032703814618
9.14053124380136
2.79236060696477
3.67730053166088
5.19822989634744
3.78036264211066
1.56799367505839
4.66904877017909
2.1435595065508
3.40514066632265
9.18162026892896
6.72277362867687
1.7692761435387
2.14831229005271
2.93310692169108
4.0262628421902
3.25744332591333
3.58354500319959
4.78921080491473
3.59245403577796
4.07665577109734
0.531037675824579
1.31082904730734
1.21681773668876
5.09571296103964
1.48170995126529
1.46615776558524
1.40474900800839
2.12268756907499
3.56759185826811
4.43089718798029
3.58133243185602
3.48472597092554
6.18774699740837
1.35417017110139
1.50864263418194
1.61393390234875
1.71413979997731
2.1507339811158
2.88940271758569
3.71252329913396
4.05595300711276
3.00578600092885
3.60545011642471
5.03256582381192
3.83693956897233
4.54723869844334
0.385941322551432
0.240771793510126
1.06902639277699
0.89557472443825
1.06772027077505
3.95312183062866
1.05214645095556
1.72450273292095
2.35392165048664
2.86807435687192
4.75759480946997
4.41110540376318
2.91852593794258
3.81661547193339
5.60449101153919
1.04826641781413
1.14686886887345
1.54864847915792
1.36042342828385
1.52082864319418
2.13134055200375
1.49225755990032
1.6854774524528
2.28800905178579
3.27755530832615
3.13762663192258
3.81022306219745
4.18447839111602
4.21125316065085
0.348770443297405
0.292676729178447
0.498272099664287
0.809576640475518
1.16529406620347
1.41819737347885
3.45560940552646
0.735399940803279
1.20425976898504
2.51953388391608
3.17815925430089
5.16228597672177
3.21859267690433
4.4438557929623
4.00180562757363
0.80319438272116
0.960828297868455
1.26000069067834
1.0630101001838
1.36382537488458
2.09554948196174
1.25281751006666
1.46408847586129
1.80658067618807
3.0680453874753
1.39780149419747
1.38963469452292
1.76849630151597
2.27839488460873
3.66630328696804
0.720038834763882
0.356270515497178
0.290802435275722
0.512400771217642
0.61629030945297
1.91783966738073
3.31782161675668
0.797494042078241
0.602798231424881
2.17714500459833
2.98769745909496
3.26468592581607
2.32446831567953
5.23596345843017
4.50823200270357
0.862122298968607
0.817874819004479
0.748646692677762
0.884284837560733
1.16363794584843
1.86009376615291
1.02545061883471
1.21722359721581
1.7254120680289
3.18048377127436
1.16837389878268
1.4331601017766
1.52568910606158
2.19160420645131
2.31280937821232
1.26685302235417
1.35641117975642
1.611103552173
1.59396002124368
3.39149407407109
1.36519331615994
0.174587825822343
0.292492204309929
0.456038002132763
0.308888531787899
1.08682215078546
3.27878063814882
0.626650703344303
1.00028636475626
1.24824618970082
2.9682566388506
3.00569648010294
1.53782998209141
3.29539497570583
5.25714597072873
4.50893437524619
0.659445556893422
0.81970667214529
1.0620398826619
0.784450809426057
0.826000406302292
1.25584123263569
0.840181020119178
1.07422236968656
1.53286273336579
2.99608960660768
0.99861405531305
1.12061122820057
1.50034061442018
2.19616409302748
2.34952799964141
1.40483141808764
1.34269179063865
1.63278605523913
1.6287500263133
1.58052423358919
1.11587099306018
1.1396753849529
1.06515563580382
0.915987838204218
3.2805200044547
0.391083465563424
0.111747493736601
0.224415175848535
0.407440972970353
0.550727458284889
0.373611775101399
3.25698095035996
0.646714380322189
0.866207592890868
1.21582537793917
2.97852550755558
2.9707097236313
0.89706153457808
3.0171940487117
3.30684481874429
5.26186321824533
4.53678670404781
0.686910635322353
0.653348824130698
0.894817213472012
0.740593678946151
1.01701499853564
1.30624589283982
0.740334832290709
0.840291931995338
1.15975364275562
2.8381000148323
0.800174345032696
1.00788901295125
1.27814757606256
2.00018984465593
2.16621966377014
0.985539842392936
1.05487526445864
1.36941024354875
1.63418083869672
1.63941347096884
1.63324290405255
1.27906621428997
1.23951818117179
1.14891877223668
1.01988386649808
0.989614913763082
0.896426876473521
0.763476521235145
0.609406166764252
0.504445065482491
3.23734644487135
0.0909214403601141
0.286487454689716
0.19796623035547
0.408733451945609
0.52622885273327
0.451391942972756
3.25879707512224
0.57985752099084
0.970327606214165
1.47836826561638
2.98931009642749
2.97739378968851
0.659180301169135
2.9733751092887
3.02366096824299
3.31550065235858
5.31432902124554
4.54468513030997
0.622926738409593
0.676550335901288
0.958992869015238
0.622899077540794
0.832915847130992
1.33177813936486
0.672341726251831
0.909447749606432
1.20721486895957
2.70712346261152
0.692402256840942
0.810775923641743
1.05304156765244
1.94997527414011
2.2718473429267
0.766580676582932
0.932153177901541
1.10549213738443
1.47173568492391
1.51950346632291
1.50887897211651
0.978932787063276
0.99406733996009
1.27823137141334
1.30202173243128
1.18380098980574
1.07823144264743
1.03444762209513
1.04920306839319
0.856212652354418
0.70042928384881
0.591656517561989
0.702370083445378
0.643323712748123
0.502097305172995
0.384671273655281
0.360035617659178
3.22439968358239
0.226415793576012
0.263274252315413
0.204000960424368
0.323008971808859
0.605018826398935
0.8249562515563
3.27988146396991
0.250612981713037
0.559487492509416
1.80639130075714
2.9971858613557
2.98788943717078
0.582520696396388
2.97718044401914
2.97614017048956
3.03024726371563
3.33163896088872
5.35602151296243
4.61092380035489
0.361400295142307
0.640901713947554
0.705682556935308
0.639250698754158
0.878974381610728
1.64436415990924
0.579423815223657
0.743612690368264
1.06901371134183
2.0685990592628
0.610851774437214
0.782283023183502
1.03270831842415
1.74038373240785
2.23247656267229
0.621796116037009
0.770343199574395
0.949650142323209
1.45539532295423
1.59743520790873
1.6876169414754
0.795614446380109
0.877397534935721
0.988009897251103
1.16693946222525
1.13059929673336
1.0531676372716
0.975536931062306
1.02539653798001
0.958209615877568
1.21238800518617
1.11864204901807
0.901954233499337
0.761837406382259
0.652490005645492
0.720968575619808
0.724955488982886
0.563474840641158
0.441896357579695
0.393548716603624
0.595159535265804
0.474032892220207
0.356902616327142
0.290326801423822
0.303227852956586
3.24998785049072
0.415051626422781
0.301385328073119
0.195417680554735
0.136381495526442
0.278218805786029
0.843576095655338
3.33405604383619
0.996457626724873
0.447038971844452
1.67313189316001
3.00278185522813
2.99613123920442
0.556247784038596
2.98711966570684
2.97798796838942
2.98011658958233
3.03916579930953
3.34928365706884
5.50343821068362
4.57673898216596
0.962074175737472
0.458343135470532
0.59210983710794
0.634358708421087
0.761818128284416
1.5732690874717
0.593703918406347
0.786305922258684
1.29769389725245
3.0755603699607
0.542885437345325
0.665656779286606
0.861309281004842
1.28370276382397
1.77815944022506
0.553904700649086
0.69046225157888
0.864345870134203
1.20423701172954
1.47293046491191
1.73705099154185
0.619683620672849
0.69551969176525
0.860706878239318
1.1444543341696
1.1677270650868
1.15379474550909
1.15588969858485
0.854162940030358
0.88147942544019
0.900724693955273
0.960429865827215
0.881212396268321
0.76793453172673
0.677220388720211
0.716366405080676
1.12143848772653
0.99086533484418
1.16190493895796
1.03131268176266
0.757892425589914
0.594112051528477
0.483257542645738
0.422046566679368
0.599080228120454
0.518950993223368
0.394558486129066
0.316576146888108
0.315496686148956
0.555668568770139
0.365761904712659
0.274692856667622
0.239957554776668
0.277024881656413
3.30374280047492
0.434749625270447
0.12341209945216
0.0534944633431614
0.620982832332133
0.197754602729658
0.826419181451027
3.41292537707422
3.07870875889917
0.946781713670974
1.36764717760134
3.00662897851038
3.00211845303373
0.547570114942043
2.99546430097443
2.98716598030766
2.98013082638813
2.98585620709538
3.05014928535692
3.38062081357103
5.69036198270097
3.8730490814397
2.07652319351206
0.881592376655885
1.1319330227924
0.51750627473434
0.683399181891603
1.41360548127891
0.610220085223368
0.761867713443895
1.37338977657665
3.10074953085262
0.566431409080844
0.707427554107749
1.03325123786521
1.84734344696119
2.3327830442569
0.549220372337506
0.61292431834518
0.730424694059363
0.927972713324618
1.1454899628128
1.44091532245587
0.568156965759466
0.614387008983968
0.735546267153248
0.894903203980214
1.00248106221785
1.10630520208926
1.24615935907364
0.696701479921445
0.652290303022173
0.745525598190586
0.912114520121824
0.889932094759955
0.815126361032595
0.773520211757951
0.822619318135639
0.949594297461061
0.917601464560265
0.870009403543161
0.815089733049516
0.718951345128968
0.59903608663175
0.502798057349314
0.448155391509644
0.600815893938949
0.967957842249781
1.10519806844673
1.14611188063189
1.01953768058892
0.713691760529273
0.529351594967025
0.414990031868906
0.335498688590055
0.325233333080071
0.552548859852403
0.397618880063525
0.300240412648169
0.253473029497202
0.280273274860821
0.543220075713934
0.276598006277329
0.22107567458924
0.211044525631088
0.263500038034257
3.4326741234752
0.405143553380783
0.0473205516166658
0.263921087371431
2.51310024892921
0.226453174171055
0.635567736202456
3.40587309548597
5.56935632745119
2.96800662017695
1.83580023587267
1.50353625080134
3.00810733057151
3.00625796220537
0.543408211901592
3.00167241210895
2.99530713291871
2.98821163596928
2.983660754701
2.99267318976685
3.06124431078117
3.41224625226103
5.97442220864581
3.31903464970527
1.86337732744482
1.47074537661027
4.25592489975575
0.78857848973675
1.09078189761297
3.45791171659194
1.64748565284454
0.538337088394628
0.714658599393171
1.25772268055658
1.83751070947168
3.41665870595784
0.581141038444605
0.73166526112666
1.1772169952731
2.10849163130558
2.41724166239541
0.584033563330175
0.652934428732693
0.865639815017238
1.25898858300483
1.5492810267793
1.77937062701443
0.577376274149681
0.610963771972591
0.662821427871742
0.758325888072801
0.832464631693944
0.917633220853534
1.10399185776451
0.619963211439704
0.593617432999928
0.647637253394199
0.721484550064905
0.744037803327943
0.74355754776827
0.766101941610672
0.871367264334934
0.781568829576356
0.706539343141168
0.672621799855253
0.738454351647601
0.70735720910944
0.614511433386187
0.542601504988614
0.508120703471967
0.641638556040256
0.814115377291872
0.977763661448812
0.907016740063164
0.767833040628299
0.636176950079821
0.520157445923932
0.424064777847135
0.35006658379011
0.33589627636805
0.551535771714541
0.53395708001557
1.01918463391596
1.16496170604927
1.05650601327115
0.746439917581565
0.52764254282377
0.404598383236633
0.313097631393596
0.262694067146479
0.282252022610665
0.538222109201758
0.308423580054047
0.237747168529231
0.217452415042815
0.262899859913518
0.538345311568893
0.214659397017849
0.188251488717971
0.194346491823239
0.255438560987669
3.72831592294191
0.216516897555832
0.0708109574590582
2.48482453400255
2.59455446050988
0.769265214273411
3.79398833320395
4.20862058821044
7.04583862283235
4.42545133364611
2.23903827558032
1.05777031152998
3.49287829155073
1.86386288650405
2.2546518095121
3.00479489861237
3.00792242084241
0.539332898270918
3.00600077155068
3.00151221660038
2.9957712188442
2.99022837485353
2.98795959616821
2.9985502999755
3.06971332369608
3.45241325094409
5.3751916532156
1.4270006010579
1.30382715721499
2.12890538466364
1.14592103697329
1.74595269817505
4.39683034991577
6.26658259671827
3.45909044289513
0.705909717750233
0.980683412290165
1.41110390483935
4.06182711660077
2.29553437466738
1.9683097476823
2.50592298655273
0.534197907501426
0.708626083687542
1.10101642079124
2.25238586650122
1.99156345523072
2.19521694352237
2.54790239742776
3.59527062015066
0.578686807698397
0.690728458935667
1.01163064917488
1.56234093524012
1.72972039767518
1.80512368017131
0.582761876749292
0.660152005348618
0.765052067647347
0.971770062910108
1.10128994778602
1.17493804908248
1.29460364518966
0.566206887922111
0.628460001291644
0.659168491035136
0.68324025848918
0.684275217534533
0.663742204901877
0.674745005882296
0.800951352436771
0.645525759470497
0.630197517943959
0.603755165290586
0.636931228841404
0.610152132273062
0.563813898580528
0.524659664262451
0.509660990348412
0.656289845871073
0.642104483927519
0.796726324198229
0.700668343302406
0.663992299684136
0.613258762484635
0.518080480462377
0.435434419746995
0.371066257412514
0.358962786164081
0.563291217134072
0.485260464908249
0.869181623052375
0.967561746959806
0.812617172702561
0.629296111039362
0.504867290172683
0.403036234040225
0.319491857367116
0.269089607909418
0.284364803442261
0.534471799919389
0.261282043239298
0.603924769901745
1.03357288222156
1.07263531584471
0.850685717802197
0.589871274459262
0.426770530685048
0.319292599199578
0.247533651172393
0.221747897347157
0.261718464877987
0.533050834505045
0.236208736270559
0.197460568585754
0.196590718660137
0.253264833996682
0.534778934309773
0.178035690675017
0.169431770014488
0.184694544662948
0.249674621892865
4.29884457005381
0.249395091806863
2.72809925177456
3.11198871262333
3.31322299288818
4.42817052605534
4.89885632165427
4.72110659296529
3.35475924144614
2.41599929843129
2.99553684740839
3.00471274591505
0.533852219303272
3.00779187168594
3.00589047425553
3.00169655307656
2.99682921125701
2.99279902052904
2.99153466492761
3.00051719804159
3.06794005574955
3.47183702090853
3.15914725847201
1.02269137460749
1.03633381576722
1.47918920545226
1.01130677983136
1.29211434122395
2.12066857483963
3.6033666653632
1.93876009693062
3.42989192948415
0.915912392646152
1.29054379212098
1.65178575384331
3.6616534382624
5.42444361365656
0.632305600142342
0.857816795197359
1.14704262836493
2.19856208177872
4.1495184934376
3.58647149477588
3.11624733884376
3.1824267775979
0.523973987810834
0.675189171284391
0.957774074553642
1.61286941250031
1.81821149925405
2.44008738605707
1.81679930592385
2.61261509019295
2.56318966095754
0.582963702242259
0.663460879279285
0.881361519459484
1.2220070896666
1.28253482944047
1.25875001743517
1.22695360446669
0.536029186873109
0.657739971991044
0.741942810403325
0.827855196237769
0.864528664035706
0.835298550122642
0.829599146312553
0.885704151541308
0.53482535607636
0.591956474617139
0.648482337129783
0.67350787492838
0.617471165115018
0.549621902596527
0.494746129993351
0.474901412519564
0.62926135167663
0.504107384349422
0.653524059723533
0.622290619843942
0.606912854974134
0.568831545001502
0.48920144881496
0.421125288316287
0.366881678771465
0.359071986900308
0.563498937990647
0.40232472367497
0.682415427905878
0.780736834178371
0.675968870855857
0.592883235554789
0.492501085802912
0.400647616695637
0.323972083875005
0.276212682715572
0.289747452214039
0.534012695937905
0.266977328825508
0.533870316537001
0.871381963520377
0.882067437391953
0.700982289949652
0.529445281574912
0.412070318606954
0.319685456246777
0.251876994161808
0.224075190844514
0.260325298015024
0.528585871978829
0.276421112275712
0.627837660284074
0.902523910876728
0.864815490798772
0.670494155968624
0.473197519090036
0.336722718318264
0.247649628408172
0.203703743549102
0.197939452441058
0.250829374006062
0.530130413512559
0.189738201123325
0.173628222784811
0.184655350138006
0.247029444387129
0.530275800367692
0.158186529562185
0.159186537707517
0.179189610897832
0.245042084799236
3.21328140612594
3.17793968532096
3.37837639929875
3.93442892991065
4.50497862529402
4.32208955735007
2.988404427218
2.99550403396536
0.52731863398681
3.00465407972314
3.00772716149031
3.00595457031049
3.00220125851827
2.99824734783479
2.99498859480117
2.99234658532949
2.99605448464726
3.0373867508719
3.22309604519668
3.70123266792263
0.767430948000255
0.755189640978259
1.09837611968906
0.770005632827843
0.946720075685555
1.67254286223859
0.781139749300069
0.97370435589775
1.29338881831134
2.42498735178903
3.76092328596813
3.08149952782247
0.745665313319071
0.999815700104244
1.20191735289014
1.77672888059436
2.85825612445218
0.567367592982893
0.746404004052763
0.942823602045349
1.50610034998074
1.8157395173703
3.42835071168091
3.38007661727791
3.00357805559364
0.524707426363506
0.63017810527786
0.834397166212539
1.23404644454363
1.33518345295047
1.30861591498734
1.17640171977913
1.96009852271616
2.17280065345638
2.24275236863012
0.511550495859417
0.667311213365799
0.786451315021014
1.00371932916996
0.99398375426502
0.908658005222913
0.855265599869071
0.823456174741271
0.457197934122139
0.558034865348517
0.707056761061215
0.780799389379572
0.73338165054806
0.656231777319267
0.585314988381188
0.547242856295315
0.659586787507778
0.410116838283053
0.544250507574336
0.590120876598168
0.640963581929238
0.600884082097701
0.498857470078107
0.421502081648131
0.362681089280425
0.350989895734725
0.551421746832754
0.336653835338718
0.530502383086157
0.64279142201012
0.601957341239157
0.556577006187818
0.47326698428728
0.388391023727806
0.318969446540649
0.275007632623919
0.288050206671143
0.529432362840035
0.249147956645338
0.427434028317374
0.683163358454755
0.722491603958154
0.610717772667869
0.496243894879498
0.399470262808227
0.316087385539011
0.253252529633627
0.225564505977431
0.259463987303751
0.52482520029581
0.276962657295804
0.554776552872153
0.772893980876781
0.742156116357559
0.590675176018977
0.443386102633167
0.332588435392039
0.251336031386604
0.206699295241843
0.198184896145537
0.248246749876259
0.526061345166835
0.286772219409586
0.532826128499344
0.675495812412889
0.636984231824161
0.495243016750148
0.34877457129252
0.249923032577794
0.197613017398159
0.176700005423761
0.184268651344356
0.24425207437288
0.526597943891154
0.163662219452072
0.16048600270101
0.178038114456012
0.242494167438187
0.525027237431433
0.148129802665161
0.15427752315683
0.176756553982242
0.242156169201768
3.06240844532914
3.19263853277925
3.23591728226173
2.43320994417511
3.00012317284131
2.98838951838587
0.52335099174149
2.99548065381921
3.00461954795575
3.00774703696448
3.00617033780488
3.00291439194283
2.99951570782702
2.99563074578356
2.98890831186384
2.98298480138562
2.99445812932044
3.06772242194462
3.19237385003994
0.65163299038277
0.51656699687896
0.821669905335121
0.520363313011173
0.688838898669277
1.16247048939505
0.532891137759849
0.68509703469111
0.933850206100484
1.50447847490353
0.588550340139022
0.719644122735253
0.882256074267632
1.37556484336114
0.612964518588913
0.782477085596027
0.895113670395732
1.23440126780942
1.48701490553546
0.522019088329548
0.647179385061145
0.777013895262341
1.0836934375099
1.28071463314954
1.36396936787252
0.480898619666239
0.600379409255133
0.736097352425697
0.986916438214444
1.01596285624864
0.953212567868081
0.881584150820942
0.783570041229432
1.3806063447398
1.65085958424998
1.65644168484282
0.417169932220546
0.578493513778934
0.76434562887864
0.866807092294306
0.815277384656842
0.693535523925266
0.607846998041318
0.55396376176754
0.620441366485433
0.355261545710698
0.46918250786289
0.576731659710349
0.704441629734968
0.665532901049089
0.556521490910192
0.470465976095068
0.404683893111664
0.379556054483283
0.558218158634753
0.295586822934938
0.422523934190776
0.539266502020609
0.560773326091524
0.556585572843931
0.481960845318401
0.390543618205209
0.323445452376489
0.276565277557979
0.285521670067725
0.522027794746009
0.232352280818424
0.346432053820403
0.53520070483592
0.599749581402626
0.542050307413087
0.464369350869164
0.383761079292707
0.309151181647985
0.251335592734904
0.224326449517782
0.25653442341512
0.519626138843989
0.183599381391953
0.252604655487413
0.441635026124085
0.619895010277262
0.623563593157029
0.522896943018317
0.413836507715788
0.322846251540776
0.250243656630403
0.207306832067445
0.197601009093465
0.245613691584934
0.522262575469311
0.285180700852677
0.489266244139355
0.608214976537212
0.578910448314735
0.463603658535187
0.343475200694197
0.254322644138314
0.201534540623907
0.178188551083885
0.18336615503052
0.241450969932206
0.523476299696627
0.257515886362402
0.379910494339825
0.448809019039138
0.420916687436704
0.328187015920975
0.24324395989684
0.19310665508925
0.167827293806369
0.16138838075316
0.176748195615699
0.239841813594082
0.522473541074202
0.150206063644266
0.154049040771949
0.175170567400778
0.240029331097704
0.52276210409906
0.144044526595331
0.153563005461495
0.178273222853938
0.244726010472467
3.03904660161857
3.08705306668659
3.12147597404275
3.03227789416475
3.00011815589781
0.546014689814409
2.98838524891312
2.99546486959106
3.00462601301671
3.00783005496708
3.00649472784376
3.00358748310247
3.00002743082254
2.99406506223786
2.98244609025947
2.96917431186883
2.97409970003325
3.02400297030466
3.03888528969574
0.591905021299153
0.360047283588182
0.67096213750519
0.323157178206614
0.486528109556858
0.832029833086431
0.340778963206459
0.465141941631264
0.651307094167749
1.0242474651183
0.359144260371466
0.467383638145062
0.608463713319578
0.892232062247283
1.15357784534993
0.441691797781323
0.516147698544191
0.605077377874387
0.855096807792765
1.06510332538026
0.516401076141954
0.621687000286794
0.663941839172906
0.853718740322457
1.0151461529732
1.10276785210659
0.472780628815737
0.570509323220103
0.653495726482717
0.804568498352869
0.909564345481789
0.949497933330252
0.942213545994887
0.410059447241479
0.562601792105593
0.669898261923595
0.825321213436192
0.805925218659051
0.700322774123023
0.624675615280721
0.570319344140232
0.605869974831047
0.914723786652344
1.16365085651395
1.18739882541627
0.335470924943721
0.446889389446027
0.664968320923273
0.810142746487193
0.723531538700287
0.572197020708482
0.473589067169218
0.411506548543916
0.378962317175489
0.540463562273591
0.276786381236152
0.362565083487008
0.474867022553407
0.543245480996636
0.577091291417874
0.508649860377644
0.413096571964535
0.346161020433386
0.293246229221426
0.294139186708573
0.520789417474168
0.223113938265746
0.298375080584994
0.427603737804664
0.506868883946112
0.489922257137157
0.44749760390872
0.379706056699003
0.310053292659586
0.253927667778831
0.224607977339511
0.253894252190787
0.513965115614545
0.184181442959035
0.232711233133841
0.353104888073391
0.494180342595218
0.524609930019004
0.465131639594023
0.385203752332008
0.310756083000236
0.24694240623429
0.206258501497613
0.195931851651527
0.24234463273813
0.51787704009572
0.16042106052072
0.18355335001077
0.25608664399571
0.401457632901297
0.505743020010931
0.501001406301763
0.420187778065356
0.327184473109015
0.25157133577571
0.202091605773149
0.178238451902003
0.181963563843013
0.23859792874366
0.520587286255406
0.262133705779639
0.372712977520113
0.433000731694802
0.40992172729987
0.329164595431473
0.249723317832866
0.19821649398266
0.170285664587138
0.161597661378027
0.175252293051659
0.237244042944538
0.520459317106329
0.213355054982568
0.257737764540699
0.277932643760615
0.261076002146594
0.220924726824626
0.18509434949504
0.162269642844819
0.15185542414071
0.153677984195747
0.173510565649061
0.237763503284079
0.521323798068684
0.144348304888762
0.152580171490902
0.176631506642193
0.243373840999383
0.55637583654063
0.144697314825815
0.158053753899623
0.187956815380425
0.268184019471349
3.02364345326162
3.05835341538442
3.05253662388946
3.04960403194021
3.03226513676743
0.61793628099059
3.00013713898965
2.98838045979743
2.99546907768607
3.00465558655069
3.00796249508925
3.00681645249182
3.00394051422881
2.9994762954023
2.99109566163266
2.97751918913836
2.96596245573261
2.97354362953806
2.99246932825524
3.00427773299478
0.558629756331102
0.282627596057066
0.596724704183776
0.222831994817748
0.352967383635602
0.668729588657072
0.222218143668723
0.304526743146078
0.452321758159173
0.756586526218861
0.242304803457725
0.311040844399805
0.410339685185776
0.583610766665448
0.870483724078504
0.272960229403184
0.324814443226999
0.403324784684328
0.541694349555293
0.704983663253142
0.900816665241847
0.366120450714619
0.379784372826429
0.420537653298126
0.534087880034899
0.663353273422008
0.766659127351985
0.445292438720718
0.514292923402117
0.512874312055073
0.581092543634895
0.676265237194079
0.718987289537242
0.754373610036434
0.401994455883687
0.520747202473197
0.573637274834056
0.629559267401711
0.651280342703796
0.645643236638517
0.61547795726597
0.59658228498163
0.34560670112886
0.468598577071051
0.631004173442507
0.727068462019688
0.670276655810552
0.532916044487407
0.45428120373277
0.408488288888343
0.379628609633777
0.532531987762565
0.655013961998453
0.839650838161615
0.884202631686069
0.277189822880234
0.348253670875089
0.486819407404186
0.655025176894679
0.66553560636182
0.52926655561484
0.412868443671575
0.344087733963094
0.293083931356664
0.291924920263794
0.512968038661234
0.222933962623211
0.279459954451103
0.368295293049314
0.448890237119347
0.468557437127459
0.450256792658217
0.388653248134815
0.320640687243381
0.262766540044912
0.229154502608177
0.254549467427255
0.51055069381479
0.185316867591347
0.223027364305241
0.30058032554932
0.401424234736437
0.444651872323154
0.418166386835029
0.365469105904829
0.305072276778807
0.246876206813255
0.206526281268204
0.194672881708261
0.239333370001316
0.513532868380176
0.163225797644341
0.183839803613933
0.233381914409167
0.328662222028518
0.41435565079981
0.427806113881355
0.377512237710111
0.308509972557949
0.24595998359336
0.200830957594363
0.177253994029965
0.180050474286734
0.235540404387791
0.517500887008556
0.150645800430362
0.160139533309413
0.183455538883694
0.241847875067082
0.322993572450303
0.376174240304881
0.367540914141073
0.309990301284292
0.246135298679766
0.198883343541671
0.170908789664484
0.161061809421764
0.173523488724474
0.234673374793857
0.518762466133081
0.222445148119135
0.267310710127519
0.28709978581698
0.270573808255445
0.229549462591785
0.191123360683853
0.16549964300938
0.152800579102324
0.153019761442756
0.171783213720262
0.235595437072296
0.519784718493959
0.181250599783375
0.195497166539354
0.199100413886143
0.189812891390704
0.17269008008472
0.156842697636549
0.147007034982186
0.144510990847694
0.151530811065366
0.174927675956638
0.241810014596762
0.558478041232077
0.144070667446834
0.15671674721376
0.186519619508587
0.269781885569899
0.635785861169654
0.151170516591259
0.172208401775668
0.219504334827632
0.357746385614273
3.02471770644669
3.05020418506065
3.03429078017122
3.73006693002183
3.04959415554777
0.898992163359636
3.03228292887633
3.00012142561296
2.98838437108533
2.99547885057045
3.00470379617671
3.00809964913782
3.00701746144821
3.00383444881016
2.9982515987981
2.98890124898374
2.97806516607392
2.97319974693783
2.97806331878807
2.9822999625052
2.99773181936069
0.544084359798856
0.251652827675502
0.559379206063824
0.184549702853669
0.28183628604178
0.589170001156361
0.171943976491544
0.218796912553191
0.335290023547456
0.631715877376538
0.181123088559761
0.214193010819519
0.277492343471026
0.405031169801606
0.690970029839371
0.205884405606001
0.229463237660752
0.275338532545388
0.354374860857886
0.477400163927143
0.762304315749615
0.252548783304788
0.255555948360952
0.287109868208103
0.349950350098936
0.431158968266984
0.528300359785151
0.763517147892182
0.337711831240706
0.324044174135314
0.31250557279882
0.360312329900867
0.421601940453642
0.481101623264842
0.538121807856987
0.366656101743868
0.450541837356649
0.430391488044139
0.417332977874148
0.449612735855215
0.466844831339002
0.47736296020581
0.493245709399139
0.340045451856319
0.4519865858413
0.531030964298593
0.538997351600485
0.488840736856562
0.443232310775078
0.414226700207021
0.387494373697412
0.382900818903337
0.290026551694535
0.375536295725136
0.552199358095038
0.65939068851132
0.601045636324397
0.452678716813645
0.368733123945638
0.319697963312445
0.282664548027389
0.287670047426548
0.509375835609775
0.54573381282568
0.635772968080698
0.71129309955567
0.231149631261015
0.283399745831321
0.365353331759424
0.470438543623077
0.516587806480525
0.484306825303545
0.391678765186456
0.315823596367343
0.258499495370052
0.226552901736041
0.251910655180699
0.506510880301519
0.189185424771479
0.223371617164092
0.282167376548449
0.353183232778505
0.394911559494782
0.391726927720573
0.359864980054674
0.307798303896677
0.250604628578419
0.208130129545219
0.19432566431236
0.237409431092479
0.510184893129703
0.165852166558284
0.184891727675097
0.222769491751406
0.286371134201104
0.347471773783991
0.367707370558187
0.34277722631957
0.294752637922502
0.242408278754365
0.200087962583688
0.176266357220153
0.178130751488832
0.232640007546572
0.51451191022702
0.15287096608564
0.16286238729029
0.183370148930321
0.224495282269037
0.280626913894737
0.321869881566532
0.323821772433047
0.287737181621878
0.238703932861434
0.197163977993788
0.170262730050292
0.159904453995771
0.171561270515813
0.232066180040541
0.517092577238663
0.145336272592881
0.150394736601809
0.159564346371476
0.179366778333607
0.21507503609015
0.251027909101591
0.269256298995687
0.259261201561234
0.227020200370396
0.192046968394012
0.166536018709276
0.152848563640175
0.152014683734179
0.169979599217226
0.233536060284116
0.518298457515255
0.189838045760251
0.205662513468994
0.209156196378842
0.198348063452394
0.178780498740668
0.160371529456391
0.148425417566278
0.144371480632023
0.150363989330662
0.173212643111484
0.240667074365046
0.557950176381223
0.162349878518419
0.166524490613284
0.165510803127201
0.159431276335646
0.151000300876662