/*--------------------------------*- C++ -*----------------------------------*\
  =========                 |
  \\      /  F ield         | OpenFOAM: The Open Source CFD Toolbox
   \\    /   O peration     | Website:  https://openfoam.org
    \\  /    A nd           | Version:  12
     \\/     M anipulation  |
\*---------------------------------------------------------------------------*/
/*   Windows 32 and 64 bit porting by blueCAPE: http://www.bluecape.com.pt   *\
|  Based on Windows porting (2.0.x v4) by Symscape: http://www.symscape.com   |
\*---------------------------------------------------------------------------*/
FoamFile
{
    format      ascii;
    class       volScalarField;
    location    "500";
    object      p;
}
// * * * * * * * * * * * * * * * * * * * * * * * * * * * * * * * * * * * * * //

dimensions      [0 2 -2 0 0 0 0];

internalField   nonuniform List<scalar> 
10107
(
83333.3317839483
83333.3323877479
83333.3317612429
83333.3316717427
83333.3326144555
83333.3322081888
83333.3323318339
83333.3319470458
83333.331708076
83333.33166827
83333.3328609298
83333.332467221
83333.3326211484
83333.3319215169
83333.3321164644
83333.3322955239
83333.3321691482
83333.3318502365
83333.3317860067
83333.3318817412
83333.3317237284
83333.3316401483
83333.3315917433
83333.3316932914
83333.3316273715
83333.3329061425
83333.3327802044
83333.3320715479
83333.3324677107
83333.3326670097
83333.3314336539
83333.3320445088
83333.3322154254
83333.3320574988
83333.3319788169
83333.3322988177
83333.3321596594
83333.3321097574
83333.3319629191
83333.3316798783
83333.3318649931
83333.3319174172
83333.3316621252
83333.3317528309
83333.3318747577
83333.3319191871
83333.3317934206
83333.3317964232
83333.3316864378
83333.3317603184
83333.3316652934
83333.3328499926
83333.3329044557
83333.3316184288
83333.3310506918
83333.3323323366
83333.3325016668
83333.3325585944
83333.3318922588
83333.3317644379
83333.3322225608
83333.331964918
83333.3318502464
83333.3324456226
83333.3318462058
83333.3319421324
83333.3318445756
83333.3320039813
83333.3318627853
83333.3317951972
83333.3318179234
83333.3318727792
83333.3319509075
83333.3314806039
83333.3316577174
83333.3317123666
83333.3318993431
83333.3318007619
83333.3317186625
83333.3317090176
83333.3328836414
83333.3328551044
83333.3327168951
83333.3277596436
83333.3317460413
83333.331889651
83333.332516948
83333.3328048834
83333.3321709963
83333.3320572882
83333.3321027179
83333.3316252948
83333.3318991277
83333.3317252218
83333.3323278381
83333.3318477904
83333.3321421089
83333.3320420725
83333.3320056638
83333.3318934143
83333.3318980397
83333.3319554642
83333.3316575631
83333.3318255421
83333.3318209922
83333.3317824439
83333.3312801751
83333.3314718872
83333.3316132293
83333.3316257361
83333.333096238
83333.3329113397
83333.3314351479
83333.3318446171
83333.3323772723
83333.3322432881
83333.3323359923
83333.3325191256
83333.3324330368
83333.3322651866
83333.3321925825
83333.3315245625
83333.3316865369
83333.3315959
83333.331901725
83333.3323887573
83333.3322799524
83333.3321249111
83333.3321342986
83333.3319932962
83333.3319877219
83333.3320270497
83333.3317441221
83333.3319169856
83333.3319330213
83333.3318684794
83333.3314714327
83333.3316653386
83333.3317612669
83333.331732656
83333.3316698264
83333.3312559269
83333.3314368668
83333.3315464923
83333.3315712881
83333.3326966096
83333.3323282689
83333.3325998543
83333.3328210164
83333.332705712
83333.3324925871
83333.3324381032
83333.332634421
83333.3325203298
83333.3323935901
83333.3323660507
83333.3314577735
83333.3315827698
83333.3315183844
83333.3317433696
83333.3319605641
83333.3323973795
83333.3323110837
83333.3321424711
83333.3322363397
83333.3320515908
83333.3320549461
83333.3321299667
83333.3318661696
83333.3319406723
83333.3319338295
83333.3319019338
83333.3315617029
83333.3317878011
83333.3319009424
83333.3318367775
83333.3317425699
83333.3314610223
83333.3316180821
83333.3316737071
83333.331658847
83333.3315804656
83333.3312281731
83333.3314011686
83333.3315092465
83333.3315186556
83333.3328607421
83333.3327895232
83333.3328255214
83333.333088616
83333.3327966718
83333.3326366944
83333.3326326092
83333.3326693549
83333.3326191053
83333.3324540062
83333.3324764052
83333.331404192
83333.3315104473
83333.3314551092
83333.3316360547
83333.3317616151
83333.3318287142
83333.332477455
83333.3323993629
83333.3321303504
83333.332261923
83333.332021831
83333.3321068662
83333.332196675
83333.3319371402
83333.3319898582
83333.3319581244
83333.3320042393
83333.3316794322
83333.3318490455
83333.3318806771
83333.3318174085
83333.3317528524
83333.3314279462
83333.3316053618
83333.3317895474
83333.3317948495
83333.3317344928
83333.3316408175
83333.3314097844
83333.3315404923
83333.3316019903
83333.331586346
83333.3315146614
83333.3312260075
83333.331393456
83333.3314798509
83333.3314624468
83333.332872294
83333.3329213044
83333.3330287817
83333.3331146806
83333.3328762683
83333.3327380285
83333.3327258526
83333.3327691601
83333.3326497271
83333.3325685538
83333.3324284014
83333.3313573742
83333.3314614071
83333.3314010805
83333.3315601429
83333.3316485902
83333.3317675692
83333.3319783517
83333.3323272721
83333.3324875159
83333.3321855418
83333.3323487045
83333.3320020689
83333.3320995786
83333.3321872353
83333.3319103422
83333.3320039058
83333.3320311921
83333.3319978658
83333.331765008
83333.331922505
83333.331905296
83333.3318699191
83333.33181053
83333.3314529039
83333.3316886514
83333.3318190922
83333.3317918508
83333.3317374772
83333.3316639981
83333.3314577683
83333.3314566607
83333.331604661
83333.3316914826
83333.3316886682
83333.3316448474
83333.331569314
83333.3313524095
83333.3314848828
83333.3315471165
83333.3315245657
83333.3314585313
83333.331261222
83333.3314001227
83333.3314436522
83333.3314062902
83333.332994632
83333.3330372068
83333.3330814882
83333.3331639448
83333.3329075261
83333.3328440913
83333.3327571433
83333.3326067426
83333.3326536594
83333.3326482955
83333.3325188795
83333.3313099419
83333.3314133739
83333.3313538622
83333.3315088914
83333.3315844215
83333.3316827109
83333.3318051413
83333.331957661
83333.3325149783
83333.3325240215
83333.3322817248
83333.3324897355
83333.3320327255
83333.3321458094
83333.3322732467
83333.3318954445
83333.3319863444
83333.3320462428
83333.3320093217
83333.3317627512
83333.3319040303
83333.3319502069
83333.3319152014
83333.3318219793
83333.3315400651
83333.3317772619
83333.3318717869
83333.3318247761
83333.3317816655
83333.3317021426
83333.3313337245
83333.3314718008
83333.3316761777
83333.331739855
83333.3317133799
83333.331669823
83333.3316027248
83333.3317024487
83333.331460221
83333.3314308751
83333.331516566
83333.3315915597
83333.3316109898
83333.33157646
83333.3315093509
83333.3313278498
83333.3314572799
83333.3315027034
83333.3314663254
83333.3314084467
83333.3313094391
83333.3313960772
83333.3313976335
83333.3313544767
83333.3328358546
83333.3330496502
83333.3331511022
83333.3331567082
83333.332768554
83333.3328289137
83333.332839833
83333.3327520146
83333.3326888278
83333.3326215341
83333.3325305174
83333.3312675456
83333.3313635099
83333.3313090062
83333.3314597874
83333.3315407782
83333.3316258495
83333.3317223613
83333.3318376394
83333.3321404271
83333.3325299318
83333.3325423378
83333.3322888149
83333.3324921875
83333.3320870943
83333.3322443689
83333.3324033897
83333.3319149694
83333.3320094102
83333.3320919252
83333.3321114197
83333.3317763168
83333.3318885223
83333.3319514343
83333.331952386
83333.3318617865
83333.3315787148
83333.331761342
83333.3318693172
83333.3318730758
83333.3318218691
83333.3317381976
83333.3313904701
83333.3315610425
83333.3317536962
83333.3317920373
83333.3317598537
83333.3317091916
83333.3316405481
83333.3314510003
83333.3313446272
83333.3314685791
83333.3316007919
83333.3316495934
83333.3316495207
83333.3316121759
83333.3315461822
83333.3319840259
83333.331682572
83333.3314005915
83333.331341029
83333.3314365063
83333.3315264577
83333.3315546159
83333.3315160861
83333.3314551832
83333.3313414012
83333.3314427333
83333.3314551162
83333.3314105422
83333.3313609168
83333.3313399388
83333.3313711111
83333.3313498239
83333.3313077111
83333.3329163035
83333.3331498163
83333.3330787317
83333.3329234084
83333.3328388182
83333.3327306786
83333.3326039624
83333.3325652871
83333.3326115623
83333.3326626236
83333.3325563679
83333.3312315839
83333.3313159892
83333.331267738
83333.3314088011
83333.3314961357
83333.3315731417
83333.3316654883
83333.3317555272
83333.331952414
83333.3322257765
83333.3325980053
83333.3323123493
83333.3322339826
83333.3324663256
83333.3320649591
83333.3322413243
83333.3324300483
83333.3319323665
83333.332048764
83333.3321570454
83333.3322282174
83333.3318123048
83333.3318999535
83333.3319734518
83333.3319901976
83333.331925454
83333.3316545129
83333.3317723964
83333.3318621844
83333.3318885436
83333.331861935
83333.3317693876
83333.3314561697
83333.3315827039
83333.3317439257
83333.3318090676
83333.3317989251
83333.3317484475
83333.3316725153
83333.3314232846
83333.3314015117
83333.3315571762
83333.3316830039
83333.3317111721
83333.331695254
83333.3316512387
83333.3315828608
83333.3317287396
83333.3314396295
83333.3313387004
83333.3314077651
83333.3315163352
83333.3315820248
83333.3315955772
83333.3315544925
83333.3314922172
83333.3320962689
83333.3319714072
83333.3315959048
83333.3312958251
83333.3312931845
83333.3314048522
83333.3314927111
83333.3315031814
83333.3314577005
83333.331405353
83333.3313671362
83333.3314210231
83333.3314043428
83333.3313596826
83333.3313158013
83333.3313374541
83333.3313346539
83333.3313042579
83333.3312659984
83333.3326913182
83333.3328420572
83333.3329068815
83333.3330045219
83333.332832051
83333.3327987787
83333.3326915956
83333.3327457955
83333.3322892277
83333.3327115848
83333.332619448
83333.3325964546
83333.3312013585
83333.3312756439
83333.3312316321
83333.3313583593
83333.3314456122
83333.3315239545
83333.331603595
83333.3316865412
83333.3318109768
83333.3320326097
83333.3321892172
83333.3325408612
83333.3319929417
83333.3321000218
83333.3322696627
83333.3319822743
83333.3321801554
83333.3323479142
83333.3323704802
83333.3318959962
83333.3320107533
83333.3321238363
83333.3323292035
83333.3322755489
83333.3318239091
83333.3319088789
83333.3319836466
83333.332023427
83333.3319804543
83333.3317396883
83333.3318019867
83333.3318682719
83333.3319050366
83333.3318827843
83333.3318018353
83333.3315732361
83333.3316499028
83333.3317557236
83333.3318100072
83333.3318175154
83333.3317719519
83333.3316907557
83333.3314738952
83333.3314584535
83333.3315802646
83333.3317005742
83333.33173947
83333.3317298078
83333.3316798856
83333.3316080338
83333.3316087966
83333.3314147953
83333.3314016917
83333.3315074143
83333.3316024307
83333.3316396273
83333.3316370742
83333.3315903674
83333.3315247159
83333.3319040589
83333.3317220704
83333.3314166013
83333.3312974839
83333.3313605689
83333.3314710224
83333.331541311
83333.3315430747
83333.3314954071
83333.3314418064
83333.3320183024
83333.3320938773
83333.331894228
83333.3314641759
83333.3312643726
83333.3313028
83333.3314080349
83333.3314656503
83333.3314502918
83333.331403947
83333.3313577084
83333.3313763713
83333.3313846888
83333.3313549833
83333.3313137822
83333.3312757191
83333.3313138149
83333.331294748
83333.3312627996
83333.3312297694
83333.3328295684
83333.3329404741
83333.3329217933
83333.3330296511
83333.3327889064
83333.3327934496
83333.332731938
83333.3319805975
83333.3325602367
83333.3326517706
83333.3325084447
83333.3327507539
83333.332637979
83333.3325170751
83333.3325914043
83333.3311766462
83333.3312418255
83333.3312011371
83333.3313147779
83333.3313942398
83333.3314728577
83333.3315448259
83333.3316200787
83333.3317082059
83333.3318512555
83333.3320083868
83333.3321990318
83333.3318093701
83333.3319242828
83333.3319627947
83333.3319148709
83333.3320460737
83333.3321138154
83333.3323782866
83333.3321228166
83333.3318243965
83333.3319349828
83333.3320360639
83333.3321634055
83333.332431114
83333.3322054364
83333.332208234
83333.331789579
83333.3318625387
83333.3319174377
83333.3319977101
83333.3324499817
83333.3322080396
83333.3319776398
83333.3321122453
83333.3317731433
83333.3318147625
83333.3318716671
83333.3318966919
83333.3318884785
83333.3318198777
83333.3316996625
83333.3317338153
83333.3317767157
83333.3318142411
83333.3318195251
83333.3317806527
83333.3317048101
83333.3315744469
83333.331570913
83333.3316400651
83333.3317185871
83333.3317487014
83333.3317421886
83333.3316915732
83333.3316214866
83333.3315861482
83333.3314656268
83333.3314598353
83333.3315571014
83333.3316448721
83333.3316753239
83333.3316639609
83333.3316115887
83333.331545337
83333.3317502037
83333.3316019515
83333.3314057514
83333.3313794342
83333.3314608933
83333.3315462566
83333.3315897013
83333.3315791609
83333.3315274814
83333.3314710082
83333.3318831146
83333.3319133318
83333.3316925852
83333.3313752211
83333.3312881118
83333.3313613607
83333.3314613551
83333.3315078624
83333.3314874975
83333.3314402076
83333.3313928345
83333.3318205901
83333.3320267922
83333.332040271
83333.3317526528
83333.3314027638
83333.331292314
83333.3313428849
83333.3314137106
83333.3314279784
83333.3313982001
83333.3313551695
83333.33131485
83333.3313578053
83333.3313426699
83333.331309624
83333.3312735504
83333.331241637
83333.3312812478
83333.3312560108
83333.3312264931
83333.331199134
83333.3328447486
83333.3330006384
83333.3328747485
83333.3327561667
83333.3317792818
83333.3319314298
83333.3323832794
83333.3325002088
83333.3324728009
83333.3324858587
83333.3311571639
83333.3312142004
83333.3311761378
83333.3312782325
83333.3313487433
83333.3314219213
83333.3314914818
83333.3315596512
83333.3316285745
83333.3317184754
83333.3318231601
83333.3319521088
83333.3321147233
83333.3317121959
83333.3318000552
83333.3317808144
83333.3318304685
83333.3318876073
83333.3318808535
83333.3319366233
83333.3319145417
83333.3320371638
83333.3317835703
83333.3318725105
83333.3319542205
83333.3320521833
83333.3321368484
83333.3317392236
83333.3317975918
83333.3318708629
83333.3319223811
83333.332081526
83333.3321141695
83333.3323695426
83333.3321250904
83333.3317375451
83333.331776463
83333.3318153936
83333.3318341714
83333.3318609571
83333.3323992779
83333.3318011155
83333.3319006772
83333.3319589042
83333.3317580208
83333.331773127
83333.3317946083
83333.3318100923
83333.3318071897
83333.331775208
83333.3317060427
83333.3316766153
83333.331699749
83333.3317184702
83333.331737671
83333.3317510716
83333.3317399065
83333.3316955245
83333.3316275447
83333.3316169043
83333.3315675211
83333.3315643196
83333.331618907
83333.3316739545
83333.3316921001
83333.3316724893
83333.3316218823
83333.3315589935
83333.3316655315
83333.3315812418
83333.331460556
83333.3314556855
83333.3315335586
83333.331599506
83333.3316228235
83333.3315998457
83333.3315462957
83333.3314903185
83333.3317466552
83333.331760507
83333.3315880687
83333.3313959765
83333.3313736281
83333.3314456429
83333.3315211403
83333.3315470754
83333.3315190727
83333.3314692472
83333.3314206175
83333.3317523124
83333.3319022109
83333.3318897503
83333.3316293752
83333.3313723504
83333.3313220548
83333.3313892963
83333.3314561623
83333.3314653888
83333.3314335539
83333.3313896905
83333.3313483746
83333.3318336996
83333.3319874733
83333.3319112459
83333.3316302473
83333.3313977278
83333.3313415342
83333.3313740686
83333.331396515
83333.3313840071
83333.3313501247
83333.3313121318
83333.3312781119
83333.3313255678
83333.331301039
83333.3312695855
83333.3312393888
83333.3312136304
83333.3312465026
83333.3312208728
83333.3311956431
83333.3311738687
83333.3329085218
83333.3316995109
83333.3317758319
83333.3318714411
83333.332198871
83333.3322766571
83333.3311426203
83333.3311924404
83333.3311563386
83333.3312483533
83333.3313105154
83333.331376343
83333.3314416535
83333.3315054997
83333.3315655574
83333.3316264053
83333.3317034004
83333.3317982741
83333.3318721313
83333.3318626378
83333.3316424452
83333.3317155872
83333.3317041045
83333.3317612662
83333.331780192
83333.3317628165
83333.3317469815
83333.3318047536
83333.3318404318
83333.3318960217
83333.3320297726
83333.3320091045
83333.3317067445
83333.3317636246
83333.3318286424
83333.3318662561
83333.3319929542
83333.3316955968
83333.3317271691
83333.3317734853
83333.3318117414
83333.3318173509
83333.3320126748
83333.3319690382
83333.3320147199
83333.331718799
83333.3317333
83333.3317552084
83333.3317658693
83333.3317776467
83333.3317588941
83333.3316952739
83333.3317776674
83333.3318372928
83333.3318313728
83333.3317301138
83333.3317643602
83333.3317641559
83333.3317447595
83333.3317373903
83333.3317251429
83333.3316874834
83333.3316222393
83333.3316571095
83333.3316773605
83333.3316905445
83333.3316884596
83333.3316926752
83333.3316927449
83333.3316719825
83333.3316243102
83333.3315643803
83333.3316376645
83333.3316133033
83333.3315588787
83333.3315535572
83333.3315977322
83333.3316342168
83333.3316387425
83333.3316102267
83333.3315583574
83333.3315039156
83333.3316577209
83333.3316738064
83333.331573786
83333.3314639417
83333.3314593649
83333.3315186905
83333.3315674334
83333.3315717364
83333.331538603
83333.3314883779
83333.3314404777
83333.3316657195
83333.3317636296
83333.331751819
83333.3315647902
83333.3314071912
83333.3313937562
83333.3314537722
83333.3314999929
83333.3314977811
83333.3314623493
83333.3314173075
83333.3313755955
83333.3317671066
83333.3318848591
83333.3318110474
83333.3315725574
83333.3313959515
83333.331370019
83333.3314108643
83333.3314328478
83333.3314189774
83333.3313838999
83333.3313450646
83333.3313100732
83333.3318104613
83333.3318745243
83333.3317541944
83333.3315438759
83333.3314064566
83333.33136938
83333.3313702803
83333.3313641341
83333.3313402405
83333.3313075341
83333.3312754824
83333.3312478253
83333.3312892517
83333.3312627274
83333.3312353392
83333.3312111165
83333.3311914188
83333.3312133308
83333.3311903141
83333.3311700079
83333.3311537344
83333.331637316
83333.33169798
83333.3317654401
83333.3318433479
83333.331132645
83333.3311761411
83333.331141491
83333.331224773
83333.3312790799
83333.3313376427
83333.3313974711
83333.3314567614
83333.3315119578
83333.331563401
83333.3316217954
83333.3316905852
83333.3317553303
83333.3317807005
83333.331742521
83333.3315920572
83333.3316480291
83333.3316391858
83333.3317007603
83333.3317037263
83333.3316881412
83333.3317106687
83333.331744887
83333.3317540116
83333.331733698
83333.3316818942
83333.3317318644
83333.3317754709
83333.3317933278
83333.3316599166
83333.3316959622
83333.3317441511
83333.3317896389
83333.3317820574
83333.3316718033
83333.3316878282
83333.3317122655
83333.3317454711
83333.3317574371
83333.3317395539
83333.3316995906
83333.3317191401
83333.3317196649
83333.3317158523
83333.3317197738
83333.3317143888
83333.3316782369
83333.331615223
83333.3316834397
83333.3317394766
83333.3317609575
83333.3316789753
83333.3317412726
83333.3317645135
83333.3317222667
83333.3316809689
83333.3316750414
83333.3316600598
83333.3316168615
83333.3315614283
83333.3316403785
83333.3316550125
83333.3316709219
83333.3316650604
83333.3316509331
83333.3316471226
83333.3316416059
83333.3316122267
83333.3315627016
83333.3315108658
83333.3316205745
83333.331638308
83333.3316054453
83333.3315526086
83333.3315454444
83333.3315752293
83333.3315957821
83333.3315864902
83333.3315509917
83333.3315018578
83333.3314551475
83333.331606115
83333.3316661159
83333.3316701647
83333.3315645524
83333.3314718203
83333.3314687302
83333.3315097829
83333.3315324172
83333.3315196842
83333.3314822596
83333.3314374726
83333.3313964367
83333.3315714737
83333.331675285
83333.3317579417
83333.3317087155
83333.3315441909
83333.3314307585
83333.3314225748
83333.3314547489
83333.3314667617
83333.3314481144
83333.331411404
83333.33137209
83333.3313368839
83333.3317555901
83333.3318059564
83333.3317012767
83333.331524937
83333.3314170475
83333.3313962496
83333.3314034913
83333.3313981203
83333.3313735286
83333.3313399094
83333.3313069589
83333.3312783755
83333.331726271
83333.3317225592
83333.331611655
83333.3314778834
83333.3313950775
83333.3313603331
83333.3313456884
83333.3313267256
83333.3312997586
83333.3312709366
83333.3312450114
83333.331223729
83333.331253598
83333.3312290637
83333.3312067399
83333.3311885118
83333.3311746911
83333.3311835612
83333.3311645455
83333.3311494459
83333.3311385872
83333.3315921096
83333.3316365413
83333.3316861417
83333.3311263761
83333.3311648747
83333.3311314015
83333.3312070296
83333.3312541942
83333.331305575
83333.3313594262
83333.3314137476
83333.3314652594
83333.3315141479
83333.3315617244
83333.3316136371
83333.3316616266
83333.3316955674
83333.3316936767
83333.3316638131
83333.3315530013
83333.3315963779
83333.3315891369
83333.3316438859
83333.3316411427
83333.3316278265
83333.3316698523
83333.3316890305
83333.3316843585
83333.331662342
83333.3316600642
83333.3316977742
83333.331722477
83333.3317177779
83333.3316885611
83333.3316342271
83333.3316721646
83333.3317131833
83333.3317427343
83333.3317281987
83333.3316319925
83333.3316511853
83333.3316821429
83333.3317222636
83333.3317351222
83333.3317087326
83333.3316537831
83333.3316647981
83333.3316702067
83333.3316882039
83333.3317046585
83333.3317006715
83333.3316662109
83333.331671237
83333.3317095117
83333.3317107366
83333.3316805222
83333.3316654106
83333.3316669071
83333.3316527302
83333.3316104738
83333.3315568792
83333.3316073415
83333.3316560895
83333.331688099
83333.3316438295
83333.3316835344
83333.3317479111
83333.3317314389
83333.3316618625
83333.3316348881
83333.3316293197
83333.3316048517
83333.3315595713
83333.3315129286
83333.3316149583
83333.3316335707
83333.3316475399
83333.3316464668
83333.3316242546
83333.3316110036
83333.3316080123
83333.3315921055
83333.3315562095
83333.3315090767
83333.3314642178
83333.3315788603
83333.3316190274
83333.3316323731
83333.3315924452
83333.3315410511
83333.3315336752
83333.3315503487
83333.3315542141
83333.3315346499
83333.3314963189
83333.331452434
83333.331412466
83333.3315416937
83333.3316088981
83333.3316625863
83333.3316438179
83333.3315502617
83333.3314810155
83333.331475523
83333.3314923557
83333.3314926708
83333.3314694378
83333.3314320219
83333.3313931665
83333.3313584925
83333.3314888208
83333.3315739098
83333.3316691738
83333.3317084067
83333.331638872
83333.3315175422
83333.3314448476
83333.3314324095
83333.3314370513
83333.3314278377
83333.3314011942
83333.3313667881
83333.3313335359
83333.3313046623
83333.3316932457
83333.3316881203
83333.3315922461
83333.3314790623
83333.3314129736
83333.3313888841
83333.3313780037
83333.3313593438
83333.331331704
83333.3313020096
83333.3312751617
83333.3312530341
83333.3316114029
83333.3315796049
83333.3314982705
83333.3314171661
83333.3313627414
83333.3313334587
83333.3313129076
83333.3312894355
83333.3312639502
83333.3312402035
83333.331220539
83333.3312054825
83333.3312210883
83333.3312004576
83333.331183693
83333.3311714358
83333.3311632285
83333.331158001
83333.3311437188
83333.3311340214
83333.331128276
83333.331553729
83333.3315889503
83333.3316272104
83333.3311228256
83333.3311577599
83333.3311253427
83333.3311946559
83333.3312354003
83333.3312800589
83333.3313276803
83333.3313767134
83333.3314245882
83333.3314709728
83333.3315132077
83333.3315572629
83333.33159662
83333.3316260006
83333.3316412811
83333.3316332398
83333.3316107885
83333.3315202224
83333.3315554708
83333.3315502178
83333.3315958474
83333.3315919305
83333.3315816405
83333.3316269176
83333.3316364462
83333.3316281466
83333.3316094456
83333.3316330891
83333.3316598517
83333.3316708747
83333.3316578608
83333.3316298552
83333.3316171743
83333.3316507553
83333.3316802569
83333.3316926827
83333.3316738139
83333.3316368637
83333.3316051744
83333.3316272299
83333.3316592097
83333.3316900238
83333.3316959971
83333.331668539
83333.3316212536
83333.3316235199
83333.3316370642
83333.3316647702
83333.3316855731
83333.3316780155
83333.3316426977
83333.3316432711
83333.3316507519
83333.3316457341
83333.3316419384
83333.3316512356
83333.3316586035
83333.3316435314
83333.331602371
83333.3316514839
83333.3316840475
83333.3317129513
83333.3316734367
83333.3316302999
83333.3316241065
83333.3316213244
83333.3315988253
83333.3315556796
83333.3315117051
83333.3315513126
83333.3315905134
83333.3316217177
83333.3316128807
83333.3316394312
83333.3316885416
83333.3317193176
83333.3316640739
83333.3316145944
83333.3316035612
83333.3315877939
83333.3315544025
83333.331511121
83333.3314699248
83333.3315710363
83333.3316071206
83333.3316239701
83333.3316264792
83333.3316039756
83333.3315845406
83333.331577097
83333.3315668405
83333.3315427855
83333.3315046065
83333.3314621191
83333.3314237679
83333.331526295
83333.3315765283
83333.3316117618
83333.3316116112
83333.3315694117
83333.3315287911
83333.3315193517
83333.3315211881
83333.3315116903
83333.3314850506
83333.3314475711
83333.3314095546
83333.3313757589
83333.3314790471
83333.3315418102
83333.3316026971
83333.3316315205
83333.3315961414
83333.3315247342
83333.3314783866
83333.3314678343
83333.3314656987
83333.3314511735
83333.3314226635
83333.3313881261
83333.3313552325
83333.3313266725
83333.3314216633
83333.3314888078
83333.3315662485
83333.3316285719
83333.3316275183
83333.3315616306
83333.3314824413
83333.3314359546
83333.3314187116
83333.3314075713
83333.3313872897
83333.3313586393
83333.3313284442
83333.3313012427
83333.3312787816
83333.3316004957
83333.3315715606
83333.3315006159
83333.3314316839
83333.3313876581
83333.3313638289
83333.3313445763
83333.3313208857
83333.3312946495
83333.3312700119
83333.3312494921
83333.3312337802
83333.3315036181
83333.3314681198
83333.3314131855
83333.3313621654
83333.331325709
83333.3313007417
83333.3312781203
83333.3312550196
83333.3312332939
83333.3312152938
83333.3312019743
83333.3311928322
83333.3311928905
83333.3311772026
83333.3311663361
83333.3311597513
83333.3311562936
83333.3311371793
83333.3311281502
83333.3311237263
83333.3311223526
83333.3315202738
83333.3315505046
83333.3315814191
83333.3311210854
83333.3311537379
83333.3311222028
83333.331186827
83333.3312222593
83333.3312607333
83333.3313022606
83333.3313458171
83333.3313896312
83333.3314328491
83333.3314734545
83333.3315103131
83333.3315477636
83333.3315756651
83333.3315939503
83333.3315988109
83333.3315891201
83333.3315690508
83333.3314915562
83333.3315209423
83333.3315179202
83333.3315547443
83333.3315521769
83333.3315446737
83333.331586109
83333.3315908412
83333.3315833098
83333.3315686344
83333.3316029067
83333.3316201323
83333.3316236626
83333.3316097124
83333.3315859895
83333.3315992446
83333.3316259289
83333.3316450179
83333.3316470025
83333.3316265862
83333.331594215
83333.3315892143
83333.3316111701
83333.3316382364
83333.3316579623
83333.3316565748
83333.3316295689
83333.3315887325
83333.3315980145
83333.3315986283
83333.3316171002
83333.3316428868
83333.3316588456
83333.331649447
83333.3316151173
83333.3316226946
83333.331613415
83333.3316090225
83333.3316207078
83333.3316385844
83333.331644297
83333.3316267109
83333.3315875183
83333.3316335392
83333.3316450634
83333.3316366617
83333.3316148681
83333.3316095124
83333.3316179602
83333.3316152995
83333.331592085
83333.3315505334
83333.3316220807
83333.3316626107
83333.3316995137
83333.3316820527
83333.331622646
83333.3315952509
83333.3315932462
83333.3315818566
83333.3315513549
83333.3315107525
83333.3314725498
83333.3315084472
83333.3315420019
83333.3315696475
83333.3315654745
83333.3316060916
83333.3316381272
83333.3316683741
83333.331649815
83333.3316088943
83333.3315857117
83333.3315687763
83333.3315439012
83333.3315076476
83333.3314678636
83333.3314320605
83333.3315197409
83333.3315658178
83333.3315966638
83333.3316051333
83333.331592021
83333.331568872
83333.3315541884
83333.331542588
83333.3315244812
83333.3314953178
83333.3314582274
83333.3314214593
83333.3313889923
83333.3314733756
83333.3315247968
83333.3315685345
83333.3315898198
83333.3315757337
83333.331539421
83333.3315107121
83333.3314984398
83333.3314885932
83333.3314691744
83333.3314391987
83333.3314049744
83333.3313727653
83333.3313448754
83333.3314229393
83333.3314785841
83333.3315347553
83333.3315762984
83333.3315787316
83333.3315407943
83333.3314922355
83333.3314611449
83333.3314464976
83333.3314323899
83333.3314098271
83333.331380472
83333.3313502888
83333.3313232687
83333.3313009524
83333.3313655158
83333.3314210903
83333.3314817242
83333.3315381527
83333.3315640432
83333.3315438152
83333.3314933745
83333.3314438755
83333.331411639
83333.3313919121
83333.3313724694
83333.3313479436
83333.3313210602
83333.3312959606
83333.3312750419
83333.3312590481
83333.3315095835
83333.3314778064
83333.3314296686
83333.3313859178
83333.331354444
83333.3313313358
83333.3313088909
83333.3312852552
83333.3312627348
83333.3312439154
83333.3312299511
83333.3312203918
83333.3314192253
83333.3313887505
83333.3313511481
83333.3313170242
83333.3312896843
83333.3312666131
83333.3312449612
83333.3312248942
83333.331208211
83333.3311964501
83333.3311892311
83333.3311850917
83333.3311697595
83333.3311597496
83333.3311547498
83333.3311529262
83333.3311526954
83333.3311216535
83333.3311179728
83333.3311180507
83333.3311192817
83333.331491252
83333.3315179071
83333.3315445463
83333.3311518312
83333.3311203192
83333.3311824477
83333.3312139485
83333.3312472266
83333.3312829239
83333.3313210166
83333.3313603245
83333.3313999041
83333.3314381551
83333.331472342
83333.3315051083
83333.3315343834
83333.3315546159
83333.3315647743
83333.3315638301
83333.3315529715
83333.3315349586
83333.3314666119
83333.3314914643
83333.3314898297
83333.3315196549
83333.3315186171
83333.3315135722
83333.331548062
83333.3315513741
83333.3315459899
83333.3315352249
83333.3315699838
83333.3315814218
83333.3315819303
83333.3315700949
83333.3315518298
83333.3315773231
83333.3315974651
83333.3316089365
83333.3316058395
83333.3315872292
83333.3315606223
83333.3315737177
83333.3315944428
83333.3316150177
83333.3316258793
83333.3316191783
83333.3315939356
83333.331559946